<event>
 7    1  0.2644565E-009  0.1104442E+03  0.7561462E-02  0.1259750E+00
          1   -1    0    0  501    0  0.00000000000E+00  0.00000000000E+00  0.11338021165E+04  0.11338021165E+04  0.00000000000E+00 0. -1.
         -1   -1    0    0    0  501 -0.00000000000E+00 -0.00000000000E+00 -0.16504916780E+02  0.16504916780E+02  0.00000000000E+00 0.  1.
         25    2    1    2    0    0  0.14189245287E+02  0.63328658659E+02  0.82291838977E+03  0.83489848343E+03  0.12509575423E+03 0.  0.
          5    1    3    3  502    0  0.53096011429E+02  0.63115487613E+02  0.72119645439E+03  0.72590946366E+03  0.41800000000E+01 0.  1.
         -5    1    3    3    0  502 -0.38906766143E+02  0.21317104517E+00  0.10172193538E+03  0.10898901978E+03  0.41800000000E+01 0.  1.
        -11    1    1    2    0    0  0.16355012873E+02 -0.66483563663E+02  0.26194479299E+03  0.27074457568E+03  0.00000000000E+00 0. -1.
         11    1    1    2    0    0 -0.30544258159E+02  0.31549050045E+01  0.32434016941E+02  0.44663974152E+02  0.00000000000E+00 0.  1.
</event>
<event>
 7    1  0.2644565E-009  0.9394646E+02  0.7561462E-02  0.1293567E+00
         -1   -1    0    0    0  501 -0.00000000000E+00  0.00000000000E+00  0.15772692883E+03  0.15772692883E+03  0.00000000000E+00 0.  1.
          1   -1    0    0  501    0  0.00000000000E+00 -0.00000000000E+00 -0.11380338044E+03  0.11380338044E+03  0.00000000000E+00 0. -1.
         25    2    1    2    0    0 -0.90612862524E+01  0.65837576392E+01 -0.52482828763E+02  0.13611659704E+03  0.12509127828E+03 0.  0.
          5    1    3    3  502    0 -0.29488162113E+02  0.43889175148E+02 -0.71759170955E+02  0.89233751553E+02  0.41800000000E+01 0. -1.
         -5    1    3    3    0  502  0.20426875861E+02 -0.37305417509E+02  0.19276342193E+02  0.46882845491E+02  0.41800000000E+01 0. -1.
        -11    1    1    2    0    0  0.50221041532E+02  0.11577908721E+01  0.35560443655E+02  0.61547044163E+02  0.00000000000E+00 0. -1.
         11    1    1    2    0    0 -0.41159755279E+02 -0.77415485113E+01  0.60845933494E+02  0.73866668063E+02  0.00000000000E+00 0.  1.
</event>
<event>
 7    1  0.2644565E-009  0.1083601E+03  0.7561462E-02  0.1263637E+00
         -2   -1    0    0    0  501 -0.00000000000E+00  0.00000000000E+00  0.56679364448E+02  0.56679364448E+02  0.00000000000E+00 0.  1.
          2   -1    0    0  501    0  0.00000000000E+00 -0.00000000000E+00 -0.64507583206E+03  0.64507583206E+03  0.00000000000E+00 0. -1.
         25    2    1    2    0    0 -0.10706865997E+01 -0.17455696179E+02 -0.59736776300E+03  0.61057543566E+03  0.12509304799E+03 0.  0.
          5    1    3    3  502    0  0.30423093009E+02 -0.63401589232E+02 -0.33502162264E+03  0.34234819430E+03  0.41800000000E+01 0. -1.
         -5    1    3    3    0  502 -0.31493779609E+02  0.45945893053E+02 -0.26234614036E+03  0.26822724136E+03  0.41800000000E+01 0. -1.
        -11    1    1    2    0    0  0.30278961076E+02  0.42332357719E+02  0.89676946305E+01  0.52813478780E+02  0.00000000000E+00 0.  1.
         11    1    1    2    0    0 -0.29208274476E+02 -0.24876661541E+02  0.36007547613E-02  0.38366282075E+02  0.00000000000E+00 0. -1.
</event>
<event>
 7    1  0.2644565E-009  0.1036513E+03  0.7561462E-02  0.1272800E+00
          1   -1    0    0  501    0  0.00000000000E+00  0.00000000000E+00  0.58187972789E+02  0.58187972789E+02  0.00000000000E+00 0. -1.
         -1   -1    0    0    0  501 -0.00000000000E+00 -0.00000000000E+00 -0.23538706967E+03  0.23538706967E+03  0.00000000000E+00 0.  1.
         25    2    1    2    0    0  0.36374725610E+02 -0.59455726119E+01 -0.69048260608E+02  0.14755964937E+03  0.12509083633E+03 0.  0.
          5    1    3    3  502    0 -0.63517561455E+01 -0.59442286905E+02 -0.19779515276E+02  0.63106512367E+02  0.41800000000E+01 0.  1.
         -5    1    3    3    0  502  0.42726481756E+02  0.53496714293E+02 -0.49268745332E+02  0.84453137005E+02  0.41800000000E+01 0.  1.
        -11    1    1    2    0    0 -0.12783972591E+02  0.37366179882E+02 -0.97667566394E+02  0.10534996383E+03  0.00000000000E+00 0.  1.
         11    1    1    2    0    0 -0.23590753019E+02 -0.31420607270E+02 -0.10483269882E+02  0.40665429257E+02  0.00000000000E+00 0. -1.
</event>
<event>
 7    1  0.2644565E-009  0.9066778E+02  0.7561462E-02  0.1301243E+00
          2   -1    0    0  501    0  0.00000000000E+00  0.00000000000E+00  0.39142256396E+03  0.39142256396E+03  0.00000000000E+00 0. -1.
         -2   -1    0    0    0  501 -0.00000000000E+00 -0.00000000000E+00 -0.33502265600E+02  0.33502265600E+02  0.00000000000E+00 0.  1.
         25    2    1    2    0    0  0.60742605734E+01 -0.32457496199E+02  0.23443382841E+03  0.26776463171E+03  0.12509313486E+03 0.  0.
          5    1    3    3  502    0  0.32392692577E+02 -0.67889399137E+02  0.19259372177E+03  0.20680442721E+03  0.41800000000E+01 0. -1.
         -5    1    3    3    0  502 -0.26318432004E+02  0.35431902939E+02  0.41840106643E+02  0.60960204502E+02  0.41800000000E+01 0. -1.
        -11    1    1    2    0    0  0.52061402221E+01  0.44708277125E+02  0.13127403049E+03  0.13877609671E+03  0.00000000000E+00 0. -1.
         11    1    1    2    0    0 -0.11280400796E+02 -0.12250780927E+02 -0.77875605384E+01  0.18384101135E+02  0.00000000000E+00 0.  1.
</event>
<event>
 7    1  0.2644565E-009  0.9342678E+02  0.7561462E-02  0.1294759E+00
          1   -1    0    0  501    0  0.00000000000E+00  0.00000000000E+00  0.25509327220E+02  0.25509327220E+02  0.00000000000E+00 0. -1.
         -1   -1    0    0    0  501 -0.00000000000E+00 -0.00000000000E+00 -0.53154705306E+03  0.53154705306E+03  0.00000000000E+00 0.  1.
         25    2    1    2    0    0 -0.15426895268E+02  0.31635089398E+02 -0.23256859412E+03  0.26641122696E+03  0.12509205770E+03 0.  0.
          5    1    3    3  502    0  0.22187914854E-01  0.59979034010E+02 -0.42630676097E+02  0.73704355079E+02  0.41800000000E+01 0.  1.
         -5    1    3    3    0  502 -0.15449083183E+02 -0.28343944612E+02 -0.18993791802E+03  0.19270687188E+03  0.41800000000E+01 0.  1.
        -11    1    1    2    0    0  0.29715560005E+02 -0.57446062634E+02 -0.22295878084E+03  0.23215012938E+03  0.00000000000E+00 0.  1.
         11    1    1    2    0    0 -0.14288664737E+02  0.25810973237E+02 -0.50510350876E+02  0.58495023934E+02  0.00000000000E+00 0. -1.
</event>
<event>
 7    1  0.2644565E-009  0.2131281E+03  0.7561462E-02  0.1139113E+00
          1   -1    0    0  501    0  0.00000000000E+00  0.00000000000E+00  0.13162461712E+04  0.13162461712E+04  0.00000000000E+00 0. -1.
         -1   -1    0    0    0  501 -0.00000000000E+00 -0.00000000000E+00 -0.39318804205E+02  0.39318804205E+02  0.00000000000E+00 0.  1.
         25    2    1    2    0    0  0.19482043022E+03 -0.11730495509E+02  0.79043806597E+03  0.82373134161E+03  0.12509349487E+03 0.  0.
          5    1    3    3  502    0  0.16568480724E+03  0.38712550194E+02  0.64309298499E+03  0.66523392625E+03  0.41800000000E+01 0.  1.
         -5    1    3    3    0  502  0.29135622982E+02 -0.50443045703E+02  0.14734508098E+03  0.15849741536E+03  0.41800000000E+01 0.  1.
        -11    1    1    2    0    0 -0.22327183501E+02 -0.86869139924E+01  0.12504926804E+02  0.27024781075E+02  0.00000000000E+00 0.  1.
         11    1    1    2    0    0 -0.17249324672E+03  0.20417409501E+02  0.47398437418E+03  0.50480885268E+03  0.00000000000E+00 0. -1.
</event>
<event>
 7    1  0.2644565E-009  0.2592148E+03  0.7561462E-02  0.1107616E+00
         -1   -1    0    0    0  501 -0.00000000000E+00  0.00000000000E+00  0.22564312282E+03  0.22564312282E+03  0.00000000000E+00 0.  1.
          1   -1    0    0  501    0  0.00000000000E+00 -0.00000000000E+00 -0.34711517130E+03  0.34711517130E+03  0.00000000000E+00 0. -1.
         25    2    1    2    0    0  0.23450727568E+03  0.99034439511E+02 -0.10602958966E+03  0.30282121361E+03  0.12512765870E+03 0.  0.
          5    1    3    3  502    0  0.20595045778E+03  0.10519325239E+03 -0.45854524633E+02  0.23579932408E+03  0.41800000000E+01 0. -1.
         -5    1    3    3    0  502  0.28556817901E+02 -0.61588128806E+01 -0.60175065028E+02  0.67021889528E+02  0.41800000000E+01 0. -1.
        -11    1    1    2    0    0 -0.10908168388E+03 -0.24771826224E+02 -0.46099754648E+02  0.12098613355E+03  0.00000000000E+00 0.  1.
         11    1    1    2    0    0 -0.12542559181E+03 -0.74262613287E+02  0.30657295834E+02  0.14895094696E+03  0.00000000000E+00 0. -1.
</event>
<event>
 7    1  0.2644565E-009  0.9557511E+02  0.7561462E-02  0.1289886E+00
         -2   -1    0    0    0  501 -0.00000000000E+00  0.00000000000E+00  0.62841177197E+03  0.62841177197E+03  0.00000000000E+00 0.  1.
          2   -1    0    0  501    0  0.00000000000E+00 -0.00000000000E+00 -0.26252953036E+02  0.26252953036E+02  0.00000000000E+00 0. -1.
         25    2    1    2    0    0  0.37603739435E+02  0.21039118668E+02  0.46582490092E+03  0.48424923930E+03  0.12509117359E+03 0.  0.
          5    1    3    3  502    0 -0.33761678115E+02 -0.18508664203E+02  0.25889390221E+03  0.26177461023E+03  0.41800000000E+01 0.  1.
         -5    1    3    3    0  502  0.71365417550E+02  0.39547782871E+02  0.20693099871E+03  0.22247462907E+03  0.41800000000E+01 0.  1.
        -11    1    1    2    0    0 -0.49199249316E+02 -0.30142196834E+01  0.14022185985E+03  0.14863317810E+03  0.00000000000E+00 0.  1.
         11    1    1    2    0    0  0.11595509881E+02 -0.18024898985E+02 -0.38879418363E+01  0.21782307603E+02  0.00000000000E+00 0. -1.
</event>
<event>
 7    1  0.2644565E-009  0.1045224E+03  0.7561462E-02  0.1271063E+00
          2   -1    0    0  501    0  0.00000000000E+00  0.00000000000E+00  0.78247677669E+02  0.78247677669E+02  0.00000000000E+00 0. -1.
         -2   -1    0    0    0  501 -0.00000000000E+00 -0.00000000000E+00 -0.22043885963E+03  0.22043885963E+03  0.00000000000E+00 0.  1.
         25    2    1    2    0    0  0.45911041291E+02 -0.45303013295E+02 -0.11587618244E+03  0.18230497281E+03  0.12509047418E+03 0.  0.
          5    1    3    3  502    0 -0.21693111530E+02 -0.17080435884E+02  0.15417050079E+02  0.31898122374E+02  0.41800000000E+01 0. -1.
         -5    1    3    3    0  502  0.67604152821E+02 -0.28222577411E+02 -0.13129323252E+03  0.15040685044E+03  0.41800000000E+01 0. -1.
        -11    1    1    2    0    0  0.16971335961E+02  0.41394325682E+02  0.67235852267E+01  0.45240723262E+02  0.00000000000E+00 0. -1.
         11    1    1    2    0    0 -0.62882377252E+02  0.39086876134E+01 -0.33038584748E+02  0.71140841223E+02  0.00000000000E+00 0.  1.
</event>
<event>
 7    1  0.2644565E-009  0.1425658E+03  0.7561462E-02  0.1209918E+00
          1   -1    0    0  501    0  0.00000000000E+00  0.00000000000E+00  0.13858567986E+04  0.13858567986E+04  0.00000000000E+00 0. -1.
         -1   -1    0    0    0  501 -0.00000000000E+00 -0.00000000000E+00 -0.23300387194E+02  0.23300387194E+02  0.00000000000E+00 0.  1.
         25    2    1    2    0    0 -0.12210626443E+03 -0.37813472434E+02  0.97403430785E+03  0.99031779787E+03  0.12508680740E+03 0.  0.
          5    1    3    3  502    0 -0.81626346384E+02 -0.42614756331E+02  0.90755550557E+03  0.91222439453E+03  0.41800000000E+01 0.  1.
         -5    1    3    3    0  502 -0.40479918044E+02  0.48012838972E+01  0.66478802277E+02  0.78093403332E+02  0.41800000000E+01 0.  1.
        -11    1    1    2    0    0  0.11265757037E+03  0.60161544679E+02  0.35633817923E+03  0.37853406399E+03  0.00000000000E+00 0.  1.
         11    1    1    2    0    0  0.94486940576E+01 -0.22348072245E+02  0.32183924277E+02  0.40305323895E+02  0.00000000000E+00 0. -1.
</event>
<event>
 7    1  0.2644565E-009  0.8038909E+02  0.7561462E-02  0.1327951E+00
         -2   -1    0    0    0  501 -0.00000000000E+00  0.00000000000E+00  0.24346085791E+02  0.24346085791E+02  0.00000000000E+00 0.  1.
          2   -1    0    0  501    0  0.00000000000E+00 -0.00000000000E+00 -0.64416900516E+03  0.64416900516E+03  0.00000000000E+00 0. -1.
         25    2    1    2    0    0 -0.62633523287E+02  0.13493334639E+02 -0.36441236060E+03  0.39057555224E+03  0.12509142707E+03 0.  0.
          5    1    3    3  502    0 -0.32459625607E+01  0.85464405394E+00 -0.30655526331E+03  0.30660213397E+03  0.41800000000E+01 0. -1.
         -5    1    3    3    0  502 -0.59387560726E+02  0.12638690585E+02 -0.57857097286E+02  0.83973418265E+02  0.41800000000E+01 0. -1.
        -11    1    1    2    0    0  0.77416018470E+02 -0.17226463054E+02 -0.24913124171E+03  0.26145050495E+03  0.00000000000E+00 0.  1.
         11    1    1    2    0    0 -0.14782495183E+02  0.37331284148E+01 -0.62793170572E+01  0.16489033759E+02  0.00000000000E+00 0. -1.
</event>
<event>
 7    1  0.2644565E-009  0.1008359E+03  0.7561462E-02  0.1278548E+00
          1   -1    0    0  501    0  0.00000000000E+00  0.00000000000E+00  0.79661717676E+03  0.79661717676E+03  0.00000000000E+00 0. -1.
         -1   -1    0    0    0  501 -0.00000000000E+00 -0.00000000000E+00 -0.14682718601E+02  0.14682718601E+02  0.00000000000E+00 0.  1.
         25    2    1    2    0    0  0.12543269471E+02  0.47778100515E+01  0.47421981321E+03  0.49062419157E+03  0.12508998772E+03 0.  0.
          5    1    3    3  502    0 -0.11931566222E+02 -0.52814294228E+02  0.13250611647E+03  0.14320284651E+03  0.41800000000E+01 0. -1.
         -5    1    3    3    0  502  0.24474835692E+02  0.57592104279E+02  0.34171369674E+03  0.34742134505E+03  0.41800000000E+01 0. -1.
        -11    1    1    2    0    0  0.85648421348E+01  0.36926748202E+02  0.19505556481E+03  0.19870484297E+03  0.00000000000E+00 0.  1.
         11    1    1    2    0    0 -0.21108111606E+02 -0.41704558253E+02  0.11265908013E+03  0.12197086082E+03  0.00000000000E+00 0. -1.
</event>
<event>
 7    1  0.2644565E-009  0.1938448E+03  0.7561462E-02  0.1155039E+00
          2   -1    0    0  501    0  0.00000000000E+00  0.00000000000E+00  0.17678295273E+04  0.17678295273E+04  0.00000000000E+00 0.  1.
         -2   -1    0    0    0  501 -0.00000000000E+00 -0.00000000000E+00 -0.25274271546E+02  0.25274271546E+02  0.00000000000E+00 0. -1.
         25    2    1    2    0    0  0.17801153567E+03 -0.22638380739E+01  0.10551081698E+04  0.10773096514E+04  0.12509837440E+03 0.  0.
          5    1    3    3  502    0  0.45923749019E+02 -0.44519824603E+02  0.54189134380E+03  0.54566904475E+03  0.41800000000E+01 0.  1.
         -5    1    3    3    0  502  0.13208778665E+03  0.42255986529E+02  0.51321682595E+03  0.53164060663E+03  0.41800000000E+01 0.  1.
        -11    1    1    2    0    0 -0.10804579876E+03  0.25700388939E+02  0.53529034970E+03  0.54669018932E+03  0.00000000000E+00 0.  1.
         11    1    1    2    0    0 -0.69965736918E+02 -0.23436550866E+02  0.15215673631E+03  0.16910395816E+03  0.00000000000E+00 0. -1.
</event>
<event>
 7    1  0.2743957E-009  0.1038731E+03  0.7561462E-02  0.1272356E+00
          1   -1    0    0  501    0  0.00000000000E+00  0.00000000000E+00  0.39724738686E+03  0.39724738686E+03  0.00000000000E+00 0. -1.
         -1   -1    0    0    0  501 -0.00000000000E+00 -0.00000000000E+00 -0.49064704547E+02  0.49064704547E+02  0.00000000000E+00 0.  1.
         25    2    1    2    0    0  0.97535497132E+01  0.78225031974E+02  0.25122217048E+03  0.29150472206E+03  0.12509251251E+03 0.  0.
          5    1    3    3  502    0 -0.25572933201E+02  0.55676880200E+02  0.33915609535E+02  0.70154336084E+02  0.41800000000E+01 0. -1.
         -5    1    3    3    0  502  0.35326482914E+02  0.22548151774E+02  0.21730656094E+03  0.22135038598E+03  0.41800000000E+01 0. -1.
        -11    1    1    2    0    0  0.21062019246E+02 -0.10164113366E+01 -0.65193624917E+01  0.22071335121E+02  0.00000000000E+00 0.  1.
         11    1    1    2    0    0 -0.30815568959E+02 -0.77208620637E+02  0.10347987433E+03  0.13273603423E+03  0.00000000000E+00 0. -1.
</event>
<event>
 7    1  0.2644565E-009  0.1264862E+03  0.7561462E-02  0.1232765E+00
          1   -1    0    0  501    0  0.00000000000E+00  0.00000000000E+00  0.37558820474E+03  0.37558820474E+03  0.00000000000E+00 0. -1.
         -1   -1    0    0    0  501 -0.00000000000E+00 -0.00000000000E+00 -0.48232561708E+02  0.48232561708E+02  0.00000000000E+00 0.  1.
         25    2    1    2    0    0  0.74074775932E+02  0.18668890415E+02  0.16580966319E+03  0.22130361236E+03  0.12508734763E+03 0.  0.
          5    1    3    3  502    0 -0.23483544219E+02 -0.27111380321E+02  0.61185011739E+02  0.71046335962E+02  0.41800000000E+01 0. -1.
         -5    1    3    3    0  502  0.97558320151E+02  0.45780270736E+02  0.10462465145E+03  0.15025727640E+03  0.41800000000E+01 0. -1.
        -11    1    1    2    0    0  0.74021387160E+01  0.18152837837E+02  0.77023086910E+02  0.79478758774E+02  0.00000000000E+00 0. -1.
         11    1    1    2    0    0 -0.81476914648E+02 -0.36821728251E+02  0.84522892936E+02  0.12303839532E+03  0.00000000000E+00 0.  1.
</event>
<event>
 7    1  0.2644565E-009  0.6964366E+02  0.7561462E-02  0.1361309E+00
          1   -1    0    0  501    0  0.00000000000E+00  0.00000000000E+00  0.40066566140E+02  0.40066566140E+02  0.00000000000E+00 0. -1.
         -1   -1    0    0    0  501 -0.00000000000E+00 -0.00000000000E+00 -0.17309135666E+03  0.17309135666E+03  0.00000000000E+00 0.  1.
         25    2    1    2    0    0  0.75678370734E+01 -0.13267260684E+02 -0.72692871721E+02  0.14548122251E+03  0.12508892893E+03 0.  0.
          5    1    3    3  502    0  0.61675536284E+01  0.49370153122E+02 -0.67593281183E+00  0.49933756340E+02  0.41800000000E+01 0.  1.
         -5    1    3    3    0  502  0.14002834449E+01 -0.62637413806E+02 -0.72016938909E+02  0.95547466172E+02  0.41800000000E+01 0.  1.
        -11    1    1    2    0    0  0.52214768312E+01  0.12736751635E+02 -0.14099269686E+02  0.19704772726E+02  0.00000000000E+00 0. -1.
         11    1    1    2    0    0 -0.12789313905E+02  0.53050904953E+00 -0.46232649115E+02  0.47971927564E+02  0.00000000000E+00 0.  1.
</event>
<event>
 7    1  0.2644565E-009  0.2125836E+03  0.7561462E-02  0.1139536E+00
          1   -1    0    0  501    0  0.00000000000E+00  0.00000000000E+00  0.94374344365E+02  0.94374344365E+02  0.00000000000E+00 0. -1.
         -1   -1    0    0    0  501 -0.00000000000E+00 -0.00000000000E+00 -0.54503453585E+03  0.54503453585E+03  0.00000000000E+00 0.  1.
         25    2    1    2    0    0  0.19625965918E+03  0.52307007601E+01 -0.28762252362E+03  0.37002625075E+03  0.12508995202E+03 0.  0.
          5    1    3    3  502    0 -0.97965585244E+01 -0.18204437456E+02 -0.96577339471E+01  0.23197377589E+02  0.41800000000E+01 0.  1.
         -5    1    3    3    0  502  0.20605621771E+03  0.23435138216E+02 -0.27796478967E+03  0.34682887316E+03  0.41800000000E+01 0.  1.
        -11    1    1    2    0    0 -0.10024856710E+03 -0.82777229457E+01 -0.13680537034E+03  0.16980578688E+03  0.00000000000E+00 0. -1.
         11    1    1    2    0    0 -0.96011092077E+02  0.30470221856E+01 -0.26232297520E+02  0.99576842585E+02  0.00000000000E+00 0.  1.
</event>
<event>
 7    1  0.2644565E-009  0.7240655E+02  0.7561462E-02  0.1352096E+00
         -2   -1    0    0    0  501 -0.00000000000E+00  0.00000000000E+00  0.32092147365E+02  0.32092147365E+02  0.00000000000E+00 0.  1.
          2   -1    0    0  501    0  0.00000000000E+00 -0.00000000000E+00 -0.58659079813E+03  0.58659079813E+03  0.00000000000E+00 0. -1.
         25    2    1    2    0    0 -0.54555665460E+02  0.44813836550E+02 -0.41409784480E+03  0.43829774429E+03  0.12507312663E+03 0.  0.
          5    1    3    3  502    0 -0.20031151764E+01  0.68921852660E+01  0.78221011291E+01  0.11409309980E+02  0.41800000000E+01 0. -1.
         -5    1    3    3    0  502 -0.52552550284E+02  0.37921651284E+02 -0.42191994593E+03  0.42688843431E+03  0.41800000000E+01 0. -1.
        -11    1    1    2    0    0  0.74700920072E+01 -0.12142394290E+02  0.11318204879E+02  0.18202795812E+02  0.00000000000E+00 0.  1.
         11    1    1    2    0    0  0.47085573453E+02 -0.32671442260E+02 -0.15171901084E+03  0.16218240539E+03  0.00000000000E+00 0. -1.
</event>
<event>
 7    1  0.2644565E-009  0.1428263E+03  0.7561462E-02  0.1209576E+00
          2   -1    0    0  501    0  0.00000000000E+00  0.00000000000E+00  0.60798032907E+03  0.60798032907E+03  0.00000000000E+00 0. -1.
         -2   -1    0    0    0  501 -0.00000000000E+00 -0.00000000000E+00 -0.43545466423E+02  0.43545466423E+02  0.00000000000E+00 0.  1.
         25    2    1    2    0    0 -0.10723755937E+03  0.41068155955E+02  0.38015508407E+03  0.41635496404E+03  0.12508829109E+03 0.  0.
          5    1    3    3  502    0 -0.11600002235E+03  0.52103986307E+02  0.38094943192E+03  0.40163512378E+03  0.41800000000E+01 0.  1.
         -5    1    3    3    0  502  0.87624629753E+01 -0.11035830352E+02 -0.79434785015E+00  0.14719840266E+02  0.41800000000E+01 0.  1.
        -11    1    1    2    0    0 -0.11461113043E+02 -0.20166742570E+02  0.47534307290E+02  0.52892012512E+02  0.00000000000E+00 0.  1.
         11    1    1    2    0    0  0.11869867242E+03 -0.20901413385E+02  0.13674547129E+03  0.18227881894E+03  0.00000000000E+00 0. -1.
</event>
<event>
 7    1  0.2644565E-009  0.8000484E+02  0.7561462E-02  0.1329038E+00
         -3   -1    0    0    0  501 -0.00000000000E+00  0.00000000000E+00  0.38055763754E+03  0.38055763754E+03  0.00000000000E+00 0.  1.
          3   -1    0    0  501    0  0.00000000000E+00 -0.00000000000E+00 -0.39799898943E+02  0.39799898943E+02  0.00000000000E+00 0. -1.
         25    2    1    2    0    0 -0.32884790479E+02 -0.39796778656E+02  0.22880512977E+03  0.26582756908E+03  0.12508923230E+03 0.  0.
          5    1    3    3  502    0 -0.59303061125E+02 -0.42487517298E+01  0.20863596304E+03  0.21698235509E+03  0.41800000000E+01 0. -1.
         -5    1    3    3    0  502  0.26418270646E+02 -0.35548026926E+02  0.20169166730E+02  0.48845213981E+02  0.41800000000E+01 0. -1.
        -11    1    1    2    0    0  0.46832596849E+01  0.22181049176E+02 -0.12378406124E+02  0.25829378660E+02  0.00000000000E+00 0. -1.
         11    1    1    2    0    0  0.28201530794E+02  0.17615729480E+02  0.12433101495E+03  0.12870058875E+03  0.00000000000E+00 0.  1.
</event>
<event>
 7    1  0.2644565E-009  0.1069855E+03  0.7561462E-02  0.1266256E+00
          1   -1    0    0  501    0  0.00000000000E+00  0.00000000000E+00  0.24275288731E+02  0.24275288731E+02  0.00000000000E+00 0. -1.
         -1   -1    0    0    0  501 -0.00000000000E+00 -0.00000000000E+00 -0.57032286047E+03  0.57032286047E+03  0.00000000000E+00 0.  1.
         25    2    1    2    0    0  0.36777227447E+02 -0.14781063463E+02 -0.25425441813E+03  0.28612276699E+03  0.12509949782E+03 0.  0.
          5    1    3    3  502    0  0.58370923106E+02  0.40603747715E+02 -0.12711931045E+03  0.14571417392E+03  0.41800000000E+01 0. -1.
         -5    1    3    3    0  502 -0.21593695658E+02 -0.55384811178E+02 -0.12713510769E+03  0.14040859307E+03  0.41800000000E+01 0. -1.
        -11    1    1    2    0    0 -0.20520122649E+02 -0.29525919174E+02 -0.47012245573E+02  0.59186202534E+02  0.00000000000E+00 0. -1.
         11    1    1    2    0    0 -0.16257104799E+02  0.44306982637E+02 -0.24478090803E+03  0.24928917967E+03  0.00000000000E+00 0.  1.
</event>
<event>
 7    1  0.2644565E-009  0.8954374E+02  0.7561462E-02  0.1303960E+00
          1   -1    0    0  501    0  0.00000000000E+00  0.00000000000E+00  0.12749473952E+03  0.12749473952E+03  0.00000000000E+00 0. -1.
         -1   -1    0    0    0  501 -0.00000000000E+00 -0.00000000000E+00 -0.14550572704E+03  0.14550572704E+03  0.00000000000E+00 0.  1.
         25    2    1    2    0    0 -0.43472203140E+02 -0.18579394897E+02 -0.77441023487E+02  0.15453030334E+03  0.12508987238E+03 0.  0.
          5    1    3    3  502    0 -0.51882552135E+02  0.16427608283E+02 -0.98499954920E+02  0.11261162928E+03  0.41800000000E+01 0. -1.
         -5    1    3    3    0  502  0.84103489942E+01 -0.35007003180E+02  0.21058931432E+02  0.41918674060E+02  0.41800000000E+01 0. -1.
        -11    1    1    2    0    0  0.12370021137E+02  0.45484433515E+02  0.61270933358E+02  0.77304452586E+02  0.00000000000E+00 0. -1.
         11    1    1    2    0    0  0.31102182004E+02 -0.26905038617E+02 -0.18408973926E+01  0.41165710629E+02  0.00000000000E+00 0.  1.
</event>
<event>
 7    1  0.2644565E-009  0.8844825E+02  0.7561462E-02  0.1306654E+00
         -1   -1    0    0    0  501 -0.00000000000E+00  0.00000000000E+00  0.51909741479E+02  0.51909741479E+02  0.00000000000E+00 0.  1.
          1   -1    0    0  501    0  0.00000000000E+00 -0.00000000000E+00 -0.25028056245E+03  0.25028056245E+03  0.00000000000E+00 0. -1.
         25    2    1    2    0    0 -0.21055511715E+02  0.32288112057E+01 -0.74027424244E+02  0.14690328082E+03  0.12508698806E+03 0.  0.
          5    1    3    3  502    0  0.30842348778E+01 -0.50820128096E+02 -0.71020858491E+02  0.87485042523E+02  0.41800000000E+01 0. -1.
         -5    1    3    3    0  502 -0.24139746593E+02  0.54048939302E+02 -0.30065657530E+01  0.59418238301E+02  0.41800000000E+01 0. -1.
        -11    1    1    2    0    0  0.15038944923E+02 -0.32910632260E+02 -0.10781421706E+02  0.37756041029E+02  0.00000000000E+00 0.  1.
         11    1    1    2    0    0  0.60165667917E+01  0.29681821054E+02 -0.11356197502E+03  0.11753098207E+03  0.00000000000E+00 0. -1.
</event>
<event>
 7    1  0.2644565E-009  0.2837354E+03  0.7561462E-02  0.1093666E+00
          2   -1    0    0  501    0  0.00000000000E+00  0.00000000000E+00  0.14509630770E+04  0.14509630770E+04  0.00000000000E+00 0. -1.
         -2   -1    0    0    0  501 -0.00000000000E+00 -0.00000000000E+00 -0.82457885309E+02  0.82457885309E+02  0.00000000000E+00 0.  1.
         25    2    1    2    0    0  0.10756920343E+03  0.25275283286E+03  0.29704423167E+03  0.42348224100E+03  0.12508718889E+03 0.  0.
          5    1    3    3  502    0  0.71831239682E+02  0.22483280386E+03  0.29509176576E+03  0.37789699563E+03  0.41800000000E+01 0.  1.
         -5    1    3    3    0  502  0.35737963749E+02  0.27920028999E+02  0.19524659148E+01  0.45585245369E+02  0.41800000000E+01 0.  1.
        -11    1    1    2    0    0 -0.11041089655E+03 -0.16783232320E+03  0.66455660923E+03  0.69425769111E+03  0.00000000000E+00 0. -1.
         11    1    1    2    0    0  0.28416931222E+01 -0.84920509660E+02  0.40690435078E+03  0.41568103020E+03  0.00000000000E+00 0.  1.
</event>
<event>
 7    1  0.2644565E-009  0.1034305E+03  0.7561462E-02  0.1273243E+00
         -1   -1    0    0    0  501 -0.00000000000E+00  0.00000000000E+00  0.55290189695E+02  0.55290189695E+02  0.00000000000E+00 0.  1.
          1   -1    0    0  501    0  0.00000000000E+00 -0.00000000000E+00 -0.25981174466E+03  0.25981174466E+03  0.00000000000E+00 0. -1.
         25    2    1    2    0    0 -0.32938943538E+02  0.73515304076E+01 -0.65202996052E+02  0.14504101939E+03  0.12508576103E+03 0.  0.
          5    1    3    3  502    0 -0.30408631662E+02  0.61954396942E+02 -0.57004391819E+02  0.89610296656E+02  0.41800000000E+01 0.  1.
         -5    1    3    3    0  502 -0.25303118757E+01 -0.54602866535E+02 -0.81986042332E+01  0.55430722739E+02  0.41800000000E+01 0.  1.
        -11    1    1    2    0    0  0.39990353922E+02  0.26726275833E+02 -0.12210419571E+03  0.13123626342E+03  0.00000000000E+00 0. -1.
         11    1    1    2    0    0 -0.70514103836E+01 -0.34077806241E+02 -0.17214363199E+02  0.38824651536E+02  0.00000000000E+00 0.  1.
</event>
<event>
 7    1  0.2644565E-009  0.2156494E+03  0.7561462E-02  0.1137169E+00
         -1   -1    0    0    0  501 -0.00000000000E+00  0.00000000000E+00  0.16519764700E+03  0.16519764700E+03  0.00000000000E+00 0.  1.
          1   -1    0    0  501    0  0.00000000000E+00 -0.00000000000E+00 -0.34940138585E+03  0.34940138585E+03  0.00000000000E+00 0. -1.
         25    2    1    2    0    0  0.54093015928E+02 -0.18978753819E+03 -0.58871804513E+01  0.23372453677E+03  0.12508851333E+03 0.  0.
          5    1    3    3  502    0 -0.52101121869E+01  0.13761363717E+02  0.14006151092E+02  0.20740421133E+02  0.41800000000E+01 0. -1.
         -5    1    3    3    0  502  0.59303128115E+02 -0.20354890191E+03 -0.19893331544E+02  0.21298411563E+03  0.41800000000E+01 0. -1.
        -11    1    1    2    0    0 -0.55969653400E+02  0.10369363254E+03 -0.14887776217E+03  0.18986721571E+03  0.00000000000E+00 0. -1.
         11    1    1    2    0    0  0.18766374720E+01  0.86093905655E+02 -0.29438796218E+02  0.91007280378E+02  0.00000000000E+00 0.  1.
</event>
<event>
 7    1  0.2644565E-009  0.1840407E+03  0.7561462E-02  0.1163949E+00
          2   -1    0    0  501    0  0.00000000000E+00  0.00000000000E+00  0.34005522947E+03  0.34005522947E+03  0.00000000000E+00 0. -1.
         -2   -1    0    0    0  501 -0.00000000000E+00 -0.00000000000E+00 -0.22733963955E+03  0.22733963955E+03  0.00000000000E+00 0.  1.
         25    2    1    2    0    0 -0.46228471922E+02 -0.16299999279E+03  0.25340615977E+03  0.32950175007E+03  0.12510256682E+03 0.  0.
          5    1    3    3  502    0  0.28665241172E+01 -0.12267634642E+03  0.84647888646E+02  0.14913229155E+03  0.41800000000E+01 0.  1.
         -5    1    3    3    0  502 -0.49094996039E+02 -0.40323646369E+02  0.16875827112E+03  0.18036945852E+03  0.41800000000E+01 0.  1.
        -11    1    1    2    0    0  0.83098343171E+01  0.13305471078E+03 -0.13416535124E+03  0.18913738625E+03  0.00000000000E+00 0.  1.
         11    1    1    2    0    0  0.37918637605E+02  0.29945282014E+02 -0.65252186104E+01  0.48755732695E+02  0.00000000000E+00 0. -1.
</event>
<event>
 7    1  0.2644565E-009  0.2042599E+03  0.7561462E-02  0.1146194E+00
         -2   -1    0    0    0  501 -0.00000000000E+00  0.00000000000E+00  0.32209482283E+03  0.32209482283E+03  0.00000000000E+00 0.  1.
          2   -1    0    0  501    0  0.00000000000E+00 -0.00000000000E+00 -0.23251616636E+03  0.23251616636E+03  0.00000000000E+00 0. -1.
         25    2    1    2    0    0  0.17146249928E+03 -0.28912494416E+02 -0.13771839564E+03  0.25465406238E+03  0.12508802499E+03 0.  0.
          5    1    3    3  502    0  0.62951070627E+02  0.49423366253E+02 -0.56354650183E+02  0.97973595536E+02  0.41800000000E+01 0. -1.
         -5    1    3    3    0  502  0.10851142865E+03 -0.78335860670E+02 -0.81363745455E+02  0.15668046684E+03  0.41800000000E+01 0. -1.
        -11    1    1    2    0    0 -0.11780437119E+03  0.60272753498E+02  0.16994446563E+03  0.21538754858E+03  0.00000000000E+00 0.  1.
         11    1    1    2    0    0 -0.53658128092E+02 -0.31360259082E+02  0.57352586480E+02  0.84569378241E+02  0.00000000000E+00 0. -1.
</event>
<event>
 7    1  0.2644565E-009  0.1303909E+03  0.7561462E-02  0.1226877E+00
         -2   -1    0    0    0  501 -0.00000000000E+00  0.00000000000E+00  0.27588223202E+02  0.27588223202E+02  0.00000000000E+00 0.  1.
          2   -1    0    0  501    0  0.00000000000E+00 -0.00000000000E+00 -0.67298349204E+03  0.67298349204E+03  0.00000000000E+00 0. -1.
         25    2    1    2    0    0 -0.69675788122E+02  0.40663230236E+02 -0.40696542960E+03  0.43333268985E+03  0.12509254757E+03 0.  0.
          5    1    3    3  502    0 -0.32902195880E+02 -0.41453592926E+02 -0.97388597795E+02  0.11091873710E+03  0.41800000000E+01 0. -1.
         -5    1    3    3    0  502 -0.36773592242E+02  0.82116823163E+02 -0.30957683181E+03  0.32241395275E+03  0.41800000000E+01 0. -1.
        -11    1    1    2    0    0  0.31933543670E+02 -0.65202722673E+02 -0.17494857330E+03  0.18941528332E+03  0.00000000000E+00 0.  1.
         11    1    1    2    0    0  0.37742244452E+02  0.24539492437E+02 -0.63481265930E+02  0.77823742068E+02  0.00000000000E+00 0. -1.
</event>
<event>
 7    1  0.2644565E-009  0.1246167E+03  0.7561462E-02  0.1235670E+00
         -2   -1    0    0    0  501 -0.00000000000E+00  0.00000000000E+00  0.58932322131E+02  0.58932322131E+02  0.00000000000E+00 0. -1.
          2   -1    0    0  501    0  0.00000000000E+00 -0.00000000000E+00 -0.28765034073E+03  0.28765034073E+03  0.00000000000E+00 0.  1.
         25    2    1    2    0    0 -0.68962403486E+02  0.45121671504E+01 -0.14506091013E+03  0.20363100847E+03  0.12508695861E+03 0.  0.
          5    1    3    3  502    0 -0.44618527282E+02  0.63723086469E+02 -0.90497849265E+02  0.11941012456E+03  0.41800000000E+01 0. -1.
         -5    1    3    3    0  502 -0.24343876204E+02 -0.59210919318E+02 -0.54563060868E+02  0.84220883909E+02  0.41800000000E+01 0. -1.
        -11    1    1    2    0    0  0.54287426345E+02 -0.40879161908E+02 -0.77799279664E+02  0.10330033133E+03  0.00000000000E+00 0.  1.
         11    1    1    2    0    0  0.14674977140E+02  0.36366994758E+02 -0.58578288005E+01  0.39651323055E+02  0.00000000000E+00 0. -1.
</event>
<event>
 7    1  0.2644565E-009  0.1567253E+03  0.7561462E-02  0.1192444E+00
         -1   -1    0    0    0  501 -0.00000000000E+00  0.00000000000E+00  0.30433962561E+03  0.30433962561E+03  0.00000000000E+00 0.  1.
          1   -1    0    0  501    0  0.00000000000E+00 -0.00000000000E+00 -0.97238040461E+02  0.97238040461E+02  0.00000000000E+00 0. -1.
         25    2    1    2    0    0 -0.94287710896E+01 -0.11954490695E+03  0.17787879059E+03  0.24832978719E+03  0.12508769948E+03 0.  0.
          5    1    3    3  502    0 -0.65199735435E+02 -0.43014984608E+02  0.73524670968E+02  0.10735289490E+03  0.41800000000E+01 0. -1.
         -5    1    3    3    0  502  0.55770964345E+02 -0.76529922342E+02  0.10435411962E+03  0.14097689229E+03  0.41800000000E+01 0. -1.
        -11    1    1    2    0    0 -0.28882030325E+02  0.81425113209E+02  0.44366378679E+02  0.97121554219E+02  0.00000000000E+00 0.  1.
         11    1    1    2    0    0  0.38310801415E+02  0.38119793741E+02 -0.15143584125E+02  0.56126324662E+02  0.00000000000E+00 0. -1.
</event>
<event>
 7    1  0.2644565E-009  0.8449727E+02  0.7561462E-02  0.1316752E+00
          3   -1    0    0  501    0  0.00000000000E+00  0.00000000000E+00  0.29712933625E+02  0.29712933625E+02  0.00000000000E+00 0. -1.
         -3   -1    0    0    0  501 -0.00000000000E+00 -0.00000000000E+00 -0.61153750625E+03  0.61153750625E+03  0.00000000000E+00 0.  1.
         25    2    1    2    0    0  0.67386242682E+02 -0.77010484180E+01 -0.44148954174E+03  0.46385371739E+03  0.12508814420E+03 0.  0.
          5    1    3    3  502    0  0.10743687543E+02 -0.95466086914E+01 -0.37936132304E+03  0.37965648998E+03  0.41800000000E+01 0.  1.
         -5    1    3    3    0  502  0.56642555139E+02  0.18455602735E+01 -0.62128218694E+02  0.84197227410E+02  0.41800000000E+01 0.  1.
        -11    1    1    2    0    0 -0.53327611054E+02 -0.26989992371E+02 -0.12169671251E+03  0.13558164930E+03  0.00000000000E+00 0.  1.
         11    1    1    2    0    0 -0.14058631628E+02  0.34691040789E+02 -0.18638318368E+02  0.41815073190E+02  0.00000000000E+00 0. -1.
</event>
<event>
 7    1  0.2644565E-009  0.9663703E+02  0.7561462E-02  0.1287531E+00
         -2   -1    0    0    0  501 -0.00000000000E+00  0.00000000000E+00  0.20335697236E+02  0.20335697236E+02  0.00000000000E+00 0. -1.
          2   -1    0    0  501    0  0.00000000000E+00 -0.00000000000E+00 -0.79153850395E+03  0.79153850395E+03  0.00000000000E+00 0.  1.
         25    2    1    2    0    0 -0.25581806181E+02 -0.55965586621E+02 -0.42612162086E+03  0.44834545543E+03  0.12508971163E+03 0.  0.
          5    1    3    3  502    0 -0.30598291102E+02 -0.99229067478E+01 -0.17062238852E+02  0.36651219507E+02  0.41800000000E+01 0. -1.
         -5    1    3    3    0  502  0.50164849216E+01 -0.46042679873E+02 -0.40905938200E+03  0.41169423593E+03  0.41800000000E+01 0. -1.
        -11    1    1    2    0    0  0.43932411137E+02 -0.10676169528E+02 -0.13609780606E+03  0.14341077421E+03  0.00000000000E+00 0.  1.
         11    1    1    2    0    0 -0.18350604956E+02  0.66641756149E+02 -0.20898337980E+03  0.22011797155E+03  0.00000000000E+00 0. -1.
</event>
<event>
 7    1  0.2644565E-009  0.1063450E+03  0.7561462E-02  0.1267492E+00
         -1   -1    0    0    0  501 -0.00000000000E+00  0.00000000000E+00  0.72222653432E+02  0.72222653432E+02  0.00000000000E+00 0.  1.
          1   -1    0    0  501    0  0.00000000000E+00 -0.00000000000E+00 -0.37711782799E+03  0.37711782799E+03  0.00000000000E+00 0. -1.
         25    2    1    2    0    0 -0.54089153267E+02 -0.28832419955E+02 -0.30933692460E+03  0.33925517095E+03  0.12509113941E+03 0.  0.
          5    1    3    3  502    0  0.35809484783E+00 -0.68483249906E+02 -0.11971658674E+03  0.13798411971E+03  0.41800000000E+01 0.  1.
         -5    1    3    3    0  502 -0.54447248115E+02  0.39650829951E+02 -0.18962033785E+03  0.20127105125E+03  0.41800000000E+01 0.  1.
        -11    1    1    2    0    0  0.23061671564E+02 -0.11449543178E+02 -0.36594910077E+02  0.44745057580E+02  0.00000000000E+00 0. -1.
         11    1    1    2    0    0  0.31027481703E+02  0.40281963133E+02  0.41036660112E+02  0.65340252891E+02  0.00000000000E+00 0.  1.
</event>
<event>
 7    1  0.2644565E-009  0.1198707E+03  0.7561462E-02  0.1243310E+00
         -2   -1    0    0    0  501 -0.00000000000E+00  0.00000000000E+00  0.19824154439E+03  0.19824154439E+03  0.00000000000E+00 0.  1.
          2   -1    0    0  501    0  0.00000000000E+00 -0.00000000000E+00 -0.20081746316E+03  0.20081746316E+03  0.00000000000E+00 0. -1.
         25    2    1    2    0    0  0.23373451278E+02  0.51423139480E+02 -0.15707754695E+03  0.20859360698E+03  0.12508908673E+03 0.  0.
          5    1    3    3  502    0 -0.43134140255E+02  0.44952860676E+02 -0.11087169520E+03  0.12724511360E+03  0.41800000000E+01 0.  1.
         -5    1    3    3    0  502  0.66507591533E+02  0.64702788042E+01 -0.46205851752E+02  0.81348493381E+02  0.41800000000E+01 0.  1.
        -11    1    1    2    0    0  0.10523010645E+02 -0.70616196809E+02  0.11193114404E+03  0.13276280357E+03  0.00000000000E+00 0.  1.
         11    1    1    2    0    0 -0.33896461923E+02  0.19193057329E+02  0.42570484144E+02  0.57702597002E+02  0.00000000000E+00 0. -1.
</event>
<event>
 7    1  0.2644565E-009  0.1118588E+03  0.7561462E-02  0.1257166E+00
          2   -1    0    0  501    0  0.00000000000E+00  0.00000000000E+00  0.51362263994E+03  0.51362263994E+03  0.00000000000E+00 0. -1.
         -2   -1    0    0    0  501 -0.00000000000E+00 -0.00000000000E+00 -0.40028212341E+02  0.40028212341E+02  0.00000000000E+00 0.  1.
         25    2    1    2    0    0  0.22905506894E+02  0.71467586710E+02  0.14791883793E+03  0.20774232840E+03  0.12507843219E+03 0.  0.
          5    1    3    3  502    0 -0.20366793254E+02 -0.56947335205E+01 -0.12193753505E+02  0.24766838350E+02  0.41800000000E+01 0. -1.
         -5    1    3    3    0  502  0.43272300147E+02  0.77162320231E+02  0.16011259143E+03  0.18297549005E+03  0.41800000000E+01 0. -1.
        -11    1    1    2    0    0 -0.16359594266E+02  0.17748600835E+02  0.10607260366E+03  0.10878440331E+03  0.00000000000E+00 0. -1.
         11    1    1    2    0    0 -0.65459126275E+01 -0.89216187545E+02  0.21960298600E+03  0.23712412057E+03  0.00000000000E+00 0.  1.
</event>
<event>
 6    1  0.2644565E-009  0.8876023E+02  0.7561462E-02  0.1305882E+00
         -2   -1    0    0    0  501 -0.00000000000E+00  0.00000000000E+00  0.40476898726E+03  0.40476898726E+03  0.00000000000E+00 0.  1.
          2   -1    0    0  501    0  0.00000000000E+00 -0.00000000000E+00 -0.38247397067E+02  0.38247397067E+02  0.00000000000E+00 0. -1.
          5    1    1    2  502    0  0.14313947471E+02 -0.46808568975E+02  0.57571266737E+02  0.75682589645E+02  0.41800000000E+01 0. -1.
         -5    1    1    2    0  502  0.14974143144E+02  0.68989533815E+02  0.21692830072E+03  0.22816472294E+03  0.41800000000E+01 0. -1.
        -11    1    1    2    0    0 -0.13905668329E+02 -0.34993403925E+02  0.10747419754E+03  0.11387980096E+03  0.00000000000E+00 0.  1.
         11    1    1    2    0    0 -0.15382422287E+02  0.12812439084E+02 -0.15452174804E+02  0.25289270786E+02  0.00000000000E+00 0. -1.
</event>
<event>
 7    1  0.2644565E-009  0.2328945E+03  0.7561462E-02  0.1124619E+00
         -2   -1    0    0    0  501 -0.00000000000E+00  0.00000000000E+00  0.42278602909E+02  0.42278602909E+02  0.00000000000E+00 0.  1.
          2   -1    0    0  501    0  0.00000000000E+00 -0.00000000000E+00 -0.14160530001E+04  0.14160530001E+04  0.00000000000E+00 0. -1.
         25    2    1    2    0    0 -0.17157220067E+03  0.91502827755E+02 -0.89264738605E+03  0.92210472315E+03  0.12509187460E+03 0.  0.
          5    1    3    3  502    0 -0.75464904438E+02  0.10938213345E+03 -0.54108346398E+03  0.55717877769E+03  0.41800000000E+01 0.  1.
         -5    1    3    3    0  502 -0.96107296233E+02 -0.17879305693E+02 -0.35156392208E+03  0.36492594546E+03  0.41800000000E+01 0.  1.
        -11    1    1    2    0    0  0.10452581608E+03  0.18513521010E+02 -0.18509259595E+03  0.21337212978E+03  0.00000000000E+00 0.  1.
         11    1    1    2    0    0  0.67046384587E+02 -0.11001634876E+03 -0.29603441521E+03  0.32285475011E+03  0.00000000000E+00 0. -1.
</event>
<event>
 7    1  0.3016793E-009  0.1400428E+03  0.7561462E-02  0.1213271E+00
          2   -1    0    0  501    0  0.00000000000E+00  0.00000000000E+00  0.64690704552E+02  0.64690704552E+02  0.00000000000E+00 0. -1.
         -2   -1    0    0    0  501 -0.00000000000E+00 -0.00000000000E+00 -0.30771315812E+03  0.30771315812E+03  0.00000000000E+00 0.  1.
         25    2    1    2    0    0  0.80018142382E+02 -0.41250365159E+02 -0.13020204798E+03  0.20175035967E+03  0.12508452579E+03 0.  0.
          5    1    3    3  502    0 -0.26791598663E+02  0.17290359110E+02 -0.29883460876E+02  0.43900340671E+02  0.41800000000E+01 0. -1.
         -5    1    3    3    0  502  0.10680974104E+03 -0.58540724269E+02 -0.10031858710E+03  0.15785001900E+03  0.41800000000E+01 0. -1.
        -11    1    1    2    0    0 -0.45893237722E+01  0.49918525170E+02 -0.30560291390E+02  0.58709900849E+02  0.00000000000E+00 0.  1.
         11    1    1    2    0    0 -0.75428818609E+02 -0.86681600110E+01 -0.82260114193E+02  0.11194360215E+03  0.00000000000E+00 0. -1.
</event>
<event>
 7    1  0.2644565E-009  0.9630173E+02  0.7561462E-02  0.1288271E+00
         -1   -1    0    0    0  501 -0.00000000000E+00  0.00000000000E+00  0.38289119373E+03  0.38289119373E+03  0.00000000000E+00 0.  1.
          1   -1    0    0  501    0  0.00000000000E+00 -0.00000000000E+00 -0.57616098429E+02  0.57616098429E+02  0.00000000000E+00 0. -1.
         25    2    1    2    0    0 -0.21607266654E+02  0.28634278092E+02  0.31684690989E+03  0.34252780577E+03  0.12508612059E+03 0.  0.
          5    1    3    3  502    0  0.36787145369E+02 -0.18844340991E+02  0.19400993076E+03  0.19840798594E+03  0.41800000000E+01 0. -1.
         -5    1    3    3    0  502 -0.58394412022E+02  0.47478619083E+02  0.12283697914E+03  0.14411981983E+03  0.41800000000E+01 0. -1.
        -11    1    1    2    0    0 -0.18639516291E+02 -0.30106750906E+02  0.34953524716E+02  0.49755370642E+02  0.00000000000E+00 0.  1.
         11    1    1    2    0    0  0.40246782944E+02  0.14724728133E+01 -0.26525339311E+02  0.48224115742E+02  0.00000000000E+00 0. -1.
</event>
<event>
 7    1  0.2644565E-009  0.9857916E+02  0.7561462E-02  0.1283312E+00
         -2   -1    0    0    0  501 -0.00000000000E+00  0.00000000000E+00  0.72385566298E+02  0.72385566298E+02  0.00000000000E+00 0.  1.
          2   -1    0    0  501    0  0.00000000000E+00 -0.00000000000E+00 -0.25267446994E+03  0.25267446994E+03  0.00000000000E+00 0. -1.
         25    2    1    2    0    0 -0.18082270711E+02  0.40415662250E+02 -0.17964044823E+03  0.22333611301E+03  0.12509170421E+03 0.  0.
          5    1    3    3  502    0  0.35038712914E+02 -0.19516553279E+02 -0.20739525529E+02  0.45345425058E+02  0.41800000000E+01 0.  1.
         -5    1    3    3    0  502 -0.53120983624E+02  0.59932215529E+02 -0.15890092271E+03  0.17799068795E+03  0.41800000000E+01 0.  1.
        -11    1    1    2    0    0 -0.73045854076E+01 -0.49227358796E+02 -0.32965105488E+02  0.59694120329E+02  0.00000000000E+00 0. -1.
         11    1    1    2    0    0  0.25386856118E+02  0.88116965461E+01  0.32316650081E+02  0.42029802903E+02  0.00000000000E+00 0.  1.
</event>
<event>
 7    1  0.2644565E-009  0.1317618E+03  0.7561462E-02  0.1224865E+00
         -2   -1    0    0    0  501 -0.00000000000E+00  0.00000000000E+00  0.26589164644E+03  0.26589164644E+03  0.00000000000E+00 0.  1.
          2   -1    0    0  501    0  0.00000000000E+00 -0.00000000000E+00 -0.95435632820E+02  0.95435632820E+02  0.00000000000E+00 0. -1.
         25    2    1    2    0    0 -0.70980101308E+02  0.86016379191E+02  0.14557324983E+03  0.22198323790E+03  0.12509194447E+03 0.  0.
          5    1    3    3  502    0 -0.29904649041E+02  0.10023400008E+03  0.14433219124E+03  0.17829861647E+03  0.41800000000E+01 0. -1.
         -5    1    3    3    0  502 -0.41075452267E+02 -0.14217620889E+02  0.12410585866E+01  0.43684621426E+02  0.41800000000E+01 0. -1.
        -11    1    1    2    0    0  0.87459393257E+01 -0.30656834407E+02  0.43562648422E+02  0.53981823683E+02  0.00000000000E+00 0.  1.
         11    1    1    2    0    0  0.62234161983E+02 -0.55359544785E+02 -0.18679884638E+02  0.85362217676E+02  0.00000000000E+00 0. -1.
</event>
<event>
 7    1  0.2644565E-009  0.2242490E+03  0.7561462E-02  0.1130754E+00
         -2   -1    0    0    0  501 -0.00000000000E+00  0.00000000000E+00  0.20523925464E+02  0.20523925464E+02  0.00000000000E+00 0.  1.
          2   -1    0    0  501    0  0.00000000000E+00 -0.00000000000E+00 -0.27793078250E+04  0.27793078250E+04  0.00000000000E+00 0. -1.
         25    2    1    2    0    0  0.16382997957E+03  0.12954109789E+03 -0.16234484613E+04  0.16416013011E+04  0.12509503212E+03 0.  0.
          5    1    3    3  502    0  0.74655454494E+02  0.11167860281E+03 -0.12504887135E+04  0.12576903602E+04  0.41800000000E+01 0. -1.
         -5    1    3    3    0  502  0.89174525078E+02  0.17862495074E+02 -0.37295974786E+03  0.38391094094E+03  0.41800000000E+01 0. -1.
        -11    1    1    2    0    0 -0.12274359245E+03 -0.13401200357E+03 -0.10110848504E+04  0.10272866111E+04  0.00000000000E+00 0. -1.
         11    1    1    2    0    0 -0.41086387124E+02  0.44709056818E+01 -0.12425058776E+03  0.13094383820E+03  0.00000000000E+00 0.  1.
</event>
<event>
 7    1  0.2644565E-009  0.1474668E+03  0.7561462E-02  0.1203621E+00
         -2   -1    0    0    0  501 -0.00000000000E+00  0.00000000000E+00  0.62622445778E+02  0.62622445778E+02  0.00000000000E+00 0.  1.
          2   -1    0    0  501    0  0.00000000000E+00 -0.00000000000E+00 -0.43064195368E+03  0.43064195368E+03  0.00000000000E+00 0. -1.
         25    2    1    2    0    0 -0.45461971767E+02 -0.76819864985E+02 -0.10916039365E+03  0.18849986661E+03  0.12509246835E+03 0.  0.
          5    1    3    3  502    0 -0.83608632483E+02 -0.39825043532E+02 -0.96294292315E+02  0.13366563003E+03  0.41800000000E+01 0.  1.
         -5    1    3    3    0  502  0.38146660716E+02 -0.36994821452E+02 -0.12866101335E+02  0.54834236583E+02  0.41800000000E+01 0.  1.
        -11    1    1    2    0    0  0.62056998173E+02  0.10162975835E+03 -0.14799788825E+03  0.18995539932E+03  0.00000000000E+00 0.  1.
         11    1    1    2    0    0 -0.16595026405E+02 -0.24809893369E+02 -0.11086122600E+03  0.11480913352E+03  0.00000000000E+00 0. -1.
</event>
<event>
 7    1  0.2644565E-009  0.1093953E+03  0.7561462E-02  0.1261694E+00
          1   -1    0    0  501    0  0.00000000000E+00  0.00000000000E+00  0.45515253416E+02  0.45515253416E+02  0.00000000000E+00 0. -1.
         -1   -1    0    0    0  501 -0.00000000000E+00 -0.00000000000E+00 -0.28686161374E+03  0.28686161374E+03  0.00000000000E+00 0.  1.
         25    2    1    2    0    0 -0.28859421665E+02 -0.10102339940E+02 -0.10430475276E+03  0.16571696939E+03  0.12509080304E+03 0.  0.
          5    1    3    3  502    0  0.39354080158E+02  0.29840317343E+02 -0.37903231383E+02  0.62396438308E+02  0.41800000000E+01 0. -1.
         -5    1    3    3    0  502 -0.68213501823E+02 -0.39942657284E+02 -0.66401521381E+02  0.10332053108E+03  0.41800000000E+01 0. -1.
        -11    1    1    2    0    0 -0.22514955884E+02  0.27761014546E+02 -0.81372801600E+02  0.88877049947E+02  0.00000000000E+00 0.  1.
         11    1    1    2    0    0  0.51374377549E+02 -0.17658674606E+02 -0.55668805958E+02  0.77782847815E+02  0.00000000000E+00 0. -1.
</event>
<event>
 7    1  0.2644565E-009  0.8571498E+02  0.7561462E-02  0.1313573E+00
          2   -1    0    0  501    0  0.00000000000E+00  0.00000000000E+00  0.16626450088E+03  0.16626450088E+03  0.00000000000E+00 0. -1.
         -2   -1    0    0    0  501 -0.00000000000E+00 -0.00000000000E+00 -0.77659057366E+02  0.77659057366E+02  0.00000000000E+00 0.  1.
         25    2    1    2    0    0  0.26119202316E+02  0.19500243309E+02  0.70444804225E+02  0.14721808422E+03  0.12509285215E+03 0.  0.
          5    1    3    3  502    0 -0.18321935344E+02  0.44579273313E+02  0.81556789838E+02  0.94826089725E+02  0.41800000000E+01 0. -1.
         -5    1    3    3    0  502  0.44441137660E+02 -0.25079030005E+02 -0.11111985613E+02  0.52391994491E+02  0.41800000000E+01 0. -1.
        -11    1    1    2    0    0 -0.52423062607E+01  0.23485892894E+02 -0.23258101641E+02  0.33466524049E+02  0.00000000000E+00 0.  1.
         11    1    1    2    0    0 -0.20876896056E+02 -0.42986136203E+02  0.41418740930E+02  0.63238949982E+02  0.00000000000E+00 0. -1.
</event>
<event>
 7    1  0.2644565E-009  0.9357441E+02  0.7561462E-02  0.1294420E+00
         -1   -1    0    0    0  501 -0.00000000000E+00  0.00000000000E+00  0.41645667996E+02  0.41645667996E+02  0.00000000000E+00 0.  1.
          1   -1    0    0  501    0  0.00000000000E+00 -0.00000000000E+00 -0.30601056618E+03  0.30601056618E+03  0.00000000000E+00 0. -1.
         25    2    1    2    0    0  0.88693189994E+01  0.17551869710E+02 -0.11280192674E+03  0.16958049021E+03  0.12508611047E+03 0.  0.
          5    1    3    3  502    0  0.49722481171E+02 -0.46907736633E+00 -0.11429081131E+03  0.12470929042E+03  0.41800000000E+01 0. -1.
         -5    1    3    3    0  502 -0.40853162172E+02  0.18020947076E+02  0.14888845733E+01  0.44871199786E+02  0.41800000000E+01 0. -1.
        -11    1    1    2    0    0  0.57700940037E+01  0.36218193140E+02 -0.73750987338E+02  0.82366617221E+02  0.00000000000E+00 0. -1.
         11    1    1    2    0    0 -0.14639413003E+02 -0.53770062849E+02 -0.77811984106E+02  0.95709126745E+02  0.00000000000E+00 0.  1.
</event>
<event>
 7    1  0.2644565E-009  0.1209309E+03  0.7561462E-02  0.1241569E+00
         -1   -1    0    0    0  501 -0.00000000000E+00  0.00000000000E+00  0.12059313298E+04  0.12059313298E+04  0.00000000000E+00 0.  1.
          1   -1    0    0  501    0  0.00000000000E+00 -0.00000000000E+00 -0.13233255491E+02  0.13233255491E+02  0.00000000000E+00 0. -1.
         25    2    1    2    0    0  0.54131671164E+02  0.26341030105E+02  0.76302995436E+03  0.77555570863E+03  0.12509139959E+03 0.  0.
          5    1    3    3  502    0 -0.31613775889E+02 -0.18882375795E+02  0.31286409657E+03  0.31505140892E+03  0.41800000000E+01 0. -1.
         -5    1    3    3    0  502  0.85745447052E+02  0.45223405900E+02  0.45016585779E+03  0.46050429971E+03  0.41800000000E+01 0. -1.
        -11    1    1    2    0    0 -0.75855237326E+00  0.30089077010E+02  0.81454740193E+02  0.86837795095E+02  0.00000000000E+00 0. -1.
         11    1    1    2    0    0 -0.53373118790E+02 -0.56430107115E+02  0.34821337972E+03  0.35677108153E+03  0.00000000000E+00 0.  1.
</event>
<event>
 7    1  0.2644565E-009  0.1160587E+03  0.7561462E-02  0.1249744E+00
          2   -1    0    0  501    0  0.00000000000E+00  0.00000000000E+00  0.55727580680E+02  0.55727580680E+02  0.00000000000E+00 0. -1.
         -2   -1    0    0    0  501 -0.00000000000E+00 -0.00000000000E+00 -0.28672408161E+03  0.28672408161E+03  0.00000000000E+00 0.  1.
         25    2    1    2    0    0  0.50352135008E+02  0.32299990839E+02 -0.16768221190E+03  0.21758601374E+03  0.12509085610E+03 0.  0.
          5    1    3    3  502    0 -0.30259117232E+02  0.41279465886E+02 -0.97713565054E+02  0.11038578566E+03  0.41800000000E+01 0.  1.
         -5    1    3    3    0  502  0.80611252240E+02 -0.89794750475E+01 -0.69968646848E+02  0.10720022809E+03  0.41800000000E+01 0.  1.
        -11    1    1    2    0    0 -0.25836268297E+02  0.25784341802E+02 -0.47429794071E+02  0.59849230632E+02  0.00000000000E+00 0. -1.
         11    1    1    2    0    0 -0.24515866711E+02 -0.58084332641E+02 -0.15884494961E+02  0.65016417919E+02  0.00000000000E+00 0.  1.
</event>
<event>
 7    1  0.2644565E-009  0.1510677E+03  0.7561462E-02  0.1199167E+00
          1   -1    0    0  501    0  0.00000000000E+00  0.00000000000E+00  0.54516803561E+03  0.54516803561E+03  0.00000000000E+00 0. -1.
         -1   -1    0    0    0  501 -0.00000000000E+00 -0.00000000000E+00 -0.50276521553E+02  0.50276521553E+02  0.00000000000E+00 0.  1.
         25    2    1    2    0    0 -0.43213056181E+02 -0.10313053164E+03  0.36330117645E+03  0.40017367501E+03  0.12509176864E+03 0.  0.
          5    1    3    3  502    0 -0.50504278676E+02 -0.12953062016E+03  0.31773633087E+03  0.34684681356E+03  0.41800000000E+01 0. -1.
         -5    1    3    3    0  502  0.72912224951E+01  0.26400088521E+02  0.45564845577E+02  0.53326861448E+02  0.41800000000E+01 0. -1.
        -11    1    1    2    0    0  0.58212289836E+02  0.40444635858E+02  0.34754164013E+02  0.78944861605E+02  0.00000000000E+00 0.  1.
         11    1    1    2    0    0 -0.14999233655E+02  0.62685895779E+02  0.96836173597E+02  0.11632602055E+03  0.00000000000E+00 0. -1.
</event>
<event>
 7    1  0.2644565E-009  0.2771107E+03  0.7561462E-02  0.1097278E+00
         -2   -1    0    0    0  501 -0.00000000000E+00  0.00000000000E+00  0.78692225953E+02  0.78692225953E+02  0.00000000000E+00 0.  1.
          2   -1    0    0  501    0  0.00000000000E+00 -0.00000000000E+00 -0.10930762910E+04  0.10930762910E+04  0.00000000000E+00 0. -1.
         25    2    1    2    0    0 -0.19634515896E+03 -0.18552323482E+03 -0.59431316982E+03  0.66469973101E+03  0.12508915413E+03 0.  0.
          5    1    3    3  502    0 -0.52638257983E+02 -0.65224406388E+02 -0.33101050708E+03  0.34148270467E+03  0.41800000000E+01 0. -1.
         -5    1    3    3    0  502 -0.14370690098E+03 -0.12029882843E+03 -0.26330266274E+03  0.32321702634E+03  0.41800000000E+01 0. -1.
        -11    1    1    2    0    0  0.12586217552E+03  0.16852700997E+03 -0.33159498402E+03  0.39268037097E+03  0.00000000000E+00 0. -1.
         11    1    1    2    0    0  0.70482983446E+02  0.16996224844E+02 -0.88475911178E+02  0.11438841494E+03  0.00000000000E+00 0.  1.
</event>
<event>
 7    1  0.2644565E-009  0.9725105E+02  0.7561462E-02  0.1286185E+00
         -3   -1    0    0    0  501 -0.00000000000E+00  0.00000000000E+00  0.21851062414E+03  0.21851062414E+03  0.00000000000E+00 0.  1.
          3   -1    0    0  501    0  0.00000000000E+00 -0.00000000000E+00 -0.58765046843E+02  0.58765046843E+02  0.00000000000E+00 0. -1.
         25    2    1    2    0    0 -0.33190758869E+02 -0.85922002466E+01  0.10252690256E+03  0.16533133513E+03  0.12508889738E+03 0.  0.
          5    1    3    3  502    0  0.13060156085E+02  0.51559194463E+02  0.36291623555E+02  0.64524976179E+02  0.41800000000E+01 0.  1.
         -5    1    3    3    0  502 -0.46250914954E+02 -0.60151394710E+02  0.66235279004E+02  0.10080635895E+03  0.41800000000E+01 0.  1.
        -11    1    1    2    0    0  0.39384974668E+02  0.25656502672E+02 -0.48699384776E+01  0.47256202341E+02  0.00000000000E+00 0. -1.
         11    1    1    2    0    0 -0.61942157989E+01 -0.17064302425E+02  0.62088613219E+02  0.64688133518E+02  0.00000000000E+00 0.  1.
</event>
<event>
 7    1  0.2644565E-009  0.9376026E+02  0.7561462E-02  0.1293993E+00
          2   -1    0    0  501    0  0.00000000000E+00  0.00000000000E+00  0.18701375429E+03  0.18701375429E+03  0.00000000000E+00 0. -1.
         -2   -1    0    0    0  501 -0.00000000000E+00 -0.00000000000E+00 -0.16445009184E+03  0.16445009184E+03  0.00000000000E+00 0.  1.
         25    2    1    2    0    0  0.30573010083E+02  0.56949033173E+02  0.13334537075E+03  0.19392385550E+03  0.12509025745E+03 0.  0.
          5    1    3    3  502    0  0.36514067803E+02  0.60025087174E+02  0.10896863101E+02  0.71221501411E+02  0.41800000000E+01 0. -1.
         -5    1    3    3    0  502 -0.59410577201E+01 -0.30760540007E+01  0.12244850764E+03  0.12270235409E+03  0.41800000000E+01 0. -1.
        -11    1    1    2    0    0 -0.84760126970E+01 -0.78160540611E+02 -0.62831052858E+02  0.10064121473E+03  0.00000000000E+00 0. -1.
         11    1    1    2    0    0 -0.22096997386E+02  0.21211507438E+02 -0.47950655443E+02  0.56898775898E+02  0.00000000000E+00 0.  1.
</event>
<event>
 7    1  0.2644565E-009  0.9791016E+02  0.7561462E-02  0.1284753E+00
         -4   -1    0    0    0  501 -0.00000000000E+00  0.00000000000E+00  0.18747311136E+03  0.18747311136E+03  0.00000000000E+00 0.  1.
          4   -1    0    0  501    0  0.00000000000E+00 -0.00000000000E+00 -0.68808068969E+02  0.68808068969E+02  0.00000000000E+00 0. -1.
         25    2    1    2    0    0 -0.40825747352E+02  0.13139482499E+02  0.79152011068E+02  0.15411134099E+03  0.12508347979E+03 0.  0.
          5    1    3    3  502    0  0.29879215873E+02 -0.21747623422E+02 -0.63516409479E+01  0.37729860965E+02  0.41800000000E+01 0. -1.
         -5    1    3    3    0  502 -0.70704963225E+02  0.34887105920E+02  0.85503652016E+02  0.11638148002E+03  0.41800000000E+01 0. -1.
        -11    1    1    2    0    0 -0.93224343707E+01 -0.26237289605E+02  0.41873023481E+02  0.50285716102E+02  0.00000000000E+00 0.  1.
         11    1    1    2    0    0  0.50148181723E+02  0.13097807106E+02 -0.23599921602E+01  0.51884123237E+02  0.00000000000E+00 0. -1.
</event>
<event>
 7    1  0.2644565E-009  0.7611588E+02  0.7561462E-02  0.1340450E+00
         -1   -1    0    0    0  501 -0.00000000000E+00  0.00000000000E+00  0.63847615457E+02  0.63847615457E+02  0.00000000000E+00 0.  1.
          1   -1    0    0  501    0  0.00000000000E+00 -0.00000000000E+00 -0.30245359325E+03  0.30245359325E+03  0.00000000000E+00 0. -1.
         25    2    1    2    0    0  0.51632128747E+02  0.60249163790E+01 -0.21988306956E+03  0.25826420654E+03  0.12509860017E+03 0.  0.
          5    1    3    3  502    0 -0.22757292173E+02 -0.67952084413E+01  0.16644247282E+01  0.24172544642E+02  0.41800000000E+01 0. -1.
         -5    1    3    3    0  502  0.74389420919E+02  0.12820124820E+02 -0.22154749429E+03  0.23409166190E+03  0.41800000000E+01 0. -1.
        -11    1    1    2    0    0 -0.19007862239E+02  0.13899834763E+01 -0.55284980939E+02  0.58477859044E+02  0.00000000000E+00 0. -1.
         11    1    1    2    0    0 -0.32624266508E+02 -0.74148998553E+01  0.36562072714E+02  0.49559143114E+02  0.00000000000E+00 0.  1.
</event>
<event>
 7    1  0.2644565E-009  0.1106819E+03  0.7561462E-02  0.1259312E+00
          2   -1    0    0  501    0  0.00000000000E+00  0.00000000000E+00  0.60311069672E+03  0.60311069672E+03  0.00000000000E+00 0. -1.
         -2   -1    0    0    0  501 -0.00000000000E+00 -0.00000000000E+00 -0.25549135048E+02  0.25549135048E+02  0.00000000000E+00 0.  1.
         25    2    1    2    0    0  0.18342203168E+02  0.31752349834E+02  0.44792380186E+03  0.46650611374E+03  0.12509026240E+03 0.  0.
          5    1    3    3  502    0  0.37911871396E+02 -0.37561218581E+02  0.25442464768E+03  0.25999524780E+03  0.41800000000E+01 0.  1.
         -5    1    3    3    0  502 -0.19569668228E+02  0.69313568415E+02  0.19349915419E+03  0.20651086594E+03  0.41800000000E+01 0.  1.
        -11    1    1    2    0    0  0.29325025801E+02  0.11328822086E+02  0.29094734771E+02  0.42834599794E+02  0.00000000000E+00 0.  1.
         11    1    1    2    0    0 -0.47667228969E+02 -0.43081171920E+02  0.10054302504E+03  0.11931911823E+03  0.00000000000E+00 0. -1.
</event>
<event>
 7    1  0.2644565E-009  0.1232754E+03  0.7561462E-02  0.1237789E+00
          2   -1    0    0  501    0  0.00000000000E+00  0.00000000000E+00  0.17433227010E+03  0.17433227010E+03  0.00000000000E+00 0. -1.
         -2   -1    0    0    0  501 -0.00000000000E+00 -0.00000000000E+00 -0.13095273099E+03  0.13095273099E+03  0.00000000000E+00 0.  1.
         25    2    1    2    0    0  0.29498126642E+02  0.97529130838E+02  0.45650927047E+02  0.16767942348E+03  0.12510120336E+03 0.  0.
          5    1    3    3  502    0  0.31150629520E+02  0.36374729703E+02  0.82974431871E+02  0.95894272117E+02  0.41800000000E+01 0.  1.
         -5    1    3    3    0  502 -0.16525028782E+01  0.61154401135E+02 -0.37323504824E+02  0.71785151363E+02  0.41800000000E+01 0.  1.
        -11    1    1    2    0    0  0.32461377883E+02 -0.20870483581E+02  0.42368750641E+01  0.38823565643E+02  0.00000000000E+00 0. -1.
         11    1    1    2    0    0 -0.61959504525E+02 -0.76658647258E+02 -0.65082629943E+01  0.98782011964E+02  0.00000000000E+00 0.  1.
</event>
<event>
 7    1  0.2644565E-009  0.1112720E+03  0.7561462E-02  0.1258232E+00
         -2   -1    0    0    0  501 -0.00000000000E+00  0.00000000000E+00  0.38556092682E+03  0.38556092682E+03  0.00000000000E+00 0.  1.
          2   -1    0    0  501    0  0.00000000000E+00 -0.00000000000E+00 -0.38741706974E+02  0.38741706974E+02  0.00000000000E+00 0. -1.
         25    2    1    2    0    0 -0.47644593202E+02  0.14473937187E+02  0.23235795499E+03  0.26854681204E+03  0.12509064269E+03 0.  0.
          5    1    3    3  502    0 -0.73732271669E+01 -0.51186875196E+02  0.57608256538E+02  0.77528345091E+02  0.41800000000E+01 0. -1.
         -5    1    3    3    0  502 -0.40271366035E+02  0.65660812383E+02  0.17474969845E+03  0.19101846695E+03  0.41800000000E+01 0. -1.
        -11    1    1    2    0    0  0.25156060003E+02 -0.47391319692E+02  0.27942590245E+02  0.60494238458E+02  0.00000000000E+00 0.  1.
         11    1    1    2    0    0  0.22488533198E+02  0.32917382505E+02  0.86518674610E+02  0.95261583299E+02  0.00000000000E+00 0. -1.
</event>
<event>
 7    1  0.2644565E-009  0.1447880E+03  0.7561462E-02  0.1207028E+00
          1   -1    0    0  501    0  0.00000000000E+00  0.00000000000E+00  0.64146638581E+03  0.64146638581E+03  0.00000000000E+00 0. -1.
         -1   -1    0    0    0  501 -0.00000000000E+00 -0.00000000000E+00 -0.11633347633E+03  0.11633347633E+03  0.00000000000E+00 0.  1.
         25    2    1    2    0    0 -0.11858788580E+03  0.15965331292E+02  0.57355072649E+03  0.59910464557E+03  0.12509181438E+03 0.  0.
          5    1    3    3  502    0 -0.11372814469E+03 -0.75724127854E+01  0.25176556615E+03  0.27639610169E+03  0.41800000000E+01 0.  1.
         -5    1    3    3    0  502 -0.48597411165E+01  0.23537744077E+02  0.32178516034E+03  0.32270854388E+03  0.41800000000E+01 0.  1.
        -11    1    1    2    0    0  0.24134734860E+02 -0.46053779838E+02 -0.17231065641E+02  0.54775411338E+02  0.00000000000E+00 0. -1.
         11    1    1    2    0    0  0.94453150943E+02  0.30088448547E+02 -0.31186751367E+02  0.10391980523E+03  0.00000000000E+00 0.  1.
</event>
<event>
 7    1  0.2644565E-009  0.5547630E+02  0.7561462E-02  0.1417860E+00
         -1   -1    0    0    0  501 -0.00000000000E+00  0.00000000000E+00  0.26654564922E+03  0.26654564922E+03  0.00000000000E+00 0.  1.
          1   -1    0    0  501    0  0.00000000000E+00 -0.00000000000E+00 -0.54214440437E+02  0.54214440437E+02  0.00000000000E+00 0. -1.
         25    2    1    2    0    0  0.23764048971E+02  0.27619512796E+02  0.16901554879E+03  0.21340441768E+03  0.12509045624E+03 0.  0.
          5    1    3    3  502    0 -0.12171666803E+02  0.12404829813E+02 -0.16171408163E+02  0.24104275916E+02  0.41800000000E+01 0.  1.
         -5    1    3    3    0  502  0.35935715774E+02  0.15214682982E+02  0.18518695695E+03  0.18930014176E+03  0.41800000000E+01 0.  1.
        -11    1    1    2    0    0  0.66792066811E+01 -0.21846999161E+02 -0.24071214586E+02  0.33186240309E+02  0.00000000000E+00 0. -1.
         11    1    1    2    0    0 -0.30443255652E+02 -0.57725136347E+01  0.67386874584E+02  0.74169431672E+02  0.00000000000E+00 0.  1.
</event>
<event>
 7    1  0.2644565E-009  0.7624901E+02  0.7561462E-02  0.1340046E+00
         -2   -1    0    0    0  501 -0.00000000000E+00  0.00000000000E+00  0.19234723331E+02  0.19234723331E+02  0.00000000000E+00 0. -1.
          2   -1    0    0  501    0  0.00000000000E+00 -0.00000000000E+00 -0.67501105183E+03  0.67501105183E+03  0.00000000000E+00 0.  1.
         25    2    1    2    0    0  0.16683764885E+02  0.82680101008E+00 -0.28048021376E+03  0.30756633122E+03  0.12509542828E+03 0.  0.
          5    1    3    3  502    0  0.27107806370E+02 -0.22545965729E+02 -0.27936406884E+03  0.28161127303E+03  0.41800000000E+01 0.  1.
         -5    1    3    3    0  502 -0.10424041485E+02  0.23372766739E+02 -0.11161449138E+01  0.25955058185E+02  0.41800000000E+01 0.  1.
        -11    1    1    2    0    0 -0.46390165328E+02 -0.25058711154E+02 -0.25606089540E+03  0.26143291415E+03  0.00000000000E+00 0. -1.
         11    1    1    2    0    0  0.29706400443E+02  0.24231910144E+02 -0.11923521934E+03  0.12524652980E+03  0.00000000000E+00 0.  1.
</event>
<event>
 7    1  0.2644565E-009  0.9821810E+02  0.7561462E-02  0.1284088E+00
         -2   -1    0    0    0  501 -0.00000000000E+00  0.00000000000E+00  0.35230370734E+02  0.35230370734E+02  0.00000000000E+00 0.  1.
          2   -1    0    0  501    0  0.00000000000E+00 -0.00000000000E+00 -0.58212118658E+03  0.58212118658E+03  0.00000000000E+00 0. -1.
         25    2    1    2    0    0  0.40869882324E+02 -0.15660478688E+02 -0.47732208581E+03  0.49538326194E+03  0.12511037023E+03 0.  0.
          5    1    3    3  502    0  0.65687914785E+02  0.95724216502E+01 -0.43499496517E+03  0.44005070791E+03  0.41800000000E+01 0. -1.
         -5    1    3    3    0  502 -0.24818032461E+02 -0.25232900339E+02 -0.42327120634E+02  0.55332554034E+02  0.41800000000E+01 0. -1.
        -11    1    1    2    0    0  0.25955826195E+02  0.16668784600E+01 -0.39663897863E+02  0.47431088865E+02  0.00000000000E+00 0. -1.
         11    1    1    2    0    0 -0.66825708519E+02  0.13993600228E+02 -0.29904832177E+02  0.74537206508E+02  0.00000000000E+00 0.  1.
</event>
<event>
 7    1  0.2644565E-009  0.1046604E+03  0.7561462E-02  0.1270790E+00
          2   -1    0    0  501    0  0.00000000000E+00  0.00000000000E+00  0.20154898151E+03  0.20154898151E+03  0.00000000000E+00 0. -1.
         -2   -1    0    0    0  501 -0.00000000000E+00 -0.00000000000E+00 -0.10376511236E+03  0.10376511236E+03  0.00000000000E+00 0.  1.
         25    2    1    2    0    0 -0.88713608304E+02  0.32069783496E+02  0.40039199759E+02  0.16170425478E+03  0.12508618303E+03 0.  0.
          5    1    3    3  502    0 -0.77149772235E+00  0.63303377312E+00  0.64842095416E+02  0.64984349489E+02  0.41800000000E+01 0. -1.
         -5    1    3    3    0  502 -0.87942110582E+02  0.31436749722E+02 -0.24802895657E+02  0.96719905292E+02  0.41800000000E+01 0. -1.
        -11    1    1    2    0    0  0.86434564878E+02 -0.73866290160E+01  0.73952421974E+02  0.11399323230E+03  0.00000000000E+00 0. -1.
         11    1    1    2    0    0  0.22790434261E+01 -0.24683154480E+02 -0.16207752578E+02  0.29616606788E+02  0.00000000000E+00 0.  1.
</event>
<event>
 7    1  0.2644565E-009  0.1026268E+03  0.7561462E-02  0.1274867E+00
          1   -1    0    0  501    0  0.00000000000E+00  0.00000000000E+00  0.66361399193E+03  0.66361399193E+03  0.00000000000E+00 0. -1.
         -1   -1    0    0    0  501 -0.00000000000E+00 -0.00000000000E+00 -0.21218486168E+02  0.21218486168E+02  0.00000000000E+00 0.  1.
         25    2    1    2    0    0 -0.16955760132E+02 -0.43839257917E+02  0.38378603895E+03  0.40638493354E+03  0.12509041603E+03 0.  0.
          5    1    3    3  502    0 -0.39584078816E+01  0.31393979010E+02  0.25208078572E+03  0.25409338016E+03  0.41800000000E+01 0.  1.
         -5    1    3    3    0  502 -0.12997352250E+02 -0.75233236927E+02  0.13170525322E+03  0.15229155338E+03  0.41800000000E+01 0.  1.
        -11    1    1    2    0    0  0.51138733814E+02  0.18732831801E+02  0.95740221996E+02  0.11014662587E+03  0.00000000000E+00 0.  1.
         11    1    1    2    0    0 -0.34182973682E+02  0.25106426116E+02  0.16286924482E+03  0.16830091869E+03  0.00000000000E+00 0. -1.
</event>
<event>
 7    1  0.2671620E-009  0.1871083E+03  0.7561462E-02  0.1161096E+00
          2   -1    0    0  501    0  0.00000000000E+00  0.00000000000E+00  0.66576825858E+03  0.66576825858E+03  0.00000000000E+00 0. -1.
         -2   -1    0    0    0  501 -0.00000000000E+00 -0.00000000000E+00 -0.75750435823E+02  0.75750435823E+02  0.00000000000E+00 0.  1.
         25    2    1    2    0    0 -0.17043589103E+03  0.54799334123E+01  0.14555788951E+03  0.25673478933E+03  0.12508888932E+03 0.  0.
          5    1    3    3  502    0 -0.17870916764E+03  0.26284413767E+02  0.10175141579E+03  0.20736118253E+03  0.41800000000E+01 0. -1.
         -5    1    3    3    0  502  0.82732766043E+01 -0.20804480355E+02  0.43806473729E+02  0.49373606807E+02  0.41800000000E+01 0. -1.
        -11    1    1    2    0    0  0.78991457628E+02  0.19423063844E+01  0.32325127755E+03  0.33276840501E+03  0.00000000000E+00 0. -1.
         11    1    1    2    0    0  0.91444433405E+02 -0.74222397967E+01  0.12120865569E+03  0.15201550006E+03  0.00000000000E+00 0.  1.
</event>
<event>
 7    1  0.2644565E-009  0.1708890E+03  0.7561462E-02  0.1176924E+00
          1   -1    0    0  501    0  0.00000000000E+00  0.00000000000E+00  0.53106641185E+03  0.53106641185E+03  0.00000000000E+00 0. -1.
         -1   -1    0    0    0  501 -0.00000000000E+00 -0.00000000000E+00 -0.68684772041E+02  0.68684772041E+02  0.00000000000E+00 0.  1.
         25    2    1    2    0    0  0.89722508111E+02  0.13298386931E+03  0.21540447603E+03  0.29627739189E+03  0.12508543758E+03 0.  0.
          5    1    3    3  502    0  0.52535970548E+02  0.26194873043E+02  0.71752392248E+01  0.59288751321E+02  0.41800000000E+01 0.  1.
         -5    1    3    3    0  502  0.37186537563E+02  0.10678899627E+03  0.20822923680E+03  0.23698864057E+03  0.41800000000E+01 0.  1.
        -11    1    1    2    0    0 -0.17777591619E+02 -0.75828433758E+02  0.73121601063E+02  0.10683053249E+03  0.00000000000E+00 0.  1.
         11    1    1    2    0    0 -0.71944916492E+02 -0.57155435555E+02  0.17385556272E+03  0.19664325951E+03  0.00000000000E+00 0. -1.
</event>
<event>
 7    1  0.2644565E-009  0.1206626E+03  0.7561462E-02  0.1242008E+00
         -1   -1    0    0    0  501 -0.00000000000E+00  0.00000000000E+00  0.70018496578E+03  0.70018496578E+03  0.00000000000E+00 0.  1.
          1   -1    0    0  501    0  0.00000000000E+00 -0.00000000000E+00 -0.33200790965E+02  0.33200790965E+02  0.00000000000E+00 0. -1.
         25    2    1    2    0    0 -0.67484195394E+02  0.67845973063E+02  0.24746241140E+03  0.29333352038E+03  0.12509882667E+03 0.  0.
          5    1    3    3  502    0 -0.63735898548E+02 -0.17197423545E+01  0.42309489235E+02  0.76634114837E+02  0.41800000000E+01 0.  1.
         -5    1    3    3    0  502 -0.37482968463E+01  0.69565715417E+02  0.20515292217E+03  0.21669940555E+03  0.41800000000E+01 0.  1.
        -11    1    1    2    0    0  0.28668665474E+02 -0.62100821049E+02  0.37287601161E+03  0.37909751304E+03  0.00000000000E+00 0.  1.
         11    1    1    2    0    0  0.38815529920E+02 -0.57451520132E+01  0.46645751804E+02  0.60954723328E+02  0.00000000000E+00 0. -1.
</event>
<event>
 7    1  0.2644565E-009  0.8954989E+02  0.7561462E-02  0.1303945E+00
         -3   -1    0    0    0  501 -0.00000000000E+00  0.00000000000E+00  0.59226808220E+02  0.59226808220E+02  0.00000000000E+00 0.  1.
          3   -1    0    0  501    0  0.00000000000E+00 -0.00000000000E+00 -0.20370974583E+03  0.20370974583E+03  0.00000000000E+00 0. -1.
         25    2    1    2    0    0 -0.15706153523E+02  0.10923780865E+02 -0.69190685086E+02  0.14422520035E+03  0.12509014856E+03 0.  0.
          5    1    3    3  502    0 -0.16247171383E+02  0.53762975950E+02 -0.81851580591E+02  0.99355834284E+02  0.41800000000E+01 0. -1.
         -5    1    3    3    0  502  0.54101786055E+00 -0.42839195086E+02  0.12660895506E+02  0.44869366063E+02  0.41800000000E+01 0. -1.
        -11    1    1    2    0    0  0.14237112490E+02  0.32919474625E+02 -0.55115707129E+01  0.36287251114E+02  0.00000000000E+00 0.  1.
         11    1    1    2    0    0  0.14690410321E+01 -0.43843255490E+02 -0.69780681812E+02  0.82424102589E+02  0.00000000000E+00 0. -1.
</event>
<event>
 7    1  0.2644565E-009  0.1003785E+03  0.7561462E-02  0.1279502E+00
          2   -1    0    0  501    0  0.00000000000E+00  0.00000000000E+00  0.10340774217E+04  0.10340774217E+04  0.00000000000E+00 0.  1.
         -2   -1    0    0    0  501 -0.00000000000E+00 -0.00000000000E+00 -0.16327720203E+02  0.16327720203E+02  0.00000000000E+00 0. -1.
         25    2    1    2    0    0  0.58770769409E+02 -0.42836640342E+02  0.51860034434E+03  0.53840734249E+03  0.12508864140E+03 0.  0.
          5    1    3    3  502    0 -0.72624235042E+01 -0.96647717539E+01  0.38862322121E+03  0.38883368047E+03  0.41800000000E+01 0. -1.
         -5    1    3    3    0  502  0.66033192913E+02 -0.33171868588E+02  0.12997712314E+03  0.14957366202E+03  0.41800000000E+01 0. -1.
        -11    1    1    2    0    0 -0.39881964128E+02 -0.22601229129E+02  0.20664740898E+03  0.21167082524E+03  0.00000000000E+00 0. -1.
         11    1    1    2    0    0 -0.18888805281E+02  0.65437869470E+02  0.29250194818E+03  0.30032697417E+03  0.00000000000E+00 0.  1.
</event>
<event>
 7    1  0.2644565E-009  0.1076561E+03  0.7561462E-02  0.1264973E+00
          1   -1    0    0  501    0  0.00000000000E+00  0.00000000000E+00  0.77334513716E+03  0.77334513716E+03  0.00000000000E+00 0. -1.
         -1   -1    0    0    0  501 -0.00000000000E+00 -0.00000000000E+00 -0.16258524206E+02  0.16258524206E+02  0.00000000000E+00 0.  1.
         25    2    1    2    0    0  0.26671309709E+02 -0.14757766158E+02  0.43707119850E+03  0.45564024440E+03  0.12509056456E+03 0.  0.
          5    1    3    3  502    0  0.63149585657E+01 -0.67371493003E+02  0.29567516294E+03  0.30334810227E+03  0.41800000000E+01 0. -1.
         -5    1    3    3    0  502  0.20356351143E+02  0.52613726846E+02  0.14139603556E+03  0.15229214214E+03  0.41800000000E+01 0. -1.
        -11    1    1    2    0    0  0.11947066527E+02  0.42013721712E+02  0.10333725589E+03  0.11218945435E+03  0.00000000000E+00 0.  1.
         11    1    1    2    0    0 -0.38618376236E+02 -0.27255955554E+02  0.21667815856E+03  0.22177396262E+03  0.00000000000E+00 0. -1.
</event>
<event>
 7    1  0.2644565E-009  0.8275131E+02  0.7561462E-02  0.1321420E+00
          2   -1    0    0  501    0  0.00000000000E+00  0.00000000000E+00  0.37031825609E+03  0.37031825609E+03  0.00000000000E+00 0.  1.
         -2   -1    0    0    0  501 -0.00000000000E+00 -0.00000000000E+00 -0.46978763675E+02  0.46978763675E+02  0.00000000000E+00 0. -1.
         25    2    1    2    0    0 -0.74993470638E+02 -0.25519764122E+01  0.19300941956E+03  0.24193346932E+03  0.12509450155E+03 0.  0.
          5    1    3    3  502    0 -0.48027457273E+02  0.11093224283E+02  0.20368804432E+03  0.20960913166E+03  0.41800000000E+01 0. -1.
         -5    1    3    3    0  502 -0.26966013366E+02 -0.13645200695E+02 -0.10678624755E+02  0.32324337665E+02  0.41800000000E+01 0. -1.
        -11    1    1    2    0    0  0.16574286036E+02  0.18627408831E+02 -0.64582767316E+01  0.25756487643E+02  0.00000000000E+00 0. -1.
         11    1    1    2    0    0  0.58419184602E+02 -0.16075432419E+02  0.13678834959E+03  0.14960706280E+03  0.00000000000E+00 0.  1.
</event>
<event>
 7    1  0.2644565E-009  0.1124176E+03  0.7561462E-02  0.1256157E+00
         -1   -1    0    0    0  501 -0.00000000000E+00  0.00000000000E+00  0.20895635384E+02  0.20895635384E+02  0.00000000000E+00 0.  1.
          1   -1    0    0  501    0  0.00000000000E+00 -0.00000000000E+00 -0.10533690628E+04  0.10533690628E+04  0.00000000000E+00 0. -1.
         25    2    1    2    0    0  0.90153794053E+02 -0.23307755485E+02 -0.73394899422E+03  0.75033292838E+03  0.12508964488E+03 0.  0.
          5    1    3    3  502    0  0.19972314458E+02 -0.49720751412E+02 -0.53478511512E+03  0.53747896537E+03  0.41800000000E+01 0. -1.
         -5    1    3    3    0  502  0.70181479595E+02  0.26412995926E+02 -0.19916387910E+03  0.21285396301E+03  0.41800000000E+01 0. -1.
        -11    1    1    2    0    0 -0.47846234669E+02  0.34155085751E+00 -0.44354854111E+02  0.65243635032E+02  0.00000000000E+00 0.  1.
         11    1    1    2    0    0 -0.42307559384E+02  0.22966204628E+02 -0.25416957904E+03  0.25868813473E+03  0.00000000000E+00 0. -1.
</event>
<event>
 7    1  0.2644565E-009  0.9980050E+02  0.7561462E-02  0.1280716E+00
          2   -1    0    0  501    0  0.00000000000E+00  0.00000000000E+00  0.16443468647E+03  0.16443468647E+03  0.00000000000E+00 0. -1.
         -2   -1    0    0    0  501 -0.00000000000E+00 -0.00000000000E+00 -0.79734487345E+02  0.79734487345E+02  0.00000000000E+00 0.  1.
         25    2    1    2    0    0 -0.48686108882E+01 -0.28150877115E+02  0.67663075348E+02  0.14505676469E+03  0.12508796091E+03 0.  0.
          5    1    3    3  502    0  0.35196209031E+02  0.18948126902E+02 -0.13982379776E+02  0.42553307597E+02  0.41800000000E+01 0.  1.
         -5    1    3    3    0  502 -0.40064819919E+02 -0.47099004017E+02  0.81645455124E+02  0.10250345710E+03  0.41800000000E+01 0.  1.
        -11    1    1    2    0    0  0.27161615816E+02 -0.26785670465E+02  0.97903275625E+01  0.39383702591E+02  0.00000000000E+00 0.  1.
         11    1    1    2    0    0 -0.22293004928E+02  0.54936547580E+02  0.72467962191E+01  0.59728706534E+02  0.00000000000E+00 0. -1.
</event>
<event>
 7    1  0.2644565E-009  0.1197312E+03  0.7561462E-02  0.1243541E+00
         -1   -1    0    0    0  501 -0.00000000000E+00  0.00000000000E+00  0.12120630480E+04  0.12120630480E+04  0.00000000000E+00 0.  1.
          1   -1    0    0  501    0  0.00000000000E+00 -0.00000000000E+00 -0.14270457954E+02  0.14270457954E+02  0.00000000000E+00 0. -1.
         25    2    1    2    0    0  0.33655488177E+02  0.49526235378E+02  0.86742560079E+03  0.87844206505E+03  0.12509096234E+03 0.  0.
          5    1    3    3  502    0  0.78078693500E+02  0.52150890663E+02  0.58944168855E+03  0.59688774018E+03  0.41800000000E+01 0.  1.
         -5    1    3    3    0  502 -0.44423205322E+02 -0.26246552857E+01  0.27798391225E+03  0.28155432487E+03  0.41800000000E+01 0.  1.
        -11    1    1    2    0    0  0.26504022948E+02 -0.80201270387E+01  0.16193013112E+03  0.16428071413E+03  0.00000000000E+00 0. -1.
         11    1    1    2    0    0 -0.60159511125E+02 -0.41506108339E+02  0.16843685808E+03  0.18361072673E+03  0.00000000000E+00 0.  1.
</event>
<event>
 7    1  0.3868918E-009  0.1971811E+03  0.7561462E-02  0.1152139E+00
          1   -1    0    0  501    0  0.00000000000E+00  0.00000000000E+00  0.10034209229E+04  0.10034209229E+04  0.00000000000E+00 0. -1.
         -1   -1    0    0    0  501 -0.00000000000E+00 -0.00000000000E+00 -0.41785134046E+02  0.41785134046E+02  0.00000000000E+00 0.  1.
         25    2    1    2    0    0  0.45884477257E+02  0.16436441802E+03  0.42500476215E+03  0.47476013931E+03  0.12508834821E+03 0.  0.
          5    1    3    3  502    0 -0.31252552739E+02  0.11507145362E+03  0.25842537287E+03  0.28463890675E+03  0.41800000000E+01 0.  1.
         -5    1    3    3    0  502  0.77137029995E+02  0.49292964395E+02  0.16657938928E+03  0.19012123256E+03  0.41800000000E+01 0.  1.
        -11    1    1    2    0    0 -0.62058573165E+02 -0.10582757418E+03  0.43579664409E+03  0.45273552651E+03  0.00000000000E+00 0. -1.
         11    1    1    2    0    0  0.16174095908E+02 -0.58536843835E+02  0.10083438260E+03  0.11771039113E+03  0.00000000000E+00 0.  1.
</event>
<event>
 7    1  0.2644565E-009  0.1303265E+03  0.7561462E-02  0.1226972E+00
          1   -1    0    0  501    0  0.00000000000E+00  0.00000000000E+00  0.78574693774E+03  0.78574693774E+03  0.00000000000E+00 0. -1.
         -1   -1    0    0    0  501 -0.00000000000E+00 -0.00000000000E+00 -0.22598271368E+02  0.22598271368E+02  0.00000000000E+00 0.  1.
         25    2    1    2    0    0 -0.62743152153E+02  0.43929926163E+02  0.38999166199E+03  0.41666272199E+03  0.12509111047E+03 0.  0.
          5    1    3    3  502    0 -0.65164771289E+02 -0.29163421421E+02  0.22622107766E+03  0.23725598189E+03  0.41800000000E+01 0. -1.
         -5    1    3    3    0  502  0.24216191359E+01  0.73093347584E+02  0.16377058433E+03  0.17940674010E+03  0.41800000000E+01 0. -1.
        -11    1    1    2    0    0  0.15029493073E+02 -0.62801555522E+02  0.16235311467E+03  0.17472393906E+03  0.00000000000E+00 0.  1.
         11    1    1    2    0    0  0.47713659080E+02  0.18871629359E+02  0.21080388971E+03  0.21695854805E+03  0.00000000000E+00 0. -1.
</event>
<event>
 7    1  0.2644565E-009  0.1266078E+03  0.7561462E-02  0.1232578E+00
          2   -1    0    0  501    0  0.00000000000E+00  0.00000000000E+00  0.27334696123E+03  0.27334696123E+03  0.00000000000E+00 0. -1.
         -2   -1    0    0    0  501 -0.00000000000E+00 -0.00000000000E+00 -0.66758613591E+02  0.66758613591E+02  0.00000000000E+00 0.  1.
         25    2    1    2    0    0  0.61360930727E+02 -0.39500984899E+02  0.67290641459E+02  0.15969105714E+03  0.12509081371E+03 0.  0.
          5    1    3    3  502    0  0.77870619561E+02  0.19275564239E+02  0.21196691364E+02  0.83079196507E+02  0.41800000000E+01 0.  1.
         -5    1    3    3    0  502 -0.16509688834E+02 -0.58776549138E+02  0.46093950095E+02  0.76611860631E+02  0.41800000000E+01 0.  1.
        -11    1    1    2    0    0 -0.68200434934E+02 -0.33651310057E+01  0.64481648121E+02  0.93917550950E+02  0.00000000000E+00 0.  1.
         11    1    1    2    0    0  0.68395042073E+01  0.42866115905E+02  0.74816058054E+02  0.86496966729E+02  0.00000000000E+00 0. -1.
</event>
<event>
 7    1  0.2644565E-009  0.1002945E+03  0.7561462E-02  0.1279678E+00
         -2   -1    0    0    0  501 -0.00000000000E+00  0.00000000000E+00  0.34357787913E+02  0.34357787913E+02  0.00000000000E+00 0.  1.
          2   -1    0    0  501    0  0.00000000000E+00 -0.00000000000E+00 -0.40380909585E+03  0.40380909585E+03  0.00000000000E+00 0. -1.
         25    2    1    2    0    0 -0.66017279581E+01 -0.23373583224E+02 -0.28561748977E+03  0.31275363856E+03  0.12509029045E+03 0.  0.
          5    1    3    3  502    0  0.49954425827E+02 -0.20001287837E+02 -0.62790615620E+02  0.82798731783E+02  0.41800000000E+01 0. -1.
         -5    1    3    3    0  502 -0.56556153785E+02 -0.33722953866E+01 -0.22282687415E+03  0.22995490678E+03  0.41800000000E+01 0. -1.
        -11    1    1    2    0    0 -0.19763897144E+02 -0.26698078174E+02 -0.15402187111E+02  0.36614565084E+02  0.00000000000E+00 0.  1.
         11    1    1    2    0    0  0.26365625102E+02  0.50071661398E+02 -0.68431631057E+02  0.88798680121E+02  0.00000000000E+00 0. -1.
</event>
<event>
 7    1  0.2644565E-009  0.9107417E+02  0.7561462E-02  0.1300271E+00
         -2   -1    0    0    0  501 -0.00000000000E+00  0.00000000000E+00  0.27175834637E+02  0.27175834637E+02  0.00000000000E+00 0.  1.
          2   -1    0    0  501    0  0.00000000000E+00 -0.00000000000E+00 -0.49657866443E+03  0.49657866443E+03  0.00000000000E+00 0. -1.
         25    2    1    2    0    0  0.10432914151E+02 -0.23597932272E+02 -0.34612253509E+03  0.36895450357E+03  0.12514355080E+03 0.  0.
          5    1    3    3  502    0  0.46419524271E+02 -0.25686299011E+02 -0.58627895263E+02  0.79178663120E+02  0.41800000000E+01 0.  1.
         -5    1    3    3    0  502 -0.35986610120E+02  0.20883667387E+01 -0.28749463982E+03  0.28977584046E+03  0.41800000000E+01 0.  1.
        -11    1    1    2    0    0  0.22830408565E+02  0.46810281298E+02 -0.80223097870E+02  0.95646094652E+02  0.00000000000E+00 0.  1.
         11    1    1    2    0    0 -0.33263322716E+02 -0.23212349025E+02 -0.43057196839E+02  0.59153900843E+02  0.00000000000E+00 0. -1.
</event>
<event>
 7    1  0.2644565E-009  0.5966775E+02  0.7561462E-02  0.1399231E+00
          1   -1    0    0  501    0  0.00000000000E+00  0.00000000000E+00  0.70555592249E+03  0.70555592249E+03  0.00000000000E+00 0. -1.
         -1   -1    0    0    0  501 -0.00000000000E+00 -0.00000000000E+00 -0.25736089141E+02  0.25736089141E+02  0.00000000000E+00 0.  1.
         25    2    1    2    0    0  0.26208160741E+02 -0.50879934994E+02  0.52512043736E+03  0.54283931949E+03  0.12508963814E+03 0.  0.
          5    1    3    3  502    0  0.13250787728E+02 -0.78305545595E+01  0.47543794785E+03  0.47570538741E+03  0.41800000000E+01 0.  1.
         -5    1    3    3    0  502  0.12957373013E+02 -0.43049380434E+02  0.49682489512E+02  0.67133932071E+02  0.41800000000E+01 0.  1.
        -11    1    1    2    0    0 -0.12657932763E+02  0.35749866626E+02  0.16237115663E+03  0.16674132281E+03  0.00000000000E+00 0. -1.
         11    1    1    2    0    0 -0.13550227979E+02  0.15130068368E+02 -0.76717606445E+01  0.21711369337E+02  0.00000000000E+00 0.  1.
</event>
<event>
 7    1  0.2644565E-009  0.8747768E+02  0.7561462E-02  0.1309077E+00
          1   -1    0    0  501    0  0.00000000000E+00  0.00000000000E+00  0.23285364222E+03  0.23285364222E+03  0.00000000000E+00 0. -1.
         -1   -1    0    0    0  501 -0.00000000000E+00 -0.00000000000E+00 -0.62246458927E+02  0.62246458927E+02  0.00000000000E+00 0.  1.
         25    2    1    2    0    0 -0.18224106193E+02 -0.12743584355E+02  0.39417889710E+02  0.13302486891E+03  0.12508928304E+03 0.  0.
          5    1    3    3  502    0 -0.45230330130E+02  0.18350614641E+02 -0.26112319335E+02  0.55514443548E+02  0.41800000000E+01 0.  1.
         -5    1    3    3    0  502  0.27006223937E+02 -0.31094198996E+02  0.65530209044E+02  0.77510425363E+02  0.41800000000E+01 0.  1.
        -11    1    1    2    0    0  0.42770320284E+02 -0.16982480444E+02  0.33110915940E+02  0.56692483572E+02  0.00000000000E+00 0.  1.
         11    1    1    2    0    0 -0.24546214091E+02  0.29726064800E+02  0.98078377640E+02  0.10538274866E+03  0.00000000000E+00 0. -1.
</event>
<event>
 7    1  0.2644565E-009  0.9007654E+02  0.7561462E-02  0.1302666E+00
          1   -1    0    0  501    0  0.00000000000E+00  0.00000000000E+00  0.43892638740E+03  0.43892638740E+03  0.00000000000E+00 0. -1.
         -1   -1    0    0    0  501 -0.00000000000E+00 -0.00000000000E+00 -0.33631190606E+02  0.33631190606E+02  0.00000000000E+00 0.  1.
         25    2    1    2    0    0 -0.92868593452E+01 -0.28592925915E+02  0.32032685884E+03  0.34519835271E+03  0.12509518397E+03 0.  0.
          5    1    3    3  502    0 -0.37939030719E+02 -0.48264765913E+02  0.73301295459E+02  0.95704806549E+02  0.41800000000E+01 0. -1.
         -5    1    3    3    0  502  0.28652171374E+02  0.19671839998E+02  0.24702556338E+03  0.24949354616E+03  0.41800000000E+01 0. -1.
        -11    1    1    2    0    0  0.68397423348E+01  0.55840061407E+02  0.25232041083E+02  0.61656714398E+02  0.00000000000E+00 0.  1.
         11    1    1    2    0    0  0.24471170104E+01 -0.27247135492E+02  0.59736296873E+02  0.65702510898E+02  0.00000000000E+00 0. -1.
</event>
<event>
 6    1  0.2644565E-009  0.1351803E+03  0.7561462E-02  0.1219965E+00
          2   -1    0    0  501    0  0.00000000000E+00  0.00000000000E+00  0.49193448198E+03  0.49193448198E+03  0.00000000000E+00 0. -1.
         -2   -1    0    0    0  501 -0.00000000000E+00 -0.00000000000E+00 -0.40974829192E+02  0.40974829192E+02  0.00000000000E+00 0.  1.
          5    1    1    2  502    0  0.16643880151E+02  0.41237846393E+02  0.37343860909E+02  0.58220400799E+02  0.41800000000E+01 0. -1.
         -5    1    1    2    0  502 -0.99148519579E+02 -0.54373140608E+00  0.23944554350E+03  0.25919561200E+03  0.41800000000E+01 0. -1.
        -11    1    1    2    0    0  0.77135766689E+02 -0.65427703751E+02  0.13178479792E+03  0.16612628896E+03  0.00000000000E+00 0.  1.
         11    1    1    2    0    0  0.53688727395E+01  0.24733588764E+02  0.42385450456E+02  0.49367009409E+02  0.00000000000E+00 0. -1.
</event>
<event>
 7    1  0.2644565E-009  0.1322878E+03  0.7561462E-02  0.1224100E+00
          1   -1    0    0  501    0  0.00000000000E+00  0.00000000000E+00  0.69591155048E+03  0.69591155048E+03  0.00000000000E+00 0. -1.
         -1   -1    0    0    0  501 -0.00000000000E+00 -0.00000000000E+00 -0.36311775048E+02  0.36311775048E+02  0.00000000000E+00 0.  1.
         25    2    1    2    0    0 -0.76098981765E+02 -0.11102173684E+02  0.54469242700E+03  0.56413818818E+03  0.12509093512E+03 0.  0.
          5    1    3    3  502    0  0.27525904470E+02  0.23192846910E+02  0.17159793807E+03  0.17538217787E+03  0.41800000000E+01 0.  1.
         -5    1    3    3    0  502 -0.10362488624E+03 -0.34295020595E+02  0.37309448893E+03  0.38875601031E+03  0.41800000000E+01 0.  1.
        -11    1    1    2    0    0  0.22427234277E+02  0.48673385028E+02  0.72055487196E+02  0.89800180860E+02  0.00000000000E+00 0. -1.
         11    1    1    2    0    0  0.53671747489E+02 -0.37571211344E+02  0.42851861235E+02  0.78284956484E+02  0.00000000000E+00 0.  1.
</event>
<event>
 7    1  0.2644565E-009  0.1653223E+03  0.7561462E-02  0.1182816E+00
          2   -1    0    0  501    0  0.00000000000E+00  0.00000000000E+00  0.30861128812E+02  0.30861128812E+02  0.00000000000E+00 0. -1.
         -2   -1    0    0    0  501 -0.00000000000E+00 -0.00000000000E+00 -0.97003970849E+03  0.97003970849E+03  0.00000000000E+00 0.  1.
         25    2    1    2    0    0 -0.61362837132E+02  0.10981938688E+03 -0.35941668101E+03  0.40081656365E+03  0.12509145291E+03 0.  0.
          5    1    3    3  502    0 -0.74960412453E+02  0.10900480830E+02 -0.18221132424E+03  0.19737356206E+03  0.41800000000E+01 0. -1.
         -5    1    3    3    0  502  0.13597575320E+02  0.98918906055E+02 -0.17720535677E+03  0.20344300159E+03  0.41800000000E+01 0. -1.
        -11    1    1    2    0    0  0.54394294168E+01 -0.97408187874E+02 -0.36673541209E+03  0.37949019083E+03  0.00000000000E+00 0.  1.
         11    1    1    2    0    0  0.55923407715E+02 -0.12411199010E+02 -0.21302648658E+03  0.22059408282E+03  0.00000000000E+00 0. -1.
</event>
<event>
 7    1  0.4158237E-009  0.1491063E+03  0.7561462E-02  0.1201575E+00
          1   -1    0    0  501    0  0.00000000000E+00  0.00000000000E+00  0.54293281967E+03  0.54293281967E+03  0.00000000000E+00 0. -1.
         -1   -1    0    0    0  501 -0.00000000000E+00 -0.00000000000E+00 -0.43019826580E+02  0.43019826580E+02  0.00000000000E+00 0.  1.
         25    2    1    2    0    0 -0.56838124869E+01 -0.10674932128E+03  0.27427068841E+03  0.31984416590E+03  0.12509259221E+03 0.  0.
          5    1    3    3  502    0  0.22874552637E+02  0.21123509015E+02  0.35110626928E+02  0.47113440914E+02  0.41800000000E+01 0.  1.
         -5    1    3    3    0  502 -0.28558365124E+02 -0.12787283029E+03  0.23916006148E+03  0.27273072499E+03  0.41800000000E+01 0.  1.
        -11    1    1    2    0    0 -0.38689788429E+02  0.40876205652E+02  0.13084306850E+03  0.14243480085E+03  0.00000000000E+00 0.  1.
         11    1    1    2    0    0  0.44373600916E+02  0.65873115627E+02  0.94799236180E+02  0.12367367950E+03  0.00000000000E+00 0. -1.
</event>
<event>
 7    1  0.2644565E-009  0.8888284E+02  0.7561462E-02  0.1305580E+00
         -1   -1    0    0    0  501 -0.00000000000E+00  0.00000000000E+00  0.12547662223E+03  0.12547662223E+03  0.00000000000E+00 0.  1.
          1   -1    0    0  501    0  0.00000000000E+00 -0.00000000000E+00 -0.10982536433E+03  0.10982536433E+03  0.00000000000E+00 0. -1.
         25    2    1    2    0    0  0.44588924306E+02 -0.10435600266E+02  0.23445050885E+01  0.13322909845E+03  0.12508965603E+03 0.  0.
          5    1    3    3  502    0  0.35695530298E+02 -0.46122574470E+02  0.47148462949E+02  0.75112666824E+02  0.41800000000E+01 0. -1.
         -5    1    3    3    0  502  0.88933940081E+01  0.35686974204E+02 -0.44803957860E+02  0.58116431625E+02  0.41800000000E+01 0. -1.
        -11    1    1    2    0    0 -0.43815040879E+01 -0.26993249762E+02  0.33769088437E+02  0.43453244351E+02  0.00000000000E+00 0.  1.
         11    1    1    2    0    0 -0.40207420218E+02  0.37428850028E+02 -0.20462335622E+02  0.58619643756E+02  0.00000000000E+00 0. -1.
</event>
<event>
 7    1  0.2644565E-009  0.1631173E+03  0.7561462E-02  0.1185222E+00
         -2   -1    0    0    0  501 -0.00000000000E+00  0.00000000000E+00  0.17368803252E+03  0.17368803252E+03  0.00000000000E+00 0.  1.
          2   -1    0    0  501    0  0.00000000000E+00 -0.00000000000E+00 -0.29539652691E+03  0.29539652691E+03  0.00000000000E+00 0. -1.
         25    2    1    2    0    0  0.25872876020E+02  0.12076210143E+03  0.97021795768E+02  0.20078492913E+03  0.12509383701E+03 0.  0.
          5    1    3    3  502    0 -0.48893742297E+02  0.48952610621E+02  0.56417480345E+02  0.89372034837E+02  0.41800000000E+01 0. -1.
         -5    1    3    3    0  502  0.74766618317E+02  0.71809490810E+02  0.40604315424E+02  0.11141289430E+03  0.41800000000E+01 0. -1.
        -11    1    1    2    0    0 -0.57047865253E+02 -0.10176150339E+03 -0.18427762504E+03  0.21810113615E+03  0.00000000000E+00 0.  1.
         11    1    1    2    0    0  0.31174989234E+02 -0.19000598043E+02 -0.34452665120E+02  0.50198494137E+02  0.00000000000E+00 0. -1.
</event>
<event>
 7    1  0.2644565E-009  0.8563425E+02  0.7561462E-02  0.1313782E+00
          2   -1    0    0  501    0  0.00000000000E+00  0.00000000000E+00  0.21454925346E+03  0.21454925346E+03  0.00000000000E+00 0. -1.
         -2   -1    0    0    0  501 -0.00000000000E+00 -0.00000000000E+00 -0.66565975565E+02  0.66565975565E+02  0.00000000000E+00 0.  1.
         25    2    1    2    0    0  0.47371356263E+02 -0.21069286973E+02  0.88888989435E+02  0.16197821055E+03  0.12509087898E+03 0.  0.
          5    1    3    3  502    0  0.73551640194E+02  0.14054994500E+02  0.15771961708E+02  0.76639505621E+02  0.41800000000E+01 0.  1.
         -5    1    3    3    0  502 -0.26180283932E+02 -0.35124281473E+02  0.73117027726E+02  0.85338704931E+02  0.41800000000E+01 0.  1.
        -11    1    1    2    0    0 -0.18513732127E+02  0.47626741721E+01 -0.23409868345E+02  0.30223555027E+02  0.00000000000E+00 0.  1.
         11    1    1    2    0    0 -0.28857624135E+02  0.16306612801E+02  0.82504156801E+02  0.88913463442E+02  0.00000000000E+00 0. -1.
</event>
<event>
 7    1  0.2644565E-009  0.1002114E+03  0.7561462E-02  0.1279852E+00
         -1   -1    0    0    0  501 -0.00000000000E+00  0.00000000000E+00  0.11071055840E+04  0.11071055840E+04  0.00000000000E+00 0.  1.
          1   -1    0    0  501    0  0.00000000000E+00 -0.00000000000E+00 -0.14681479402E+02  0.14681479402E+02  0.00000000000E+00 0. -1.
         25    2    1    2    0    0 -0.32259900781E+02 -0.48726437572E+02  0.73661918867E+03  0.74944725896E+03  0.12509355670E+03 0.  0.
          5    1    3    3  502    0 -0.22698024463E+02 -0.67593066787E+02  0.71619849691E+03  0.71975119476E+03  0.41800000000E+01 0. -1.
         -5    1    3    3    0  502 -0.95618763185E+01  0.18866629215E+02  0.20420691763E+02  0.29696064196E+02  0.41800000000E+01 0. -1.
        -11    1    1    2    0    0 -0.19781930408E+02 -0.15242602968E+02  0.11884893038E+03  0.12144434926E+03  0.00000000000E+00 0.  1.
         11    1    1    2    0    0  0.52041831189E+02  0.63969040540E+02  0.23695598552E+03  0.25089545515E+03  0.00000000000E+00 0. -1.
</event>
<event>
 7    1  0.2644565E-009  0.1024065E+03  0.7561462E-02  0.1275315E+00
         -2   -1    0    0    0  501 -0.00000000000E+00  0.00000000000E+00  0.89711039716E+03  0.89711039716E+03  0.00000000000E+00 0.  1.
          2   -1    0    0  501    0  0.00000000000E+00 -0.00000000000E+00 -0.18138798907E+02  0.18138798907E+02  0.00000000000E+00 0. -1.
         25    2    1    2    0    0 -0.31625699076E+01  0.57720058398E+02  0.59198474255E+03  0.60781170398E+03  0.12509006789E+03 0.  0.
          5    1    3    3  502    0  0.25516892572E+01  0.95463311799E+02  0.35085747770E+03  0.36364570268E+03  0.41800000000E+01 0. -1.
         -5    1    3    3    0  502 -0.57142591648E+01 -0.37743253402E+02  0.24112726485E+03  0.24416600130E+03  0.41800000000E+01 0. -1.
        -11    1    1    2    0    0  0.19456265117E+02 -0.48135840674E+02  0.28350020626E+03  0.28821514943E+03  0.00000000000E+00 0.  1.
         11    1    1    2    0    0 -0.16293695209E+02 -0.95842177233E+01  0.34866494334E+01  0.19222342657E+02  0.00000000000E+00 0. -1.
</event>
<event>
 7    1  0.2644565E-009  0.1088169E+03  0.7561462E-02  0.1262777E+00
         -2   -1    0    0    0  501 -0.00000000000E+00  0.00000000000E+00  0.40073128162E+02  0.40073128162E+02  0.00000000000E+00 0.  1.
          2   -1    0    0  501    0  0.00000000000E+00 -0.00000000000E+00 -0.55978803120E+03  0.55978803120E+03  0.00000000000E+00 0. -1.
         25    2    1    2    0    0  0.15286721956E+02  0.47091702640E+02 -0.10236763260E+03  0.16905036237E+03  0.12509028934E+03 0.  0.
          5    1    3    3  502    0  0.63361891543E+02  0.30720200691E+02 -0.93820264362E+02  0.11738046871E+03  0.41800000000E+01 0.  1.
         -5    1    3    3    0  502 -0.48075169586E+02  0.16371501949E+02 -0.85473682422E+01  0.51669893658E+02  0.41800000000E+01 0.  1.
        -11    1    1    2    0    0  0.55116822497E+01  0.22674698268E+02 -0.38401982224E+02  0.44935874549E+02  0.00000000000E+00 0. -1.
         11    1    1    2    0    0 -0.20798404206E+02 -0.69766400908E+02 -0.37894528820E+03  0.38587492244E+03  0.00000000000E+00 0.  1.
</event>
<event>
 7    1  0.2644565E-009  0.1178888E+03  0.7561462E-02  0.1246621E+00
         -3   -1    0    0    0  501 -0.00000000000E+00  0.00000000000E+00  0.46431238576E+02  0.46431238576E+02  0.00000000000E+00 0.  1.
          3   -1    0    0  501    0  0.00000000000E+00 -0.00000000000E+00 -0.46048413203E+03  0.46048413203E+03  0.00000000000E+00 0. -1.
         25    2    1    2    0    0  0.21827718936E+02  0.73860788867E+02 -0.33053752274E+03  0.36170907992E+03  0.12508612677E+03 0.  0.
          5    1    3    3  502    0  0.70937601456E+02  0.24035235313E+02 -0.19892693025E+03  0.21260110963E+03  0.41800000000E+01 0.  1.
         -5    1    3    3    0  502 -0.49109882519E+02  0.49825553554E+02 -0.13161059249E+03  0.14910797029E+03  0.41800000000E+01 0.  1.
        -11    1    1    2    0    0 -0.34887436806E+02 -0.33931926724E+02 -0.90369079158E+02  0.10264053471E+03  0.00000000000E+00 0. -1.
         11    1    1    2    0    0  0.13059717869E+02 -0.39928862143E+02  0.68537084387E+01  0.42565755981E+02  0.00000000000E+00 0.  1.
</event>
<event>
 7    1  0.2644565E-009  0.1312210E+03  0.7561462E-02  0.1225655E+00
         -1   -1    0    0    0  501 -0.00000000000E+00  0.00000000000E+00  0.19708613020E+03  0.19708613020E+03  0.00000000000E+00 0.  1.
          1   -1    0    0  501    0  0.00000000000E+00 -0.00000000000E+00 -0.14570639492E+03  0.14570639492E+03  0.00000000000E+00 0. -1.
         25    2    1    2    0    0 -0.12647241198E+03  0.23604304520E+02  0.26292133480E+02  0.18135860067E+03  0.12508889468E+03 0.  0.
          5    1    3    3  502    0 -0.10254592245E+03  0.16900851419E+02 -0.39224653974E+02  0.11116362206E+03  0.41800000000E+01 0. -1.
         -5    1    3    3    0  502 -0.23926489524E+02  0.67034531011E+01  0.65516787454E+02  0.70194978615E+02  0.41800000000E+01 0. -1.
        -11    1    1    2    0    0  0.69475085125E+02  0.46209166696E+01  0.57267193551E+02  0.90153601044E+02  0.00000000000E+00 0.  1.
         11    1    1    2    0    0  0.56997326850E+02 -0.28225221190E+02 -0.32179591751E+02  0.71280323403E+02  0.00000000000E+00 0. -1.
</event>
<event>
 7    1  0.2644565E-009  0.8830085E+02  0.7561462E-02  0.1307019E+00
         -2   -1    0    0    0  501 -0.00000000000E+00  0.00000000000E+00  0.72578149683E+02  0.72578149683E+02  0.00000000000E+00 0.  1.
          2   -1    0    0  501    0  0.00000000000E+00 -0.00000000000E+00 -0.17708758451E+03  0.17708758451E+03  0.00000000000E+00 0. -1.
         25    2    1    2    0    0  0.11004505773E+02 -0.21896296848E+02 -0.83967585908E+02  0.15263596153E+03  0.12508650729E+03 0.  0.
          5    1    3    3  502    0 -0.26036616166E+02 -0.60325496496E+02 -0.19148113853E+02  0.68565250477E+02  0.41800000000E+01 0.  1.
         -5    1    3    3    0  502  0.37041121939E+02  0.38429199648E+02 -0.64819472055E+02  0.84070711057E+02  0.41800000000E+01 0.  1.
        -11    1    1    2    0    0  0.10151919041E+02 -0.12953420138E+02  0.28710607056E+02  0.33093073460E+02  0.00000000000E+00 0.  1.
         11    1    1    2    0    0 -0.21156424814E+02  0.34849716986E+02 -0.49252455972E+02  0.63936699197E+02  0.00000000000E+00 0. -1.
</event>
<event>
 7    1  0.2644565E-009  0.1661358E+03  0.7561462E-02  0.1181939E+00
         -1   -1    0    0    0  501 -0.00000000000E+00  0.00000000000E+00  0.15672731317E+03  0.15672731317E+03  0.00000000000E+00 0.  1.
          1   -1    0    0  501    0  0.00000000000E+00 -0.00000000000E+00 -0.22788409566E+03  0.22788409566E+03  0.00000000000E+00 0. -1.
         25    2    1    2    0    0  0.79173076573E+02  0.12986916721E+03 -0.86207377679E+01  0.19711898313E+03  0.12508876746E+03 0.  0.
          5    1    3    3  502    0  0.53352344152E+02  0.13456591694E+03  0.32253406161E+02  0.14836513484E+03  0.41800000000E+01 0. -1.
         -5    1    3    3    0  502  0.25820732421E+02 -0.46967497263E+01 -0.40874143929E+02  0.48753848286E+02  0.41800000000E+01 0. -1.
        -11    1    1    2    0    0 -0.83937253016E+02 -0.99664674909E+02 -0.79385284932E+02  0.15257959671E+03  0.00000000000E+00 0. -1.
         11    1    1    2    0    0  0.47641764432E+01 -0.30204492301E+02  0.16849240217E+02  0.34912828992E+02  0.00000000000E+00 0.  1.
</event>
<event>
 7    1  0.2644565E-009  0.9717340E+02  0.7561462E-02  0.1286355E+00
         -2   -1    0    0    0  501 -0.00000000000E+00  0.00000000000E+00  0.83502452642E+02  0.83502452642E+02  0.00000000000E+00 0.  1.
          2   -1    0    0  501    0  0.00000000000E+00 -0.00000000000E+00 -0.15847650098E+03  0.15847650098E+03  0.00000000000E+00 0. -1.
         25    2    1    2    0    0 -0.99499155397E+01  0.34673775161E+02 -0.55588676171E+02  0.14155614147E+03  0.12508704475E+03 0.  0.
          5    1    3    3  502    0  0.19448265650E+02 -0.23492607294E+02  0.23688949636E+02  0.38842970653E+02  0.41800000000E+01 0. -1.
         -5    1    3    3    0  502 -0.29398181190E+02  0.58166382455E+02 -0.79277625807E+02  0.10271317081E+03  0.41800000000E+01 0. -1.
        -11    1    1    2    0    0  0.24362012369E+02  0.26154968910E+02 -0.10693216426E+02  0.37308644077E+02  0.00000000000E+00 0. -1.
         11    1    1    2    0    0 -0.14412096829E+02 -0.60828744071E+02 -0.86921557362E+01  0.63114168073E+02  0.00000000000E+00 0.  1.
</event>
<event>
 7    1  0.2644565E-009  0.1633751E+03  0.7561462E-02  0.1184938E+00
         -2   -1    0    0    0  501 -0.00000000000E+00  0.00000000000E+00  0.31130576824E+02  0.31130576824E+02  0.00000000000E+00 0.  1.
          2   -1    0    0  501    0  0.00000000000E+00 -0.00000000000E+00 -0.11828458843E+04  0.11828458843E+04  0.00000000000E+00 0. -1.
         25    2    1    2    0    0 -0.30536490350E+02  0.13599706264E+03 -0.37088057402E+03  0.41548546731E+03  0.12509234617E+03 0.  0.
          5    1    3    3  502    0  0.38608301970E+02  0.99808295257E+02 -0.18362011944E+03  0.21257026472E+03  0.41800000000E+01 0.  1.
         -5    1    3    3    0  502 -0.69144792320E+02  0.36188767380E+02 -0.18726045459E+03  0.20291520259E+03  0.41800000000E+01 0.  1.
        -11    1    1    2    0    0  0.34622364749E+02 -0.12666367186E+03 -0.77632011754E+03  0.78734701295E+03  0.00000000000E+00 0. -1.
         11    1    1    2    0    0 -0.40858743984E+01 -0.93333907761E+01 -0.45146159472E+01  0.11143980892E+02  0.00000000000E+00 0.  1.
</event>
<event>
 7    1  0.3289039E-009  0.1628186E+03  0.7561462E-02  0.1185551E+00
         -4   -1    0    0    0  501 -0.00000000000E+00  0.00000000000E+00  0.19172970187E+03  0.19172970187E+03  0.00000000000E+00 0.  1.
          4   -1    0    0  501    0  0.00000000000E+00 -0.00000000000E+00 -0.16290702243E+03  0.16290702243E+03  0.00000000000E+00 0. -1.
         25    2    1    2    0    0 -0.46369601814E+02 -0.12664996882E+03  0.50660198635E+02  0.19080553119E+03  0.12509972196E+03 0.  0.
          5    1    3    3  502    0  0.34577221601E+02 -0.86732703867E+02  0.22010078370E+02  0.96021154563E+02  0.41800000000E+01 0. -1.
         -5    1    3    3    0  502 -0.80946823415E+02 -0.39917264952E+02  0.28650120265E+02  0.94784376631E+02  0.41800000000E+01 0. -1.
        -11    1    1    2    0    0  0.29066620757E+02  0.23915742285E+02 -0.43392687569E+02  0.57443507081E+02  0.00000000000E+00 0. -1.
         11    1    1    2    0    0  0.17302981057E+02  0.10273422653E+03  0.21555168379E+02  0.10638768603E+03  0.00000000000E+00 0.  1.
</event>
<event>
 7    1  0.2644565E-009  0.1015001E+03  0.7561462E-02  0.1277173E+00
         -2   -1    0    0    0  501 -0.00000000000E+00  0.00000000000E+00  0.53838441423E+02  0.53838441423E+02  0.00000000000E+00 0.  1.
          2   -1    0    0  501    0  0.00000000000E+00 -0.00000000000E+00 -0.23924758039E+03  0.23924758039E+03  0.00000000000E+00 0. -1.
         25    2    1    2    0    0  0.45108291251E+01 -0.20774571031E+02 -0.68042175332E+02  0.14397966525E+03  0.12509386876E+03 0.  0.
          5    1    3    3  502    0 -0.59715341461E+02 -0.29441267394E+01 -0.35876960584E+02  0.69851403628E+02  0.41800000000E+01 0.  1.
         -5    1    3    3    0  502  0.64226170586E+02 -0.17830444292E+02 -0.32165214749E+02  0.74128261626E+02  0.41800000000E+01 0.  1.
        -11    1    1    2    0    0 -0.29632091280E+02  0.36215101412E+02 -0.26942021043E+02  0.53995063680E+02  0.00000000000E+00 0.  1.
         11    1    1    2    0    0  0.25121262154E+02 -0.15440530381E+02 -0.90424942596E+02  0.95111292884E+02  0.00000000000E+00 0. -1.
</event>
<event>
 7    1  0.2644565E-009  0.3362955E+03  0.7561462E-02  0.1068385E+00
          2   -1    0    0  501    0  0.00000000000E+00  0.00000000000E+00  0.26939433009E+04  0.26939433009E+04  0.00000000000E+00 0.  1.
         -2   -1    0    0    0  501 -0.00000000000E+00 -0.00000000000E+00 -0.47676068117E+02  0.47676068117E+02  0.00000000000E+00 0. -1.
         25    2    1    2    0    0  0.19175976484E+03  0.26452082524E+03  0.17581575819E+04  0.17926266033E+04  0.12509588939E+03 0.  0.
          5    1    3    3  502    0  0.99786234629E+02  0.22325347145E+03  0.11067305412E+04  0.11334325601E+04  0.41800000000E+01 0. -1.
         -5    1    3    3    0  502  0.91973530211E+02  0.41267353786E+02  0.65142704079E+03  0.65919404323E+03  0.41800000000E+01 0. -1.
        -11    1    1    2    0    0 -0.10746148427E+03 -0.16187612515E+03  0.62091355821E+03  0.65060394809E+03  0.00000000000E+00 0.  1.
         11    1    1    2    0    0 -0.84298280572E+02 -0.10264470009E+03  0.26719609258E+03  0.29838881758E+03  0.00000000000E+00 0. -1.
</event>
<event>
 7    1  0.2644565E-009  0.1121138E+03  0.7561462E-02  0.1256705E+00
          2   -1    0    0  501    0  0.00000000000E+00  0.00000000000E+00  0.18623729209E+03  0.18623729209E+03  0.00000000000E+00 0.  1.
         -2   -1    0    0    0  501 -0.00000000000E+00 -0.00000000000E+00 -0.73492128404E+02  0.73492128404E+02  0.00000000000E+00 0. -1.
         25    2    1    2    0    0  0.40838199299E+02 -0.17093414176E+02  0.71606546736E+02  0.15078061502E+03  0.12508938004E+03 0.  0.
          5    1    3    3  502    0 -0.42769973600E+02 -0.14049567593E+02  0.42635552682E+02  0.62144378216E+02  0.41800000000E+01 0. -1.
         -5    1    3    3    0  502  0.83608172900E+02 -0.30438465829E+01  0.28970994054E+02  0.88636236800E+02  0.41800000000E+01 0. -1.
        -11    1    1    2    0    0  0.21708529062E+02 -0.13557669753E+02 -0.40619015259E+01  0.25914661626E+02  0.00000000000E+00 0. -1.
         11    1    1    2    0    0 -0.62546728361E+02  0.30651083929E+02  0.45200518478E+02  0.83034143853E+02  0.00000000000E+00 0.  1.
</event>
<event>
 7    1  0.2644565E-009  0.2098449E+03  0.7561462E-02  0.1141689E+00
         -2   -1    0    0    0  501 -0.00000000000E+00  0.00000000000E+00  0.89014638082E+02  0.89014638082E+02  0.00000000000E+00 0.  1.
          2   -1    0    0  501    0  0.00000000000E+00 -0.00000000000E+00 -0.58708351187E+03  0.58708351187E+03  0.00000000000E+00 0. -1.
         25    2    1    2    0    0  0.19208150376E+03 -0.50012556544E+02 -0.30815159517E+03  0.38730051962E+03  0.12509087495E+03 0.  0.
          5    1    3    3  502    0  0.89685924256E+02 -0.51569147422E+02 -0.62048192437E+02  0.12070788110E+03  0.41800000000E+01 0.  1.
         -5    1    3    3    0  502  0.10239557951E+03  0.15565908775E+01 -0.24610340273E+03  0.26659263852E+03  0.41800000000E+01 0.  1.
        -11    1    1    2    0    0 -0.67558788572E+02 -0.20443724774E+02 -0.89583092173E+02  0.11404940245E+03  0.00000000000E+00 0. -1.
         11    1    1    2    0    0 -0.12452271519E+03  0.70456281318E+02 -0.10033418644E+03  0.17474822787E+03  0.00000000000E+00 0.  1.
</event>
<event>
 7    1  0.2707123E-009  0.1339029E+03  0.7561462E-02  0.1221777E+00
          2   -1    0    0  501    0  0.00000000000E+00  0.00000000000E+00  0.54711336353E+03  0.54711336353E+03  0.00000000000E+00 0. -1.
         -2   -1    0    0    0  501 -0.00000000000E+00 -0.00000000000E+00 -0.33846953336E+02  0.33846953336E+02  0.00000000000E+00 0.  1.
         25    2    1    2    0    0 -0.74279521200E+02 -0.30570877865E+02  0.30588587251E+03  0.34009761877E+03  0.12509275539E+03 0.  0.
          5    1    3    3  502    0 -0.34734426313E+01 -0.66372858338E+02  0.17157454017E+03  0.18404541929E+03  0.41800000000E+01 0. -1.
         -5    1    3    3    0  502 -0.70806078569E+02  0.35801980472E+02  0.13431133234E+03  0.15605219948E+03  0.41800000000E+01 0. -1.
        -11    1    1    2    0    0 -0.14420740515E+02  0.29742264970E+02  0.45024758238E+02  0.55855070826E+02  0.00000000000E+00 0.  1.
         11    1    1    2    0    0  0.88700261716E+02  0.82861289570E+00  0.16235577945E+03  0.18500762727E+03  0.00000000000E+00 0. -1.
</event>
<event>
 7    1  0.2644565E-009  0.8695793E+02  0.7561462E-02  0.1310390E+00
          2   -1    0    0  501    0  0.00000000000E+00  0.00000000000E+00  0.51025736290E+02  0.51025736290E+02  0.00000000000E+00 0. -1.
         -2   -1    0    0    0  501 -0.00000000000E+00 -0.00000000000E+00 -0.38798659512E+03  0.38798659512E+03  0.00000000000E+00 0.  1.
         25    2    1    2    0    0 -0.42970094505E+02 -0.21743685456E+02 -0.68351051837E+02  0.15046007695E+03  0.12508857498E+03 0.  0.
          5    1    3    3  502    0 -0.67161698418E+02 -0.10270845349E+02 -0.92033087569E+02  0.11447159301E+03  0.41800000000E+01 0. -1.
         -5    1    3    3    0  502  0.24191603913E+02 -0.11472840107E+02  0.23682035731E+02  0.35988483941E+02  0.41800000000E+01 0. -1.
        -11    1    1    2    0    0  0.16744042056E+02 -0.22058120417E+02 -0.18545199162E+02  0.33329386923E+02  0.00000000000E+00 0. -1.
         11    1    1    2    0    0  0.26226052450E+02  0.43801805874E+02 -0.25006460783E+03  0.25522286754E+03  0.00000000000E+00 0.  1.
</event>
<event>
 6    1  0.2644565E-009  0.1059716E+03  0.7561462E-02  0.1268217E+00
         -2   -1    0    0    0  501 -0.00000000000E+00  0.00000000000E+00  0.14091929082E+03  0.14091929082E+03  0.00000000000E+00 0.  1.
          2   -1    0    0  501    0  0.00000000000E+00 -0.00000000000E+00 -0.15783690415E+03  0.15783690415E+03  0.00000000000E+00 0. -1.
          5    1    1    2  502    0  0.32928439290E+02  0.99030913177E+01  0.74396514044E+02  0.82065017112E+02  0.41800000000E+01 0. -1.
         -5    1    1    2    0  502  0.59443960622E+02 -0.12461739175E+02 -0.45728835984E+02  0.76141173081E+02  0.41800000000E+01 0. -1.
        -11    1    1    2    0    0 -0.34826982663E+02  0.35818782550E+02  0.13356831550E+02  0.51713720170E+02  0.00000000000E+00 0.  1.
         11    1    1    2    0    0 -0.57545417248E+02 -0.33260134692E+02 -0.58942122941E+02  0.88836284608E+02  0.00000000000E+00 0. -1.
</event>
<event>
 7    1  0.3903325E-009  0.1988142E+03  0.7561462E-02  0.1150743E+00
          1   -1    0    0  501    0  0.00000000000E+00  0.00000000000E+00  0.82461628872E+03  0.82461628872E+03  0.00000000000E+00 0. -1.
         -1   -1    0    0    0  501 -0.00000000000E+00 -0.00000000000E+00 -0.57086496272E+02  0.57086496272E+02  0.00000000000E+00 0.  1.
         25    2    1    2    0    0  0.66778950306E+02  0.16162176903E+03  0.26168154487E+03  0.33868281159E+03  0.12509113283E+03 0.  0.
          5    1    3    3  502    0 -0.31320549155E+02  0.71491104299E+02  0.68180962803E+02  0.10372112071E+03  0.41800000000E+01 0.  1.
         -5    1    3    3    0  502  0.98099499461E+02  0.90130664727E+02  0.19350058207E+03  0.23496169088E+03  0.41800000000E+01 0.  1.
        -11    1    1    2    0    0 -0.46551043444E+02 -0.35748529357E+02  0.85075170056E+02  0.10335734883E+03  0.00000000000E+00 0. -1.
         11    1    1    2    0    0 -0.20227906862E+02 -0.12587323967E+03  0.42077307752E+03  0.43966262457E+03  0.00000000000E+00 0.  1.
</event>
<event>
 6    1  0.2644565E-009  0.8435195E+02  0.7561462E-02  0.1317136E+00
         -2   -1    0    0    0  501 -0.00000000000E+00  0.00000000000E+00  0.35731431168E+02  0.35731431168E+02  0.00000000000E+00 0.  1.
          2   -1    0    0  501    0  0.00000000000E+00 -0.00000000000E+00 -0.77615545766E+03  0.77615545766E+03  0.00000000000E+00 0. -1.
          5    1    1    2  502    0  0.67368665396E+02  0.18572779775E+02 -0.15068354198E+03  0.16615200104E+03  0.41800000000E+01 0. -1.
         -5    1    1    2    0  502  0.20040408660E+01 -0.50713960501E+01 -0.49150094539E+03  0.49154896700E+03  0.41800000000E+01 0. -1.
        -11    1    1    2    0    0 -0.30643129797E+02 -0.35809899361E+02 -0.97230086445E+00  0.47141231051E+02  0.00000000000E+00 0.  1.
         11    1    1    2    0    0 -0.38729576465E+02  0.22308515636E+02 -0.97267238261E+02  0.10704468974E+03  0.00000000000E+00 0. -1.
</event>
<event>
 7    1  0.2644565E-009  0.1536589E+03  0.7561462E-02  0.1196048E+00
         -2   -1    0    0    0  501 -0.00000000000E+00  0.00000000000E+00  0.13023610946E+03  0.13023610946E+03  0.00000000000E+00 0.  1.
          2   -1    0    0  501    0  0.00000000000E+00 -0.00000000000E+00 -0.19979867906E+03  0.19979867906E+03  0.00000000000E+00 0. -1.
         25    2    1    2    0    0  0.50012985741E+02  0.10615087299E+03 -0.56237014299E+02  0.18049856237E+03  0.12509125733E+03 0.  0.
          5    1    3    3  502    0 -0.31153948011E+02 -0.69042315871E+01 -0.82360483210E+01  0.33219599372E+02  0.41800000000E+01 0. -1.
         -5    1    3    3    0  502  0.81166933752E+02  0.11305510458E+03 -0.48000965978E+02  0.14727896300E+03  0.41800000000E+01 0. -1.
        -11    1    1    2    0    0  0.16725061413E+02 -0.32205332085E+02  0.23617020582E+02  0.43297514422E+02  0.00000000000E+00 0.  1.
         11    1    1    2    0    0 -0.66738047154E+02 -0.73945540907E+02 -0.36942575874E+02  0.10623871173E+03  0.00000000000E+00 0. -1.
</event>
<event>
 7    1  0.2644565E-009  0.2468149E+03  0.7561462E-02  0.1115334E+00
          2   -1    0    0  501    0  0.00000000000E+00  0.00000000000E+00  0.17060889750E+04  0.17060889750E+04  0.00000000000E+00 0. -1.
         -2   -1    0    0    0  501 -0.00000000000E+00 -0.00000000000E+00 -0.38207124460E+02  0.38207124460E+02  0.00000000000E+00 0.  1.
         25    2    1    2    0    0  0.79685749765E+02  0.20857454999E+03  0.10524462628E+04  0.10831180514E+04  0.12509362766E+03 0.  0.
          5    1    3    3  502    0 -0.25954156661E+02  0.95494384941E+02  0.47978756747E+03  0.48990445814E+03  0.41800000000E+01 0.  1.
         -5    1    3    3    0  502  0.10563990643E+03  0.11308016505E+03  0.57265869528E+03  0.59321359327E+03  0.41800000000E+01 0.  1.
        -11    1    1    2    0    0 -0.78788107363E+02 -0.83876680712E+02  0.33660348043E+03  0.35573131218E+03  0.00000000000E+00 0. -1.
         11    1    1    2    0    0 -0.89764240168E+00 -0.12469786928E+03  0.27883210739E+03  0.30544673591E+03  0.00000000000E+00 0.  1.
</event>
<event>
 7    1  0.2644565E-009  0.1660494E+03  0.7561462E-02  0.1182031E+00
          2   -1    0    0  501    0  0.00000000000E+00  0.00000000000E+00  0.25877161321E+03  0.25877161321E+03  0.00000000000E+00 0.  1.
         -2   -1    0    0    0  501 -0.00000000000E+00 -0.00000000000E+00 -0.15942570450E+03  0.15942570450E+03  0.00000000000E+00 0. -1.
         25    2    1    2    0    0 -0.93507877782E+02 -0.91898427192E+02  0.16609294056E+03  0.24581428901E+03  0.12509498651E+03 0.  0.
          5    1    3    3  502    0 -0.10791035833E+03 -0.33088618092E+02  0.72325967448E+02  0.13411942458E+03  0.41800000000E+01 0.  1.
         -5    1    3    3    0  502  0.14402480552E+02 -0.58809809100E+02  0.93766973113E+02  0.11169486443E+03  0.41800000000E+01 0.  1.
        -11    1    1    2    0    0  0.63436515449E+02  0.10731878852E+03 -0.46928259190E+02  0.13320576329E+03  0.00000000000E+00 0.  1.
         11    1    1    2    0    0  0.30071362333E+02 -0.15420361329E+02 -0.19818772659E+02  0.39177265420E+02  0.00000000000E+00 0. -1.
</event>
<event>
 7    1  0.2644565E-009  0.8015039E+02  0.7561462E-02  0.1328625E+00
          1   -1    0    0  501    0  0.00000000000E+00  0.00000000000E+00  0.63152246240E+02  0.63152246240E+02  0.00000000000E+00 0. -1.
         -1   -1    0    0    0  501 -0.00000000000E+00 -0.00000000000E+00 -0.33505324377E+03  0.33505324377E+03  0.00000000000E+00 0.  1.
         25    2    1    2    0    0  0.16321824540E+02  0.57667359222E+02 -0.25214962269E+03  0.28778291024E+03  0.12509054691E+03 0.  0.
          5    1    3    3  502    0  0.20204239027E+02  0.30268918186E+02 -0.26597092074E+01  0.36728260725E+02  0.41800000000E+01 0. -1.
         -5    1    3    3    0  502 -0.38824144872E+01  0.27398441035E+02 -0.24948991348E+03  0.25105464951E+03  0.41800000000E+01 0. -1.
        -11    1    1    2    0    0  0.91624481751E+01  0.15610110775E+02  0.16768889305E+02  0.24674311814E+02  0.00000000000E+00 0. -1.
         11    1    1    2    0    0 -0.25484272715E+02 -0.73277469996E+02 -0.36520264151E+02  0.85748267962E+02  0.00000000000E+00 0.  1.
</event>
<event>
 7    1  0.2644565E-009  0.2062307E+03  0.7561462E-02  0.1144586E+00
         -2   -1    0    0    0  501 -0.00000000000E+00  0.00000000000E+00  0.58283689530E+03  0.58283689530E+03  0.00000000000E+00 0.  1.
          2   -1    0    0  501    0  0.00000000000E+00 -0.00000000000E+00 -0.97843205323E+02  0.97843205323E+02  0.00000000000E+00 0. -1.
         25    2    1    2    0    0  0.19996780971E+02 -0.19408716944E+03  0.13007730861E+03  0.26577704234E+03  0.12509048497E+03 0.  0.
          5    1    3    3  502    0 -0.99663972371E+01 -0.82866103319E+02  0.12505264456E+03  0.15040530730E+03  0.41800000000E+01 0.  1.
         -5    1    3    3    0  502  0.29963178208E+02 -0.11122106612E+03  0.50246640508E+01  0.11537173504E+03  0.41800000000E+01 0.  1.
        -11    1    1    2    0    0 -0.52539096059E+02  0.14926416657E+03  0.28160107156E+03  0.32301596174E+03  0.00000000000E+00 0.  1.
         11    1    1    2    0    0  0.32542315088E+02  0.44823002873E+02  0.73315309812E+02  0.91887096541E+02  0.00000000000E+00 0. -1.
</event>
<event>
 7    1  0.2644565E-009  0.1060783E+03  0.7561462E-02  0.1268010E+00
          3   -1    0    0  501    0  0.00000000000E+00  0.00000000000E+00  0.13299200860E+02  0.13299200860E+02  0.00000000000E+00 0. -1.
         -3   -1    0    0    0  501 -0.00000000000E+00 -0.00000000000E+00 -0.94467252253E+03  0.94467252253E+03  0.00000000000E+00 0.  1.
         25    2    1    2    0    0  0.16787354388E+02 -0.71282317196E+01 -0.63537842006E+03  0.64783168636E+03  0.12509008842E+03 0.  0.
          5    1    3    3  502    0 -0.61379692734E+00  0.54982292685E+02 -0.39832152360E+03  0.40212055135E+03  0.41800000000E+01 0. -1.
         -5    1    3    3    0  502  0.17401151316E+02 -0.62110524405E+02 -0.23705689646E+03  0.24571113501E+03  0.41800000000E+01 0. -1.
        -11    1    1    2    0    0  0.32118096010E+02 -0.18599611627E+02 -0.10858281443E+03  0.11475079622E+03  0.00000000000E+00 0.  1.
         11    1    1    2    0    0 -0.48905450399E+02  0.25727843346E+02 -0.18741208718E+03  0.19538924081E+03  0.00000000000E+00 0. -1.
</event>
<event>
 7    1  0.2644565E-009  0.1684171E+03  0.7561462E-02  0.1179509E+00
          2   -1    0    0  501    0  0.00000000000E+00  0.00000000000E+00  0.44134574106E+03  0.44134574106E+03  0.00000000000E+00 0. -1.
         -2   -1    0    0    0  501 -0.00000000000E+00 -0.00000000000E+00 -0.78363198324E+02  0.78363198324E+02  0.00000000000E+00 0.  1.
         25    2    1    2    0    0  0.20630176385E+02  0.14928270869E+03  0.18306845859E+03  0.26808955394E+03  0.12508803742E+03 0.  0.
          5    1    3    3  502    0  0.63711370174E+02  0.63652711912E+02  0.47219970332E+02  0.10177428173E+03  0.41800000000E+01 0.  1.
         -5    1    3    3    0  502 -0.43081193789E+02  0.85629996781E+02  0.13584848826E+03  0.16631527221E+03  0.41800000000E+01 0.  1.
        -11    1    1    2    0    0 -0.11710469089E+02 -0.74101813773E+02  0.15451430271E+03  0.17176403475E+03  0.00000000000E+00 0. -1.
         11    1    1    2    0    0 -0.89197072961E+01 -0.75180894920E+02  0.25399781440E+02  0.79855350706E+02  0.00000000000E+00 0.  1.
</event>
<event>
 7    1  0.2644565E-009  0.2842760E+03  0.7561462E-02  0.1093376E+00
          1   -1    0    0  501    0  0.00000000000E+00  0.00000000000E+00  0.84097042645E+02  0.84097042645E+02  0.00000000000E+00 0. -1.
         -1   -1    0    0    0  501 -0.00000000000E+00 -0.00000000000E+00 -0.98426617076E+03  0.98426617076E+03  0.00000000000E+00 0.  1.
         25    2    1    2    0    0  0.30263916476E+02  0.26344601808E+03 -0.41395949779E+03  0.50727683842E+03  0.12509043091E+03 0.  0.
          5    1    3    3  502    0  0.66323158919E+02  0.90378580274E+02 -0.12032837912E+03  0.16450969699E+03  0.41800000000E+01 0. -1.
         -5    1    3    3    0  502 -0.36059242443E+02  0.17306743780E+03 -0.29363111867E+03  0.34276714143E+03  0.41800000000E+01 0. -1.
        -11    1    1    2    0    0 -0.52027031428E+02 -0.84211299218E+02 -0.15647793805E+03  0.18515858071E+03  0.00000000000E+00 0.  1.
         11    1    1    2    0    0  0.21763114952E+02 -0.17923471886E+03 -0.32973169228E+03  0.37592779428E+03  0.00000000000E+00 0. -1.
</event>
<event>
 7    1  0.2644565E-009  0.1186835E+03  0.7561462E-02  0.1245285E+00
         -3   -1    0    0    0  501 -0.00000000000E+00  0.00000000000E+00  0.26112452991E+03  0.26112452991E+03  0.00000000000E+00 0.  1.
          3   -1    0    0  501    0  0.00000000000E+00 -0.00000000000E+00 -0.66070069431E+02  0.66070069431E+02  0.00000000000E+00 0. -1.
         25    2    1    2    0    0  0.35113454078E+02 -0.64610446232E+02  0.11537030633E+03  0.18538038487E+03  0.12509242620E+03 0.  0.
          5    1    3    3  502    0  0.76182371266E+02 -0.63989396444E+02  0.10055357233E+03  0.14151639430E+03  0.41800000000E+01 0. -1.
         -5    1    3    3    0  502 -0.41068917188E+02 -0.62104978771E+00  0.14816734004E+02  0.43863990566E+02  0.41800000000E+01 0. -1.
        -11    1    1    2    0    0  0.74150281835E+01  0.51454199698E+02  0.82163385171E+02  0.97228283808E+02  0.00000000000E+00 0. -1.
         11    1    1    2    0    0 -0.42528482262E+02  0.13156246534E+02 -0.24792310267E+01  0.44585930660E+02  0.00000000000E+00 0.  1.
</event>
<event>
 7    1  0.2644565E-009  0.1232701E+03  0.7561462E-02  0.1237798E+00
         -2   -1    0    0    0  501 -0.00000000000E+00  0.00000000000E+00  0.54974605752E+02  0.54974605752E+02  0.00000000000E+00 0. -1.
          2   -1    0    0  501    0  0.00000000000E+00 -0.00000000000E+00 -0.43445451158E+03  0.43445451158E+03  0.00000000000E+00 0.  1.
         25    2    1    2    0    0 -0.67022065227E+02 -0.26636115212E+02 -0.33627109517E+03  0.36596121173E+03  0.12509164314E+03 0.  0.
          5    1    3    3  502    0 -0.30885105062E+02 -0.68838069543E+02 -0.11368437844E+03  0.13650706881E+03  0.41800000000E+01 0. -1.
         -5    1    3    3    0  502 -0.36136960165E+02  0.42201954331E+02 -0.22258671673E+03  0.22945414292E+03  0.41800000000E+01 0. -1.
        -11    1    1    2    0    0  0.38812169738E+02  0.60067462073E+02 -0.21783708080E+02  0.74759711458E+02  0.00000000000E+00 0.  1.
         11    1    1    2    0    0  0.28209895489E+02 -0.33431346861E+02 -0.21425102579E+02  0.48708194146E+02  0.00000000000E+00 0. -1.
</event>
<event>
 7    1  0.2644565E-009  0.1067334E+03  0.7561462E-02  0.1266742E+00
         -2   -1    0    0    0  501 -0.00000000000E+00  0.00000000000E+00  0.11772081657E+03  0.11772081657E+03  0.00000000000E+00 0.  1.
          2   -1    0    0  501    0  0.00000000000E+00 -0.00000000000E+00 -0.11297909713E+03  0.11297909713E+03  0.00000000000E+00 0. -1.
         25    2    1    2    0    0 -0.26802774337E+02  0.28474676225E+02 -0.53133619018E+01  0.13116607672E+03  0.12508841660E+03 0.  0.
          5    1    3    3  502    0  0.18765327330E+02 -0.35282407022E+02 -0.28583715351E+02  0.49310109900E+02  0.41800000000E+01 0. -1.
         -5    1    3    3    0  502 -0.45568101667E+02  0.63757083247E+02  0.23270353450E+02  0.81855966815E+02  0.41800000000E+01 0. -1.
        -11    1    1    2    0    0 -0.30458201097E+02  0.85949223415E+00 -0.10120491682E+02  0.32107087891E+02  0.00000000000E+00 0. -1.
         11    1    1    2    0    0  0.57260975434E+02 -0.29334168459E+02  0.20175573026E+02  0.67426749097E+02  0.00000000000E+00 0.  1.
</event>
<event>
 7    1  0.2644565E-009  0.9599832E+02  0.7561462E-02  0.1288943E+00
         -1   -1    0    0    0  501 -0.00000000000E+00  0.00000000000E+00  0.39414937816E+02  0.39414937816E+02  0.00000000000E+00 0.  1.
          1   -1    0    0  501    0  0.00000000000E+00 -0.00000000000E+00 -0.39243950998E+03  0.39243950998E+03  0.00000000000E+00 0. -1.
         25    2    1    2    0    0  0.56949373819E+02 -0.90593265393E+01 -0.23216013846E+03  0.26994474994E+03  0.12508611256E+03 0.  0.
          5    1    3    3  502    0  0.97072722016E+01 -0.52494954828E+02 -0.17795437882E+03  0.18583644626E+03  0.41800000000E+01 0.  1.
         -5    1    3    3    0  502  0.47242101618E+02  0.43435628289E+02 -0.54205759632E+02  0.84108303677E+02  0.41800000000E+01 0.  1.
        -11    1    1    2    0    0 -0.21162454684E+02 -0.19171714868E+02 -0.11185979843E+03  0.11544703827E+03  0.00000000000E+00 0. -1.
         11    1    1    2    0    0 -0.35786919135E+02  0.28231041408E+02 -0.90046352791E+01  0.46462659595E+02  0.00000000000E+00 0.  1.
</event>
<event>
 7    1  0.2644565E-009  0.7478438E+02  0.7561462E-02  0.1344540E+00
          1   -1    0    0  501    0  0.00000000000E+00  0.00000000000E+00  0.38562001383E+03  0.38562001383E+03  0.00000000000E+00 0. -1.
         -1   -1    0    0    0  501 -0.00000000000E+00 -0.00000000000E+00 -0.33731262158E+02  0.33731262158E+02  0.00000000000E+00 0.  1.
         25    2    1    2    0    0 -0.15726775628E+02  0.31725223290E+01  0.26451839979E+03  0.29304338516E+03  0.12508815047E+03 0.  0.
          5    1    3    3  502    0 -0.46775893687E+02  0.12175366915E+02  0.31698250913E+02  0.57952353712E+02  0.41800000000E+01 0.  1.
         -5    1    3    3    0  502  0.31049118059E+02 -0.90028445858E+01  0.23282014888E+03  0.23509103144E+03  0.41800000000E+01 0.  1.
        -11    1    1    2    0    0 -0.11801005299E+02  0.25874074646E+02 -0.18759256964E+01  0.28500009861E+02  0.00000000000E+00 0.  1.
         11    1    1    2    0    0  0.27527780927E+02 -0.29046596975E+02  0.89246277575E+02  0.97807880969E+02  0.00000000000E+00 0. -1.
</event>
<event>
 7    1  0.3452822E-009  0.1326440E+03  0.7561462E-02  0.1223584E+00
          2   -1    0    0  501    0  0.00000000000E+00  0.00000000000E+00  0.42606117344E+03  0.42606117344E+03  0.00000000000E+00 0. -1.
         -2   -1    0    0    0  501 -0.00000000000E+00 -0.00000000000E+00 -0.51967212341E+02  0.51967212341E+02  0.00000000000E+00 0.  1.
         25    2    1    2    0    0 -0.89474810082E+02 -0.36328375101E+02  0.15352814247E+03  0.22032674718E+03  0.12508993771E+03 0.  0.
          5    1    3    3  502    0  0.20237809324E+02 -0.43252960582E+02  0.43361926331E+02  0.64638352242E+02  0.41800000000E+01 0.  1.
         -5    1    3    3    0  502 -0.10971261941E+03  0.69245854810E+01  0.11016621613E+03  0.15568839494E+03  0.41800000000E+01 0.  1.
        -11    1    1    2    0    0  0.54984180503E+02  0.45815171866E+02  0.60584232037E+02  0.93769607284E+02  0.00000000000E+00 0.  1.
         11    1    1    2    0    0  0.34490629578E+02 -0.94867967644E+01  0.15998158659E+03  0.16393203131E+03  0.00000000000E+00 0. -1.
</event>
<event>
 7    1  0.2644565E-009  0.7811547E+02  0.7561462E-02  0.1334486E+00
          1   -1    0    0  501    0  0.00000000000E+00  0.00000000000E+00  0.21667805287E+03  0.21667805287E+03  0.00000000000E+00 0. -1.
         -1   -1    0    0    0  501 -0.00000000000E+00 -0.00000000000E+00 -0.69498118185E+02  0.69498118185E+02  0.00000000000E+00 0.  1.
         25    2    1    2    0    0  0.13956924246E+02 -0.50430351288E+01  0.18227182076E+02  0.12728070454E+03  0.12509164498E+03 0.  0.
          5    1    3    3  502    0 -0.12038436553E+02 -0.41074550960E+02 -0.36681203475E+02  0.56524559083E+02  0.41800000000E+01 0. -1.
         -5    1    3    3    0  502  0.25995360799E+02  0.36031515831E+02  0.54908385551E+02  0.70756145457E+02  0.41800000000E+01 0. -1.
        -11    1    1    2    0    0 -0.24851625482E+02 -0.25839476309E+02  0.11957145132E+03  0.12483034004E+03  0.00000000000E+00 0. -1.
         11    1    1    2    0    0  0.10894701236E+02  0.30882511437E+02  0.93813012927E+01  0.34065126473E+02  0.00000000000E+00 0.  1.
</event>
<event>
 7    1  0.2644565E-009  0.1577559E+03  0.7561462E-02  0.1191254E+00
          1   -1    0    0  501    0  0.00000000000E+00  0.00000000000E+00  0.53406828010E+03  0.53406828010E+03  0.00000000000E+00 0. -1.
         -1   -1    0    0    0  501 -0.00000000000E+00 -0.00000000000E+00 -0.55152829044E+02  0.55152829044E+02  0.00000000000E+00 0.  1.
         25    2    1    2    0    0 -0.38405171170E+02 -0.12696226761E+03  0.23367030707E+03  0.29638593756E+03  0.12509371292E+03 0.  0.
          5    1    3    3  502    0 -0.21784580991E+02 -0.15051662110E+03  0.18346022507E+03  0.23833788574E+03  0.41800000000E+01 0.  1.
         -5    1    3    3    0  502 -0.16620590179E+02  0.23554353492E+02  0.50210081997E+02  0.58048051823E+02  0.41800000000E+01 0.  1.
        -11    1    1    2    0    0  0.31879452817E+02  0.70147525183E+02  0.56310420196E+02  0.95434994755E+02  0.00000000000E+00 0.  1.
         11    1    1    2    0    0  0.65257183530E+01  0.56814742423E+02  0.18893472379E+03  0.19740017683E+03  0.00000000000E+00 0. -1.
</event>
<event>
 7    1  0.2644565E-009  0.5996999E+02  0.7561462E-02  0.1397958E+00
          2   -1    0    0  501    0  0.00000000000E+00  0.00000000000E+00  0.84016866409E+02  0.84016866409E+02  0.00000000000E+00 0. -1.
         -2   -1    0    0    0  501 -0.00000000000E+00 -0.00000000000E+00 -0.14152485055E+03  0.14152485055E+03  0.00000000000E+00 0.  1.
         25    2    1    2    0    0 -0.11590619089E+02  0.11374042690E+02 -0.34176313275E+02  0.13068677169E+03  0.12508917062E+03 0.  0.
          5    1    3    3  502    0  0.21496557984E+01 -0.62053939254E+01 -0.79561344292E+02  0.79941277444E+02  0.41800000000E+01 0.  1.
         -5    1    3    3    0  502 -0.13740274887E+02  0.17579436616E+02  0.45385031017E+02  0.50745494245E+02  0.41800000000E+01 0.  1.
        -11    1    1    2    0    0 -0.38454180515E+02 -0.17549907223E+01 -0.20979190651E+02  0.43839827006E+02  0.00000000000E+00 0. -1.
         11    1    1    2    0    0  0.50044799604E+02 -0.96190519679E+01 -0.23524802133E+01  0.51015118262E+02  0.00000000000E+00 0.  1.
</event>
<event>
 7    1  0.2644565E-009  0.1085794E+03  0.7561462E-02  0.1263224E+00
          1   -1    0    0  501    0  0.00000000000E+00  0.00000000000E+00  0.41143429301E+03  0.41143429301E+03  0.00000000000E+00 0. -1.
         -1   -1    0    0    0  501 -0.00000000000E+00 -0.00000000000E+00 -0.36735415799E+02  0.36735415799E+02  0.00000000000E+00 0.  1.
         25    2    1    2    0    0 -0.30590067599E+01 -0.48639314397E+02  0.14657453876E+03  0.19876349928E+03  0.12509073829E+03 0.  0.
          5    1    3    3  502    0 -0.49205276595E+02 -0.60899499154E+02  0.56202941923E+02  0.96468395461E+02  0.41800000000E+01 0.  1.
         -5    1    3    3    0  502  0.46146269835E+02  0.12260184756E+02  0.90371596839E+02  0.10229510382E+03  0.41800000000E+01 0.  1.
        -11    1    1    2    0    0 -0.36820348927E+02  0.23016347934E+02  0.55932772483E+02  0.70809359586E+02  0.00000000000E+00 0.  1.
         11    1    1    2    0    0  0.39879355686E+02  0.25622966464E+02  0.17219156596E+03  0.17859684994E+03  0.00000000000E+00 0. -1.
</event>
<event>
 7    1  0.2644565E-009  0.1264959E+03  0.7561462E-02  0.1232750E+00
          1   -1    0    0  501    0  0.00000000000E+00  0.00000000000E+00  0.11611550252E+04  0.11611550252E+04  0.00000000000E+00 0. -1.
         -1   -1    0    0    0  501 -0.00000000000E+00 -0.00000000000E+00 -0.16977660494E+02  0.16977660494E+02  0.00000000000E+00 0.  1.
         25    2    1    2    0    0  0.16446035201E+02 -0.82652032044E+02  0.74744318060E+03  0.76251016243E+03  0.12509440076E+03 0.  0.
          5    1    3    3  502    0  0.62807613361E+02 -0.20379861435E+02  0.46016587614E+03  0.46489809745E+03  0.41800000000E+01 0.  1.
         -5    1    3    3    0  502 -0.46361578159E+02 -0.62272170610E+02  0.28727730446E+03  0.29761206498E+03  0.41800000000E+01 0.  1.
        -11    1    1    2    0    0 -0.12708530018E+01  0.91503766667E+02  0.38164672843E+03  0.39246500443E+03  0.00000000000E+00 0. -1.
         11    1    1    2    0    0 -0.15175182199E+02 -0.88517346229E+01  0.15087455718E+02  0.23157518879E+02  0.00000000000E+00 0.  1.
</event>
<event>
 7    1  0.2644565E-009  0.1100047E+03  0.7561462E-02  0.1260561E+00
         -2   -1    0    0    0  501 -0.00000000000E+00  0.00000000000E+00  0.79422514144E+02  0.79422514144E+02  0.00000000000E+00 0.  1.
          2   -1    0    0  501    0  0.00000000000E+00 -0.00000000000E+00 -0.25206656273E+03  0.25206656273E+03  0.00000000000E+00 0. -1.
         25    2    1    2    0    0  0.88587341822E+02  0.61250354704E+01 -0.10759041103E+03  0.18737204715E+03  0.12508938530E+03 0.  0.
          5    1    3    3  502    0  0.58612241244E+02  0.14001101373E+02  0.13846650832E+02  0.61972798892E+02  0.41800000000E+01 0. -1.
         -5    1    3    3    0  502  0.29975100578E+02 -0.78760659025E+01 -0.12143706186E+03  0.12539924825E+03  0.41800000000E+01 0. -1.
        -11    1    1    2    0    0 -0.37244166126E+02  0.43265041969E+02 -0.33584269355E+02  0.66233638849E+02  0.00000000000E+00 0. -1.
         11    1    1    2    0    0 -0.51343175696E+02 -0.49390077440E+02 -0.31469368202E+02  0.77883390881E+02  0.00000000000E+00 0.  1.
</event>
<event>
 7    1  0.2644565E-009  0.2027729E+03  0.7561462E-02  0.1147420E+00
         -2   -1    0    0    0  501 -0.00000000000E+00  0.00000000000E+00  0.25372787639E+02  0.25372787639E+02  0.00000000000E+00 0.  1.
          2   -1    0    0  501    0  0.00000000000E+00 -0.00000000000E+00 -0.20466922086E+04  0.20466922086E+04  0.00000000000E+00 0. -1.
         25    2    1    2    0    0  0.11805588034E+03  0.15249748847E+03 -0.80161770691E+03  0.83392595499E+03  0.12509546556E+03 0.  0.
          5    1    3    3  502    0  0.36449833770E+02  0.63703728937E+02 -0.54975116647E+03  0.55464454644E+03  0.41800000000E+01 0. -1.
         -5    1    3    3    0  502  0.81606046571E+02  0.88793759529E+02 -0.25186654045E+03  0.27928140855E+03  0.41800000000E+01 0. -1.
        -11    1    1    2    0    0 -0.13217082982E+03 -0.13958105797E+03 -0.11451108841E+04  0.11611334708E+04  0.00000000000E+00 0. -1.
         11    1    1    2    0    0  0.14114949484E+02 -0.12916430496E+02 -0.74590829939E+02  0.77005570491E+02  0.00000000000E+00 0.  1.
</event>
<event>
 7    1  0.2644565E-009  0.1078349E+03  0.7561462E-02  0.1264633E+00
         -1   -1    0    0    0  501 -0.00000000000E+00  0.00000000000E+00  0.27900640717E+03  0.27900640717E+03  0.00000000000E+00 0.  1.
          1   -1    0    0  501    0  0.00000000000E+00 -0.00000000000E+00 -0.60474861112E+02  0.60474861112E+02  0.00000000000E+00 0. -1.
         25    2    1    2    0    0  0.36265125463E+02  0.60349282154E+02  0.10413967334E+03  0.17734139853E+03  0.12509078659E+03 0.  0.
          5    1    3    3  502    0 -0.26724831316E+02  0.79607941100E+01 -0.15577736319E+02  0.32213803261E+02  0.41800000000E+01 0. -1.
         -5    1    3    3    0  502  0.62989956778E+02  0.52388488044E+02  0.11971740966E+03  0.14512759527E+03  0.41800000000E+01 0. -1.
        -11    1    1    2    0    0 -0.42753627752E+02 -0.76719888450E+02  0.63756311020E+02  0.10852963266E+03  0.00000000000E+00 0. -1.
         11    1    1    2    0    0  0.64885022888E+01  0.16370606297E+02  0.50635561703E+02  0.53610237096E+02  0.00000000000E+00 0.  1.
</event>
<event>
 7    1  0.2644565E-009  0.9792967E+02  0.7561462E-02  0.1284711E+00
         -1   -1    0    0    0  501 -0.00000000000E+00  0.00000000000E+00  0.22745759505E+03  0.22745759505E+03  0.00000000000E+00 0.  1.
          1   -1    0    0  501    0  0.00000000000E+00 -0.00000000000E+00 -0.62582458302E+02  0.62582458302E+02  0.00000000000E+00 0. -1.
         25    2    1    2    0    0 -0.48468407820E+02 -0.13276321530E+02  0.98991366033E+02  0.16723820154E+03  0.12507549014E+03 0.  0.
          5    1    3    3  502    0 -0.59128437698E+02 -0.54180668352E+02  0.29032339931E+02  0.85393595366E+02  0.41800000000E+01 0. -1.
         -5    1    3    3    0  502  0.10660029878E+02  0.40904346822E+02  0.69959026102E+02  0.81844606170E+02  0.41800000000E+01 0. -1.
        -11    1    1    2    0    0 -0.97156877558E+01 -0.64235228666E+01  0.59968512647E+02  0.61089104951E+02  0.00000000000E+00 0.  1.
         11    1    1    2    0    0  0.58184095576E+02  0.19699844397E+02  0.59152580636E+01  0.61712746862E+02  0.00000000000E+00 0. -1.
</event>
<event>
 7    1  0.2644565E-009  0.1528364E+03  0.7561462E-02  0.1197030E+00
          2   -1    0    0  501    0  0.00000000000E+00  0.00000000000E+00  0.90991128538E+03  0.90991128538E+03  0.00000000000E+00 0. -1.
         -2   -1    0    0    0  501 -0.00000000000E+00 -0.00000000000E+00 -0.14289739152E+03  0.14289739152E+03  0.00000000000E+00 0.  1.
         25    2    1    2    0    0 -0.10521977314E+03  0.82979798518E+02  0.84891075710E+03  0.86847766944E+03  0.12508853337E+03 0.  0.
          5    1    3    3  502    0 -0.77258223458E+02  0.88431581252E+01  0.19824513591E+03  0.21299211452E+03  0.41800000000E+01 0.  1.
         -5    1    3    3    0  502 -0.27961549684E+02  0.74136640393E+02  0.65066562119E+03  0.65548555492E+03  0.41800000000E+01 0.  1.
        -11    1    1    2    0    0  0.82036845960E+02 -0.24610745761E+02 -0.60576611510E+01  0.85862845054E+02  0.00000000000E+00 0. -1.
         11    1    1    2    0    0  0.23182927182E+02 -0.58369052757E+02 -0.75839202092E+02  0.98468162400E+02  0.00000000000E+00 0.  1.
</event>
<event>
 7    1  0.2644565E-009  0.1108551E+03  0.7561462E-02  0.1258995E+00
          3   -1    0    0  501    0  0.00000000000E+00  0.00000000000E+00  0.10893809332E+04  0.10893809332E+04  0.00000000000E+00 0. -1.
         -3   -1    0    0    0  501 -0.00000000000E+00 -0.00000000000E+00 -0.15088886238E+02  0.15088886238E+02  0.00000000000E+00 0.  1.
         25    2    1    2    0    0 -0.19203801072E+02  0.29847020783E+02  0.85182220722E+03  0.86168862764E+03  0.12508632086E+03 0.  0.
          5    1    3    3  502    0  0.43538273267E+02 -0.20592163777E+02  0.26766590791E+03  0.27199656084E+03  0.41800000000E+01 0.  1.
         -5    1    3    3    0  502 -0.62742074339E+02  0.50439184561E+02  0.58415629931E+03  0.58969206681E+03  0.41800000000E+01 0.  1.
        -11    1    1    2    0    0  0.39549442611E+02 -0.50246625911E+02  0.18346559093E+03  0.19428974466E+03  0.00000000000E+00 0. -1.
         11    1    1    2    0    0 -0.20345641539E+02  0.20399605128E+02  0.39004248774E+02  0.48491447096E+02  0.00000000000E+00 0.  1.
</event>
<event>
 7    1  0.2644565E-009  0.1278754E+03  0.7561462E-02  0.1230643E+00
          1   -1    0    0  501    0  0.00000000000E+00  0.00000000000E+00  0.36123972642E+03  0.36123972642E+03  0.00000000000E+00 0. -1.
         -1   -1    0    0    0  501 -0.00000000000E+00 -0.00000000000E+00 -0.11564775023E+03  0.11564775023E+03  0.00000000000E+00 0.  1.
         25    2    1    2    0    0 -0.11372668619E+03 -0.36219671374E+02 -0.17690836337E+02  0.17379641909E+03  0.12508639355E+03 0.  0.
          5    1    3    3  502    0 -0.75675638466E+02 -0.21674831151E+02 -0.71331044075E+02  0.10631176234E+03  0.41800000000E+01 0. -1.
         -5    1    3    3    0  502 -0.38051047727E+02 -0.14544840223E+02  0.53640207739E+02  0.67484656748E+02  0.41800000000E+01 0. -1.
        -11    1    1    2    0    0  0.91129261729E+01 -0.16481195852E+02  0.10219615144E+03  0.10391693130E+03  0.00000000000E+00 0. -1.
         11    1    1    2    0    0  0.10461376002E+03  0.52700867226E+02  0.16108666109E+03  0.19917412627E+03  0.00000000000E+00 0.  1.
</event>
<event>
 7    1  0.2644565E-009  0.1135949E+03  0.7561462E-02  0.1254054E+00
          2   -1    0    0  501    0  0.00000000000E+00  0.00000000000E+00  0.36592112441E+02  0.36592112441E+02  0.00000000000E+00 0. -1.
         -2   -1    0    0    0  501 -0.00000000000E+00 -0.00000000000E+00 -0.60642819666E+03  0.60642819666E+03  0.00000000000E+00 0.  1.
         25    2    1    2    0    0  0.24197306440E+02  0.44973884797E+02 -0.49203588755E+03  0.51025212189E+03  0.12509897403E+03 0.  0.
          5    1    3    3  502    0  0.34277351271E+02  0.85492975290E+02 -0.36496283318E+03  0.37642971141E+03  0.41800000000E+01 0. -1.
         -5    1    3    3    0  502 -0.10080044831E+02 -0.40519090493E+02 -0.12707305438E+03  0.13382241048E+03  0.41800000000E+01 0. -1.
        -11    1    1    2    0    0  0.25929830115E+02 -0.32109833255E+02 -0.68814616398E+02  0.80242438345E+02  0.00000000000E+00 0.  1.
         11    1    1    2    0    0 -0.50127136555E+02 -0.12864051541E+02 -0.89855802725E+01  0.52525748868E+02  0.00000000000E+00 0. -1.
</event>
<event>
 7    1  0.2644565E-009  0.1554891E+03  0.7561462E-02  0.1193886E+00
          2   -1    0    0  501    0  0.00000000000E+00  0.00000000000E+00  0.48303048909E+03  0.48303048909E+03  0.00000000000E+00 0. -1.
         -2   -1    0    0    0  501 -0.00000000000E+00 -0.00000000000E+00 -0.60002151140E+02  0.60002151140E+02  0.00000000000E+00 0.  1.
         25    2    1    2    0    0 -0.11835039680E+03  0.18186816021E+02  0.13935244473E+03  0.22225129905E+03  0.12505582505E+03 0.  0.
          5    1    3    3  502    0  0.56542708394E+01 -0.33132049545E+02  0.52034520477E+02  0.62086771595E+02  0.41800000000E+01 0. -1.
         -5    1    3    3    0  502 -0.12400466764E+03  0.51318865566E+02  0.87317924249E+02  0.16016452746E+03  0.41800000000E+01 0. -1.
        -11    1    1    2    0    0  0.13165513535E+02 -0.34011129282E+02  0.12132825763E+03  0.12669109583E+03  0.00000000000E+00 0. -1.
         11    1    1    2    0    0  0.10518488327E+03  0.15824313262E+02  0.16234763558E+03  0.19409024535E+03  0.00000000000E+00 0.  1.
</event>
<event>
 7    1  0.2644565E-009  0.1111200E+03  0.7561462E-02  0.1258510E+00
         -2   -1    0    0    0  501 -0.00000000000E+00  0.00000000000E+00  0.40091917913E+02  0.40091917913E+02  0.00000000000E+00 0. -1.
          2   -1    0    0  501    0  0.00000000000E+00 -0.00000000000E+00 -0.38063426620E+03  0.38063426620E+03  0.00000000000E+00 0.  1.
         25    2    1    2    0    0  0.44378852141E+02 -0.39652048451E+02 -0.20872498532E+03  0.25050940476E+03  0.12508826849E+03 0.  0.
          5    1    3    3  502    0 -0.11831776973E+02 -0.56717469161E+02 -0.17093345802E+03  0.18053415667E+03  0.41800000000E+01 0.  1.
         -5    1    3    3    0  502  0.56210629114E+02  0.17065420710E+02 -0.37791527293E+02  0.69975248085E+02  0.41800000000E+01 0.  1.
        -11    1    1    2    0    0  0.26367955264E+02  0.15022337256E+02 -0.55635377243E+02  0.63373771250E+02  0.00000000000E+00 0.  1.
         11    1    1    2    0    0 -0.70746807405E+02  0.24629711195E+02 -0.76181985733E+02  0.10684300811E+03  0.00000000000E+00 0. -1.
</event>
<event>
 7    1  0.2644565E-009  0.1108807E+03  0.7561462E-02  0.1258948E+00
         -2   -1    0    0    0  501 -0.00000000000E+00  0.00000000000E+00  0.22439512350E+03  0.22439512350E+03  0.00000000000E+00 0.  1.
          2   -1    0    0  501    0  0.00000000000E+00 -0.00000000000E+00 -0.73056347717E+02  0.73056347717E+02  0.00000000000E+00 0. -1.
         25    2    1    2    0    0  0.38346775806E+02 -0.55242557630E+02  0.98371137877E+02  0.17276500904E+03  0.12509457300E+03 0.  0.
          5    1    3    3  502    0  0.73963886295E+02 -0.12296447205E+02  0.88301633605E+02  0.11591596088E+03  0.41800000000E+01 0. -1.
         -5    1    3    3    0  502 -0.35617110489E+02 -0.42946110425E+02  0.10069504273E+02  0.56849048158E+02  0.41800000000E+01 0. -1.
        -11    1    1    2    0    0 -0.24075152079E+02 -0.83954753227E+01 -0.15732049819E+02  0.29959878922E+02  0.00000000000E+00 0. -1.
         11    1    1    2    0    0 -0.14271623727E+02  0.63638032953E+02  0.68699687727E+02  0.94726583258E+02  0.00000000000E+00 0.  1.
</event>
<event>
 7    1  0.2644565E-009  0.9925470E+02  0.7561462E-02  0.1281871E+00
         -2   -1    0    0    0  501 -0.00000000000E+00  0.00000000000E+00  0.77129219731E+02  0.77129219731E+02  0.00000000000E+00 0.  1.
          2   -1    0    0  501    0  0.00000000000E+00 -0.00000000000E+00 -0.20745113865E+03  0.20745113865E+03  0.00000000000E+00 0. -1.
         25    2    1    2    0    0  0.18539411349E+02 -0.58321305053E+01 -0.14401636812E+03  0.19174625701E+03  0.12509272269E+03 0.  0.
          5    1    3    3  502    0 -0.28963804727E+02  0.33875671349E+02 -0.11467898001E+03  0.12310647403E+03  0.41800000000E+01 0.  1.
         -5    1    3    3    0  502  0.47503216076E+02 -0.39707801855E+02 -0.29337388115E+02  0.68639782977E+02  0.41800000000E+01 0.  1.
        -11    1    1    2    0    0 -0.82115792947E+01 -0.41979641724E+02  0.88416048097E+01  0.43679449737E+02  0.00000000000E+00 0.  1.
         11    1    1    2    0    0 -0.10327832054E+02  0.47811772229E+02  0.48528443912E+01  0.49154651634E+02  0.00000000000E+00 0. -1.
</event>
<event>
 7    1  0.2644565E-009  0.1301792E+03  0.7561462E-02  0.1227190E+00
         -2   -1    0    0    0  501 -0.00000000000E+00  0.00000000000E+00  0.50211504733E+02  0.50211504733E+02  0.00000000000E+00 0.  1.
          2   -1    0    0  501    0  0.00000000000E+00 -0.00000000000E+00 -0.35662208904E+03  0.35662208904E+03  0.00000000000E+00 0. -1.
         25    2    1    2    0    0 -0.36107483317E+02 -0.59358104130E+02 -0.12348668939E+03  0.18900337198E+03  0.12508468046E+03 0.  0.
          5    1    3    3  502    0  0.26280456573E+02  0.25392097576E+02 -0.42079169546E+02  0.55888728082E+02  0.41800000000E+01 0. -1.
         -5    1    3    3    0  502 -0.62387939890E+02 -0.84750201706E+02 -0.81407519846E+02  0.13311464390E+03  0.41800000000E+01 0. -1.
        -11    1    1    2    0    0 -0.32946469309E+02  0.15140459521E+02 -0.54355062159E+02  0.65338932780E+02  0.00000000000E+00 0.  1.
         11    1    1    2    0    0  0.69053952627E+02  0.44217644609E+02 -0.12856883275E+03  0.15249128901E+03  0.00000000000E+00 0. -1.
</event>
<event>
 7    1  0.2644565E-009  0.1033483E+03  0.7561462E-02  0.1273409E+00
          2   -1    0    0  501    0  0.00000000000E+00  0.00000000000E+00  0.18625519023E+04  0.18625519023E+04  0.00000000000E+00 0.  1.
         -2   -1    0    0    0  501 -0.00000000000E+00 -0.00000000000E+00 -0.77170507838E+01  0.77170507838E+01  0.00000000000E+00 0. -1.
         25    2    1    2    0    0  0.11288893345E+01  0.25407889692E+02  0.13805844600E+04  0.13864729891E+04  0.12508822094E+03 0.  0.
          5    1    3    3  502    0  0.38133101782E+02  0.53529509989E+02  0.11053945845E+04  0.11073545962E+04  0.41800000000E+01 0.  1.
         -5    1    3    3    0  502 -0.37004212447E+02 -0.28121620297E+02  0.27518987552E+03  0.27911839290E+03  0.41800000000E+01 0.  1.
        -11    1    1    2    0    0  0.43092456540E+02 -0.25267590463E+02  0.20917193451E+03  0.21505420043E+03  0.00000000000E+00 0. -1.
         11    1    1    2    0    0 -0.44221345874E+02 -0.14029922925E+00  0.26507845707E+03  0.26874176362E+03  0.00000000000E+00 0.  1.
</event>
<event>
 7    1  0.2644565E-009  0.1283029E+03  0.7561462E-02  0.1229996E+00
         -2   -1    0    0    0  501 -0.00000000000E+00  0.00000000000E+00  0.40254979738E+02  0.40254979738E+02  0.00000000000E+00 0.  1.
          2   -1    0    0  501    0  0.00000000000E+00 -0.00000000000E+00 -0.65709259261E+03  0.65709259261E+03  0.00000000000E+00 0. -1.
         25    2    1    2    0    0  0.24135882616E+02  0.11372198509E+03 -0.26154762231E+03  0.31236158299E+03  0.12508944428E+03 0.  0.
          5    1    3    3  502    0 -0.27950997870E+02  0.30726234431E+02 -0.10808212270E+02  0.43123654955E+02  0.41800000000E+01 0.  1.
         -5    1    3    3    0  502  0.52086880486E+02  0.82995750656E+02 -0.25073941004E+03  0.26923792803E+03  0.41800000000E+01 0.  1.
        -11    1    1    2    0    0 -0.20058630672E+02 -0.68466914320E+02 -0.85318658305E+02  0.11121753673E+03  0.00000000000E+00 0.  1.
         11    1    1    2    0    0 -0.40772519436E+01 -0.45255070768E+02 -0.26997133226E+03  0.27376845263E+03  0.00000000000E+00 0. -1.
</event>
<event>
 7    1  0.2644565E-009  0.1051885E+03  0.7561462E-02  0.1269749E+00
         -1   -1    0    0    0  501 -0.00000000000E+00  0.00000000000E+00  0.10598311078E+03  0.10598311078E+03  0.00000000000E+00 0.  1.
          1   -1    0    0  501    0  0.00000000000E+00 -0.00000000000E+00 -0.22666558015E+03  0.22666558015E+03  0.00000000000E+00 0. -1.
         25    2    1    2    0    0  0.70642829444E+02  0.25506695368E+02 -0.15195519809E+03  0.21067185394E+03  0.12510494378E+03 0.  0.
          5    1    3    3  502    0  0.95789886962E+02  0.32398041139E+02 -0.66180475713E+02  0.12092420469E+03  0.41800000000E+01 0.  1.
         -5    1    3    3    0  502 -0.25147057519E+02 -0.68913457705E+01 -0.85774722375E+02  0.89747649255E+02  0.41800000000E+01 0.  1.
        -11    1    1    2    0    0 -0.20687117776E+02  0.84637493293E+01 -0.29017325933E+02  0.36627818648E+02  0.00000000000E+00 0. -1.
         11    1    1    2    0    0 -0.49955711668E+02 -0.33970444698E+02  0.60290054656E+02  0.85349018340E+02  0.00000000000E+00 0.  1.
</event>
<event>
 7    1  0.2644565E-009  0.2127672E+03  0.7561462E-02  0.1139393E+00
          2   -1    0    0  501    0  0.00000000000E+00  0.00000000000E+00  0.10557517248E+03  0.10557517248E+03  0.00000000000E+00 0. -1.
         -2   -1    0    0    0  501 -0.00000000000E+00 -0.00000000000E+00 -0.63260789413E+03  0.63260789413E+03  0.00000000000E+00 0.  1.
         25    2    1    2    0    0  0.19271688508E+03 -0.31425993897E+02 -0.45406050777E+03  0.50984894341E+03  0.12509040526E+03 0.  0.
          5    1    3    3  502    0 -0.14368472578E+02 -0.61821398467E+01 -0.79099973789E+02  0.80740015548E+02  0.41800000000E+01 0.  1.
         -5    1    3    3    0  502  0.20708535766E+03 -0.25243854050E+02 -0.37496053398E+03  0.42910892786E+03  0.41800000000E+01 0.  1.
        -11    1    1    2    0    0 -0.14250349654E+02  0.16189034835E+02  0.17399774700E+02  0.27711179580E+02  0.00000000000E+00 0. -1.
         11    1    1    2    0    0 -0.17846653543E+03  0.15236959062E+02 -0.90371988576E+02  0.20062294363E+03  0.00000000000E+00 0.  1.
</event>
<event>
 7    1  0.2644565E-009  0.6334978E+02  0.7561462E-02  0.1384289E+00
          1   -1    0    0  501    0  0.00000000000E+00  0.00000000000E+00  0.40935538418E+03  0.40935538418E+03  0.00000000000E+00 0. -1.
         -1   -1    0    0    0  501 -0.00000000000E+00 -0.00000000000E+00 -0.61533639224E+02  0.61533639224E+02  0.00000000000E+00 0.  1.
         25    2    1    2    0    0  0.19559526598E+02  0.71481608556E+01  0.35751673974E+03  0.37933435395E+03  0.12507062648E+03 0.  0.
          5    1    3    3  502    0  0.43116150928E+02 -0.10872084531E+02  0.38648663653E+02  0.59062647207E+02  0.41800000000E+01 0.  1.
         -5    1    3    3    0  502 -0.23556624330E+02  0.18020245387E+02  0.31886807609E+03  0.32027170674E+03  0.41800000000E+01 0.  1.
        -11    1    1    2    0    0 -0.60802030394E+01 -0.27229486678E+02 -0.42474546004E+02  0.50818312369E+02  0.00000000000E+00 0.  1.
         11    1    1    2    0    0 -0.13479323559E+02  0.20081325822E+02  0.32779551221E+02  0.40736357086E+02  0.00000000000E+00 0. -1.
</event>
<event>
 7    1  0.2644565E-009  0.9292323E+02  0.7561462E-02  0.1295923E+00
          2   -1    0    0  501    0  0.00000000000E+00  0.00000000000E+00  0.36720313833E+02  0.36720313833E+02  0.00000000000E+00 0.  1.
         -2   -1    0    0    0  501 -0.00000000000E+00 -0.00000000000E+00 -0.45124136186E+03  0.45124136186E+03  0.00000000000E+00 0. -1.
         25    2    1    2    0    0  0.36408896982E+02  0.14545759360E+02 -0.33579057292E+03  0.36047260740E+03  0.12509198586E+03 0.  0.
          5    1    3    3  502    0 -0.43048937202E+02  0.67178772381E+01 -0.66892240845E+02  0.79939884626E+02  0.41800000000E+01 0.  1.
         -5    1    3    3    0  502  0.79457834184E+02  0.78278821219E+01 -0.26889833208E+03  0.28053272277E+03  0.41800000000E+01 0.  1.
        -11    1    1    2    0    0  0.10329679075E+02 -0.11245466278E+02 -0.79172982344E+02  0.80632027848E+02  0.00000000000E+00 0. -1.
         11    1    1    2    0    0 -0.46738576058E+02 -0.33002930819E+01  0.44250724414E+00  0.46857040442E+02  0.00000000000E+00 0.  1.
</event>
<event>
 7    1  0.2948282E-009  0.1618751E+03  0.7561462E-02  0.1186596E+00
          1   -1    0    0  501    0  0.00000000000E+00  0.00000000000E+00  0.14963492507E+03  0.14963492507E+03  0.00000000000E+00 0. -1.
         -1   -1    0    0    0  501 -0.00000000000E+00 -0.00000000000E+00 -0.17791751705E+03  0.17791751705E+03  0.00000000000E+00 0.  1.
         25    2    1    2    0    0  0.11972881822E+03 -0.22302192292E+02 -0.12892361532E+02  0.17505911122E+03  0.12508837573E+03 0.  0.
          5    1    3    3  502    0 -0.25242990264E+02  0.59921975489E-01  0.80570628299E+01  0.26825376224E+02  0.41800000000E+01 0.  1.
         -5    1    3    3    0  502  0.14497180849E+03 -0.22362114268E+02 -0.20949424362E+02  0.14823373500E+03  0.41800000000E+01 0.  1.
        -11    1    1    2    0    0 -0.10891820652E+03 -0.17373627236E+02 -0.69503869286E+01  0.11051392000E+03  0.00000000000E+00 0.  1.
         11    1    1    2    0    0 -0.10810611701E+02  0.39675819528E+02 -0.84398435209E+01  0.41979410897E+02  0.00000000000E+00 0. -1.
</event>
<event>
 7    1  0.2644565E-009  0.1070388E+03  0.7561462E-02  0.1266154E+00
         -2   -1    0    0    0  501 -0.00000000000E+00  0.00000000000E+00  0.98861575102E+01  0.98861575102E+01  0.00000000000E+00 0.  1.
          2   -1    0    0  501    0  0.00000000000E+00 -0.00000000000E+00 -0.23926840058E+04  0.23926840058E+04  0.00000000000E+00 0. -1.
         25    2    1    2    0    0  0.73933591230E+02  0.43430158197E+02 -0.17758213698E+04  0.17822855512E+04  0.12509154367E+03 0.  0.
          5    1    3    3  502    0  0.38984387833E+02  0.19744632777E+02 -0.16254810947E+04  0.16260737667E+04  0.41800000000E+01 0.  1.
         -5    1    3    3    0  502  0.34949203396E+02  0.23685525420E+02 -0.15034027501E+03  0.15621178452E+03  0.41800000000E+01 0.  1.
        -11    1    1    2    0    0 -0.79489818702E+02  0.43905057055E+01 -0.38621487908E+03  0.39433468100E+03  0.00000000000E+00 0.  1.
         11    1    1    2    0    0  0.55562274724E+01 -0.47820663903E+02 -0.22076159944E+03  0.22594993106E+03  0.00000000000E+00 0. -1.
</event>
<event>
 7    1  0.2644565E-009  0.2031453E+03  0.7561462E-02  0.1147112E+00
         -2   -1    0    0    0  501 -0.00000000000E+00  0.00000000000E+00  0.14111714589E+03  0.14111714589E+03  0.00000000000E+00 0.  1.
          2   -1    0    0  501    0  0.00000000000E+00 -0.00000000000E+00 -0.31319171530E+03  0.31319171530E+03  0.00000000000E+00 0. -1.
         25    2    1    2    0    0 -0.12559047171E+03 -0.12887295802E+03 -0.88733430566E+02  0.23643686388E+03  0.12509021947E+03 0.  0.
          5    1    3    3  502    0 -0.78422910526E+02 -0.14729565487E+03 -0.56323155211E+02  0.17617018207E+03  0.41800000000E+01 0. -1.
         -5    1    3    3    0  502 -0.47167561183E+02  0.18422696848E+02 -0.32410275354E+02  0.60266681804E+02  0.41800000000E+01 0. -1.
        -11    1    1    2    0    0  0.88722023548E+02  0.50849141264E+02 -0.67399560330E+01  0.10248248454E+03  0.00000000000E+00 0.  1.
         11    1    1    2    0    0  0.36868448161E+02  0.78023816757E+02 -0.76601182807E+02  0.11538951278E+03  0.00000000000E+00 0. -1.
</event>
<event>
 7    1  0.2644565E-009  0.7411701E+02  0.7561462E-02  0.1346627E+00
          3   -1    0    0  501    0  0.00000000000E+00  0.00000000000E+00  0.78862537486E+02  0.78862537486E+02  0.00000000000E+00 0. -1.
         -3   -1    0    0    0  501 -0.00000000000E+00 -0.00000000000E+00 -0.21887332126E+03  0.21887332126E+03  0.00000000000E+00 0.  1.
         25    2    1    2    0    0 -0.19730524246E+02 -0.39508021776E+02 -0.63572465803E+01  0.13280807917E+03  0.12508954368E+03 0.  0.
          5    1    3    3  502    0 -0.25229296640E+02 -0.16162762024E+02 -0.63695779026E+02  0.70515083145E+02  0.41800000000E+01 0. -1.
         -5    1    3    3    0  502  0.54987723937E+01 -0.23345259753E+02  0.57338532446E+02  0.62292996025E+02  0.41800000000E+01 0. -1.
        -11    1    1    2    0    0  0.17137472844E+02 -0.24321909526E+02 -0.63021771625E+02  0.69692122634E+02  0.00000000000E+00 0.  1.
         11    1    1    2    0    0  0.25930514023E+01  0.63829931303E+02 -0.70631765565E+02  0.95235656939E+02  0.00000000000E+00 0. -1.
</event>
<event>
 7    1  0.2644565E-009  0.9673685E+02  0.7561462E-02  0.1287311E+00
          1   -1    0    0  501    0  0.00000000000E+00  0.00000000000E+00  0.12701311772E+03  0.12701311772E+03  0.00000000000E+00 0. -1.
         -1   -1    0    0    0  501 -0.00000000000E+00 -0.00000000000E+00 -0.10040350771E+03  0.10040350771E+03  0.00000000000E+00 0.  1.
         25    2    1    2    0    0  0.20737753299E+01 -0.10950153572E+02 -0.19713264065E+02  0.12710414473E+03  0.12507055776E+03 0.  0.
          5    1    3    3  502    0  0.16215095702E+02  0.47190147880E+02  0.21327823798E+02  0.54425985094E+02  0.41800000000E+01 0. -1.
         -5    1    3    3    0  502 -0.14141320372E+02 -0.58140301452E+02 -0.41041087863E+02  0.72678159634E+02  0.41800000000E+01 0. -1.
        -11    1    1    2    0    0 -0.14573887072E+02 -0.33878712620E+02  0.34599827465E+01  0.37042365391E+02  0.00000000000E+00 0. -1.
         11    1    1    2    0    0  0.12500111742E+02  0.44828866192E+02  0.42862891330E+02  0.63270115306E+02  0.00000000000E+00 0.  1.
</event>
<event>
 7    1  0.2644565E-009  0.9805524E+02  0.7561462E-02  0.1284439E+00
         -1   -1    0    0    0  501 -0.00000000000E+00  0.00000000000E+00  0.12290748508E+03  0.12290748508E+03  0.00000000000E+00 0.  1.
          1   -1    0    0  501    0  0.00000000000E+00 -0.00000000000E+00 -0.13770680564E+03  0.13770680564E+03  0.00000000000E+00 0. -1.
         25    2    1    2    0    0 -0.53594956925E+02 -0.35987458419E+02  0.95466009440E+01  0.14108545758E+03  0.12508577928E+03 0.  0.
          5    1    3    3  502    0 -0.74474656945E+02  0.13197946563E+02 -0.22016671824E+02  0.78885147897E+02  0.41800000000E+01 0. -1.
         -5    1    3    3    0  502  0.20879700021E+02 -0.49185404982E+02  0.31563272768E+02  0.62200309678E+02  0.41800000000E+01 0. -1.
        -11    1    1    2    0    0  0.41313906035E+02  0.18193567634E+02 -0.61651027024E+02  0.76411346462E+02  0.00000000000E+00 0. -1.
         11    1    1    2    0    0  0.12281050890E+02  0.17793890784E+02  0.37305105517E+02  0.43117486683E+02  0.00000000000E+00 0.  1.
</event>
<event>
 7    1  0.2644565E-009  0.7141935E+02  0.7561462E-02  0.1355332E+00
          1   -1    0    0  501    0  0.00000000000E+00  0.00000000000E+00  0.27189990745E+03  0.27189990745E+03  0.00000000000E+00 0. -1.
         -1   -1    0    0    0  501 -0.00000000000E+00 -0.00000000000E+00 -0.51766191655E+02  0.51766191655E+02  0.00000000000E+00 0.  1.
         25    2    1    2    0    0 -0.20891087674E+02  0.75620038528E+01  0.64866572969E+02  0.14264868529E+03  0.12508938276E+03 0.  0.
          5    1    3    3  502    0 -0.21945751422E+02  0.29668567982E+02  0.96737974896E+02  0.10362214106E+03  0.41800000000E+01 0.  1.
         -5    1    3    3    0  502  0.10546637476E+01 -0.22106564130E+02 -0.31871401927E+02  0.39026544223E+02  0.41800000000E+01 0.  1.
        -11    1    1    2    0    0  0.51673253043E+02 -0.89637251995E+00  0.53068168242E+02  0.74075360575E+02  0.00000000000E+00 0.  1.
         11    1    1    2    0    0 -0.30782165369E+02 -0.66656313329E+01  0.10219897458E+03  0.10694205324E+03  0.00000000000E+00 0. -1.
</event>
<event>
 7    1  0.2644565E-009  0.6377079E+02  0.7561462E-02  0.1382656E+00
          1   -1    0    0  501    0  0.00000000000E+00  0.00000000000E+00  0.60862004621E+02  0.60862004621E+02  0.00000000000E+00 0. -1.
         -1   -1    0    0    0  501 -0.00000000000E+00 -0.00000000000E+00 -0.27453974827E+03  0.27453974827E+03  0.00000000000E+00 0.  1.
         25    2    1    2    0    0 -0.28258944489E+02 -0.39882120087E+02 -0.18338854229E+03  0.22730664887E+03  0.12509118167E+03 0.  0.
          5    1    3    3  502    0 -0.47399568648E+02 -0.25870300738E+02 -0.13633141299E+02  0.55850931147E+02  0.41800000000E+01 0.  1.
         -5    1    3    3    0  502  0.19140624159E+02 -0.14011819349E+02 -0.16975540099E+03  0.17145571772E+03  0.41800000000E+01 0.  1.
        -11    1    1    2    0    0  0.17622335626E+02  0.19364489619E+02  0.32181182973E+02  0.41486849828E+02  0.00000000000E+00 0. -1.
         11    1    1    2    0    0  0.10636608863E+02  0.20517630468E+02 -0.62470384333E+02  0.66608254194E+02  0.00000000000E+00 0.  1.
</event>
<event>
 7    1  0.2644565E-009  0.9437477E+02  0.7561462E-02  0.1292590E+00
         -3   -1    0    0    0  501 -0.00000000000E+00  0.00000000000E+00  0.27212959216E+03  0.27212959216E+03  0.00000000000E+00 0.  1.
          3   -1    0    0  501    0  0.00000000000E+00 -0.00000000000E+00 -0.44221197685E+02  0.44221197685E+02  0.00000000000E+00 0. -1.
         25    2    1    2    0    0  0.19162116731E+02 -0.11061620694E+02  0.13675408526E+03  0.18666523713E+03  0.12511068998E+03 0.  0.
          5    1    3    3  502    0  0.21100946721E+02 -0.51495979438E+02  0.14279119390E+02  0.57606002303E+02  0.41800000000E+01 0. -1.
         -5    1    3    3    0  502 -0.19388299901E+01  0.40434358745E+02  0.12247496587E+03  0.12905923483E+03  0.41800000000E+01 0. -1.
        -11    1    1    2    0    0 -0.50684259489E+02 -0.13307145704E+02  0.51930739185E+02  0.73775171698E+02  0.00000000000E+00 0.  1.
         11    1    1    2    0    0  0.31522142758E+02  0.24368766397E+02  0.39223570034E+02  0.55910381022E+02  0.00000000000E+00 0. -1.
</event>
<event>
 7    1  0.2644565E-009  0.1387401E+03  0.7561462E-02  0.1215034E+00
         -2   -1    0    0    0  501 -0.00000000000E+00  0.00000000000E+00  0.18840253350E+03  0.18840253350E+03  0.00000000000E+00 0. -1.
          2   -1    0    0  501    0  0.00000000000E+00 -0.00000000000E+00 -0.18972839371E+03  0.18972839371E+03  0.00000000000E+00 0.  1.
         25    2    1    2    0    0  0.10670487183E+03  0.33790682591E+02  0.10592305308E+03  0.19848210097E+03  0.12509081233E+03 0.  0.
          5    1    3    3  502    0  0.13031818081E+03  0.21896384811E+02  0.59694114956E+02  0.14506253713E+03  0.41800000000E+01 0. -1.
         -5    1    3    3    0  502 -0.23613308982E+02  0.11894297780E+02  0.46228938129E+02  0.53419563844E+02  0.41800000000E+01 0. -1.
        -11    1    1    2    0    0 -0.65771996960E+02 -0.40177733452E+02 -0.11406593388E+03  0.13766351413E+03  0.00000000000E+00 0.  1.
         11    1    1    2    0    0 -0.40932874866E+02  0.63870508605E+01  0.68170205938E+01  0.41985312114E+02  0.00000000000E+00 0. -1.
</event>
<event>
 7    1  0.2644565E-009  0.1162798E+03  0.7561462E-02  0.1249363E+00
         -1   -1    0    0    0  501 -0.00000000000E+00  0.00000000000E+00  0.10460266682E+03  0.10460266682E+03  0.00000000000E+00 0.  1.
          1   -1    0    0  501    0  0.00000000000E+00 -0.00000000000E+00 -0.17160936665E+03  0.17160936665E+03  0.00000000000E+00 0. -1.
         25    2    1    2    0    0 -0.83089018958E+02 -0.18697233525E+02 -0.41151327725E+02  0.15682566744E+03  0.12508991399E+03 0.  0.
          5    1    3    3  502    0 -0.10772796464E+02  0.44024624375E+02  0.12244448049E+02  0.47134059904E+02  0.41800000000E+01 0.  1.
         -5    1    3    3    0  502 -0.72316222494E+02 -0.62721857900E+02 -0.53395775774E+02  0.10969160754E+03  0.41800000000E+01 0.  1.
        -11    1    1    2    0    0  0.35480781422E+02  0.24712472020E+02  0.24606984733E+02  0.49750334886E+02  0.00000000000E+00 0.  1.
         11    1    1    2    0    0  0.47608237535E+02 -0.60152384942E+01 -0.50462356832E+02  0.69636031136E+02  0.00000000000E+00 0. -1.
</event>
<event>
 7    1  0.2644565E-009  0.3466558E+03  0.7561462E-02  0.1063996E+00
          1   -1    0    0  501    0  0.00000000000E+00  0.00000000000E+00  0.31088403788E+03  0.31088403788E+03  0.00000000000E+00 0. -1.
         -1   -1    0    0    0  501 -0.00000000000E+00 -0.00000000000E+00 -0.43341233695E+03  0.43341233695E+03  0.00000000000E+00 0.  1.
         25    2    1    2    0    0 -0.63355558710E+02 -0.33917676195E+03  0.58008310345E+00  0.36702009153E+03  0.12509439806E+03 0.  0.
          5    1    3    3  502    0 -0.47847187049E+02 -0.31054673831E+03  0.38813724257E+02  0.31662692175E+03  0.41800000000E+01 0.  1.
         -5    1    3    3    0  502 -0.15508371661E+02 -0.28630023639E+02 -0.38233641154E+02  0.50393169785E+02  0.41800000000E+01 0.  1.
        -11    1    1    2    0    0  0.64241779424E+02  0.28873116762E+03 -0.13545870465E+03  0.32533329686E+03  0.00000000000E+00 0.  1.
         11    1    1    2    0    0 -0.88622071403E+00  0.50445594326E+02  0.12350322476E+02  0.51942986430E+02  0.00000000000E+00 0. -1.
</event>
<event>
 6    1  0.2644565E-009  0.8502083E+02  0.7561462E-02  0.1315378E+00
          1   -1    0    0  501    0  0.00000000000E+00  0.00000000000E+00  0.76038491586E+02  0.76038491586E+02  0.00000000000E+00 0. -1.
         -1   -1    0    0    0  501 -0.00000000000E+00 -0.00000000000E+00 -0.26704196768E+03  0.26704196768E+03  0.00000000000E+00 0.  1.
          5    1    1    2  502    0 -0.24784196774E+02  0.60067648865E+02  0.31392820748E+02  0.72286654677E+02  0.41800000000E+01 0.  1.
         -5    1    1    2    0  502  0.12533400843E+02 -0.45323769583E+02 -0.26709961384E+02  0.54242277450E+02  0.41800000000E+01 0.  1.
        -11    1    1    2    0    0 -0.21268304720E+02 -0.11128426613E+02 -0.71806845035E+01  0.25054837747E+02  0.00000000000E+00 0. -1.
         11    1    1    2    0    0  0.33519100651E+02 -0.36154526690E+01 -0.18850565095E+03  0.19149668939E+03  0.00000000000E+00 0.  1.
</event>
<event>
 7    1  0.2644565E-009  0.1001005E+03  0.7561462E-02  0.1280085E+00
          1   -1    0    0  501    0  0.00000000000E+00  0.00000000000E+00  0.19965446742E+03  0.19965446742E+03  0.00000000000E+00 0. -1.
         -1   -1    0    0    0  501 -0.00000000000E+00 -0.00000000000E+00 -0.10020031246E+03  0.10020031246E+03  0.00000000000E+00 0.  1.
         25    2    1    2    0    0 -0.40334662006E+02 -0.13701484508E+02  0.13747179601E+03  0.19068635206E+03  0.12509266377E+03 0.  0.
          5    1    3    3  502    0 -0.51374312358E+02  0.39962533707E+02  0.34050429334E+02  0.73574643787E+02  0.41800000000E+01 0.  1.
         -5    1    3    3    0  502  0.11039650351E+02 -0.53664018215E+02  0.10342136667E+03  0.11711170828E+03  0.41800000000E+01 0.  1.
        -11    1    1    2    0    0  0.43236056569E+02 -0.18982977735E+02 -0.54779397901E+02  0.72322143675E+02  0.00000000000E+00 0.  1.
         11    1    1    2    0    0 -0.29013945628E+01  0.32684462243E+02  0.16761756858E+02  0.36846284148E+02  0.00000000000E+00 0. -1.
</event>
<event>
 7    1  0.2644565E-009  0.1528164E+03  0.7561462E-02  0.1197054E+00
          2   -1    0    0  501    0  0.00000000000E+00  0.00000000000E+00  0.38323001838E+03  0.38323001838E+03  0.00000000000E+00 0. -1.
         -2   -1    0    0    0  501 -0.00000000000E+00 -0.00000000000E+00 -0.68306766101E+02  0.68306766101E+02  0.00000000000E+00 0.  1.
         25    2    1    2    0    0 -0.11917519698E+03 -0.13953615455E+02  0.18465812343E+03  0.25327314206E+03  0.12510487993E+03 0.  0.
          5    1    3    3  502    0  0.85826822605E+01  0.33372406131E+02  0.55705295451E+02  0.65634840344E+02  0.41800000000E+01 0. -1.
         -5    1    3    3    0  502 -0.12775787924E+03 -0.47326021586E+02  0.12895282798E+03  0.18763830172E+03  0.41800000000E+01 0. -1.
        -11    1    1    2    0    0  0.36707739089E+02  0.33684684645E+02  0.95260183189E+01  0.50723378374E+02  0.00000000000E+00 0.  1.
         11    1    1    2    0    0  0.82467457893E+02 -0.19731069190E+02  0.12073911053E+03  0.14754026404E+03  0.00000000000E+00 0. -1.
</event>
<event>
 7    1  0.2644565E-009  0.1095132E+03  0.7561462E-02  0.1261474E+00
          2   -1    0    0  501    0  0.00000000000E+00  0.00000000000E+00  0.34239486227E+03  0.34239486227E+03  0.00000000000E+00 0. -1.
         -2   -1    0    0    0  501 -0.00000000000E+00 -0.00000000000E+00 -0.38347064454E+02  0.38347064454E+02  0.00000000000E+00 0.  1.
         25    2    1    2    0    0  0.11333669667E+02 -0.67157293061E+01  0.11994585684E+03  0.17382522808E+03  0.12511853682E+03 0.  0.
          5    1    3    3  502    0 -0.40943286071E+02  0.38436289240E+02  0.59749719727E+02  0.82104825755E+02  0.41800000000E+01 0.  1.
         -5    1    3    3    0  502  0.52276955738E+02 -0.45152018546E+02  0.60196137113E+02  0.91720402328E+02  0.41800000000E+01 0.  1.
        -11    1    1    2    0    0 -0.44352444502E+02  0.29612318897E+02  0.11916231045E+03  0.13055146493E+03  0.00000000000E+00 0. -1.
         11    1    1    2    0    0  0.33018774835E+02 -0.22896589591E+02  0.64939630519E+02  0.76365233703E+02  0.00000000000E+00 0.  1.
</event>
<event>
 7    1  0.2644565E-009  0.1051657E+03  0.7561462E-02  0.1269794E+00
         -2   -1    0    0    0  501 -0.00000000000E+00  0.00000000000E+00  0.14120712146E+02  0.14120712146E+02  0.00000000000E+00 0.  1.
          2   -1    0    0  501    0  0.00000000000E+00 -0.00000000000E+00 -0.95580812015E+03  0.95580812015E+03  0.00000000000E+00 0. -1.
         25    2    1    2    0    0 -0.13951996950E+02  0.35713282583E+01 -0.70903495649E+03  0.72012897381E+03  0.12509099408E+03 0.  0.
          5    1    3    3  502    0  0.35289370883E+02 -0.40217315208E+02 -0.43268361462E+03  0.43599926020E+03  0.41800000000E+01 0. -1.
         -5    1    3    3    0  502 -0.49241367833E+02  0.43788643467E+02 -0.27635134187E+03  0.28412971361E+03  0.41800000000E+01 0. -1.
        -11    1    1    2    0    0  0.34310964498E+02  0.33746663915E+02 -0.13391549921E+03  0.14230052895E+03  0.00000000000E+00 0.  1.
         11    1    1    2    0    0 -0.20358967548E+02 -0.37317992173E+02 -0.98736952304E+02  0.10749932953E+03  0.00000000000E+00 0. -1.
</event>
<event>
 7    1  0.2644565E-009  0.9180293E+02  0.7561462E-02  0.1298543E+00
         -1   -1    0    0    0  501 -0.00000000000E+00  0.00000000000E+00  0.92893680723E+02  0.92893680723E+02  0.00000000000E+00 0.  1.
          1   -1    0    0  501    0  0.00000000000E+00 -0.00000000000E+00 -0.17328465729E+03  0.17328465729E+03  0.00000000000E+00 0. -1.
         25    2    1    2    0    0 -0.21253329078E+02 -0.43230229756E+02 -0.92666190965E+02  0.16295601074E+03  0.12508829572E+03 0.  0.
          5    1    3    3  502    0  0.18212789055E+02  0.99636552774E+01 -0.94219893040E+02  0.96570392751E+02  0.41800000000E+01 0. -1.
         -5    1    3    3    0  502 -0.39466118133E+02 -0.53193885034E+02  0.15537020756E+01  0.66385617987E+02  0.41800000000E+01 0. -1.
        -11    1    1    2    0    0  0.52910275916E+02  0.34706018433E+02  0.25024879053E+02  0.68045937312E+02  0.00000000000E+00 0.  1.
         11    1    1    2    0    0 -0.31656946839E+02  0.85242113231E+01 -0.12749664652E+02  0.35176389959E+02  0.00000000000E+00 0. -1.
</event>
<event>
 7    1  0.2644565E-009  0.1245655E+03  0.7561462E-02  0.1235750E+00
         -2   -1    0    0    0  501 -0.00000000000E+00  0.00000000000E+00  0.12928238840E+02  0.12928238840E+02  0.00000000000E+00 0.  1.
          2   -1    0    0  501    0  0.00000000000E+00 -0.00000000000E+00 -0.17180346387E+04  0.17180346387E+04  0.00000000000E+00 0. -1.
         25    2    1    2    0    0  0.13253247766E+02  0.56250662449E+02 -0.13862262130E+04  0.13930579230E+04  0.12508987775E+03 0.  0.
          5    1    3    3  502    0  0.69014204165E+02  0.24422095294E+02 -0.70858540222E+03  0.71236938715E+03  0.41800000000E+01 0.  1.
         -5    1    3    3    0  502 -0.55760956398E+02  0.31828567156E+02 -0.67764081082E+03  0.68068853585E+03  0.41800000000E+01 0.  1.
        -11    1    1    2    0    0  0.30064775320E+02  0.10536321998E+02 -0.10306859145E+03  0.10787974481E+03  0.00000000000E+00 0. -1.
         11    1    1    2    0    0 -0.43318023086E+02 -0.66786984447E+02 -0.21581159539E+03  0.23002520975E+03  0.00000000000E+00 0.  1.
</event>
<event>
 7    1  0.2644565E-009  0.1472710E+03  0.7561462E-02  0.1203867E+00
          3   -1    0    0  501    0  0.00000000000E+00  0.00000000000E+00  0.19491833654E+03  0.19491833654E+03  0.00000000000E+00 0. -1.
         -3   -1    0    0    0  501 -0.00000000000E+00 -0.00000000000E+00 -0.13132620889E+03  0.13132620889E+03  0.00000000000E+00 0.  1.
         25    2    1    2    0    0 -0.25721112137E+02 -0.11239652044E+03  0.69711128317E+02  0.18385341192E+03  0.12509149550E+03 0.  0.
          5    1    3    3  502    0 -0.53664936587E+01 -0.13283882289E+03  0.33125820620E+02  0.13707568899E+03  0.41800000000E+01 0. -1.
         -5    1    3    3    0  502 -0.20354618478E+02  0.20442302451E+02  0.36585307697E+02  0.46777722927E+02  0.41800000000E+01 0. -1.
        -11    1    1    2    0    0  0.22283531618E+02  0.24926949833E+01 -0.21857114415E+02  0.31312980698E+02  0.00000000000E+00 0.  1.
         11    1    1    2    0    0  0.34375805190E+01  0.10990382545E+03  0.15738113748E+02  0.11107815282E+03  0.00000000000E+00 0. -1.
</event>
<event>
 7    1  0.2644565E-009  0.1406379E+03  0.7561462E-02  0.1212473E+00
          3   -1    0    0  501    0  0.00000000000E+00  0.00000000000E+00  0.73162983184E+02  0.73162983184E+02  0.00000000000E+00 0. -1.
         -3   -1    0    0    0  501 -0.00000000000E+00 -0.00000000000E+00 -0.30643156331E+03  0.30643156331E+03  0.00000000000E+00 0.  1.
         25    2    1    2    0    0  0.19890928798E+02 -0.95334847591E+02 -0.77961234687E+02  0.17666393560E+03  0.12509120598E+03 0.  0.
          5    1    3    3  502    0 -0.11598785717E+02 -0.11635388401E+03 -0.73827295323E+02  0.13834991901E+03  0.41800000000E+01 0.  1.
         -5    1    3    3    0  502  0.31489714515E+02  0.21019036422E+02 -0.41339393641E+01  0.38314016587E+02  0.41800000000E+01 0.  1.
        -11    1    1    2    0    0  0.30482644762E+02  0.49171128823E+02 -0.97770937539E+02  0.11360522773E+03  0.00000000000E+00 0.  1.
         11    1    1    2    0    0 -0.50373573560E+02  0.46163718767E+02 -0.57536407902E+02  0.89325383167E+02  0.00000000000E+00 0. -1.
</event>
<event>
 7    1  0.2644565E-009  0.1410214E+03  0.7561462E-02  0.1211961E+00
          2   -1    0    0  501    0  0.00000000000E+00  0.00000000000E+00  0.17923483930E+04  0.17923483930E+04  0.00000000000E+00 0. -1.
         -2   -1    0    0    0  501 -0.00000000000E+00 -0.00000000000E+00 -0.11804535320E+02  0.11804535320E+02  0.00000000000E+00 0.  1.
         25    2    1    2    0    0  0.91227947187E+02  0.27432494148E+02  0.10838072024E+04  0.10951531995E+04  0.12508956075E+03 0.  0.
          5    1    3    3  502    0  0.85848957385E+02 -0.31446549095E+02  0.49670019283E+03  0.50506186046E+03  0.41800000000E+01 0. -1.
         -5    1    3    3    0  502  0.53789898020E+01  0.58879043243E+02  0.58710700961E+03  0.59009133903E+03  0.41800000000E+01 0. -1.
        -11    1    1    2    0    0  0.10791919889E+02 -0.27162710678E+02  0.14734100628E+03  0.15021201856E+03  0.00000000000E+00 0. -1.
         11    1    1    2    0    0 -0.10201986708E+03 -0.26978347071E+00  0.54939564899E+03  0.55878771031E+03  0.00000000000E+00 0.  1.
</event>
<event>
 7    1  0.2644565E-009  0.1234109E+03  0.7561462E-02  0.1237574E+00
         -1   -1    0    0    0  501 -0.00000000000E+00  0.00000000000E+00  0.53182268180E+02  0.53182268180E+02  0.00000000000E+00 0.  1.
          1   -1    0    0  501    0  0.00000000000E+00 -0.00000000000E+00 -0.52392264364E+03  0.52392264364E+03  0.00000000000E+00 0. -1.
         25    2    1    2    0    0  0.28613846107E+02 -0.72528817576E+02 -0.43569361389E+03  0.45995018746E+03  0.12508424435E+03 0.  0.
          5    1    3    3  502    0 -0.37648816487E+02  0.67640083419E+01 -0.18129721684E+03  0.18533574514E+03  0.41800000000E+01 0. -1.
         -5    1    3    3    0  502  0.66262662594E+02 -0.79292825918E+02 -0.25439639706E+03  0.27461444232E+03  0.41800000000E+01 0. -1.
        -11    1    1    2    0    0 -0.50643248335E+02  0.63231475763E+02 -0.85465790007E+01  0.81461660564E+02  0.00000000000E+00 0.  1.
         11    1    1    2    0    0  0.22029402228E+02  0.92973418128E+01 -0.26500182562E+02  0.35693063796E+02  0.00000000000E+00 0. -1.
</event>
<event>
 7    1  0.2644565E-009  0.1585741E+03  0.7561462E-02  0.1190316E+00
          1   -1    0    0  501    0  0.00000000000E+00  0.00000000000E+00  0.98710137797E+02  0.98710137797E+02  0.00000000000E+00 0. -1.
         -1   -1    0    0    0  501 -0.00000000000E+00 -0.00000000000E+00 -0.32053165554E+03  0.32053165554E+03  0.00000000000E+00 0.  1.
         25    2    1    2    0    0 -0.26403569273E+02 -0.13550132538E+03 -0.14802226319E+03  0.23793745305E+03  0.12508350617E+03 0.  0.
          5    1    3    3  502    0 -0.47036631831E+02 -0.46573303862E+02 -0.28373132274E+01  0.66385541445E+02  0.41800000000E+01 0.  1.
         -5    1    3    3    0  502  0.20633062558E+02 -0.88928021516E+02 -0.14518494996E+03  0.17155191161E+03  0.41800000000E+01 0.  1.
        -11    1    1    2    0    0  0.72620956486E+01  0.13966054859E+03 -0.79547668437E+02  0.16089014395E+03  0.00000000000E+00 0. -1.
         11    1    1    2    0    0  0.19141473624E+02 -0.41592232088E+01  0.57484138777E+01  0.20414196343E+02  0.00000000000E+00 0.  1.
</event>
<event>
 7    1  0.2644565E-009  0.1754416E+03  0.7561462E-02  0.1172289E+00
         -2   -1    0    0    0  501 -0.00000000000E+00  0.00000000000E+00  0.23862440729E+03  0.23862440729E+03  0.00000000000E+00 0.  1.
          2   -1    0    0  501    0  0.00000000000E+00 -0.00000000000E+00 -0.39626283939E+03  0.39626283939E+03  0.00000000000E+00 0. -1.
         25    2    1    2    0    0  0.55695947577E+01  0.16435745971E+03  0.16290624460E+03  0.26311770960E+03  0.12509232443E+03 0.  0.
          5    1    3    3  502    0 -0.17080523884E+02 -0.27026519380E+01 -0.10963832534E+02  0.20898005826E+02  0.41800000000E+01 0.  1.
         -5    1    3    3    0  502  0.22650118642E+02  0.16706011164E+03  0.17387007713E+03  0.24221970378E+03  0.41800000000E+01 0.  1.
        -11    1    1    2    0    0 -0.32129393267E+01 -0.94489532316E+02 -0.26837523261E+03  0.28454149113E+03  0.00000000000E+00 0.  1.
         11    1    1    2    0    0 -0.23566554309E+01 -0.69867927390E+02 -0.52169444088E+02  0.87228045943E+02  0.00000000000E+00 0. -1.
</event>
<event>
 7    1  0.2644565E-009  0.1420528E+03  0.7561462E-02  0.1210593E+00
         -2   -1    0    0    0  501 -0.00000000000E+00  0.00000000000E+00  0.40693363533E+02  0.40693363533E+02  0.00000000000E+00 0. -1.
          2   -1    0    0  501    0  0.00000000000E+00 -0.00000000000E+00 -0.57203749473E+03  0.57203749473E+03  0.00000000000E+00 0.  1.
         25    2    1    2    0    0 -0.15006217779E+02 -0.10723379909E+03 -0.27974779689E+03  0.32500843504E+03  0.12508948294E+03 0.  0.
          5    1    3    3  502    0  0.52695015290E+02 -0.24314290220E+02 -0.10469467967E+03  0.11977644884E+03  0.41800000000E+01 0. -1.
         -5    1    3    3    0  502 -0.67701233069E+02 -0.82919508869E+02 -0.17505311722E+03  0.20523198620E+03  0.41800000000E+01 0. -1.
        -11    1    1    2    0    0  0.24215438057E+02  0.20954893819E+02 -0.14321383851E+02  0.35079866742E+02  0.00000000000E+00 0. -1.
         11    1    1    2    0    0 -0.92092202781E+01  0.86278905271E+02 -0.23727495045E+03  0.25264255648E+03  0.00000000000E+00 0.  1.
</event>
<event>
 7    1  0.2644565E-009  0.1169252E+03  0.7561462E-02  0.1248257E+00
         -2   -1    0    0    0  501 -0.00000000000E+00  0.00000000000E+00  0.23042841903E+03  0.23042841903E+03  0.00000000000E+00 0.  1.
          2   -1    0    0  501    0  0.00000000000E+00 -0.00000000000E+00 -0.85168476076E+02  0.85168476076E+02  0.00000000000E+00 0. -1.
         25    2    1    2    0    0 -0.28030866631E+02 -0.75182759123E+02  0.12144260824E+03  0.19192103131E+03  0.12508876213E+03 0.  0.
          5    1    3    3  502    0 -0.22131200607E+02 -0.94554740965E+02  0.35426960098E+02  0.10345497079E+03  0.41800000000E+01 0. -1.
         -5    1    3    3    0  502 -0.58996660241E+01  0.19371981843E+02  0.86015648140E+02  0.88466060524E+02  0.41800000000E+01 0. -1.
        -11    1    1    2    0    0  0.11546218075E+02  0.91825210631E+02  0.33366757132E+02  0.98379494514E+02  0.00000000000E+00 0.  1.
         11    1    1    2    0    0  0.16484648556E+02 -0.16642451509E+02 -0.95494224145E+01  0.25296369278E+02  0.00000000000E+00 0. -1.
</event>
<event>
 7    1  0.2644565E-009  0.1246926E+03  0.7561462E-02  0.1235550E+00
          1   -1    0    0  501    0  0.00000000000E+00  0.00000000000E+00  0.86349449112E+02  0.86349449112E+02  0.00000000000E+00 0. -1.
         -1   -1    0    0    0  501 -0.00000000000E+00 -0.00000000000E+00 -0.28230902928E+03  0.28230902928E+03  0.00000000000E+00 0.  1.
         25    2    1    2    0    0 -0.70674445861E+01 -0.90122115256E+02 -0.32067415609E+02  0.15763122369E+03  0.12508932451E+03 0.  0.
          5    1    3    3  502    0 -0.26303535964E+02  0.24416130605E+02  0.29524260753E+01  0.36252071082E+02  0.41800000000E+01 0. -1.
         -5    1    3    3    0  502  0.19236091378E+02 -0.11453824586E+03 -0.35019841684E+02  0.12137915261E+03  0.41800000000E+01 0. -1.
        -11    1    1    2    0    0  0.21000101567E+02  0.65012905102E+02 -0.16861067107E+03  0.18192647002E+03  0.00000000000E+00 0. -1.
         11    1    1    2    0    0 -0.13932656981E+02  0.25109210154E+02  0.47185065140E+01  0.29100784677E+02  0.00000000000E+00 0.  1.
</event>
<event>
 7    1  0.2644565E-009  0.1090747E+03  0.7561462E-02  0.1262293E+00
          2   -1    0    0  501    0  0.00000000000E+00  0.00000000000E+00  0.17399881326E+03  0.17399881326E+03  0.00000000000E+00 0. -1.
         -2   -1    0    0    0  501 -0.00000000000E+00 -0.00000000000E+00 -0.15037987423E+03  0.15037987423E+03  0.00000000000E+00 0.  1.
         25    2    1    2    0    0 -0.53155813795E+02 -0.37525608349E+02 -0.88343733887E+02  0.16639152556E+03  0.12509121728E+03 0.  0.
          5    1    3    3  502    0  0.24707728781E+02  0.92374025710E+00 -0.74182143271E+02  0.78305733748E+02  0.41800000000E+01 0. -1.
         -5    1    3    3    0  502 -0.77863542576E+02 -0.38449348606E+02 -0.14161590616E+02  0.88085791814E+02  0.41800000000E+01 0. -1.
        -11    1    1    2    0    0 -0.22790211981E+02  0.40947764930E+01  0.47738777510E+02  0.53058004437E+02  0.00000000000E+00 0. -1.
         11    1    1    2    0    0  0.75946025776E+02  0.33430831856E+02  0.64223895407E+02  0.10492915749E+03  0.00000000000E+00 0.  1.
</event>
<event>
 7    1  0.2644565E-009  0.1144827E+03  0.7561462E-02  0.1252487E+00
          1   -1    0    0  501    0  0.00000000000E+00  0.00000000000E+00  0.29622770176E+03  0.29622770176E+03  0.00000000000E+00 0.  1.
         -1   -1    0    0    0  501 -0.00000000000E+00 -0.00000000000E+00 -0.53190919547E+02  0.53190919547E+02  0.00000000000E+00 0. -1.
         25    2    1    2    0    0 -0.32401116610E+02 -0.44910972983E+02  0.16798696456E+03  0.21664269094E+03  0.12509039702E+03 0.  0.
          5    1    3    3  502    0  0.12233606497E+02  0.29720970307E+02  0.10306243712E+03  0.10803858361E+03  0.41800000000E+01 0. -1.
         -5    1    3    3    0  502 -0.44634723107E+02 -0.74631943290E+02  0.64924527437E+02  0.10860410733E+03  0.41800000000E+01 0. -1.
        -11    1    1    2    0    0  0.62551801860E+02  0.48470031688E+02  0.55782449268E+02  0.96818146719E+02  0.00000000000E+00 0. -1.
         11    1    1    2    0    0 -0.30150685250E+02 -0.35590587048E+01  0.19267368383E+02  0.35957783640E+02  0.00000000000E+00 0.  1.
</event>
<event>
 7    1  0.2644565E-009  0.1541175E+03  0.7561462E-02  0.1195503E+00
          1   -1    0    0  501    0  0.00000000000E+00  0.00000000000E+00  0.18712471359E+03  0.18712471359E+03  0.00000000000E+00 0. -1.
         -1   -1    0    0    0  501 -0.00000000000E+00 -0.00000000000E+00 -0.17384423479E+03  0.17384423479E+03  0.00000000000E+00 0.  1.
         25    2    1    2    0    0 -0.42680212669E+02  0.13588727556E+03 -0.82906179366E+01  0.18973975597E+03  0.12508192690E+03 0.  0.
          5    1    3    3  502    0 -0.10345177933E+02  0.67713865105E+02  0.57510074594E+02  0.89538099788E+02  0.41800000000E+01 0. -1.
         -5    1    3    3    0  502 -0.32335034736E+02  0.68173410451E+02 -0.65800692531E+02  0.10020165618E+03  0.41800000000E+01 0. -1.
        -11    1    1    2    0    0  0.58171002411E+02 -0.49820602536E+02 -0.12064627331E+02  0.77533948636E+02  0.00000000000E+00 0.  1.
         11    1    1    2    0    0 -0.15490789742E+02 -0.86066673020E+02  0.33635724075E+02  0.93695243773E+02  0.00000000000E+00 0. -1.
</event>
<event>
 7    1  0.2644565E-009  0.2304996E+03  0.7561462E-02  0.1126289E+00
         -1   -1    0    0    0  501 -0.00000000000E+00  0.00000000000E+00  0.18504379340E+04  0.18504379340E+04  0.00000000000E+00 0.  1.
          1   -1    0    0  501    0  0.00000000000E+00 -0.00000000000E+00 -0.34554765014E+02  0.34554765014E+02  0.00000000000E+00 0. -1.
         25    2    1    2    0    0 -0.11485100291E+03 -0.19447453940E+03  0.81130544468E+03  0.85139595912E+03  0.12508978892E+03 0.  0.
          5    1    3    3  502    0 -0.93001049075E+02 -0.15588931632E+03  0.42004897825E+03  0.45761259882E+03  0.41800000000E+01 0. -1.
         -5    1    3    3    0  502 -0.21849953833E+02 -0.38585223080E+02  0.39125646643E+03  0.39378336030E+03  0.41800000000E+01 0. -1.
        -11    1    1    2    0    0  0.43970493623E+02  0.13622170696E+03  0.73572816951E+03  0.74952364684E+03  0.00000000000E+00 0.  1.
         11    1    1    2    0    0  0.70880509286E+02  0.58252832446E+02  0.26884955475E+03  0.28407309302E+03  0.00000000000E+00 0. -1.
</event>
<event>
 6    1  0.2644565E-009  0.1282320E+03  0.7561462E-02  0.1230103E+00
          1   -1    0    0  501    0  0.00000000000E+00  0.00000000000E+00  0.45348474068E+02  0.45348474068E+02  0.00000000000E+00 0. -1.
         -1   -1    0    0    0  501 -0.00000000000E+00 -0.00000000000E+00 -0.64453589248E+03  0.64453589248E+03  0.00000000000E+00 0.  1.
          5    1    1    2  502    0  0.46973125268E+02  0.94899253267E+02 -0.65164052051E+02  0.12440325095E+03  0.41800000000E+01 0. -1.
         -5    1    1    2    0  502 -0.18417567919E+02 -0.32161129209E+02 -0.27177514979E+02  0.46147965941E+02  0.41800000000E+01 0. -1.
        -11    1    1    2    0    0 -0.54681071082E+02 -0.11785548338E+02 -0.24853874349E+03  0.25475561957E+03  0.00000000000E+00 0.  1.
         11    1    1    2    0    0  0.26125513733E+02 -0.50952575720E+02 -0.25830710789E+03  0.26457753009E+03  0.00000000000E+00 0. -1.
</event>
<event>
 7    1  0.2644565E-009  0.9318910E+02  0.7561462E-02  0.1295308E+00
         -1   -1    0    0    0  501 -0.00000000000E+00  0.00000000000E+00  0.24995030136E+02  0.24995030136E+02  0.00000000000E+00 0.  1.
          1   -1    0    0  501    0  0.00000000000E+00 -0.00000000000E+00 -0.55227048219E+03  0.55227048219E+03  0.00000000000E+00 0. -1.
         25    2    1    2    0    0 -0.12700872815E+02  0.43999603066E+02 -0.27658047363E+03  0.30698765826E+03  0.12508951471E+03 0.  0.
          5    1    3    3  502    0  0.47049444454E+02  0.16897330789E+02 -0.19934660040E+03  0.20556193593E+03  0.41800000000E+01 0. -1.
         -5    1    3    3    0  502 -0.59750317269E+02  0.27102272277E+02 -0.77233873231E+02  0.10142572233E+03  0.41800000000E+01 0. -1.
        -11    1    1    2    0    0 -0.27718067853E+01  0.12028644776E+02  0.58992457353E+00  0.12357961766E+02  0.00000000000E+00 0.  1.
         11    1    1    2    0    0  0.15472679600E+02 -0.56028247842E+02 -0.25128490299E+03  0.25791989230E+03  0.00000000000E+00 0. -1.
</event>
<event>
 7    1  0.2644565E-009  0.1476369E+03  0.7561462E-02  0.1203407E+00
          1   -1    0    0  501    0  0.00000000000E+00  0.00000000000E+00  0.82264721935E+02  0.82264721935E+02  0.00000000000E+00 0. -1.
         -1   -1    0    0    0  501 -0.00000000000E+00 -0.00000000000E+00 -0.32523060004E+03  0.32523060004E+03  0.00000000000E+00 0.  1.
         25    2    1    2    0    0  0.12183016636E+03  0.37990755762E+01 -0.12968070555E+03  0.21753574594E+03  0.12509073890E+03 0.  0.
          5    1    3    3  502    0  0.13812537219E+03 -0.24354292703E+02 -0.93043876040E+02  0.16836384792E+03  0.41800000000E+01 0.  1.
         -5    1    3    3    0  502 -0.16295205836E+02  0.28153368280E+02 -0.36636829505E+02  0.49171898020E+02  0.41800000000E+01 0.  1.
        -11    1    1    2    0    0 -0.76019985042E+02 -0.62993914001E+01 -0.12139320647E+03  0.14337025854E+03  0.00000000000E+00 0.  1.
         11    1    1    2    0    0 -0.45810181314E+02  0.25003158238E+01  0.81080339069E+01  0.46589317500E+02  0.00000000000E+00 0. -1.
</event>
<event>
 7    1  0.2644565E-009  0.8380865E+02  0.7561462E-02  0.1318578E+00
         -1   -1    0    0    0  501 -0.00000000000E+00  0.00000000000E+00  0.33884320044E+03  0.33884320044E+03  0.00000000000E+00 0.  1.
          1   -1    0    0  501    0  0.00000000000E+00 -0.00000000000E+00 -0.37018540517E+02  0.37018540517E+02  0.00000000000E+00 0. -1.
         25    2    1    2    0    0  0.23085256870E+02  0.14082861284E+02  0.19067455100E+03  0.22964266115E+03  0.12509081242E+03 0.  0.
          5    1    3    3  502    0 -0.17564644503E+02 -0.14229243586E+02 -0.83845468528E+01  0.24469596145E+02  0.41800000000E+01 0.  1.
         -5    1    3    3    0  502  0.40649901373E+02  0.28312104870E+02  0.19905909786E+03  0.20517306500E+03  0.41800000000E+01 0.  1.
        -11    1    1    2    0    0  0.28450258283E+02 -0.29638154452E+02  0.45001206436E+02  0.60933947651E+02  0.00000000000E+00 0.  1.
         11    1    1    2    0    0 -0.51535515152E+02  0.15555293168E+02  0.66148902487E+02  0.85285132161E+02  0.00000000000E+00 0. -1.
</event>
<event>
 7    1  0.2644565E-009  0.1080538E+03  0.7561462E-02  0.1264217E+00
         -1   -1    0    0    0  501 -0.00000000000E+00  0.00000000000E+00  0.32039531801E+02  0.32039531801E+02  0.00000000000E+00 0.  1.
          1   -1    0    0  501    0  0.00000000000E+00 -0.00000000000E+00 -0.45114560653E+03  0.45114560653E+03  0.00000000000E+00 0. -1.
         25    2    1    2    0    0 -0.21087825287E+02 -0.43645601275E+02 -0.26721278222E+03  0.29899827549E+03  0.12509061867E+03 0.  0.
          5    1    3    3  502    0  0.34522314702E+02  0.83747967539E+01 -0.17833073724E+03  0.18188252164E+03  0.41800000000E+01 0.  1.
         -5    1    3    3    0  502 -0.55610139988E+02 -0.52020398029E+02 -0.88882044979E+02  0.11711575385E+03  0.41800000000E+01 0.  1.
        -11    1    1    2    0    0  0.41513008006E+02 -0.13288932937E+02 -0.67684282050E+02  0.80505202372E+02  0.00000000000E+00 0. -1.
         11    1    1    2    0    0 -0.20425182720E+02  0.56934534212E+02 -0.84209010459E+02  0.10368166047E+03  0.00000000000E+00 0.  1.
</event>
<event>
 7    1  0.2836944E-009  0.1212456E+03  0.7561462E-02  0.1241056E+00
          2   -1    0    0  501    0  0.00000000000E+00  0.00000000000E+00  0.49792233209E+03  0.49792233209E+03  0.00000000000E+00 0. -1.
         -2   -1    0    0    0  501 -0.00000000000E+00 -0.00000000000E+00 -0.34894806954E+02  0.34894806954E+02  0.00000000000E+00 0.  1.
         25    2    1    2    0    0 -0.72871998167E+02 -0.16591613400E+02  0.25473657301E+03  0.29346853822E+03  0.12508977394E+03 0.  0.
          5    1    3    3  502    0 -0.10698185324E+03 -0.24585843410E+02  0.18102094439E+03  0.21174426870E+03  0.41800000000E+01 0.  1.
         -5    1    3    3    0  502  0.34109855072E+02  0.79942300105E+01  0.73715628619E+02  0.81724269524E+02  0.41800000000E+01 0.  1.
        -11    1    1    2    0    0  0.23316329022E+02  0.37025296968E+02  0.16423582402E+03  0.16996449543E+03  0.00000000000E+00 0. -1.
         11    1    1    2    0    0  0.49555669145E+02 -0.20433683568E+02  0.44055128106E+02  0.69384105392E+02  0.00000000000E+00 0.  1.
</event>
<event>
 7    1  0.2644565E-009  0.9551399E+02  0.7561462E-02  0.1290023E+00
         -1   -1    0    0    0  501 -0.00000000000E+00  0.00000000000E+00  0.14756871400E+03  0.14756871400E+03  0.00000000000E+00 0.  1.
          1   -1    0    0  501    0  0.00000000000E+00 -0.00000000000E+00 -0.11810612380E+03  0.11810612380E+03  0.00000000000E+00 0. -1.
         25    2    1    2    0    0  0.73837939033E+02  0.17862920690E+02  0.13551330350E+02  0.14698052870E+03  0.12509401300E+03 0.  0.
          5    1    3    3  502    0  0.79535072128E+02  0.83860328370E+01 -0.41830158853E+02  0.90351468360E+02  0.41800000000E+01 0.  1.
         -5    1    3    3    0  502 -0.56971330952E+01  0.94768878530E+01  0.55381489204E+02  0.56629060343E+02  0.41800000000E+01 0.  1.
        -11    1    1    2    0    0 -0.84736912384E+02 -0.92695621269E+01 -0.13375333644E+02  0.86285390724E+02  0.00000000000E+00 0. -1.
         11    1    1    2    0    0  0.10898973351E+02 -0.85933585632E+01  0.29286593490E+02  0.32408918367E+02  0.00000000000E+00 0.  1.
</event>
<event>
 7    1  0.2644565E-009  0.7176237E+02  0.7561462E-02  0.1354201E+00
          1   -1    0    0  501    0  0.00000000000E+00  0.00000000000E+00  0.63499309178E+03  0.63499309178E+03  0.00000000000E+00 0. -1.
         -1   -1    0    0    0  501 -0.00000000000E+00 -0.00000000000E+00 -0.25646443308E+02  0.25646443308E+02  0.00000000000E+00 0.  1.
         25    2    1    2    0    0 -0.45172882217E+02  0.30835902218E+02  0.44123446611E+03  0.46187217277E+03  0.12508640109E+03 0.  0.
          5    1    3    3  502    0 -0.43873872153E+02 -0.12425266581E+01  0.40612719729E+02  0.59944356982E+02  0.41800000000E+01 0. -1.
         -5    1    3    3    0  502 -0.12990100637E+01  0.32078428876E+02  0.40062174639E+03  0.40192781579E+03  0.41800000000E+01 0. -1.
        -11    1    1    2    0    0  0.23606833012E+02 -0.37652844753E+02  0.17033835460E+03  0.17604026337E+03  0.00000000000E+00 0. -1.
         11    1    1    2    0    0  0.21566049205E+02  0.68169425352E+01 -0.22261722334E+01  0.22727098949E+02  0.00000000000E+00 0.  1.
</event>
<event>
 7    1  0.2644565E-009  0.8362827E+02  0.7561462E-02  0.1319059E+00
         -3   -1    0    0    0  501 -0.00000000000E+00  0.00000000000E+00  0.45340772587E+02  0.45340772587E+02  0.00000000000E+00 0.  1.
          3   -1    0    0  501    0  0.00000000000E+00 -0.00000000000E+00 -0.26089885849E+03  0.26089885849E+03  0.00000000000E+00 0. -1.
         25    2    1    2    0    0 -0.98844878876E+01 -0.10606966736E+02 -0.12805448628E+03  0.17956343610E+03  0.12503945490E+03 0.  0.
          5    1    3    3  502    0 -0.40678492053E+02 -0.35660086749E+02 -0.12866945153E+03  0.13964126059E+03  0.41800000000E+01 0. -1.
         -5    1    3    3    0  502  0.30794004166E+02  0.25053120013E+02  0.61496524754E+00  0.39922175507E+02  0.41800000000E+01 0. -1.
        -11    1    1    2    0    0  0.16269339276E+02  0.39906067981E+02 -0.10957885216E+02  0.44466402042E+02  0.00000000000E+00 0.  1.
         11    1    1    2    0    0 -0.63848513884E+01 -0.29299101245E+02 -0.76545714405E+02  0.82209792937E+02  0.00000000000E+00 0. -1.
</event>
<event>
 7    1  0.2644565E-009  0.1969552E+03  0.7561462E-02  0.1152334E+00
         -1   -1    0    0    0  501 -0.00000000000E+00  0.00000000000E+00  0.19123005104E+03  0.19123005104E+03  0.00000000000E+00 0.  1.
          1   -1    0    0  501    0  0.00000000000E+00 -0.00000000000E+00 -0.70426783796E+03  0.70426783796E+03  0.00000000000E+00 0. -1.
         25    2    1    2    0    0  0.10337503480E+03  0.16448314109E+03 -0.61592810558E+03  0.65784109511E+03  0.12508546539E+03 0.  0.
          5    1    3    3  502    0  0.30668104734E+02  0.64045115590E+02 -0.41968978644E+03  0.42567510935E+03  0.41800000000E+01 0. -1.
         -5    1    3    3    0  502  0.72706930063E+02  0.10043802550E+03 -0.19623831914E+03  0.23216598576E+03  0.41800000000E+01 0. -1.
        -11    1    1    2    0    0 -0.53996869123E+02 -0.48190249097E+02  0.82388618310E+02  0.10966242023E+03  0.00000000000E+00 0.  1.
         11    1    1    2    0    0 -0.49378165674E+02 -0.11629289199E+03  0.20501700350E+02  0.12799437367E+03  0.00000000000E+00 0. -1.
</event>
<event>
 7    1  0.2644565E-009  0.1029099E+03  0.7561462E-02  0.1274293E+00
         -3   -1    0    0    0  501 -0.00000000000E+00  0.00000000000E+00  0.47604816531E+03  0.47604816531E+03  0.00000000000E+00 0. -1.
          3   -1    0    0  501    0  0.00000000000E+00 -0.00000000000E+00 -0.34353895215E+02  0.34353895215E+02  0.00000000000E+00 0.  1.
         25    2    1    2    0    0 -0.21422875832E+02 -0.27955651214E+02  0.13145224540E+03  0.18484973749E+03  0.12509706066E+03 0.  0.
          5    1    3    3  502    0  0.32262382996E+02  0.19079275363E+02  0.29913819056E+01  0.37832537196E+02  0.41800000000E+01 0.  1.
         -5    1    3    3    0  502 -0.53685258829E+02 -0.47034926577E+02  0.12846086349E+03  0.14701720029E+03  0.41800000000E+01 0.  1.
        -11    1    1    2    0    0 -0.33908244899E+02  0.23174712829E+02  0.16553165584E+03  0.17055077095E+03  0.00000000000E+00 0. -1.
         11    1    1    2    0    0  0.55331120732E+02  0.47809383852E+01  0.14471036886E+03  0.15500155208E+03  0.00000000000E+00 0.  1.
</event>
<event>
 7    1  0.2644565E-009  0.1897384E+03  0.7561462E-02  0.1158697E+00
         -1   -1    0    0    0  501 -0.00000000000E+00  0.00000000000E+00  0.15795065002E+04  0.15795065002E+04  0.00000000000E+00 0.  1.
          1   -1    0    0  501    0  0.00000000000E+00 -0.00000000000E+00 -0.26674207215E+02  0.26674207215E+02  0.00000000000E+00 0. -1.
         25    2    1    2    0    0 -0.16695992731E+03  0.96851162506E+01  0.62288797610E+03  0.65696727982E+03  0.12508859730E+03 0.  0.
          5    1    3    3  502    0 -0.82887555224E+02  0.48910712110E+02  0.17705846358E+03  0.20156829238E+03  0.41800000000E+01 0.  1.
         -5    1    3    3    0  502 -0.84072372090E+02 -0.39225595860E+02  0.44582951252E+03  0.45539898743E+03  0.41800000000E+01 0.  1.
        -11    1    1    2    0    0 -0.11019037243E+02  0.41177961784E+01  0.60083254952E+02  0.61223957343E+02  0.00000000000E+00 0. -1.
         11    1    1    2    0    0  0.17797896456E+03 -0.13802912429E+02  0.86986106193E+03  0.88798947025E+03  0.00000000000E+00 0.  1.
</event>
<event>
 7    1  0.2644565E-009  0.9401485E+02  0.7561462E-02  0.1293410E+00
         -2   -1    0    0    0  501 -0.00000000000E+00  0.00000000000E+00  0.15605951324E+02  0.15605951324E+02  0.00000000000E+00 0.  1.
          2   -1    0    0  501    0  0.00000000000E+00 -0.00000000000E+00 -0.80444763383E+03  0.80444763383E+03  0.00000000000E+00 0. -1.
         25    2    1    2    0    0 -0.39540278405E+02 -0.33567521503E+02 -0.59421040936E+03  0.60944574662E+03  0.12509154790E+03 0.  0.
          5    1    3    3  502    0 -0.21014248959E+02 -0.80974605027E+02 -0.39602771356E+03  0.40478871974E+03  0.41800000000E+01 0. -1.
         -5    1    3    3    0  502 -0.18526029446E+02  0.47407083523E+02 -0.19818269580E+03  0.20465702688E+03  0.41800000000E+01 0. -1.
        -11    1    1    2    0    0  0.12670565173E+02  0.40942471009E+01 -0.14981142340E+01  0.13399642808E+02  0.00000000000E+00 0.  1.
         11    1    1    2    0    0  0.26869713232E+02  0.29473274403E+02 -0.19313315891E+03  0.19720819573E+03  0.00000000000E+00 0. -1.
</event>
<event>
 7    1  0.2644565E-009  0.1160636E+03  0.7561462E-02  0.1249736E+00
          3   -1    0    0  501    0  0.00000000000E+00  0.00000000000E+00  0.30462991337E+02  0.30462991337E+02  0.00000000000E+00 0. -1.
         -3   -1    0    0    0  501 -0.00000000000E+00 -0.00000000000E+00 -0.49232803031E+03  0.49232803031E+03  0.00000000000E+00 0.  1.
         25    2    1    2    0    0 -0.43821302626E+02  0.35687293523E+02 -0.25410882065E+03  0.28881313042E+03  0.12509133499E+03 0.  0.
          5    1    3    3  502    0  0.31350223841E+02 -0.14897960607E+02 -0.26723242806E+02  0.44004430132E+02  0.41800000000E+01 0. -1.
         -5    1    3    3    0  502 -0.75171526467E+02  0.50585254130E+02 -0.22738557784E+03  0.24480870029E+03  0.41800000000E+01 0. -1.
        -11    1    1    2    0    0 -0.25805624402E+02 -0.25166694663E+02 -0.87303790356E+02  0.94452340265E+02  0.00000000000E+00 0.  1.
         11    1    1    2    0    0  0.69626927028E+02 -0.10520598860E+02 -0.12045242797E+03  0.13952555096E+03  0.00000000000E+00 0. -1.
</event>
<event>
 7    1  0.2644565E-009  0.1062022E+03  0.7561462E-02  0.1267769E+00
         -1   -1    0    0    0  501 -0.00000000000E+00  0.00000000000E+00  0.78121103450E+02  0.78121103450E+02  0.00000000000E+00 0.  1.
          1   -1    0    0  501    0  0.00000000000E+00 -0.00000000000E+00 -0.18690003780E+03  0.18690003780E+03  0.00000000000E+00 0. -1.
         25    2    1    2    0    0 -0.27202776074E+02 -0.14822684640E+02 -0.10822584530E+03  0.16828505102E+03  0.12508925533E+03 0.  0.
          5    1    3    3  502    0 -0.51780990621E+02 -0.50455583837E+02 -0.29201803467E+02  0.78084919515E+02  0.41800000000E+01 0.  1.
         -5    1    3    3    0  502  0.24578214547E+02  0.35632899197E+02 -0.79024041838E+02  0.90200131507E+02  0.41800000000E+01 0.  1.
        -11    1    1    2    0    0  0.48872221631E+02 -0.22137838794E+02  0.30600858070E+01  0.53739576466E+02  0.00000000000E+00 0.  1.
         11    1    1    2    0    0 -0.21669445557E+02  0.36960523434E+02 -0.36131748540E+01  0.42996513763E+02  0.00000000000E+00 0. -1.
</event>
<event>
 7    1  0.2644565E-009  0.1202355E+03  0.7561462E-02  0.1242709E+00
          2   -1    0    0  501    0  0.00000000000E+00  0.00000000000E+00  0.49347492430E+02  0.49347492430E+02  0.00000000000E+00 0. -1.
         -2   -1    0    0    0  501 -0.00000000000E+00 -0.00000000000E+00 -0.53481648439E+03  0.53481648439E+03  0.00000000000E+00 0.  1.
         25    2    1    2    0    0 -0.52827658658E+02 -0.60822339470E+02 -0.42072643481E+03  0.44626028299E+03  0.12508952287E+03 0.  0.
          5    1    3    3  502    0 -0.66874509000E+02 -0.67661931501E+01 -0.34805560252E+03  0.35451115098E+03  0.41800000000E+01 0.  1.
         -5    1    3    3    0  502  0.14046850342E+02 -0.54056146319E+02 -0.72670832287E+02  0.91749132011E+02  0.41800000000E+01 0.  1.
        -11    1    1    2    0    0 -0.13990402442E+02  0.46796891067E+02 -0.87834020138E+01  0.49626893162E+02  0.00000000000E+00 0. -1.
         11    1    1    2    0    0  0.66818061101E+02  0.14025448403E+02 -0.55959155137E+02  0.88276800666E+02  0.00000000000E+00 0.  1.
</event>
<event>
 7    1  0.2644565E-009  0.6885762E+02  0.7561462E-02  0.1364021E+00
         -2   -1    0    0    0  501 -0.00000000000E+00  0.00000000000E+00  0.18146554656E+04  0.18146554656E+04  0.00000000000E+00 0.  1.
          2   -1    0    0  501    0  0.00000000000E+00 -0.00000000000E+00 -0.13279762997E+02  0.13279762997E+02  0.00000000000E+00 0. -1.
         25    2    1    2    0    0  0.79152299846E+01 -0.21660511283E+02  0.16049240327E+04  0.16099566641E+04  0.12508989106E+03 0.  0.
          5    1    3    3  502    0 -0.16183594454E+02 -0.29794901383E+01  0.28090275316E+02  0.32822584576E+02  0.41800000000E+01 0. -1.
         -5    1    3    3    0  502  0.24098824439E+02 -0.18681021145E+02  0.15768337574E+04  0.15771340795E+04  0.41800000000E+01 0. -1.
        -11    1    1    2    0    0 -0.43961354471E+02  0.29667706330E+02  0.14691053732E+03  0.15619052296E+03  0.00000000000E+00 0.  1.
         11    1    1    2    0    0  0.36046124487E+02 -0.80071950462E+01  0.49541132592E+02  0.61788041574E+02  0.00000000000E+00 0. -1.
</event>
<event>
 7    1  0.2644565E-009  0.9381991E+02  0.7561462E-02  0.1293856E+00
          2   -1    0    0  501    0  0.00000000000E+00  0.00000000000E+00  0.30942171694E+03  0.30942171694E+03  0.00000000000E+00 0. -1.
         -2   -1    0    0    0  501 -0.00000000000E+00 -0.00000000000E+00 -0.40214415327E+02  0.40214415327E+02  0.00000000000E+00 0.  1.
         25    2    1    2    0    0 -0.69358057520E+01 -0.27605209730E+02  0.13707459992E+03  0.18774198287E+03  0.12508978049E+03 0.  0.
          5    1    3    3  502    0 -0.28808964689E+02 -0.56596537931E+02  0.22544815899E+02  0.67519372599E+02  0.41800000000E+01 0. -1.
         -5    1    3    3    0  502  0.21873158937E+02  0.28991328201E+02  0.11452978402E+03  0.12022261027E+03  0.41800000000E+01 0. -1.
        -11    1    1    2    0    0  0.89670759949E+01 -0.29226237561E+02  0.21099821666E+02  0.37145442361E+02  0.00000000000E+00 0.  1.
         11    1    1    2    0    0 -0.20312702430E+01  0.56831447291E+02  0.11103288003E+03  0.12474870704E+03  0.00000000000E+00 0. -1.
</event>
<event>
 7    1  0.2644565E-009  0.6941620E+02  0.7561462E-02  0.1362090E+00
         -3   -1    0    0    0  501 -0.00000000000E+00  0.00000000000E+00  0.65499089922E+02  0.65499089922E+02  0.00000000000E+00 0.  1.
          3   -1    0    0  501    0  0.00000000000E+00 -0.00000000000E+00 -0.32599442930E+03  0.32599442930E+03  0.00000000000E+00 0. -1.
         25    2    1    2    0    0 -0.67596140980E+02  0.64024792861E+01 -0.23406085888E+03  0.27393717217E+03  0.12508740391E+03 0.  0.
          5    1    3    3  502    0 -0.61557373883E+02  0.77929369102E+01 -0.28789742818E+02  0.68530006833E+02  0.41800000000E+01 0.  1.
         -5    1    3    3    0  502 -0.60387670975E+01 -0.13904576241E+01 -0.20527111606E+03  0.20540716533E+03  0.41800000000E+01 0.  1.
        -11    1    1    2    0    0  0.23820241713E+02 -0.86309751778E+01  0.34308691593E+02  0.42649548258E+02  0.00000000000E+00 0.  1.
         11    1    1    2    0    0  0.43775899267E+02  0.22284958917E+01 -0.60743172092E+02  0.74906798800E+02  0.00000000000E+00 0. -1.
</event>
<event>
 7    1  0.3690796E-009  0.2193430E+03  0.7561462E-02  0.1134374E+00
          1   -1    0    0  501    0  0.00000000000E+00  0.00000000000E+00  0.58602785605E+03  0.58602785605E+03  0.00000000000E+00 0. -1.
         -1   -1    0    0    0  501 -0.00000000000E+00 -0.00000000000E+00 -0.83412247390E+02  0.83412247390E+02  0.00000000000E+00 0.  1.
         25    2    1    2    0    0  0.70059206944E+02  0.17886438899E+03  0.27290791465E+03  0.35640873762E+03  0.12509075204E+03 0.  0.
          5    1    3    3  502    0 -0.35991584646E+02  0.57021977220E+02  0.75976809164E+02  0.10167029056E+03  0.41800000000E+01 0. -1.
         -5    1    3    3    0  502  0.10605079159E+03  0.12184241177E+03  0.19693110548E+03  0.25473844706E+03  0.41800000000E+01 0. -1.
        -11    1    1    2    0    0  0.19456165883E+02 -0.36780962485E+02  0.26152202853E+02  0.49145898163E+02  0.00000000000E+00 0. -1.
         11    1    1    2    0    0 -0.89515372827E+02 -0.14208342651E+03  0.20355549116E+03  0.26388546766E+03  0.00000000000E+00 0.  1.
</event>
<event>
 7    1  0.2644565E-009  0.1335955E+03  0.7561462E-02  0.1222216E+00
          1   -1    0    0  501    0  0.00000000000E+00  0.00000000000E+00  0.73614202383E+02  0.73614202383E+02  0.00000000000E+00 0. -1.
         -1   -1    0    0    0  501 -0.00000000000E+00 -0.00000000000E+00 -0.30392811096E+03  0.30392811096E+03  0.00000000000E+00 0.  1.
         25    2    1    2    0    0 -0.46388227454E+02 -0.70817993593E+02 -0.48703203814E+02  0.15871654357E+03  0.12510748690E+03 0.  0.
          5    1    3    3  502    0 -0.88024880294E+02 -0.60048056437E+02 -0.25389505504E+02  0.10961864815E+03  0.41800000000E+01 0.  1.
         -5    1    3    3    0  502  0.41636652840E+02 -0.10769937156E+02 -0.23313698311E+02  0.49097895423E+02  0.41800000000E+01 0.  1.
        -11    1    1    2    0    0 -0.79360332207E+01  0.61761837699E+02 -0.12606347753E+03  0.14060407386E+03  0.00000000000E+00 0. -1.
         11    1    1    2    0    0  0.54324260675E+02  0.90561558942E+01 -0.55547227235E+02  0.78221695909E+02  0.00000000000E+00 0.  1.
</event>
<event>
 7    1  0.2644565E-009  0.1219929E+03  0.7561462E-02  0.1239845E+00
          2   -1    0    0  501    0  0.00000000000E+00  0.00000000000E+00  0.45489461827E+02  0.45489461827E+02  0.00000000000E+00 0. -1.
         -2   -1    0    0    0  501 -0.00000000000E+00 -0.00000000000E+00 -0.40503952390E+03  0.40503952390E+03  0.00000000000E+00 0.  1.
         25    2    1    2    0    0  0.26167017800E+02  0.36384947145E+02 -0.17793865428E+03  0.22207794050E+03  0.12509144563E+03 0.  0.
          5    1    3    3  502    0 -0.17240008238E+02 -0.32557155615E+02 -0.15264465202E+02  0.40095667643E+02  0.41800000000E+01 0.  1.
         -5    1    3    3    0  502  0.43407026038E+02  0.68942102760E+02 -0.16267418908E+03  0.18198227286E+03  0.41800000000E+01 0.  1.
        -11    1    1    2    0    0 -0.10689492027E+02 -0.79142232294E+02 -0.63955322134E+02  0.10231344683E+03  0.00000000000E+00 0. -1.
         11    1    1    2    0    0 -0.15477525773E+02  0.42757285149E+02 -0.11765608565E+03  0.12613759840E+03  0.00000000000E+00 0.  1.
</event>
<event>
 7    1  0.2644565E-009  0.1194145E+03  0.7561462E-02  0.1244066E+00
         -1   -1    0    0    0  501 -0.00000000000E+00  0.00000000000E+00  0.44563506886E+02  0.44563506886E+02  0.00000000000E+00 0.  1.
          1   -1    0    0  501    0  0.00000000000E+00 -0.00000000000E+00 -0.44279283846E+03  0.44279283846E+03  0.00000000000E+00 0. -1.
         25    2    1    2    0    0  0.86463703911E+02 -0.71114027439E+01 -0.25048354442E+03  0.29309418353E+03  0.12504259375E+03 0.  0.
          5    1    3    3  502    0 -0.15067805118E+02 -0.36871555736E+02 -0.35800256885E+02  0.53718536527E+02  0.41800000000E+01 0.  1.
         -5    1    3    3    0  502  0.10153150903E+03  0.29760152993E+02 -0.21468328754E+03  0.23937564700E+03  0.41800000000E+01 0.  1.
        -11    1    1    2    0    0 -0.73857634177E+02 -0.67394912234E+01 -0.15680362641E+03  0.17345820282E+03  0.00000000000E+00 0. -1.
         11    1    1    2    0    0 -0.12606069734E+02  0.13850893967E+02  0.90578392612E+01  0.20803958996E+02  0.00000000000E+00 0.  1.
</event>
<event>
 7    1  0.2644565E-009  0.2687271E+03  0.7561462E-02  0.1102010E+00
         -2   -1    0    0    0  501 -0.00000000000E+00  0.00000000000E+00  0.86735180289E+02  0.86735180289E+02  0.00000000000E+00 0.  1.
          2   -1    0    0  501    0  0.00000000000E+00 -0.00000000000E+00 -0.88561649869E+03  0.88561649869E+03  0.00000000000E+00 0. -1.
         25    2    1    2    0    0  0.19484494349E+03  0.16380576256E+03 -0.37994298104E+03  0.47413306854E+03  0.12509443628E+03 0.  0.
          5    1    3    3  502    0  0.38084994171E+02  0.11099155365E+03 -0.17474035532E+03  0.21052614075E+03  0.41800000000E+01 0.  1.
         -5    1    3    3    0  502  0.15675994932E+03  0.52814208904E+02 -0.20520262572E+03  0.26360692779E+03  0.41800000000E+01 0.  1.
        -11    1    1    2    0    0 -0.14147343897E+03 -0.11742886413E+03 -0.36702372698E+03  0.41050053378E+03  0.00000000000E+00 0.  1.
         11    1    1    2    0    0 -0.53371504520E+02 -0.46376898431E+02 -0.51914610379E+02  0.87718076663E+02  0.00000000000E+00 0. -1.
</event>
<event>
 7    1  0.2644565E-009  0.1236316E+03  0.7561462E-02  0.1237224E+00
          1   -1    0    0  501    0  0.00000000000E+00  0.00000000000E+00  0.36858621862E+03  0.36858621862E+03  0.00000000000E+00 0. -1.
         -1   -1    0    0    0  501 -0.00000000000E+00 -0.00000000000E+00 -0.67956509467E+02  0.67956509467E+02  0.00000000000E+00 0.  1.
         25    2    1    2    0    0 -0.17611368636E+02  0.10837897024E+03  0.11366860410E+03  0.20155465754E+03  0.12509023512E+03 0.  0.
          5    1    3    3  502    0  0.26910610200E+01 -0.12848372965E+02 -0.17152422895E+02  0.22000011555E+02  0.41800000000E+01 0. -1.
         -5    1    3    3    0  502 -0.20302429656E+02  0.12122734320E+03  0.13082102700E+03  0.17955464598E+03  0.41800000000E+01 0. -1.
        -11    1    1    2    0    0  0.18955132621E+02 -0.85251772973E+02  0.60066058426E+02  0.10599572266E+03  0.00000000000E+00 0.  1.
         11    1    1    2    0    0 -0.13437639849E+01 -0.23127197264E+02  0.12689504663E+03  0.12899234789E+03  0.00000000000E+00 0. -1.
</event>
<event>
 7    1  0.2644565E-009  0.1755906E+03  0.7561462E-02  0.1172140E+00
          1   -1    0    0  501    0  0.00000000000E+00  0.00000000000E+00  0.87164777629E+02  0.87164777629E+02  0.00000000000E+00 0. -1.
         -1   -1    0    0    0  501 -0.00000000000E+00 -0.00000000000E+00 -0.50100816036E+03  0.50100816036E+03  0.00000000000E+00 0.  1.
         25    2    1    2    0    0  0.73894320486E+02 -0.14582088786E+03 -0.31489404481E+03  0.37620579791E+03  0.12509372879E+03 0.  0.
          5    1    3    3  502    0  0.28136259794E+02 -0.58889402731E+02 -0.24872924743E+02  0.69969605219E+02  0.41800000000E+01 0.  1.
         -5    1    3    3    0  502  0.45758060693E+02 -0.86931485133E+02 -0.29002112007E+03  0.30623619269E+03  0.41800000000E+01 0.  1.
        -11    1    1    2    0    0 -0.49984657919E+02  0.15421521322E+03 -0.85703387423E+02  0.18337357670E+03  0.00000000000E+00 0.  1.
         11    1    1    2    0    0 -0.23909662567E+02 -0.83943253551E+01 -0.13245950491E+02  0.28593563378E+02  0.00000000000E+00 0. -1.
</event>
<event>
 7    1  0.2644565E-009  0.1203501E+03  0.7561462E-02  0.1242521E+00
          1   -1    0    0  501    0  0.00000000000E+00  0.00000000000E+00  0.10226613001E+04  0.10226613001E+04  0.00000000000E+00 0. -1.
         -1   -1    0    0    0  501 -0.00000000000E+00 -0.00000000000E+00 -0.36225750379E+02  0.36225750379E+02  0.00000000000E+00 0.  1.
         25    2    1    2    0    0  0.19865690373E+02  0.10412671344E+03  0.84119421677E+03  0.85702553920E+03  0.12509215167E+03 0.  0.
          5    1    3    3  502    0 -0.56117938455E+01  0.51673173164E+02  0.93568508021E+02  0.10711744558E+03  0.41800000000E+01 0.  1.
         -5    1    3    3    0  502  0.25477484218E+02  0.52453540274E+02  0.74762570875E+03  0.74990809362E+03  0.41800000000E+01 0.  1.
        -11    1    1    2    0    0 -0.48830890831E+02 -0.60924323136E+02  0.48194805394E+02  0.91754936194E+02  0.00000000000E+00 0. -1.
         11    1    1    2    0    0  0.28965200459E+02 -0.43202390302E+02  0.97046527538E+02  0.11010657507E+03  0.00000000000E+00 0.  1.
</event>
<event>
 7    1  0.2644565E-009  0.1087795E+03  0.7561462E-02  0.1262847E+00
         -2   -1    0    0    0  501 -0.00000000000E+00  0.00000000000E+00  0.68637044193E+02  0.68637044193E+02  0.00000000000E+00 0.  1.
          2   -1    0    0  501    0  0.00000000000E+00 -0.00000000000E+00 -0.23745920738E+03  0.23745920738E+03  0.00000000000E+00 0. -1.
         25    2    1    2    0    0  0.64453287457E+02  0.93170445988E+01 -0.10374987379E+03  0.17507957689E+03  0.12509112018E+03 0.  0.
          5    1    3    3  502    0  0.77272464896E+00 -0.47520171982E+02 -0.66527414025E+02  0.81866556453E+02  0.41800000000E+01 0. -1.
         -5    1    3    3    0  502  0.63680562808E+02  0.56837216581E+02 -0.37222459762E+02  0.93213020436E+02  0.41800000000E+01 0. -1.
        -11    1    1    2    0    0 -0.50005070964E+02 -0.30631147313E+02  0.25103686949E+01  0.58694771989E+02  0.00000000000E+00 0.  1.
         11    1    1    2    0    0 -0.14448216493E+02  0.21314102715E+02 -0.67582658091E+02  0.72321902692E+02  0.00000000000E+00 0. -1.
</event>
<event>
 7    1  0.2644565E-009  0.1754236E+03  0.7561462E-02  0.1172307E+00
         -2   -1    0    0    0  501 -0.00000000000E+00  0.00000000000E+00  0.13013494835E+03  0.13013494835E+03  0.00000000000E+00 0.  1.
          2   -1    0    0  501    0  0.00000000000E+00 -0.00000000000E+00 -0.29380228828E+03  0.29380228828E+03  0.00000000000E+00 0. -1.
         25    2    1    2    0    0 -0.55271323815E+02  0.14788017518E+03 -0.68353649656E+02  0.21272650228E+03  0.12512744665E+03 0.  0.
          5    1    3    3  502    0 -0.87275576303E+02  0.12087124050E+03 -0.23093497796E+02  0.15092271214E+03  0.41800000000E+01 0.  1.
         -5    1    3    3    0  502  0.32004252488E+02  0.27008934681E+02 -0.45260151861E+02  0.61803790146E+02  0.41800000000E+01 0.  1.
        -11    1    1    2    0    0  0.36747313808E+02 -0.12436770401E+03 -0.11666960375E+03  0.17444049791E+03  0.00000000000E+00 0.  1.
         11    1    1    2    0    0  0.18524010008E+02 -0.23512471163E+02  0.21355913478E+02  0.36770236434E+02  0.00000000000E+00 0. -1.
</event>
<event>
 7    1  0.2644565E-009  0.6298011E+02  0.7561462E-02  0.1385735E+00
         -1   -1    0    0    0  501 -0.00000000000E+00  0.00000000000E+00  0.12963806212E+03  0.12963806212E+03  0.00000000000E+00 0.  1.
          1   -1    0    0  501    0  0.00000000000E+00 -0.00000000000E+00 -0.11464028095E+03  0.11464028095E+03  0.00000000000E+00 0. -1.
         25    2    1    2    0    0 -0.36532380351E+02 -0.35508306462E+02  0.27160308530E+02  0.13778840097E+03  0.12510997738E+03 0.  0.
          5    1    3    3  502    0 -0.15552711955E+02 -0.29669530091E+02  0.76542306144E+02  0.83656230460E+02  0.41800000000E+01 0.  1.
         -5    1    3    3    0  502 -0.20979668396E+02 -0.58387763712E+01 -0.49381997614E+02  0.54132170508E+02  0.41800000000E+01 0.  1.
        -11    1    1    2    0    0  0.40543437824E+02  0.68846711747E+01  0.33097412050E+02  0.52788329508E+02  0.00000000000E+00 0.  1.
         11    1    1    2    0    0 -0.40110574734E+01  0.28623635287E+02 -0.45259939410E+02  0.53701612588E+02  0.00000000000E+00 0. -1.
</event>
<event>
 7    1  0.2644565E-009  0.1503151E+03  0.7561462E-02  0.1200086E+00
         -1   -1    0    0    0  501 -0.00000000000E+00  0.00000000000E+00  0.33000556549E+03  0.33000556549E+03  0.00000000000E+00 0.  1.
          1   -1    0    0  501    0  0.00000000000E+00 -0.00000000000E+00 -0.91467201087E+02  0.91467201087E+02  0.00000000000E+00 0. -1.
         25    2    1    2    0    0  0.10106297804E+03 -0.81632106713E+02  0.17186265105E+03  0.24912289454E+03  0.12509164393E+03 0.  0.
          5    1    3    3  502    0  0.19898207162E+02 -0.86540494731E+02  0.48368396182E+02  0.10120360678E+03  0.41800000000E+01 0.  1.
         -5    1    3    3    0  502  0.81164770880E+02  0.49083880178E+01  0.12349425487E+03  0.14791928776E+03  0.41800000000E+01 0.  1.
        -11    1    1    2    0    0 -0.12388610122E+02  0.14634269416E+02  0.57753802770E+02  0.60853440630E+02  0.00000000000E+00 0.  1.
         11    1    1    2    0    0 -0.88674367920E+02  0.66997837297E+02  0.89219105820E+01  0.11149643141E+03  0.00000000000E+00 0. -1.
</event>
<event>
 7    1  0.2644565E-009  0.7789586E+02  0.7561462E-02  0.1335131E+00
          3   -1    0    0  501    0  0.00000000000E+00  0.00000000000E+00  0.13657975597E+04  0.13657975597E+04  0.00000000000E+00 0.  1.
         -3   -1    0    0    0  501 -0.00000000000E+00 -0.00000000000E+00 -0.15485509646E+02  0.15485509646E+02  0.00000000000E+00 0. -1.
         25    2    1    2    0    0  0.62972763095E+02 -0.33843140034E+01  0.10873613167E+04  0.10963482712E+04  0.12509147164E+03 0.  0.
          5    1    3    3  502    0  0.51750022325E+02 -0.22665579469E+02  0.10566092509E+04  0.10581268236E+04  0.41800000000E+01 0. -1.
         -5    1    3    3    0  502  0.11222740770E+02  0.19281265465E+02  0.30752065804E+02  0.38221447638E+02  0.41800000000E+01 0. -1.
        -11    1    1    2    0    0 -0.32390925731E+02  0.23342387636E+02  0.23649306122E+03  0.23983954456E+03  0.00000000000E+00 0.  1.
         11    1    1    2    0    0 -0.30581837365E+02 -0.19958073632E+02  0.26457672145E+02  0.45095253575E+02  0.00000000000E+00 0. -1.
</event>
<event>
 7    1  0.2644565E-009  0.1214463E+03  0.7561462E-02  0.1240730E+00
          2   -1    0    0  501    0  0.00000000000E+00  0.00000000000E+00  0.72115211884E+03  0.72115211884E+03  0.00000000000E+00 0. -1.
         -2   -1    0    0    0  501 -0.00000000000E+00 -0.00000000000E+00 -0.35758394339E+02  0.35758394339E+02  0.00000000000E+00 0.  1.
         25    2    1    2    0    0 -0.83403756882E+02 -0.82909734597E+02  0.40301888507E+03  0.43806567589E+03  0.12508838441E+03 0.  0.
          5    1    3    3  502    0 -0.37439459721E+02 -0.59233025270E+02  0.63658209828E+02  0.94763413327E+02  0.41800000000E+01 0. -1.
         -5    1    3    3    0  502 -0.45964297161E+02 -0.23676709327E+02  0.33936067525E+03  0.34330226256E+03  0.41800000000E+01 0. -1.
        -11    1    1    2    0    0  0.76536040156E+02  0.61030024639E+02  0.27898880978E+03  0.29566397368E+03  0.00000000000E+00 0. -1.
         11    1    1    2    0    0  0.68677167260E+01  0.21879709958E+02  0.33860296487E+01  0.23180863609E+02  0.00000000000E+00 0.  1.
</event>
<event>
 7    1  0.2644565E-009  0.1169678E+03  0.7561462E-02  0.1248185E+00
         -1   -1    0    0    0  501 -0.00000000000E+00  0.00000000000E+00  0.40302585128E+02  0.40302585128E+02  0.00000000000E+00 0.  1.
          1   -1    0    0  501    0  0.00000000000E+00 -0.00000000000E+00 -0.35011119813E+03  0.35011119813E+03  0.00000000000E+00 0. -1.
         25    2    1    2    0    0  0.34140343355E+02 -0.32093028570E+02 -0.15230237104E+03  0.20257983915E+03  0.12508818281E+03 0.  0.
          5    1    3    3  502    0 -0.40312761904E+02 -0.39583202427E+02 -0.48670048280E+02  0.74687312753E+02  0.41800000000E+01 0.  1.
         -5    1    3    3    0  502  0.74453105259E+02  0.74901738577E+01 -0.10363232276E+03  0.12789252639E+03  0.41800000000E+01 0.  1.
        -11    1    1    2    0    0  0.28475195377E+02  0.27448495198E+02 -0.61326341463E+02  0.72973808984E+02  0.00000000000E+00 0. -1.
         11    1    1    2    0    0 -0.62615538732E+02  0.46445333717E+01 -0.96179900500E+02  0.11486013513E+03  0.00000000000E+00 0.  1.
</event>
<event>
 7    1  0.2644565E-009  0.1484914E+03  0.7561462E-02  0.1202339E+00
         -2   -1    0    0    0  501 -0.00000000000E+00  0.00000000000E+00  0.21417851518E+03  0.21417851518E+03  0.00000000000E+00 0. -1.
          2   -1    0    0  501    0  0.00000000000E+00 -0.00000000000E+00 -0.14952610327E+03  0.14952610327E+03  0.00000000000E+00 0.  1.
         25    2    1    2    0    0 -0.10921932753E+03 -0.33425375303E+02 -0.51277666752E+02  0.17698302934E+03  0.12508987307E+03 0.  0.
          5    1    3    3  502    0 -0.82275795075E+02  0.39403061556E+02 -0.22382494022E+02  0.94023168176E+02  0.41800000000E+01 0. -1.
         -5    1    3    3    0  502 -0.26943532460E+02 -0.72828436859E+02 -0.28895172730E+02  0.82959861160E+02  0.41800000000E+01 0. -1.
        -11    1    1    2    0    0  0.13606369548E+02 -0.15391433620E+02  0.64483412975E+02  0.67676732117E+02  0.00000000000E+00 0. -1.
         11    1    1    2    0    0  0.95612957987E+02  0.48816808923E+02  0.51446665689E+02  0.11904485700E+03  0.00000000000E+00 0.  1.
</event>
<event>
 7    1  0.2644565E-009  0.1474182E+03  0.7561462E-02  0.1203682E+00
          1   -1    0    0  501    0  0.00000000000E+00  0.00000000000E+00  0.65381284205E+03  0.65381284205E+03  0.00000000000E+00 0. -1.
         -1   -1    0    0    0  501 -0.00000000000E+00 -0.00000000000E+00 -0.59463767103E+02  0.59463767103E+02  0.00000000000E+00 0.  1.
         25    2    1    2    0    0  0.91291392252E+02  0.99045007938E+02  0.48202514276E+03  0.51588677004E+03  0.12508752677E+03 0.  0.
          5    1    3    3  502    0  0.86768562719E+02  0.71014556148E+02  0.17734821063E+03  0.20986117048E+03  0.41800000000E+01 0.  1.
         -5    1    3    3    0  502  0.45228295323E+01  0.28030451791E+02  0.30467693213E+03  0.30602559956E+03  0.41800000000E+01 0.  1.
        -11    1    1    2    0    0 -0.41281779231E+02 -0.95215209339E+02  0.10330186381E+03  0.14642881018E+03  0.00000000000E+00 0. -1.
         11    1    1    2    0    0 -0.50009613021E+02 -0.38297985994E+01  0.90220683834E+01  0.50961028931E+02  0.00000000000E+00 0.  1.
</event>
<event>
 7    1  0.2644565E-009  0.1311792E+03  0.7561462E-02  0.1225716E+00
         -1   -1    0    0    0  501 -0.00000000000E+00  0.00000000000E+00  0.64487074832E+03  0.64487074832E+03  0.00000000000E+00 0.  1.
          1   -1    0    0  501    0  0.00000000000E+00 -0.00000000000E+00 -0.89413652595E+02  0.89413652595E+02  0.00000000000E+00 0. -1.
         25    2    1    2    0    0 -0.81783045378E+02 -0.36076056739E+02  0.57941505301E+03  0.59946621174E+03  0.12509191413E+03 0.  0.
          5    1    3    3  502    0 -0.38122550373E+02 -0.71701377655E+02  0.20049976701E+03  0.21636091462E+03  0.41800000000E+01 0. -1.
         -5    1    3    3    0  502 -0.43660495005E+02  0.35625320916E+02  0.37891528601E+03  0.38310529712E+03  0.41800000000E+01 0. -1.
        -11    1    1    2    0    0  0.57133668532E+02 -0.22176210825E+02  0.11423688142E+02  0.62342129072E+02  0.00000000000E+00 0.  1.
         11    1    1    2    0    0  0.24649376845E+02  0.58252267564E+02 -0.35381645428E+02  0.72476060105E+02  0.00000000000E+00 0. -1.
</event>
<event>
 7    1  0.2644565E-009  0.1059947E+03  0.7561462E-02  0.1268172E+00
         -1   -1    0    0    0  501 -0.00000000000E+00  0.00000000000E+00  0.58825881869E+02  0.58825881869E+02  0.00000000000E+00 0.  1.
          1   -1    0    0  501    0  0.00000000000E+00 -0.00000000000E+00 -0.27817626113E+03  0.27817626113E+03  0.00000000000E+00 0. -1.
         25    2    1    2    0    0  0.12749662104E+02  0.71023136514E+02 -0.12169656462E+03  0.18884917621E+03  0.12508843956E+03 0.  0.
          5    1    3    3  502    0 -0.26873836038E+02  0.97416312390E+01 -0.11133643394E+03  0.11502337312E+03  0.41800000000E+01 0.  1.
         -5    1    3    3    0  502  0.39623498142E+02  0.61281505275E+02 -0.10360130684E+02  0.73825803088E+02  0.41800000000E+01 0.  1.
        -11    1    1    2    0    0 -0.13326124085E+02 -0.90019206169E+02 -0.88941436065E+02  0.12724630490E+03  0.00000000000E+00 0. -1.
         11    1    1    2    0    0  0.57646198094E+00  0.18996069655E+02 -0.87123785770E+01  0.20906661886E+02  0.00000000000E+00 0.  1.
</event>
<event>
 7    1  0.2644565E-009  0.1546346E+03  0.7561462E-02  0.1194891E+00
          1   -1    0    0  501    0  0.00000000000E+00  0.00000000000E+00  0.43339728918E+02  0.43339728918E+02  0.00000000000E+00 0. -1.
         -1   -1    0    0    0  501 -0.00000000000E+00 -0.00000000000E+00 -0.57254944570E+03  0.57254944570E+03  0.00000000000E+00 0.  1.
         25    2    1    2    0    0  0.67598288352E+02 -0.93146985108E+02 -0.27458033200E+03  0.32292625164E+03  0.12506444679E+03 0.  0.
          5    1    3    3  502    0  0.88160206240E+02 -0.15983239092E+02 -0.13554101092E+03  0.16253160904E+03  0.41800000000E+01 0.  1.
         -5    1    3    3    0  502 -0.20561917888E+02 -0.77163746016E+02 -0.13903932108E+03  0.16039464259E+03  0.41800000000E+01 0.  1.
        -11    1    1    2    0    0 -0.69831772120E+02  0.29311214319E+02 -0.17638921450E+03  0.19196035704E+03  0.00000000000E+00 0.  1.
         11    1    1    2    0    0  0.22334837675E+01  0.63835770789E+02 -0.78240170287E+02  0.10100256595E+03  0.00000000000E+00 0. -1.
</event>
<event>
 7    1  0.2644565E-009  0.9878642E+02  0.7561462E-02  0.1282869E+00
          1   -1    0    0  501    0  0.00000000000E+00  0.00000000000E+00  0.13899874665E+02  0.13899874665E+02  0.00000000000E+00 0. -1.
         -1   -1    0    0    0  501 -0.00000000000E+00 -0.00000000000E+00 -0.11782492109E+04  0.11782492109E+04  0.00000000000E+00 0.  1.
         25    2    1    2    0    0  0.19651019788E+02 -0.20374479750E+02 -0.92897328903E+03  0.93778089011E+03  0.12506136144E+03 0.  0.
          5    1    3    3  502    0 -0.30743900463E+02 -0.55530757940E+02 -0.37038641610E+03  0.37580902347E+03  0.41800000000E+01 0.  1.
         -5    1    3    3    0  502  0.50394920251E+02  0.35156278190E+02 -0.55858687293E+03  0.56197186664E+03  0.41800000000E+01 0.  1.
        -11    1    1    2    0    0 -0.43320193265E+02  0.22119587139E+02 -0.22170686953E+03  0.22697984773E+03  0.00000000000E+00 0.  1.
         11    1    1    2    0    0  0.23669173477E+02 -0.17451073885E+01 -0.13669177685E+02  0.27388347732E+02  0.00000000000E+00 0. -1.
</event>
<event>
 7    1  0.2644565E-009  0.1598870E+03  0.7561462E-02  0.1188824E+00
          1   -1    0    0  501    0  0.00000000000E+00  0.00000000000E+00  0.28695669914E+03  0.28695669914E+03  0.00000000000E+00 0. -1.
         -1   -1    0    0    0  501 -0.00000000000E+00 -0.00000000000E+00 -0.23827384345E+03  0.23827384345E+03  0.00000000000E+00 0.  1.
         25    2    1    2    0    0  0.13375506349E+03 -0.77064290277E+01 -0.17182152116E+03  0.25124054999E+03  0.12509745308E+03 0.  0.
          5    1    3    3  502    0  0.12242411457E+03  0.42780140453E+02 -0.10689249121E+03  0.16811091970E+03  0.41800000000E+01 0. -1.
         -5    1    3    3    0  502  0.11330948913E+02 -0.50486569481E+02 -0.64929029946E+02  0.83129630282E+02  0.41800000000E+01 0. -1.
        -11    1    1    2    0    0 -0.69254370181E+02 -0.12805785083E+02  0.39509283277E+02  0.80753571969E+02  0.00000000000E+00 0.  1.
         11    1    1    2    0    0 -0.64500693304E+02  0.20512214111E+02  0.18099509357E+03  0.19323642064E+03  0.00000000000E+00 0. -1.
</event>
<event>
 7    1  0.2644565E-009  0.1231407E+03  0.7561462E-02  0.1238004E+00
          2   -1    0    0  501    0  0.00000000000E+00  0.00000000000E+00  0.65590978611E+03  0.65590978611E+03  0.00000000000E+00 0. -1.
         -2   -1    0    0    0  501 -0.00000000000E+00 -0.00000000000E+00 -0.27978856861E+02  0.27978856861E+02  0.00000000000E+00 0.  1.
         25    2    1    2    0    0 -0.61703991307E+02 -0.50915405520E+02  0.31136277274E+03  0.34495608413E+03  0.12509261637E+03 0.  0.
          5    1    3    3  502    0  0.27768290203E+02 -0.13025022373E+02  0.17810748484E+02  0.35713083180E+02  0.41800000000E+01 0.  1.
         -5    1    3    3    0  502 -0.89472281510E+02 -0.37890383146E+02  0.29355202425E+03  0.30924300095E+03  0.41800000000E+01 0.  1.
        -11    1    1    2    0    0 -0.21955606493E+02  0.17131549962E+02  0.11093079822E+03  0.11437298918E+03  0.00000000000E+00 0. -1.
         11    1    1    2    0    0  0.83659597800E+02  0.33783855557E+02  0.20563735830E+03  0.22455956966E+03  0.00000000000E+00 0.  1.
</event>
<event>
 7    1  0.2644565E-009  0.1695116E+03  0.7561462E-02  0.1178358E+00
          1   -1    0    0  501    0  0.00000000000E+00  0.00000000000E+00  0.86619120334E+03  0.86619120334E+03  0.00000000000E+00 0. -1.
         -1   -1    0    0    0  501 -0.00000000000E+00 -0.00000000000E+00 -0.38719173816E+02  0.38719173816E+02  0.00000000000E+00 0.  1.
         25    2    1    2    0    0 -0.12713537028E+03  0.31044417451E+02  0.59700412308E+03  0.62384825319E+03  0.12508222015E+03 0.  0.
          5    1    3    3  502    0  0.24808543754E+02  0.63553306480E+01  0.11280724824E+03  0.11575319316E+03  0.41800000000E+01 0.  1.
         -5    1    3    3    0  502 -0.15194391404E+03  0.24689086803E+02  0.48419687484E+03  0.50809506003E+03  0.41800000000E+01 0.  1.
        -11    1    1    2    0    0  0.85635350367E+02 -0.63324194690E+02  0.17314411841E+03  0.20327875592E+03  0.00000000000E+00 0. -1.
         11    1    1    2    0    0  0.41500019915E+02  0.32279777239E+02  0.57323788029E+02  0.77783368052E+02  0.00000000000E+00 0.  1.
</event>
<event>
 7    1  0.2644565E-009  0.1404733E+03  0.7561462E-02  0.1212694E+00
         -2   -1    0    0    0  501 -0.00000000000E+00  0.00000000000E+00  0.31620935876E+03  0.31620935876E+03  0.00000000000E+00 0. -1.
          2   -1    0    0  501    0  0.00000000000E+00 -0.00000000000E+00 -0.86291764065E+02  0.86291764065E+02  0.00000000000E+00 0.  1.
         25    2    1    2    0    0 -0.92963894510E+02 -0.73742026476E+02  0.16942727334E+03  0.24173077946E+03  0.12509195271E+03 0.  0.
          5    1    3    3  502    0 -0.49657611780E+02  0.10843240287E+01 -0.17915973118E+01  0.49877213106E+02  0.41800000000E+01 0.  1.
         -5    1    3    3    0  502 -0.43306282730E+02 -0.74826350505E+02  0.17121887065E+03  0.19185356635E+03  0.41800000000E+01 0.  1.
        -11    1    1    2    0    0  0.94863626020E+02  0.28202975089E+02  0.58890974400E+02  0.11516363233E+03  0.00000000000E+00 0. -1.
         11    1    1    2    0    0 -0.18997315099E+01  0.45539051387E+02  0.15993469545E+01  0.45606711039E+02  0.00000000000E+00 0.  1.
</event>
<event>
 7    1  0.2644565E-009  0.1489785E+03  0.7561462E-02  0.1201734E+00
         -2   -1    0    0    0  501 -0.00000000000E+00  0.00000000000E+00  0.96774041330E+02  0.96774041330E+02  0.00000000000E+00 0. -1.
          2   -1    0    0  501    0  0.00000000000E+00 -0.00000000000E+00 -0.31577256834E+03  0.31577256834E+03  0.00000000000E+00 0.  1.
         25    2    1    2    0    0 -0.12083284388E+03  0.60032967707E+02 -0.14420090109E+03  0.23376626135E+03  0.12509289228E+03 0.  0.
          5    1    3    3  502    0 -0.69257459875E+02  0.24299775134E+02  0.31240856570E+01  0.73581975586E+02  0.41800000000E+01 0.  1.
         -5    1    3    3    0  502 -0.51575384003E+02  0.35733192573E+02 -0.14732498675E+03  0.16018428576E+03  0.41800000000E+01 0.  1.
        -11    1    1    2    0    0 -0.13405800645E+02 -0.14643427846E+02 -0.35335155592E+01  0.20165098617E+02  0.00000000000E+00 0.  1.
         11    1    1    2    0    0  0.13423864452E+03 -0.45389539861E+02 -0.71264110363E+02  0.15861524970E+03  0.00000000000E+00 0. -1.
</event>
<event>
 7    1  0.2644565E-009  0.2106875E+03  0.7561462E-02  0.1141023E+00
         -2   -1    0    0    0  501 -0.00000000000E+00  0.00000000000E+00  0.31268423020E+02  0.31268423020E+02  0.00000000000E+00 0. -1.
          2   -1    0    0  501    0  0.00000000000E+00 -0.00000000000E+00 -0.16578161083E+04  0.16578161083E+04  0.00000000000E+00 0.  1.
         25    2    1    2    0    0 -0.17361690834E+03  0.92589299410E+02 -0.10117058568E+04  0.10382253675E+04  0.12509022243E+03 0.  0.
          5    1    3    3  502    0 -0.18849314415E+03  0.89119605684E+02 -0.98763470703E+03  0.10094115892E+04  0.41800000000E+01 0. -1.
         -5    1    3    3    0  502  0.14876235803E+02  0.34696937260E+01 -0.24071149770E+02  0.28813778258E+02  0.41800000000E+01 0. -1.
        -11    1    1    2    0    0  0.61256655326E+02 -0.27513554758E+02 -0.34410080457E+03  0.35059198112E+03  0.00000000000E+00 0. -1.
         11    1    1    2    0    0  0.11236025302E+03 -0.65075744652E+02 -0.27074102393E+03  0.30026718276E+03  0.00000000000E+00 0.  1.
</event>
<event>
 7    1  0.2644565E-009  0.1556597E+03  0.7561462E-02  0.1193686E+00
          2   -1    0    0  501    0  0.00000000000E+00  0.00000000000E+00  0.35569181908E+02  0.35569181908E+02  0.00000000000E+00 0.  1.
         -2   -1    0    0    0  501 -0.00000000000E+00 -0.00000000000E+00 -0.84742652191E+03  0.84742652191E+03  0.00000000000E+00 0. -1.
         25    2    1    2    0    0  0.70236287115E+02 -0.10142625841E+03 -0.57067526796E+03  0.59711724879E+03  0.12513323068E+03 0.  0.
          5    1    3    3  502    0 -0.23106196669E+00 -0.85333100991E+02 -0.17347734661E+03  0.19337438740E+03  0.41800000000E+01 0. -1.
         -5    1    3    3    0  502  0.70467349081E+02 -0.16093157415E+02 -0.39719792135E+03  0.40374286139E+03  0.41800000000E+01 0. -1.
        -11    1    1    2    0    0  0.17069527738E+02  0.48428537521E+02 -0.81649431710E+02  0.96453728400E+02  0.00000000000E+00 0.  1.
         11    1    1    2    0    0 -0.87305814852E+02  0.52997720886E+02 -0.15953264033E+03  0.18942472663E+03  0.00000000000E+00 0. -1.
</event>
<event>
 7    1  0.2644565E-009  0.1510841E+03  0.7561462E-02  0.1199147E+00
          1   -1    0    0  501    0  0.00000000000E+00  0.00000000000E+00  0.74947810856E+03  0.74947810856E+03  0.00000000000E+00 0. -1.
         -1   -1    0    0    0  501 -0.00000000000E+00 -0.00000000000E+00 -0.38206803277E+02  0.38206803277E+02  0.00000000000E+00 0.  1.
         25    2    1    2    0    0 -0.23332029387E+02  0.11335632586E+03  0.50450509765E+03  0.53251017291E+03  0.12509056917E+03 0.  0.
          5    1    3    3  502    0 -0.60651360657E+02  0.22298174552E+02  0.27927680614E+03  0.28668589603E+03  0.41800000000E+01 0.  1.
         -5    1    3    3    0  502  0.37319331271E+02  0.91058151309E+02  0.22522829151E+03  0.24582427688E+03  0.41800000000E+01 0.  1.
        -11    1    1    2    0    0 -0.27113263620E+02 -0.23559853805E+02  0.18091154563E+02  0.40217976687E+02  0.00000000000E+00 0.  1.
         11    1    1    2    0    0  0.50445293007E+02 -0.89796472056E+02  0.18867505308E+03  0.21495676224E+03  0.00000000000E+00 0. -1.
</event>
<event>
 7    1  0.2644565E-009  0.1633240E+03  0.7561462E-02  0.1184994E+00
          2   -1    0    0  501    0  0.00000000000E+00  0.00000000000E+00  0.37127916261E+03  0.37127916261E+03  0.00000000000E+00 0. -1.
         -2   -1    0    0    0  501 -0.00000000000E+00 -0.00000000000E+00 -0.10131917876E+03  0.10131917876E+03  0.00000000000E+00 0.  1.
         25    2    1    2    0    0 -0.10517385196E+03 -0.10766270750E+03  0.20610849677E+03  0.28421680939E+03  0.12508271096E+03 0.  0.
          5    1    3    3  502    0  0.35693103507E+01 -0.47790829089E+02  0.12983560704E+03  0.13846104354E+03  0.41800000000E+01 0.  1.
         -5    1    3    3    0  502 -0.10874316231E+03 -0.59871878408E+02  0.76272889724E+02  0.14575576585E+03  0.41800000000E+01 0.  1.
        -11    1    1    2    0    0  0.89050108633E+01  0.27995248136E+02 -0.22061128597E+02  0.36738624520E+02  0.00000000000E+00 0.  1.
         11    1    1    2    0    0  0.96268841094E+02  0.79667459361E+02  0.85912615681E+02  0.15164290745E+03  0.00000000000E+00 0. -1.
</event>
<event>
 7    1  0.2644565E-009  0.9034371E+02  0.7561462E-02  0.1302021E+00
         -2   -1    0    0    0  501 -0.00000000000E+00  0.00000000000E+00  0.29859566896E+03  0.29859566896E+03  0.00000000000E+00 0.  1.
          2   -1    0    0  501    0  0.00000000000E+00 -0.00000000000E+00 -0.58257442679E+02  0.58257442679E+02  0.00000000000E+00 0. -1.
         25    2    1    2    0    0  0.11547597988E+02  0.99863528380E+01  0.23110452567E+03  0.26323323624E+03  0.12509740450E+03 0.  0.
          5    1    3    3  502    0 -0.50935938987E+02  0.11680023965E+02  0.53500171481E+02  0.74904162693E+02  0.41800000000E+01 0. -1.
         -5    1    3    3    0  502  0.62483536975E+02 -0.16936711273E+01  0.17760435419E+03  0.18832907354E+03  0.41800000000E+01 0. -1.
        -11    1    1    2    0    0 -0.33593567643E+02  0.10829622997E+02 -0.28391815407E+02  0.45297943699E+02  0.00000000000E+00 0. -1.
         11    1    1    2    0    0  0.22045969655E+02 -0.20815975835E+02  0.37625516021E+02  0.48321931707E+02  0.00000000000E+00 0.  1.
</event>
<event>
 7    1  0.2644565E-009  0.2176339E+03  0.7561462E-02  0.1135659E+00
         -1   -1    0    0    0  501 -0.00000000000E+00  0.00000000000E+00  0.96442520452E+03  0.96442520452E+03  0.00000000000E+00 0.  1.
          1   -1    0    0  501    0  0.00000000000E+00 -0.00000000000E+00 -0.66305849034E+02  0.66305849034E+02  0.00000000000E+00 0. -1.
         25    2    1    2    0    0  0.38213605340E+02 -0.20109080783E+03  0.66615725511E+03  0.70803261211E+03  0.12508756392E+03 0.  0.
          5    1    3    3  502    0  0.27740420715E+01 -0.17225299065E+03  0.61775559856E+03  0.64134097019E+03  0.41800000000E+01 0.  1.
         -5    1    3    3    0  502  0.35439563269E+02 -0.28837817186E+02  0.48401656547E+02  0.66691641915E+02  0.41800000000E+01 0.  1.
        -11    1    1    2    0    0 -0.55782174053E+02  0.10045988102E+03  0.16305945634E+03  0.19947988605E+03  0.00000000000E+00 0. -1.
         11    1    1    2    0    0  0.17568568713E+02  0.10063092682E+03  0.68902644040E+02  0.12321855540E+03  0.00000000000E+00 0.  1.
</event>
<event>
 7    1  0.2644565E-009  0.1025867E+03  0.7561462E-02  0.1274949E+00
          4   -1    0    0  501    0  0.00000000000E+00  0.00000000000E+00  0.74030584857E+03  0.74030584857E+03  0.00000000000E+00 0. -1.
         -4   -1    0    0    0  501 -0.00000000000E+00 -0.00000000000E+00 -0.19488390857E+02  0.19488390857E+02  0.00000000000E+00 0.  1.
         25    2    1    2    0    0 -0.51666761496E+02  0.38357044372E+01  0.41592551470E+03  0.43740783852E+03  0.12508963403E+03 0.  0.
          5    1    3    3  502    0 -0.37962566219E+02  0.56508453812E+02  0.31860825897E+03  0.32582672830E+03  0.41800000000E+01 0. -1.
         -5    1    3    3    0  502 -0.13704195277E+02 -0.52672749375E+02  0.97317255731E+02  0.11158111022E+03  0.41800000000E+01 0. -1.
        -11    1    1    2    0    0  0.20907353072E+02  0.30056633121E+02  0.42780436004E+02  0.56308829785E+02  0.00000000000E+00 0.  1.
         11    1    1    2    0    0  0.30759408424E+02 -0.33892337558E+02  0.26211150701E+03  0.26607757113E+03  0.00000000000E+00 0. -1.
</event>
<event>
 7    1  0.2644565E-009  0.1349568E+03  0.7561462E-02  0.1220281E+00
          3   -1    0    0  501    0  0.00000000000E+00  0.00000000000E+00  0.26952827093E+02  0.26952827093E+02  0.00000000000E+00 0. -1.
         -3   -1    0    0    0  501 -0.00000000000E+00 -0.00000000000E+00 -0.79997706781E+03  0.79997706781E+03  0.00000000000E+00 0.  1.
         25    2    1    2    0    0 -0.35026674936E+02 -0.85583034097E+02 -0.51867195532E+03  0.54149119065E+03  0.12506313859E+03 0.  0.
          5    1    3    3  502    0 -0.69009036558E+02 -0.17671010913E+02 -0.16559009908E+03  0.18031102314E+03  0.41800000000E+01 0. -1.
         -5    1    3    3    0  502  0.33982361621E+02 -0.67912023184E+02 -0.35308185624E+03  0.36118016751E+03  0.41800000000E+01 0. -1.
        -11    1    1    2    0    0  0.51695134056E+02  0.20993875485E+02 -0.16328351913E+03  0.17255328833E+03  0.00000000000E+00 0.  1.
         11    1    1    2    0    0 -0.16668459119E+02  0.64589158612E+02 -0.91068766267E+02  0.11288541593E+03  0.00000000000E+00 0. -1.
</event>
<event>
 7    1  0.2644565E-009  0.8263904E+02  0.7561462E-02  0.1321725E+00
         -1   -1    0    0    0  501 -0.00000000000E+00  0.00000000000E+00  0.21811304349E+02  0.21811304349E+02  0.00000000000E+00 0.  1.
          1   -1    0    0  501    0  0.00000000000E+00 -0.00000000000E+00 -0.56296333332E+03  0.56296333332E+03  0.00000000000E+00 0. -1.
         25    2    1    2    0    0  0.15568938452E+02  0.18067124749E+02 -0.29356721860E+03  0.31999890719E+03  0.12509506755E+03 0.  0.
          5    1    3    3  502    0  0.36648920074E+02  0.42560418919E+02 -0.53335070624E+02  0.77566969514E+02  0.41800000000E+01 0.  1.
         -5    1    3    3    0  502 -0.21079981622E+02 -0.24493294170E+02 -0.24023214798E+03  0.24243193768E+03  0.41800000000E+01 0.  1.
        -11    1    1    2    0    0 -0.36071896474E+02  0.13681562834E+02 -0.47696534660E+02  0.61345955820E+02  0.00000000000E+00 0. -1.
         11    1    1    2    0    0  0.20502958023E+02 -0.31748687584E+02 -0.19988827571E+03  0.20342977465E+03  0.00000000000E+00 0.  1.
</event>
<event>
 7    1  0.2644565E-009  0.9099009E+02  0.7561462E-02  0.1300472E+00
         -1   -1    0    0    0  501 -0.00000000000E+00  0.00000000000E+00  0.17801022551E+03  0.17801022551E+03  0.00000000000E+00 0.  1.
          1   -1    0    0  501    0  0.00000000000E+00 -0.00000000000E+00 -0.27689708626E+03  0.27689708626E+03  0.00000000000E+00 0. -1.
         25    2    1    2    0    0  0.32612470649E+02 -0.15142415588E+02 -0.24481057467E+03  0.27725823378E+03  0.12508814786E+03 0.  0.
          5    1    3    3  502    0  0.69948458772E+02 -0.16020221396E+02 -0.22188499486E+03  0.23323777079E+03  0.41800000000E+01 0. -1.
         -5    1    3    3    0  502 -0.37335988123E+02  0.87780580716E+00 -0.22925579816E+02  0.44020462992E+02  0.41800000000E+01 0. -1.
        -11    1    1    2    0    0  0.18717436860E+02  0.91708320019E+01  0.11615825648E+03  0.11801350410E+03  0.00000000000E+00 0.  1.
         11    1    1    2    0    0 -0.51329907509E+02  0.59715835866E+01  0.29765457447E+02  0.59635573884E+02  0.00000000000E+00 0. -1.
</event>
<event>
 7    1  0.2644565E-009  0.3723920E+03  0.7561462E-02  0.1053782E+00
         -2   -1    0    0    0  501 -0.00000000000E+00  0.00000000000E+00  0.93067809501E+02  0.93067809501E+02  0.00000000000E+00 0.  1.
          2   -1    0    0  501    0  0.00000000000E+00 -0.00000000000E+00 -0.16176678637E+04  0.16176678637E+04  0.00000000000E+00 0. -1.
         25    2    1    2    0    0 -0.62729845403E+00  0.36038748987E+03 -0.97405857566E+03  0.10460952772E+04  0.12508270814E+03 0.  0.
          5    1    3    3  502    0  0.61905189701E+02  0.19377336593E+03 -0.52108518811E+03  0.55939933457E+03  0.41800000000E+01 0.  1.
         -5    1    3    3    0  502 -0.62532488155E+02  0.16661412394E+03 -0.45297338755E+03  0.48669594266E+03  0.41800000000E+01 0.  1.
        -11    1    1    2    0    0 -0.13613712459E+02 -0.32320610603E+03 -0.43271259015E+03  0.54026632860E+03  0.00000000000E+00 0.  1.
         11    1    1    2    0    0  0.14241010913E+02 -0.37181383842E+02 -0.11782888841E+03  0.12437406740E+03  0.00000000000E+00 0. -1.
</event>
<event>
 7    1  0.2644565E-009  0.1386692E+03  0.7561462E-02  0.1215131E+00
          1   -1    0    0  501    0  0.00000000000E+00  0.00000000000E+00  0.67061763551E+03  0.67061763551E+03  0.00000000000E+00 0. -1.
         -1   -1    0    0    0  501 -0.00000000000E+00 -0.00000000000E+00 -0.55553800393E+02  0.55553800393E+02  0.00000000000E+00 0.  1.
         25    2    1    2    0    0  0.87383233917E+02 -0.61260316013E+02  0.54234815450E+03  0.56672537474E+03  0.12508986286E+03 0.  0.
          5    1    3    3  502    0 -0.59691594203E+01 -0.59897678968E+02  0.31827317096E+03  0.32394235067E+03  0.41800000000E+01 0.  1.
         -5    1    3    3    0  502  0.93352393337E+02 -0.13626370443E+01  0.22407498355E+03  0.24278302406E+03  0.41800000000E+01 0.  1.
        -11    1    1    2    0    0 -0.25244224478E+02 -0.11601587185E+02  0.55617993413E+02  0.62170964976E+02  0.00000000000E+00 0. -1.
         11    1    1    2    0    0 -0.62139009438E+02  0.72861903198E+02  0.17097687204E+02  0.97275096193E+02  0.00000000000E+00 0.  1.
</event>
<event>
 7    1  0.2644565E-009  0.1224405E+03  0.7561462E-02  0.1239125E+00
         -1   -1    0    0    0  501 -0.00000000000E+00  0.00000000000E+00  0.41810663944E+02  0.41810663944E+02  0.00000000000E+00 0.  1.
          1   -1    0    0  501    0  0.00000000000E+00 -0.00000000000E+00 -0.39253860732E+03  0.39253860732E+03  0.00000000000E+00 0. -1.
         25    2    1    2    0    0  0.10431723360E+02  0.57593649380E+02 -0.14008257571E+03  0.19671168553E+03  0.12508601004E+03 0.  0.
          5    1    3    3  502    0  0.52787689585E+02 -0.11699929207E+02 -0.38101544328E+02  0.66276908463E+02  0.41800000000E+01 0. -1.
         -5    1    3    3    0  502 -0.42355966225E+02  0.69293578587E+02 -0.10198103138E+03  0.13043477707E+03  0.41800000000E+01 0. -1.
        -11    1    1    2    0    0 -0.17001175279E+01  0.25611476211E+02 -0.61266781094E+02  0.66426324442E+02  0.00000000000E+00 0. -1.
         11    1    1    2    0    0 -0.87316058320E+01 -0.83205125591E+02 -0.14937858658E+03  0.17121126129E+03  0.00000000000E+00 0.  1.
</event>
<event>
 7    1  0.2644565E-009  0.3475900E+03  0.7561462E-02  0.1063609E+00
         -2   -1    0    0    0  501 -0.00000000000E+00  0.00000000000E+00  0.36342385328E+03  0.36342385328E+03  0.00000000000E+00 0.  1.
          2   -1    0    0  501    0  0.00000000000E+00 -0.00000000000E+00 -0.35946021162E+03  0.35946021162E+03  0.00000000000E+00 0. -1.
         25    2    1    2    0    0  0.32710055741E+03  0.87575592968E+02 -0.52559056239E+02  0.36479381694E+03  0.12509122809E+03 0.  0.
          5    1    3    3  502    0  0.17718195765E+03  0.16030756025E+02 -0.82167702556E+02  0.19600876255E+03  0.41800000000E+01 0. -1.
         -5    1    3    3    0  502  0.14991859976E+03  0.71544836943E+02  0.29608646317E+02  0.16878505439E+03  0.41800000000E+01 0. -1.
        -11    1    1    2    0    0 -0.73762093765E+02  0.19069887025E+02 -0.52372400145E+01  0.76367111708E+02  0.00000000000E+00 0.  1.
         11    1    1    2    0    0 -0.25333846364E+03 -0.10664547999E+03  0.61759937911E+02  0.28172313624E+03  0.00000000000E+00 0. -1.
</event>
<event>
 7    1  0.2644565E-009  0.1232108E+03  0.7561462E-02  0.1237892E+00
          1   -1    0    0  501    0  0.00000000000E+00  0.00000000000E+00  0.16189839292E+03  0.16189839292E+03  0.00000000000E+00 0. -1.
         -1   -1    0    0    0  501 -0.00000000000E+00 -0.00000000000E+00 -0.14594775057E+03  0.14594775057E+03  0.00000000000E+00 0.  1.
         25    2    1    2    0    0 -0.10885558038E+03 -0.12187363948E+02  0.16250212484E+01  0.16627825071E+03  0.12509095389E+03 0.  0.
          5    1    3    3  502    0 -0.14322422692E+02  0.27895360145E+02  0.44774061458E+02  0.54822184276E+02  0.41800000000E+01 0.  1.
         -5    1    3    3    0  502 -0.94533157692E+02 -0.40082724093E+02 -0.43149040210E+02  0.11145606643E+03  0.41800000000E+01 0.  1.
        -11    1    1    2    0    0  0.21837704833E+02  0.12178939410E+02  0.43174645534E+02  0.49892503791E+02  0.00000000000E+00 0. -1.
         11    1    1    2    0    0  0.87017875550E+02  0.84245382526E-02 -0.28849024437E+02  0.91675388994E+02  0.00000000000E+00 0.  1.
</event>
<event>
 7    1  0.2790657E-009  0.1262736E+03  0.7561462E-02  0.1233092E+00
          2   -1    0    0  501    0  0.00000000000E+00  0.00000000000E+00  0.69904456563E+03  0.69904456563E+03  0.00000000000E+00 0. -1.
         -2   -1    0    0    0  501 -0.00000000000E+00 -0.00000000000E+00 -0.54576794353E+02  0.54576794353E+02  0.00000000000E+00 0.  1.
         25    2    1    2    0    0  0.46221338455E+02  0.79850109450E+02  0.59463144364E+03  0.61461051822E+03  0.12508830175E+03 0.  0.
          5    1    3    3  502    0  0.36287584659E+02  0.11194346910E+03  0.39679811905E+03  0.41390137563E+03  0.41800000000E+01 0. -1.
         -5    1    3    3    0  502  0.99337537965E+01 -0.32093359646E+02  0.19783332459E+03  0.20070914258E+03  0.41800000000E+01 0. -1.
        -11    1    1    2    0    0 -0.49817614460E+02 -0.48985250099E+02 -0.10972084683E+02  0.70722952992E+02  0.00000000000E+00 0.  1.
         11    1    1    2    0    0  0.35962760046E+01 -0.30864859351E+02  0.60808412326E+02  0.68287888776E+02  0.00000000000E+00 0. -1.
</event>
<event>
 7    1  0.2644565E-009  0.1161901E+03  0.7561462E-02  0.1249518E+00
         -1   -1    0    0    0  501 -0.00000000000E+00  0.00000000000E+00  0.36048679550E+02  0.36048679550E+02  0.00000000000E+00 0.  1.
          1   -1    0    0  501    0  0.00000000000E+00 -0.00000000000E+00 -0.43591664717E+03  0.43591664717E+03  0.00000000000E+00 0. -1.
         25    2    1    2    0    0 -0.52059232873E+02  0.34944104182E+02 -0.22491626378E+03  0.26488820165E+03  0.12508868659E+03 0.  0.
          5    1    3    3  502    0 -0.78394780997E+02  0.47919372779E+02 -0.21461873050E+03  0.23349663778E+03  0.41800000000E+01 0. -1.
         -5    1    3    3    0  502  0.26335548124E+02 -0.12975268597E+02 -0.10297533287E+02  0.31391563866E+02  0.41800000000E+01 0. -1.
        -11    1    1    2    0    0  0.39344644680E+02  0.26868352993E+02 -0.72779164363E+02  0.86986873854E+02  0.00000000000E+00 0. -1.
         11    1    1    2    0    0  0.12714588193E+02 -0.61812457175E+02 -0.10217253947E+03  0.12009025122E+03  0.00000000000E+00 0.  1.
</event>
<event>
 7    1  0.2644565E-009  0.1324126E+03  0.7561462E-02  0.1223919E+00
         -1   -1    0    0    0  501 -0.00000000000E+00  0.00000000000E+00  0.56830285672E+02  0.56830285672E+02  0.00000000000E+00 0.  1.
          1   -1    0    0  501    0  0.00000000000E+00 -0.00000000000E+00 -0.38443732312E+03  0.38443732312E+03  0.00000000000E+00 0. -1.
         25    2    1    2    0    0 -0.97908334761E+02 -0.24376363865E+02 -0.23228954778E+03  0.28246446109E+03  0.12508992220E+03 0.  0.
          5    1    3    3  502    0 -0.12421198361E+03 -0.45849081439E+00 -0.19027216581E+03  0.22726591599E+03  0.41800000000E+01 0. -1.
         -5    1    3    3    0  502  0.26303648845E+02 -0.23917873051E+02 -0.42017381971E+02  0.55198545103E+02  0.41800000000E+01 0. -1.
        -11    1    1    2    0    0  0.35166982968E+02  0.22939550199E+02  0.30751955244E+01  0.42099839453E+02  0.00000000000E+00 0.  1.
         11    1    1    2    0    0  0.62741351793E+02  0.14368136656E+01 -0.98392685189E+02  0.11670330825E+03  0.00000000000E+00 0. -1.
</event>
<event>
 7    1  0.2644565E-009  0.1206399E+03  0.7561462E-02  0.1242045E+00
          2   -1    0    0  501    0  0.00000000000E+00  0.00000000000E+00  0.10157350249E+03  0.10157350249E+03  0.00000000000E+00 0. -1.
         -2   -1    0    0    0  501 -0.00000000000E+00 -0.00000000000E+00 -0.21111943985E+03  0.21111943985E+03  0.00000000000E+00 0.  1.
         25    2    1    2    0    0 -0.84903982095E+02  0.14803530850E+02 -0.11358518290E+02  0.15232692931E+03  0.12508655704E+03 0.  0.
          5    1    3    3  502    0 -0.95080490434E+02 -0.34734273147E+01 -0.50465174408E+02  0.10778019571E+03  0.41800000000E+01 0.  1.
         -5    1    3    3    0  502  0.10176508339E+02  0.18276958165E+02  0.39106656118E+02  0.44546733601E+02  0.41800000000E+01 0.  1.
        -11    1    1    2    0    0  0.29498860103E+02  0.38046153756E+02 -0.52369220360E+02  0.71135278197E+02  0.00000000000E+00 0.  1.
         11    1    1    2    0    0  0.55405121992E+02 -0.52849684607E+02 -0.45818198713E+02  0.89230734836E+02  0.00000000000E+00 0. -1.
</event>
<event>
 7    1  0.2644565E-009  0.9828489E+02  0.7561462E-02  0.1283944E+00
          2   -1    0    0  501    0  0.00000000000E+00  0.00000000000E+00  0.19306580025E+04  0.19306580025E+04  0.00000000000E+00 0. -1.
         -2   -1    0    0    0  501 -0.00000000000E+00 -0.00000000000E+00 -0.62489260491E+01  0.62489260491E+01  0.00000000000E+00 0.  1.
         25    2    1    2    0    0  0.87288341538E+01 -0.65554635820E+01  0.15824189038E+04  0.15873927906E+04  0.12508844032E+03 0.  0.
          5    1    3    3  502    0  0.66784989503E+02 -0.36760893199E+01  0.79429259585E+03  0.79711476506E+03  0.41800000000E+01 0.  1.
         -5    1    3    3    0  502 -0.58056155349E+02 -0.28793742621E+01  0.78812630794E+03  0.79027802553E+03  0.41800000000E+01 0.  1.
        -11    1    1    2    0    0  0.20714237896E-01 -0.31868265402E+02  0.18001868117E+03  0.18281770247E+03  0.00000000000E+00 0. -1.
         11    1    1    2    0    0 -0.87495483917E+01  0.38423728984E+02  0.16197149149E+03  0.16669643548E+03  0.00000000000E+00 0.  1.
</event>
<event>
 7    1  0.2644565E-009  0.1138911E+03  0.7561462E-02  0.1253529E+00
          1   -1    0    0  501    0  0.00000000000E+00  0.00000000000E+00  0.53925116826E+02  0.53925116826E+02  0.00000000000E+00 0. -1.
         -1   -1    0    0    0  501 -0.00000000000E+00 -0.00000000000E+00 -0.25949762227E+03  0.25949762227E+03  0.00000000000E+00 0.  1.
         25    2    1    2    0    0 -0.18040712087E+02  0.35159798060E+02 -0.82251743023E+02  0.15483616974E+03  0.12508881460E+03 0.  0.
          5    1    3    3  502    0 -0.70996308552E+02  0.12521757562E+02 -0.35122453495E+02  0.80301490522E+02  0.41800000000E+01 0.  1.
         -5    1    3    3    0  502  0.52955596466E+02  0.22638040499E+02 -0.47129289528E+02  0.74534679217E+02  0.41800000000E+01 0.  1.
        -11    1    1    2    0    0 -0.36101071457E+02 -0.69068229073E+01 -0.32037401140E+02  0.48758451932E+02  0.00000000000E+00 0. -1.
         11    1    1    2    0    0  0.54141783544E+02 -0.28252975153E+02 -0.91283361280E+02  0.10982811742E+03  0.00000000000E+00 0.  1.
</event>
<event>
 7    1  0.2644565E-009  0.1230545E+03  0.7561462E-02  0.1238141E+00
         -1   -1    0    0    0  501 -0.00000000000E+00  0.00000000000E+00  0.61965205442E+02  0.61965205442E+02  0.00000000000E+00 0.  1.
          1   -1    0    0  501    0  0.00000000000E+00 -0.00000000000E+00 -0.27461015685E+03  0.27461015685E+03  0.00000000000E+00 0. -1.
         25    2    1    2    0    0 -0.75716678760E+01 -0.72928728025E+02 -0.12144008491E+03  0.18913474211E+03  0.12509327290E+03 0.  0.
          5    1    3    3  502    0 -0.33707218637E+02  0.16743845217E+02 -0.26465597870E+01  0.37960632498E+02  0.41800000000E+01 0. -1.
         -5    1    3    3    0  502  0.26135550761E+02 -0.89672573242E+02 -0.11879352513E+03  0.15117410961E+03  0.41800000000E+01 0. -1.
        -11    1    1    2    0    0  0.33269823382E+02 -0.41185514855E+01 -0.17758076556E+02  0.37936695918E+02  0.00000000000E+00 0. -1.
         11    1    1    2    0    0 -0.25698155506E+02  0.77047279511E+02 -0.73446789937E+02  0.10950392426E+03  0.00000000000E+00 0.  1.
</event>
<event>
 7    1  0.2644565E-009  0.1074853E+03  0.7561462E-02  0.1265299E+00
          2   -1    0    0  501    0  0.00000000000E+00  0.00000000000E+00  0.21812618825E+03  0.21812618825E+03  0.00000000000E+00 0. -1.
         -2   -1    0    0    0  501 -0.00000000000E+00 -0.00000000000E+00 -0.66790816999E+02  0.66790816999E+02  0.00000000000E+00 0.  1.
         25    2    1    2    0    0  0.66617664905E+01  0.19959645575E+02  0.26145988784E+02  0.12951359991E+03  0.12508954093E+03 0.  0.
          5    1    3    3  502    0 -0.57190208477E+02  0.34467540341E+01 -0.24693227634E+01  0.57499304464E+02  0.41800000000E+01 0.  1.
         -5    1    3    3    0  502  0.63851974967E+02  0.16512891541E+02  0.28615311547E+02  0.72014295450E+02  0.41800000000E+01 0.  1.
        -11    1    1    2    0    0 -0.39724082628E+02  0.15787863622E+02  0.49483616591E+02  0.65390272131E+02  0.00000000000E+00 0. -1.
         11    1    1    2    0    0  0.33062316138E+02 -0.35747509197E+02  0.75705765879E+02  0.90013133206E+02  0.00000000000E+00 0.  1.
</event>
<event>
 7    1  0.2680066E-009  0.1524543E+03  0.7561462E-02  0.1197489E+00
          2   -1    0    0  501    0  0.00000000000E+00  0.00000000000E+00  0.13428358692E+04  0.13428358692E+04  0.00000000000E+00 0.  1.
         -2   -1    0    0    0  501 -0.00000000000E+00 -0.00000000000E+00 -0.24199566889E+02  0.24199566889E+02  0.00000000000E+00 0. -1.
         25    2    1    2    0    0 -0.54488009164E+02  0.11449940453E+03  0.95027944142E+03  0.96682859670E+03  0.12508981507E+03 0.  0.
          5    1    3    3  502    0  0.27999093807E+02  0.86307763890E+02  0.49103638177E+03  0.49936677901E+03  0.41800000000E+01 0.  1.
         -5    1    3    3    0  502 -0.82487102971E+02  0.28191640639E+02  0.45924305965E+03  0.46746181769E+03  0.41800000000E+01 0.  1.
        -11    1    1    2    0    0  0.41301132227E+02 -0.87431479850E+02  0.35377642672E+03  0.36675306037E+03  0.00000000000E+00 0.  1.
         11    1    1    2    0    0  0.13186876937E+02 -0.27067924679E+02  0.14580434177E+02  0.33453779018E+02  0.00000000000E+00 0. -1.
</event>
<event>
 7    1  0.2644565E-009  0.1024653E+03  0.7561462E-02  0.1275196E+00
          1   -1    0    0  501    0  0.00000000000E+00  0.00000000000E+00  0.15276006289E+03  0.15276006289E+03  0.00000000000E+00 0. -1.
         -1   -1    0    0    0  501 -0.00000000000E+00 -0.00000000000E+00 -0.12889005208E+03  0.12889005208E+03  0.00000000000E+00 0.  1.
         25    2    1    2    0    0  0.49639037493E+01  0.22358450079E+01 -0.75592544889E+02  0.14625796503E+03  0.12509004816E+03 0.  0.
          5    1    3    3  502    0 -0.10682254163E+02  0.62098932230E+02 -0.36201758206E+02  0.72790299047E+02  0.41800000000E+01 0.  1.
         -5    1    3    3    0  502  0.15646157913E+02 -0.59863087222E+02 -0.39390786683E+02  0.73467665981E+02  0.41800000000E+01 0.  1.
        -11    1    1    2    0    0 -0.40269536270E+01 -0.40896393005E+02  0.17307122667E+02  0.44589996763E+02  0.00000000000E+00 0.  1.
         11    1    1    2    0    0 -0.93695012224E+00  0.38660547997E+02  0.82155433028E+02  0.90802153185E+02  0.00000000000E+00 0. -1.
</event>
<event>
 7    1  0.2644565E-009  0.7830914E+02  0.7561462E-02  0.1333920E+00
         -2   -1    0    0    0  501 -0.00000000000E+00  0.00000000000E+00  0.56497533507E+03  0.56497533507E+03  0.00000000000E+00 0.  1.
          2   -1    0    0  501    0  0.00000000000E+00 -0.00000000000E+00 -0.27768145232E+02  0.27768145232E+02  0.00000000000E+00 0. -1.
         25    2    1    2    0    0  0.12930514188E+02 -0.62173709647E+02  0.27951674596E+03  0.31274686247E+03  0.12509284689E+03 0.  0.
          5    1    3    3  502    0  0.62756972234E+01 -0.12669909951E+02  0.25763248848E+03  0.25805403023E+03  0.41800000000E+01 0. -1.
         -5    1    3    3    0  502  0.66548169647E+01 -0.49503799696E+02  0.21884257472E+02  0.54692832238E+02  0.41800000000E+01 0. -1.
        -11    1    1    2    0    0 -0.37197764448E+02  0.17940934123E+02  0.19599450434E+03  0.20029826891E+03  0.00000000000E+00 0.  1.
         11    1    1    2    0    0  0.24267250259E+02  0.44232775524E+02  0.61695939541E+02  0.79698348926E+02  0.00000000000E+00 0. -1.
</event>
<event>
 7    1  0.2644565E-009  0.8600858E+02  0.7561462E-02  0.1312816E+00
         -2   -1    0    0    0  501 -0.00000000000E+00  0.00000000000E+00  0.53106297089E+02  0.53106297089E+02  0.00000000000E+00 0.  1.
          2   -1    0    0  501    0  0.00000000000E+00 -0.00000000000E+00 -0.31170196495E+03  0.31170196495E+03  0.00000000000E+00 0. -1.
         25    2    1    2    0    0  0.29152870002E+02  0.40263758467E+02 -0.21071962479E+03  0.25003354853E+03  0.12507179955E+03 0.  0.
          5    1    3    3  502    0  0.11412163832E+02  0.51065447706E+02 -0.17025092565E+02  0.55183725949E+02  0.41800000000E+01 0. -1.
         -5    1    3    3    0  502  0.17740706170E+02 -0.10801689239E+02 -0.19369453223E+03  0.19484982259E+03  0.41800000000E+01 0. -1.
        -11    1    1    2    0    0 -0.53565255170E+02 -0.48815121717E+02 -0.51145923019E+02  0.88702075011E+02  0.00000000000E+00 0. -1.
         11    1    1    2    0    0  0.24412385168E+02  0.85513632508E+01  0.32698799535E+01  0.26072638493E+02  0.00000000000E+00 0.  1.
</event>
<event>
 7    1  0.2644565E-009  0.1018588E+03  0.7561462E-02  0.1276435E+00
         -1   -1    0    0    0  501 -0.00000000000E+00  0.00000000000E+00  0.60210112940E+02  0.60210112940E+02  0.00000000000E+00 0.  1.
          1   -1    0    0  501    0  0.00000000000E+00 -0.00000000000E+00 -0.22888941199E+03  0.22888941199E+03  0.00000000000E+00 0. -1.
         25    2    1    2    0    0  0.39788441284E+02  0.37521961741E+01 -0.67660626211E+02  0.14772427993E+03  0.12508918221E+03 0.  0.
          5    1    3    3  502    0  0.47655790613E+02 -0.48038868143E+02 -0.80745208713E+01  0.68275013869E+02  0.41800000000E+01 0. -1.
         -5    1    3    3    0  502 -0.78673493293E+01  0.51791064318E+02 -0.59586105340E+02  0.79449266064E+02  0.41800000000E+01 0. -1.
        -11    1    1    2    0    0 -0.21020396910E+02  0.34706737329E+02 -0.11532668255E+02  0.42183138092E+02  0.00000000000E+00 0.  1.
         11    1    1    2    0    0 -0.18768044374E+02 -0.38458933503E+02 -0.89486004588E+02  0.99192106908E+02  0.00000000000E+00 0. -1.
</event>
<event>
 7    1  0.2644565E-009  0.1161565E+03  0.7561462E-02  0.1249576E+00
          1   -1    0    0  501    0  0.00000000000E+00  0.00000000000E+00  0.26831672720E+03  0.26831672720E+03  0.00000000000E+00 0. -1.
         -1   -1    0    0    0  501 -0.00000000000E+00 -0.00000000000E+00 -0.79078822835E+02  0.79078822835E+02  0.00000000000E+00 0.  1.
         25    2    1    2    0    0 -0.86709118427E+02  0.36117702481E+02  0.70139582460E+02  0.17143603889E+03  0.12509114578E+03 0.  0.
          5    1    3    3  502    0 -0.60288792710E+02 -0.90949284638E+01  0.95281611700E+02  0.11319679403E+03  0.41800000000E+01 0.  1.
         -5    1    3    3    0  502 -0.26420325717E+02  0.45212630945E+02 -0.25142029241E+02  0.58239244864E+02  0.41800000000E+01 0.  1.
        -11    1    1    2    0    0 -0.13004683742E+02 -0.70970951486E+01  0.47661158325E+02  0.49910685947E+02  0.00000000000E+00 0.  1.
         11    1    1    2    0    0  0.99713802169E+02 -0.29020607333E+02  0.71437163584E+02  0.12604882520E+03  0.00000000000E+00 0. -1.
</event>
<event>
 7    1  0.2644565E-009  0.3355190E+03  0.7561462E-02  0.1068721E+00
          2   -1    0    0  501    0  0.00000000000E+00  0.00000000000E+00  0.21857644243E+04  0.21857644243E+04  0.00000000000E+00 0. -1.
         -2   -1    0    0    0  501 -0.00000000000E+00 -0.00000000000E+00 -0.14451654758E+03  0.14451654758E+03  0.00000000000E+00 0.  1.
         25    2    1    2    0    0  0.32393234123E+03  0.19917379678E+02  0.19522739522E+04  0.19830152118E+04  0.12508749745E+03 0.  0.
          5    1    3    3  502    0  0.25050785729E+03 -0.36952679964E+02  0.13397206076E+04  0.13634472728E+04  0.41800000000E+01 0.  1.
         -5    1    3    3    0  502  0.73424483944E+02  0.56870059642E+02  0.61255334462E+03  0.61956793891E+03  0.41800000000E+01 0.  1.
        -11    1    1    2    0    0 -0.14781452758E+03 -0.15744908708E+02  0.84612035330E+02  0.17104453583E+03  0.00000000000E+00 0.  1.
         11    1    1    2    0    0 -0.17611781365E+03 -0.41724709693E+01  0.43618891830E+01  0.17622122425E+03  0.00000000000E+00 0. -1.
</event>
<event>
 7    1  0.2644565E-009  0.1511176E+03  0.7561462E-02  0.1199106E+00
         -1   -1    0    0    0  501 -0.00000000000E+00  0.00000000000E+00  0.19577887440E+03  0.19577887440E+03  0.00000000000E+00 0.  1.
          1   -1    0    0  501    0  0.00000000000E+00 -0.00000000000E+00 -0.12768712825E+03  0.12768712825E+03  0.00000000000E+00 0. -1.
         25    2    1    2    0    0 -0.25602145918E+01 -0.10834764616E+03  0.79141437567E+02  0.18345697664E+03  0.12508928015E+03 0.  0.
          5    1    3    3  502    0  0.44043986782E+02 -0.10707971897E+03  0.40417615824E+02  0.12270694787E+03  0.41800000000E+01 0. -1.
         -5    1    3    3    0  502 -0.46604201374E+02 -0.12679271926E+01  0.38723821743E+02  0.60750028769E+02  0.41800000000E+01 0. -1.
        -11    1    1    2    0    0  0.42336437253E+02  0.80684391207E+02 -0.77836238553E+01  0.91449055238E+02  0.00000000000E+00 0.  1.
         11    1    1    2    0    0 -0.39776222661E+02  0.27663254956E+02 -0.32660675604E+01  0.48559970771E+02  0.00000000000E+00 0. -1.
</event>
<event>
 7    1  0.2644565E-009  0.8699437E+02  0.7561462E-02  0.1310298E+00
          2   -1    0    0  501    0  0.00000000000E+00  0.00000000000E+00  0.10155554972E+03  0.10155554972E+03  0.00000000000E+00 0. -1.
         -2   -1    0    0    0  501 -0.00000000000E+00 -0.00000000000E+00 -0.15791394746E+03  0.15791394746E+03  0.00000000000E+00 0.  1.
         25    2    1    2    0    0  0.42827316037E+02  0.44428363324E+02 -0.50489762224E+02  0.14834097855E+03  0.12509105228E+03 0.  0.
          5    1    3    3  502    0  0.21740459235E+02  0.31175280735E+02  0.39440289770E+02  0.54932272425E+02  0.41800000000E+01 0. -1.
         -5    1    3    3    0  502  0.21086856803E+02  0.13253082590E+02 -0.89930051994E+02  0.93408706123E+02  0.41800000000E+01 0. -1.
        -11    1    1    2    0    0 -0.69752925413E+02 -0.16446454862E+02 -0.87053746301E+01  0.72192382068E+02  0.00000000000E+00 0. -1.
         11    1    1    2    0    0  0.26925609376E+02 -0.27981908463E+02  0.28367391106E+01  0.38936136560E+02  0.00000000000E+00 0.  1.
</event>
<event>
 7    1  0.2644565E-009  0.1207228E+03  0.7561462E-02  0.1241909E+00
          2   -1    0    0  501    0  0.00000000000E+00  0.00000000000E+00  0.62162104415E+03  0.62162104415E+03  0.00000000000E+00 0. -1.
         -2   -1    0    0    0  501 -0.00000000000E+00 -0.00000000000E+00 -0.30484832628E+02  0.30484832628E+02  0.00000000000E+00 0.  1.
         25    2    1    2    0    0  0.45278999227E+02  0.72807966267E+02  0.30955194659E+03  0.34469772944E+03  0.12507169672E+03 0.  0.
          5    1    3    3  502    0 -0.32129542255E+02  0.53414410572E+01  0.22506413721E+02  0.39810168759E+02  0.41800000000E+01 0.  1.
         -5    1    3    3    0  502  0.77408541482E+02  0.67466525210E+02  0.28704553287E+03  0.30488756068E+03  0.41800000000E+01 0.  1.
        -11    1    1    2    0    0 -0.48098616227E+02 -0.18617570567E+02  0.21704164351E+03  0.22308555721E+03  0.00000000000E+00 0. -1.
         11    1    1    2    0    0  0.28196169998E+01 -0.54190395700E+02  0.64542621418E+02  0.84322590126E+02  0.00000000000E+00 0.  1.
</event>
<event>
 6    1  0.2644565E-009  0.8812016E+02  0.7561462E-02  0.1307469E+00
          2   -1    0    0  501    0  0.00000000000E+00  0.00000000000E+00  0.12620304054E+03  0.12620304054E+03  0.00000000000E+00 0. -1.
         -2   -1    0    0    0  501 -0.00000000000E+00 -0.00000000000E+00 -0.10422835621E+03  0.10422835621E+03  0.00000000000E+00 0.  1.
          5    1    1    2  502    0  0.16360561127E+02 -0.51516403985E+02 -0.18662552815E+02  0.57335600786E+02  0.41800000000E+01 0. -1.
         -5    1    1    2    0  502  0.10952871477E+02  0.52191955071E+02  0.51624396632E+02  0.74340542743E+02  0.41800000000E+01 0. -1.
        -11    1    1    2    0    0  0.15333233505E+02  0.16531274564E+02  0.29743625270E+02  0.37323911004E+02  0.00000000000E+00 0. -1.
         11    1    1    2    0    0 -0.42646666109E+02 -0.17206825650E+02 -0.40730784760E+02  0.61431342215E+02  0.00000000000E+00 0.  1.
</event>
<event>
 7    1  0.2644565E-009  0.1264764E+03  0.7561462E-02  0.1232780E+00
         -2   -1    0    0    0  501 -0.00000000000E+00  0.00000000000E+00  0.17660311723E+02  0.17660311723E+02  0.00000000000E+00 0.  1.
          2   -1    0    0  501    0  0.00000000000E+00 -0.00000000000E+00 -0.12081294576E+04  0.12081294576E+04  0.00000000000E+00 0. -1.
         25    2    1    2    0    0  0.91457315887E+02 -0.20917539344E+02 -0.73694455789E+03  0.75334958615E+03  0.12508530476E+03 0.  0.
          5    1    3    3  502    0  0.15939079313E+02 -0.54090475536E+02 -0.14438698334E+03  0.15506420332E+03  0.41800000000E+01 0.  1.
         -5    1    3    3    0  502  0.75518236574E+02  0.33172936192E+02 -0.59255757456E+03  0.59828538284E+03  0.41800000000E+01 0.  1.
        -11    1    1    2    0    0 -0.92495217779E+02 -0.38042519827E+00 -0.43326075034E+03  0.44302413909E+03  0.00000000000E+00 0. -1.
         11    1    1    2    0    0  0.10379018928E+01  0.21297964543E+02 -0.20263837697E+02  0.29416044129E+02  0.00000000000E+00 0.  1.
</event>
<event>
 7    1  0.2644565E-009  0.2045115E+03  0.7561462E-02  0.1145987E+00
         -1   -1    0    0    0  501 -0.00000000000E+00  0.00000000000E+00  0.25713226146E+02  0.25713226146E+02  0.00000000000E+00 0.  1.
          1   -1    0    0  501    0  0.00000000000E+00 -0.00000000000E+00 -0.28174007467E+04  0.28174007467E+04  0.00000000000E+00 0. -1.
         25    2    1    2    0    0  0.17403216283E+03 -0.36244422250E+01 -0.23551786752E+04  0.23649132089E+04  0.12509022020E+03 0.  0.
          5    1    3    3  502    0  0.15461767468E+03  0.45200979086E+02 -0.18416157330E+04  0.18486524104E+04  0.41800000000E+01 0.  1.
         -5    1    3    3    0  502  0.19414488151E+02 -0.48825421311E+02 -0.51356294216E+03  0.51626079851E+03  0.41800000000E+01 0.  1.
        -11    1    1    2    0    0 -0.96056181127E+02 -0.41988893854E+02 -0.24261161480E+03  0.26429198394E+03  0.00000000000E+00 0.  1.
         11    1    1    2    0    0 -0.77975981708E+02  0.45613336079E+02 -0.19389723057E+03  0.21390878003E+03  0.00000000000E+00 0. -1.
</event>
<event>
 7    1  0.2644565E-009  0.1567887E+03  0.7561462E-02  0.1192371E+00
          3   -1    0    0  501    0  0.00000000000E+00  0.00000000000E+00  0.62462886397E+03  0.62462886397E+03  0.00000000000E+00 0. -1.
         -3   -1    0    0    0  501 -0.00000000000E+00 -0.00000000000E+00 -0.75218761666E+02  0.75218761666E+02  0.00000000000E+00 0.  1.
         25    2    1    2    0    0 -0.10681916944E+03 -0.15832730394E+02  0.49621287579E+03  0.52300371540E+03  0.12507860693E+03 0.  0.
          5    1    3    3  502    0  0.16829383317E+01  0.38717846100E+02  0.73817689994E+02  0.83477108503E+02  0.41800000000E+01 0.  1.
         -5    1    3    3    0  502 -0.10850210777E+03 -0.54550576493E+02  0.42239518580E+03  0.43952660690E+03  0.41800000000E+01 0.  1.
        -11    1    1    2    0    0  0.25862967895E+02  0.56756291706E+02 -0.14037972272E+02  0.63931482246E+02  0.00000000000E+00 0. -1.
         11    1    1    2    0    0  0.80956201545E+02 -0.40923561313E+02  0.67235198791E+02  0.11291242799E+03  0.00000000000E+00 0.  1.
</event>
<event>
 7    1  0.2644565E-009  0.1227990E+03  0.7561462E-02  0.1238550E+00
          2   -1    0    0  501    0  0.00000000000E+00  0.00000000000E+00  0.21127120769E+03  0.21127120769E+03  0.00000000000E+00 0. -1.
         -2   -1    0    0    0  501 -0.00000000000E+00 -0.00000000000E+00 -0.96024471448E+02  0.96024471448E+02  0.00000000000E+00 0.  1.
         25    2    1    2    0    0  0.53159006640E+02  0.61289653170E+02  0.11076202402E+03  0.18573355065E+03  0.12508566785E+03 0.  0.
          5    1    3    3  502    0  0.83578884306E+02  0.22010853800E+02  0.31479525165E+02  0.92077904469E+02  0.41800000000E+01 0. -1.
         -5    1    3    3    0  502 -0.30419877666E+02  0.39278799370E+02  0.79282498857E+02  0.93655646185E+02  0.41800000000E+01 0. -1.
        -11    1    1    2    0    0 -0.10225634922E+02  0.17048590537E+02 -0.20748215776E+02  0.28735109305E+02  0.00000000000E+00 0.  1.
         11    1    1    2    0    0 -0.42933371717E+02 -0.78338243707E+02  0.25232927993E+02  0.92827019176E+02  0.00000000000E+00 0. -1.
</event>
<event>
 7    1  0.2644565E-009  0.1328162E+03  0.7561462E-02  0.1223336E+00
         -2   -1    0    0    0  501 -0.00000000000E+00  0.00000000000E+00  0.54641941839E+02  0.54641941839E+02  0.00000000000E+00 0.  1.
          2   -1    0    0  501    0  0.00000000000E+00 -0.00000000000E+00 -0.35570776318E+03  0.35570776318E+03  0.00000000000E+00 0. -1.
         25    2    1    2    0    0  0.73864543421E+02  0.35844682385E+02 -0.21207892279E+03  0.25955035341E+03  0.12509238360E+03 0.  0.
          5    1    3    3  502    0  0.20301973395E+02 -0.45361359876E+02 -0.51023071702E+02  0.71348786531E+02  0.41800000000E+01 0. -1.
         -5    1    3    3    0  502  0.53562570026E+02  0.81206042260E+02 -0.16105585109E+03  0.18820156688E+03  0.41800000000E+01 0. -1.
        -11    1    1    2    0    0 -0.34774620759E+02  0.27241880674E+02 -0.16782560895E+02  0.47255144289E+02  0.00000000000E+00 0.  1.
         11    1    1    2    0    0 -0.39089922662E+02 -0.63086563059E+02 -0.72204337657E+02  0.10354420732E+03  0.00000000000E+00 0. -1.
</event>
<event>
 7    1  0.2644565E-009  0.9480432E+02  0.7561462E-02  0.1291617E+00
          3   -1    0    0  501    0  0.00000000000E+00  0.00000000000E+00  0.58918967827E+02  0.58918967827E+02  0.00000000000E+00 0. -1.
         -3   -1    0    0    0  501 -0.00000000000E+00 -0.00000000000E+00 -0.22142217465E+03  0.22142217465E+03  0.00000000000E+00 0.  1.
         25    2    1    2    0    0 -0.10654790916E+02  0.90630193793E+01 -0.13379600833E+03  0.18368726192E+03  0.12507587880E+03 0.  0.
          5    1    3    3  502    0 -0.27329105990E+02  0.60410361627E+02 -0.99331692345E+02  0.11950125242E+03  0.41800000000E+01 0. -1.
         -5    1    3    3    0  502  0.16674315074E+02 -0.51347342247E+02 -0.34464315990E+02  0.64186009501E+02  0.41800000000E+01 0. -1.
        -11    1    1    2    0    0  0.28269013847E+02  0.20286331517E+02  0.17660829330E+02  0.39020216336E+02  0.00000000000E+00 0. -1.
         11    1    1    2    0    0 -0.17614222931E+02 -0.29349350896E+02 -0.46368027819E+02  0.57633664219E+02  0.00000000000E+00 0.  1.
</event>
<event>
 7    1  0.2644565E-009  0.9382403E+02  0.7561462E-02  0.1293847E+00
         -2   -1    0    0    0  501 -0.00000000000E+00  0.00000000000E+00  0.47985570205E+03  0.47985570205E+03  0.00000000000E+00 0.  1.
          2   -1    0    0  501    0  0.00000000000E+00 -0.00000000000E+00 -0.35213837854E+02  0.35213837854E+02  0.00000000000E+00 0. -1.
         25    2    1    2    0    0 -0.31171066068E+01 -0.29735920746E+02  0.37946654416E+03  0.40066904000E+03  0.12508748997E+03 0.  0.
          5    1    3    3  502    0  0.23344139790E+02  0.35110987085E+02  0.24855911352E+03  0.25214447364E+03  0.41800000000E+01 0.  1.
         -5    1    3    3    0  502 -0.26461246397E+02 -0.64846907831E+02  0.13090743064E+03  0.14852456636E+03  0.41800000000E+01 0.  1.
        -11    1    1    2    0    0  0.31799985836E+02  0.33496617997E+02  0.35504445780E+01  0.46323516415E+02  0.00000000000E+00 0. -1.
         11    1    1    2    0    0 -0.28682879229E+02 -0.37606972503E+01  0.61624875466E+02  0.68076983488E+02  0.00000000000E+00 0.  1.
</event>
<event>
 7    1  0.2644565E-009  0.8932853E+02  0.7561462E-02  0.1304486E+00
         -1   -1    0    0    0  501 -0.00000000000E+00  0.00000000000E+00  0.97162468936E+02  0.97162468936E+02  0.00000000000E+00 0.  1.
          1   -1    0    0  501    0  0.00000000000E+00 -0.00000000000E+00 -0.12086720679E+03  0.12086720679E+03  0.00000000000E+00 0. -1.
         25    2    1    2    0    0  0.21874941632E+01 -0.15052459621E+01 -0.45477752560E+01  0.12518709086E+03  0.12507627497E+03 0.  0.
          5    1    3    3  502    0 -0.41745675513E+02  0.90188251702E+01  0.42099410861E+02  0.60115500716E+02  0.41800000000E+01 0.  1.
         -5    1    3    3    0  502  0.43933169676E+02 -0.10524071132E+02 -0.46647186117E+02  0.65071590142E+02  0.41800000000E+01 0.  1.
        -11    1    1    2    0    0 -0.13530367709E+01  0.45926308612E+02 -0.14450664991E+02  0.48165114449E+02  0.00000000000E+00 0.  1.
         11    1    1    2    0    0 -0.83445739227E+00 -0.44421062650E+02 -0.47062976095E+01  0.44677470422E+02  0.00000000000E+00 0. -1.
</event>
<event>
 7    1  0.2644565E-009  0.1227093E+03  0.7561462E-02  0.1238693E+00
         -2   -1    0    0    0  501 -0.00000000000E+00  0.00000000000E+00  0.77807874156E+02  0.77807874156E+02  0.00000000000E+00 0.  1.
          2   -1    0    0  501    0  0.00000000000E+00 -0.00000000000E+00 -0.50624448873E+03  0.50624448873E+03  0.00000000000E+00 0. -1.
         25    2    1    2    0    0 -0.10759956820E+03 -0.28974321769E+02 -0.40603597319E+03  0.43923889714E+03  0.12509364028E+03 0.  0.
          5    1    3    3  502    0 -0.19831299024E+02 -0.14160744489E+02 -0.29876170973E+03  0.29978298602E+03  0.41800000000E+01 0.  1.
         -5    1    3    3    0  502 -0.87768269181E+02 -0.14813577280E+02 -0.10727426346E+03  0.13945591113E+03  0.41800000000E+01 0.  1.
        -11    1    1    2    0    0  0.45451841011E+02 -0.22660786882E+02 -0.36829582649E+02  0.62735948798E+02  0.00000000000E+00 0. -1.
         11    1    1    2    0    0  0.62147727193E+02  0.51635108652E+02  0.14428941271E+02  0.82077516939E+02  0.00000000000E+00 0.  1.
</event>
<event>
 7    1  0.2644565E-009  0.6848297E+02  0.7561462E-02  0.1365329E+00
          2   -1    0    0  501    0  0.00000000000E+00  0.00000000000E+00  0.58371854000E+02  0.58371854000E+02  0.00000000000E+00 0. -1.
         -2   -1    0    0    0  501 -0.00000000000E+00 -0.00000000000E+00 -0.25698828098E+03  0.25698828098E+03  0.00000000000E+00 0.  1.
         25    2    1    2    0    0 -0.16674121134E+02 -0.39148720908E+02 -0.67033225753E+02  0.14813079125E+03  0.12505450530E+03 0.  0.
          5    1    3    3  502    0  0.43604119721E+01  0.15481171166E+02  0.30251028372E+02  0.34514880426E+02  0.41800000000E+01 0. -1.
         -5    1    3    3    0  502 -0.21034533106E+02 -0.54629892073E+02 -0.97284254126E+02  0.11361591082E+03  0.41800000000E+01 0. -1.
        -11    1    1    2    0    0  0.26088686937E+02  0.54255607441E+01  0.42256192032E+01  0.26979847166E+02  0.00000000000E+00 0. -1.
         11    1    1    2    0    0 -0.94145658032E+01  0.33723160164E+02 -0.13580882043E+03  0.14024949657E+03  0.00000000000E+00 0.  1.
</event>
<event>
 7    1  0.2644565E-009  0.5235945E+02  0.7561462E-02  0.1433015E+00
         -2   -1    0    0    0  501 -0.00000000000E+00  0.00000000000E+00  0.26173038320E+03  0.26173038320E+03  0.00000000000E+00 0.  1.
          2   -1    0    0  501    0  0.00000000000E+00 -0.00000000000E+00 -0.47863782575E+02  0.47863782575E+02  0.00000000000E+00 0. -1.
         25    2    1    2    0    0 -0.17994826069E+02 -0.19523665452E+02  0.10984570291E+03  0.16857729503E+03  0.12508892307E+03 0.  0.
          5    1    3    3  502    0 -0.14812601415E+02  0.12926779970E+01  0.13478669623E+03  0.13566875122E+03  0.41800000000E+01 0.  1.
         -5    1    3    3    0  502 -0.31822246536E+01 -0.20816343449E+02 -0.24940993316E+02  0.32908543814E+02  0.41800000000E+01 0.  1.
        -11    1    1    2    0    0 -0.42774699200E+01 -0.21071357225E+02 -0.54285402819E+01  0.22175840318E+02  0.00000000000E+00 0. -1.
         11    1    1    2    0    0  0.22272295989E+02  0.40595022677E+02  0.10944943799E+03  0.11884103042E+03  0.00000000000E+00 0.  1.
</event>
<event>
 7    1  0.2644565E-009  0.1559501E+03  0.7561462E-02  0.1193346E+00
          2   -1    0    0  501    0  0.00000000000E+00  0.00000000000E+00  0.10089697172E+04  0.10089697172E+04  0.00000000000E+00 0. -1.
         -2   -1    0    0    0  501 -0.00000000000E+00 -0.00000000000E+00 -0.32283243794E+02  0.32283243794E+02  0.00000000000E+00 0.  1.
         25    2    1    2    0    0 -0.63057737098E+02  0.12641236047E+03  0.59183814234E+03  0.62118928414E+03  0.12508947563E+03 0.  0.
          5    1    3    3  502    0 -0.51450569650E+01 -0.32369041095E+01  0.26146529343E+03  0.26156934306E+03  0.41800000000E+01 0.  1.
         -5    1    3    3    0  502 -0.57912680133E+02  0.12964926458E+03  0.33037284890E+03  0.35961994108E+03  0.41800000000E+01 0.  1.
        -11    1    1    2    0    0  0.33331537835E+02 -0.12841693234E+03  0.26228176792E+03  0.29392792605E+03  0.00000000000E+00 0.  1.
         11    1    1    2    0    0  0.29726199263E+02  0.20045718688E+01  0.12256656318E+03  0.12613575085E+03  0.00000000000E+00 0. -1.
</event>
<event>
 7    1  0.2644565E-009  0.1421920E+03  0.7561462E-02  0.1210410E+00
         -1   -1    0    0    0  501 -0.00000000000E+00  0.00000000000E+00  0.63599571998E+02  0.63599571998E+02  0.00000000000E+00 0.  1.
          1   -1    0    0  501    0  0.00000000000E+00 -0.00000000000E+00 -0.46502925518E+03  0.46502925518E+03  0.00000000000E+00 0. -1.
         25    2    1    2    0    0  0.98672294526E+02 -0.70409248391E+02 -0.12882262505E+03  0.21665056862E+03  0.12509402941E+03 0.  0.
          5    1    3    3  502    0 -0.92855603529E+01 -0.50346192897E+02 -0.57912315238E+01  0.51691116576E+02  0.41800000000E+01 0. -1.
         -5    1    3    3    0  502  0.10795785488E+03 -0.20063055494E+02 -0.12303139353E+03  0.16495945205E+03  0.41800000000E+01 0. -1.
        -11    1    1    2    0    0 -0.38761568251E+02  0.15113214573E+02 -0.19510149009E+03  0.19948799428E+03  0.00000000000E+00 0. -1.
         11    1    1    2    0    0 -0.59910726275E+02  0.55296033818E+02 -0.77505568039E+02  0.11249026427E+03  0.00000000000E+00 0.  1.
</event>
<event>
 7    1  0.2644565E-009  0.1087359E+03  0.7561462E-02  0.1262929E+00
         -2   -1    0    0    0  501 -0.00000000000E+00  0.00000000000E+00  0.21984105274E+02  0.21984105274E+02  0.00000000000E+00 0.  1.
          2   -1    0    0  501    0  0.00000000000E+00 -0.00000000000E+00 -0.63043671218E+03  0.63043671218E+03  0.00000000000E+00 0. -1.
         25    2    1    2    0    0  0.31840025434E+02 -0.20717741911E+02 -0.43216903932E+03  0.45150943512E+03  0.12509068471E+03 0.  0.
          5    1    3    3  502    0 -0.28055473137E+02 -0.53718835018E+02 -0.23710182960E+03  0.24476023534E+03  0.41800000000E+01 0.  1.
         -5    1    3    3    0  502  0.59895498571E+02  0.33001093107E+02 -0.19506720973E+03  0.20674919977E+03  0.41800000000E+01 0.  1.
        -11    1    1    2    0    0  0.17034861339E+02 -0.18791954267E+02 -0.19477297911E+02  0.31979511877E+02  0.00000000000E+00 0.  1.
         11    1    1    2    0    0 -0.48874886773E+02  0.39509696177E+02 -0.15680626968E+03  0.16893187047E+03  0.00000000000E+00 0. -1.
</event>
<event>
 7    1  0.2644565E-009  0.1274215E+03  0.7561462E-02  0.1231333E+00
         -1   -1    0    0    0  501 -0.00000000000E+00  0.00000000000E+00  0.27996765277E+02  0.27996765277E+02  0.00000000000E+00 0.  1.
          1   -1    0    0  501    0  0.00000000000E+00 -0.00000000000E+00 -0.90456981659E+03  0.90456981659E+03  0.00000000000E+00 0. -1.
         25    2    1    2    0    0  0.81175866623E+02 -0.75125656453E+02 -0.56972846535E+03  0.59369575434E+03  0.12510291326E+03 0.  0.
          5    1    3    3  502    0 -0.20226828840E+02 -0.18024413708E+02 -0.28150778059E+03  0.28283936612E+03  0.41800000000E+01 0.  1.
         -5    1    3    3    0  502  0.10140269546E+03 -0.57101242744E+02 -0.28822068476E+03  0.31085638821E+03  0.41800000000E+01 0.  1.
        -11    1    1    2    0    0 -0.54552623651E+02  0.44500992455E+02 -0.72568912046E+02  0.10110674593E+03  0.00000000000E+00 0.  1.
         11    1    1    2    0    0 -0.26623242972E+02  0.30624663997E+02 -0.23427567392E+03  0.23776408160E+03  0.00000000000E+00 0. -1.
</event>
<event>
 7    1  0.2644565E-009  0.8470465E+02  0.7561462E-02  0.1316207E+00
         -1   -1    0    0    0  501 -0.00000000000E+00  0.00000000000E+00  0.55265306374E+03  0.55265306374E+03  0.00000000000E+00 0.  1.
          1   -1    0    0  501    0  0.00000000000E+00 -0.00000000000E+00 -0.22940879310E+02  0.22940879310E+02  0.00000000000E+00 0. -1.
         25    2    1    2    0    0  0.21290452256E+01 -0.33901745220E+02  0.31779702802E+03  0.34321477189E+03  0.12509023730E+03 0.  0.
          5    1    3    3  502    0  0.32664103883E+02 -0.26742782035E+02  0.26101931004E+02  0.49808666671E+02  0.41800000000E+01 0. -1.
         -5    1    3    3    0  502 -0.30535058657E+02 -0.71589631854E+01  0.29169509701E+03  0.29340610522E+03  0.41800000000E+01 0. -1.
        -11    1    1    2    0    0  0.35063031827E+02 -0.11274539990E+02  0.83006994730E+02  0.90811302309E+02  0.00000000000E+00 0. -1.
         11    1    1    2    0    0 -0.37192077053E+02  0.45176285210E+02  0.12890816168E+03  0.14156786884E+03  0.00000000000E+00 0.  1.
</event>
<event>
 7    1  0.2644565E-009  0.9629227E+02  0.7561462E-02  0.1288292E+00
          1   -1    0    0  501    0  0.00000000000E+00  0.00000000000E+00  0.34146033750E+03  0.34146033750E+03  0.00000000000E+00 0. -1.
         -1   -1    0    0    0  501 -0.00000000000E+00 -0.00000000000E+00 -0.52116697280E+02  0.52116697280E+02  0.00000000000E+00 0.  1.
         25    2    1    2    0    0 -0.62348203561E+02  0.34998433985E+02  0.19420182674E+03  0.24181271372E+03  0.12508737002E+03 0.  0.
          5    1    3    3  502    0 -0.52136300479E+02  0.64350820994E+02  0.55916948652E+02  0.10001699624E+03  0.41800000000E+01 0. -1.
         -5    1    3    3    0  502 -0.10211903082E+02 -0.29352387009E+02  0.13828487809E+03  0.14179571748E+03  0.41800000000E+01 0. -1.
        -11    1    1    2    0    0  0.55258218969E+02 -0.15258448145E+02  0.11136115219E+03  0.12525013861E+03  0.00000000000E+00 0. -1.
         11    1    1    2    0    0  0.70899845917E+01 -0.19739985840E+02 -0.16219338718E+02  0.26514182449E+02  0.00000000000E+00 0.  1.
</event>
<event>
 7    1  0.2644565E-009  0.2602190E+03  0.7561462E-02  0.1107012E+00
         -2   -1    0    0    0  501 -0.00000000000E+00  0.00000000000E+00  0.34338404822E+03  0.34338404822E+03  0.00000000000E+00 0.  1.
          2   -1    0    0  501    0  0.00000000000E+00 -0.00000000000E+00 -0.19839407247E+03  0.19839407247E+03  0.00000000000E+00 0. -1.
         25    2    1    2    0    0 -0.14163876011E+03  0.19162587790E+03  0.83410020275E+02  0.28175668851E+03  0.12509030574E+03 0.  0.
          5    1    3    3  502    0 -0.45369973189E+01  0.10804277733E+03  0.39932006244E+02  0.11535104508E+03  0.41800000000E+01 0. -1.
         -5    1    3    3    0  502 -0.13710176279E+03  0.83583100569E+02  0.43478014031E+02  0.16640564343E+03  0.41800000000E+01 0. -1.
        -11    1    1    2    0    0  0.15154285507E+03 -0.16958339592E+03  0.48496988187E+02  0.23254187356E+03  0.00000000000E+00 0.  1.
         11    1    1    2    0    0 -0.99040949595E+01 -0.22042481981E+02  0.13082967285E+02  0.27479558618E+02  0.00000000000E+00 0. -1.
</event>
<event>
 7    1  0.2644565E-009  0.1440851E+03  0.7561462E-02  0.1207936E+00
          1   -1    0    0  501    0  0.00000000000E+00  0.00000000000E+00  0.23620237909E+03  0.23620237909E+03  0.00000000000E+00 0. -1.
         -1   -1    0    0    0  501 -0.00000000000E+00 -0.00000000000E+00 -0.10868003620E+03  0.10868003620E+03  0.00000000000E+00 0.  1.
         25    2    1    2    0    0 -0.11296869183E+03  0.26934251260E+02  0.41579279698E+02  0.17567852859E+03  0.12508688852E+03 0.  0.
          5    1    3    3  502    0 -0.29064490948E+02 -0.47924948501E+02  0.14800481230E+01  0.56224623301E+02  0.41800000000E+01 0.  1.
         -5    1    3    3    0  502 -0.83904200885E+02  0.74859199761E+02  0.40099231575E+02  0.11945390529E+03  0.41800000000E+01 0.  1.
        -11    1    1    2    0    0  0.61684984467E+02 -0.28904133793E+02  0.95192063059E+02  0.11705560699E+03  0.00000000000E+00 0. -1.
         11    1    1    2    0    0  0.51283707366E+02  0.19698825328E+01 -0.92489998658E+01  0.52148279712E+02  0.00000000000E+00 0.  1.
</event>
<event>
 7    1  0.2644565E-009  0.1390084E+03  0.7561462E-02  0.1214669E+00
          1   -1    0    0  501    0  0.00000000000E+00  0.00000000000E+00  0.10951853780E+03  0.10951853780E+03  0.00000000000E+00 0. -1.
         -1   -1    0    0    0  501 -0.00000000000E+00 -0.00000000000E+00 -0.20309336067E+03  0.20309336067E+03  0.00000000000E+00 0.  1.
         25    2    1    2    0    0  0.10010953792E+03 -0.98702939736E+01 -0.41358676054E+02  0.16576466695E+03  0.12509213580E+03 0.  0.
          5    1    3    3  502    0 -0.43330502329E+01 -0.46818070863E+02  0.65083291993E+00  0.47208082647E+02  0.41800000000E+01 0. -1.
         -5    1    3    3    0  502  0.10444258816E+03  0.36947776890E+02 -0.42009508974E+02  0.11855658430E+03  0.41800000000E+01 0. -1.
        -11    1    1    2    0    0 -0.27251519189E+02  0.33657108442E+02 -0.55183086678E+02  0.70147126115E+02  0.00000000000E+00 0.  1.
         11    1    1    2    0    0 -0.72858018733E+02 -0.23786814468E+02  0.29669398604E+01  0.76700105400E+02  0.00000000000E+00 0. -1.
</event>
<event>
 7    1  0.2644565E-009  0.9135818E+02  0.7561462E-02  0.1299596E+00
         -4   -1    0    0    0  501 -0.00000000000E+00  0.00000000000E+00  0.92165522240E+02  0.92165522240E+02  0.00000000000E+00 0.  1.
          4   -1    0    0  501    0  0.00000000000E+00 -0.00000000000E+00 -0.15575920880E+03  0.15575920880E+03  0.00000000000E+00 0. -1.
         25    2    1    2    0    0  0.34821573202E+02 -0.15363847156E+01 -0.77768957483E+02  0.15136185608E+03  0.12508996079E+03 0.  0.
          5    1    3    3  502    0  0.60274745936E+02  0.20234229386E+02  0.30365893119E+01  0.63789985978E+02  0.41800000000E+01 0. -1.
         -5    1    3    3    0  502 -0.25453172734E+02 -0.21770614102E+02 -0.80805546795E+02  0.87571870103E+02  0.41800000000E+01 0. -1.
        -11    1    1    2    0    0 -0.60026078433E+02  0.12512167155E+01  0.29675116889E+02  0.66972443570E+02  0.00000000000E+00 0.  1.
         11    1    1    2    0    0  0.25204505231E+02  0.28516800002E+00 -0.15499845964E+02  0.29590431386E+02  0.00000000000E+00 0. -1.
</event>
<event>
 7    1  0.2644565E-009  0.8217165E+02  0.7561462E-02  0.1322999E+00
         -2   -1    0    0    0  501 -0.00000000000E+00  0.00000000000E+00  0.78145195079E+02  0.78145195079E+02  0.00000000000E+00 0.  1.
          2   -1    0    0  501    0  0.00000000000E+00 -0.00000000000E+00 -0.17102705937E+03  0.17102705937E+03  0.00000000000E+00 0. -1.
         25    2    1    2    0    0  0.16969200664E+02  0.34588439596E+02 -0.69045714560E+02  0.14798081093E+03  0.12508675301E+03 0.  0.
          5    1    3    3  502    0  0.39107484106E+02  0.19362486087E+02  0.24736805947E+02  0.50335704515E+02  0.41800000000E+01 0.  1.
         -5    1    3    3    0  502 -0.22138283442E+02  0.15225953509E+02 -0.93782520507E+02  0.97645106414E+02  0.41800000000E+01 0.  1.
        -11    1    1    2    0    0  0.31820166151E+02  0.26589718566E+01  0.67104679343E+01  0.32628568542E+02  0.00000000000E+00 0.  1.
         11    1    1    2    0    0 -0.48789366816E+02 -0.37247411452E+02 -0.30546617662E+02  0.68562874974E+02  0.00000000000E+00 0. -1.
</event>
<event>
 7    1  0.2644565E-009  0.9425494E+02  0.7561462E-02  0.1292863E+00
          2   -1    0    0  501    0  0.00000000000E+00  0.00000000000E+00  0.36561009343E+03  0.36561009343E+03  0.00000000000E+00 0. -1.
         -2   -1    0    0    0  501 -0.00000000000E+00 -0.00000000000E+00 -0.47587203411E+02  0.47587203411E+02  0.00000000000E+00 0.  1.
         25    2    1    2    0    0  0.43229972286E+02  0.53613854192E+02  0.13123106972E+03  0.19394132009E+03  0.12509342954E+03 0.  0.
          5    1    3    3  502    0  0.72143926327E+02  0.35942023789E+02  0.13729767964E+03  0.15926299135E+03  0.41800000000E+01 0. -1.
         -5    1    3    3    0  502 -0.28913954040E+02  0.17671830403E+02 -0.60666099260E+01  0.34678328738E+02  0.41800000000E+01 0. -1.
        -11    1    1    2    0    0 -0.26350780288E+02 -0.12404556163E+02  0.20210555911E+01  0.29194542317E+02  0.00000000000E+00 0.  1.
         11    1    1    2    0    0 -0.16879191999E+02 -0.41209298029E+02  0.18477076471E+03  0.19006143443E+03  0.00000000000E+00 0. -1.
</event>
<event>
 7    1  0.2644565E-009  0.1203769E+03  0.7561462E-02  0.1242477E+00
          2   -1    0    0  501    0  0.00000000000E+00  0.00000000000E+00  0.66830399977E+03  0.66830399977E+03  0.00000000000E+00 0. -1.
         -2   -1    0    0    0  501 -0.00000000000E+00 -0.00000000000E+00 -0.24215089793E+02  0.24215089793E+02  0.00000000000E+00 0.  1.
         25    2    1    2    0    0 -0.65027375064E+01  0.61070133295E+02  0.44507000093E+03  0.46637573017E+03  0.12508864530E+03 0.  0.
          5    1    3    3  502    0  0.54245686918E+02  0.44524037106E+02  0.30086473368E+03  0.30896932663E+03  0.41800000000E+01 0. -1.
         -5    1    3    3    0  502 -0.60748424424E+02  0.16546096189E+02  0.14420526726E+03  0.15740640353E+03  0.41800000000E+01 0. -1.
        -11    1    1    2    0    0  0.45151842911E+02 -0.15822445944E+02  0.85738723668E+02  0.98184354406E+02  0.00000000000E+00 0. -1.
         11    1    1    2    0    0 -0.38649105405E+02 -0.45247687351E+02  0.11328018538E+03  0.12795900499E+03  0.00000000000E+00 0.  1.
</event>
<event>
 7    1  0.2644565E-009  0.1053810E+03  0.7561462E-02  0.1269371E+00
          2   -1    0    0  501    0  0.00000000000E+00  0.00000000000E+00  0.12705322818E+04  0.12705322818E+04  0.00000000000E+00 0. -1.
         -2   -1    0    0    0  501 -0.00000000000E+00 -0.00000000000E+00 -0.10293748546E+02  0.10293748546E+02  0.00000000000E+00 0.  1.
         25    2    1    2    0    0  0.31513992013E+02  0.16486829814E+02  0.88217280181E+03  0.89170764945E+03  0.12509489429E+03 0.  0.
          5    1    3    3  502    0 -0.24921187705E+02  0.47861537024E+02  0.58889002183E+03  0.59137189867E+03  0.41800000000E+01 0.  1.
         -5    1    3    3    0  502  0.56435179718E+02 -0.31374707210E+02  0.29328277998E+03  0.30033575078E+03  0.41800000000E+01 0.  1.
        -11    1    1    2    0    0  0.24273121852E+02 -0.25745583684E+02  0.15644315843E+03  0.16039476719E+03  0.00000000000E+00 0.  1.
         11    1    1    2    0    0 -0.55787113866E+02  0.92587538703E+01  0.22162257298E+03  0.22872361367E+03  0.00000000000E+00 0. -1.
</event>
<event>
 7    1  0.3513744E-009  0.1530664E+03  0.7561462E-02  0.1196755E+00
          3   -1    0    0  501    0  0.00000000000E+00  0.00000000000E+00  0.40811958922E+03  0.40811958922E+03  0.00000000000E+00 0. -1.
         -3   -1    0    0    0  501 -0.00000000000E+00 -0.00000000000E+00 -0.78561246562E+02  0.78561246562E+02  0.00000000000E+00 0.  1.
         25    2    1    2    0    0  0.11681966949E+03 -0.80670907952E+02  0.16355136708E+03  0.25010346546E+03  0.12509221875E+03 0.  0.
          5    1    3    3  502    0  0.29414464535E+02  0.30828027853E+01  0.11631921002E+03  0.12009306981E+03  0.41800000000E+01 0. -1.
         -5    1    3    3    0  502  0.87405204953E+02 -0.83753710738E+02  0.47232157053E+02  0.13001039564E+03  0.41800000000E+01 0. -1.
        -11    1    1    2    0    0 -0.51325075390E+02  0.72938031515E+02  0.47726465564E+02  0.10115352352E+03  0.00000000000E+00 0.  1.
         11    1    1    2    0    0 -0.65494594097E+02  0.77328764372E+01  0.11828051002E+03  0.13542384681E+03  0.00000000000E+00 0. -1.
</event>
<event>
 7    1  0.2644565E-009  0.1120821E+03  0.7561462E-02  0.1256762E+00
          2   -1    0    0  501    0  0.00000000000E+00  0.00000000000E+00  0.81484687642E+03  0.81484687642E+03  0.00000000000E+00 0. -1.
         -2   -1    0    0    0  501 -0.00000000000E+00 -0.00000000000E+00 -0.22832506277E+02  0.22832506277E+02  0.00000000000E+00 0.  1.
         25    2    1    2    0    0 -0.21918684834E+02  0.72511890000E+02  0.33851190194E+03  0.36874792107E+03  0.12508524533E+03 0.  0.
          5    1    3    3  502    0 -0.40764203524E+02 -0.46782956847E+01  0.23286754504E+03  0.23649180255E+03  0.41800000000E+01 0. -1.
         -5    1    3    3    0  502  0.18845518690E+02  0.77190185684E+02  0.10564435690E+03  0.13225611852E+03  0.41800000000E+01 0. -1.
        -11    1    1    2    0    0  0.41934891936E+02 -0.72009767002E+02  0.43025423897E+03  0.43824953150E+03  0.00000000000E+00 0. -1.
         11    1    1    2    0    0 -0.20016207103E+02 -0.50212299802E+00  0.23248229227E+02  0.30681930129E+02  0.00000000000E+00 0.  1.
</event>
<event>
 7    1  0.3073192E-009  0.1056717E+03  0.7561462E-02  0.1268802E+00
         -1   -1    0    0    0  501 -0.00000000000E+00  0.00000000000E+00  0.63647549864E+02  0.63647549864E+02  0.00000000000E+00 0.  1.
          1   -1    0    0  501    0  0.00000000000E+00 -0.00000000000E+00 -0.58254681322E+03  0.58254681322E+03  0.00000000000E+00 0. -1.
         25    2    1    2    0    0 -0.85527177553E+02 -0.57710514716E+02 -0.47454535892E+03  0.50148356766E+03  0.12508824626E+03 0.  0.
          5    1    3    3  502    0 -0.82339280943E+02 -0.44527582265E+02 -0.47781787859E+03  0.48691874093E+03  0.41800000000E+01 0. -1.
         -5    1    3    3    0  502 -0.31878966098E+01 -0.13182932450E+02  0.32725196682E+01  0.14564826733E+02  0.41800000000E+01 0. -1.
        -11    1    1    2    0    0  0.40470558394E+02  0.31838669976E+02  0.25653735928E+02  0.57529828521E+02  0.00000000000E+00 0.  1.
         11    1    1    2    0    0  0.45056619159E+02  0.25871844739E+02 -0.70007640359E+02  0.87180966896E+02  0.00000000000E+00 0. -1.
</event>
<event>
 7    1  0.2644565E-009  0.1389282E+03  0.7561462E-02  0.1214778E+00
         -2   -1    0    0    0  501 -0.00000000000E+00  0.00000000000E+00  0.34017947670E+02  0.34017947670E+02  0.00000000000E+00 0.  1.
          2   -1    0    0  501    0  0.00000000000E+00 -0.00000000000E+00 -0.59878596292E+03  0.59878596292E+03  0.00000000000E+00 0. -1.
         25    2    1    2    0    0  0.49277632427E+02 -0.71346931013E+02 -0.23740339082E+03  0.28200438912E+03  0.12508971137E+03 0.  0.
          5    1    3    3  502    0  0.82786113333E+02 -0.81785074662E+02 -0.19056293999E+03  0.22332497732E+03  0.41800000000E+01 0.  1.
         -5    1    3    3    0  502 -0.33508480906E+02  0.10438143649E+02 -0.46840450829E+02  0.58679411801E+02  0.41800000000E+01 0.  1.
        -11    1    1    2    0    0 -0.26847620408E+02 -0.19054821935E+02 -0.86145111425E+02  0.92221804271E+02  0.00000000000E+00 0. -1.
         11    1    1    2    0    0 -0.22430012019E+02  0.90401752948E+02 -0.24121951301E+03  0.25857771720E+03  0.00000000000E+00 0.  1.
</event>
<event>
 7    1  0.2644565E-009  0.1633931E+03  0.7561462E-02  0.1184918E+00
         -2   -1    0    0    0  501 -0.00000000000E+00  0.00000000000E+00  0.74864989953E+02  0.74864989953E+02  0.00000000000E+00 0. -1.
          2   -1    0    0  501    0  0.00000000000E+00 -0.00000000000E+00 -0.58113384700E+03  0.58113384700E+03  0.00000000000E+00 0.  1.
         25    2    1    2    0    0 -0.58133145178E+02 -0.11959391007E+03 -0.44909875639E+03  0.48478668924E+03  0.12508507175E+03 0.  0.
          5    1    3    3  502    0 -0.97766038203E+02 -0.80262168210E+02 -0.31326173593E+03  0.33786180824E+03  0.41800000000E+01 0. -1.
         -5    1    3    3    0  502  0.39632893025E+02 -0.39331741858E+02 -0.13583702047E+03  0.14692488100E+03  0.41800000000E+01 0. -1.
        -11    1    1    2    0    0  0.68767129938E+02  0.93590300341E+02 -0.10334861164E+02  0.11659704899E+03  0.00000000000E+00 0. -1.
         11    1    1    2    0    0 -0.10633984760E+02  0.26003609727E+02 -0.46835239490E+02  0.54615098725E+02  0.00000000000E+00 0.  1.
</event>
<event>
 7    1  0.2644565E-009  0.1100504E+03  0.7561462E-02  0.1260477E+00
          1   -1    0    0  501    0  0.00000000000E+00  0.00000000000E+00  0.62730498688E+03  0.62730498688E+03  0.00000000000E+00 0. -1.
         -1   -1    0    0    0  501 -0.00000000000E+00 -0.00000000000E+00 -0.29676987467E+02  0.29676987467E+02  0.00000000000E+00 0.  1.
         25    2    1    2    0    0 -0.72114859667E+02 -0.37619386488E+02  0.35246748627E+03  0.38274918207E+03  0.12509131173E+03 0.  0.
          5    1    3    3  502    0 -0.25566875598E+02 -0.45142528040E+02  0.32261233750E+03  0.32678388221E+03  0.41800000000E+01 0.  1.
         -5    1    3    3    0  502 -0.46547984069E+02  0.75231415527E+01  0.29855148771E+02  0.55965299855E+02  0.41800000000E+01 0.  1.
        -11    1    1    2    0    0  0.29590754199E+02  0.64114190228E+02  0.11740914192E+03  0.13700784185E+03  0.00000000000E+00 0.  1.
         11    1    1    2    0    0  0.42524105468E+02 -0.26494803740E+02  0.12775137121E+03  0.13722495042E+03  0.00000000000E+00 0. -1.
</event>
<event>
 7    1  0.2644565E-009  0.1132332E+03  0.7561462E-02  0.1254697E+00
          2   -1    0    0  501    0  0.00000000000E+00  0.00000000000E+00  0.16817873146E+04  0.16817873146E+04  0.00000000000E+00 0. -1.
         -2   -1    0    0    0  501 -0.00000000000E+00 -0.00000000000E+00 -0.15940148195E+02  0.15940148195E+02  0.00000000000E+00 0.  1.
         25    2    1    2    0    0 -0.40869225601E+02 -0.54750886027E+02  0.14301461060E+04  0.14372288639E+04  0.12506386250E+03 0.  0.
          5    1    3    3  502    0 -0.76576129750E+01 -0.75706625986E+02  0.12700303123E+04  0.12723146618E+04  0.41800000000E+01 0. -1.
         -5    1    3    3    0  502 -0.33211612626E+02  0.20955739959E+02  0.16011579371E+03  0.16491420207E+03  0.41800000000E+01 0. -1.
        -11    1    1    2    0    0  0.68578252952E+02  0.38676991491E+02  0.16106965169E+03  0.17928279099E+03  0.00000000000E+00 0.  1.
         11    1    1    2    0    0 -0.27709027351E+02  0.16073894536E+02  0.74631408782E+02  0.81215807938E+02  0.00000000000E+00 0. -1.
</event>
<event>
 7    1  0.2644565E-009  0.1660067E+03  0.7561462E-02  0.1182077E+00
         -3   -1    0    0    0  501 -0.00000000000E+00  0.00000000000E+00  0.50995348223E+03  0.50995348223E+03  0.00000000000E+00 0.  1.
          3   -1    0    0  501    0  0.00000000000E+00 -0.00000000000E+00 -0.65928567996E+02  0.65928567996E+02  0.00000000000E+00 0. -1.
         25    2    1    2    0    0 -0.93082125995E+02  0.94059623179E+02  0.13283962111E+03  0.22539982810E+03  0.12508885914E+03 0.  0.
          5    1    3    3  502    0 -0.11620590738E+03  0.56843780750E+02  0.12640855252E+03  0.18091882950E+03  0.41800000000E+01 0. -1.
         -5    1    3    3    0  502  0.23123781382E+02  0.37215842429E+02  0.64310685890E+01  0.44480998598E+02  0.41800000000E+01 0. -1.
        -11    1    1    2    0    0  0.67655025925E+02 -0.10957709761E+03  0.27464599554E+03  0.30333935735E+03  0.00000000000E+00 0.  1.
         11    1    1    2    0    0  0.25427100070E+02  0.15517474432E+02  0.36539297593E+02  0.47142864776E+02  0.00000000000E+00 0. -1.
</event>
<event>
 7    1  0.2644565E-009  0.8996432E+02  0.7561462E-02  0.1302938E+00
         -1   -1    0    0    0  501 -0.00000000000E+00  0.00000000000E+00  0.59789802238E+02  0.59789802238E+02  0.00000000000E+00 0.  1.
          1   -1    0    0  501    0  0.00000000000E+00 -0.00000000000E+00 -0.21095696902E+03  0.21095696902E+03  0.00000000000E+00 0. -1.
         25    2    1    2    0    0 -0.96647621890E+01  0.24160531880E+02 -0.77233714883E+02  0.14929785312E+03  0.12509062036E+03 0.  0.
          5    1    3    3  502    0 -0.33825399810E+02 -0.27156061046E+02  0.10422609978E+02  0.44807505204E+02  0.41800000000E+01 0.  1.
         -5    1    3    3    0  502  0.24160637621E+02  0.51316592926E+02 -0.87656324861E+02  0.10449034792E+03  0.41800000000E+01 0.  1.
        -11    1    1    2    0    0 -0.20654277930E+02 -0.40185847584E+02 -0.63028499946E+01  0.45620471949E+02  0.00000000000E+00 0.  1.
         11    1    1    2    0    0  0.30319040119E+02  0.16025315704E+02 -0.67630601908E+02  0.75828446190E+02  0.00000000000E+00 0. -1.
</event>
<event>
 6    1  0.2644565E-009  0.7482538E+02  0.7561462E-02  0.1344413E+00
          2   -1    0    0  501    0  0.00000000000E+00  0.00000000000E+00  0.64289667276E+03  0.64289667276E+03  0.00000000000E+00 0.  1.
         -2   -1    0    0    0  501 -0.00000000000E+00 -0.00000000000E+00 -0.24312069250E+02  0.24312069250E+02  0.00000000000E+00 0. -1.
          5    1    1    2  502    0  0.29471058261E+02  0.42680640978E+02  0.44956385114E+03  0.45256525390E+03  0.41800000000E+01 0. -1.
         -5    1    1    2    0  502 -0.20898841103E+02 -0.33874068398E+02  0.58656208619E+02  0.71008712696E+02  0.41800000000E+01 0. -1.
        -11    1    1    2    0    0  0.23558749045E+02 -0.96352054888E+01  0.10849298735E+03  0.11143868334E+03  0.00000000000E+00 0.  1.
         11    1    1    2    0    0 -0.32130966203E+02  0.82863290933E+00  0.18715564130E+01  0.32196092078E+02  0.00000000000E+00 0. -1.
</event>
<event>
 7    1  0.2644565E-009  0.2226819E+03  0.7561462E-02  0.1131899E+00
          1   -1    0    0  501    0  0.00000000000E+00  0.00000000000E+00  0.39747520710E+03  0.39747520710E+03  0.00000000000E+00 0. -1.
         -1   -1    0    0    0  501 -0.00000000000E+00 -0.00000000000E+00 -0.13854600300E+03  0.13854600300E+03  0.00000000000E+00 0.  1.
         25    2    1    2    0    0 -0.59695296753E+02 -0.18713409322E+03  0.57863894134E+02  0.23995256862E+03  0.12508520154E+03 0.  0.
          5    1    3    3  502    0 -0.89441335481E+02 -0.92433073390E+02  0.56617667864E+02  0.14059394817E+03  0.41800000000E+01 0. -1.
         -5    1    3    3    0  502  0.29746038728E+02 -0.94701019835E+02  0.12462262701E+01  0.99358620450E+02  0.41800000000E+01 0. -1.
        -11    1    1    2    0    0  0.16645199212E+02  0.17027972591E+03  0.15838380285E+03  0.23314732835E+03  0.00000000000E+00 0.  1.
         11    1    1    2    0    0  0.43050097541E+02  0.16854367315E+02  0.42681507109E+02  0.62921313122E+02  0.00000000000E+00 0. -1.
</event>
<event>
 7    1  0.2644565E-009  0.2165205E+03  0.7561462E-02  0.1136504E+00
         -2   -1    0    0    0  501 -0.00000000000E+00  0.00000000000E+00  0.36465021706E+03  0.36465021706E+03  0.00000000000E+00 0.  1.
          2   -1    0    0  501    0  0.00000000000E+00 -0.00000000000E+00 -0.14243667859E+03  0.14243667859E+03  0.00000000000E+00 0. -1.
         25    2    1    2    0    0  0.17777744863E+03  0.87369076314E+02  0.14337405794E+03  0.27466500836E+03  0.12508624860E+03 0.  0.
          5    1    3    3  502    0 -0.10852358795E+02 -0.11580025271E+02  0.27811492856E+02  0.32292757881E+02  0.41800000000E+01 0.  1.
         -5    1    3    3    0  502  0.18862980742E+03  0.98949101585E+02  0.11556256508E+03  0.24237225047E+03  0.41800000000E+01 0.  1.
        -11    1    1    2    0    0 -0.84984886209E+02 -0.67873847004E+02  0.84059196835E+02  0.13745995258E+03  0.00000000000E+00 0.  1.
         11    1    1    2    0    0 -0.92792562418E+02 -0.19495229310E+02 -0.52197163026E+01  0.94961934712E+02  0.00000000000E+00 0. -1.
</event>
<event>
 7    1  0.2644565E-009  0.6153884E+02  0.7561462E-02  0.1391485E+00
         -2   -1    0    0    0  501 -0.00000000000E+00  0.00000000000E+00  0.11535674222E+02  0.11535674222E+02  0.00000000000E+00 0.  1.
          2   -1    0    0  501    0  0.00000000000E+00 -0.00000000000E+00 -0.12419106674E+04  0.12419106674E+04  0.00000000000E+00 0. -1.
         25    2    1    2    0    0  0.18742682975E+02  0.26055837437E+02 -0.90166143655E+03  0.91086484442E+03  0.12510485121E+03 0.  0.
          5    1    3    3  502    0  0.69486886985E+01  0.12026843418E+02 -0.88675462840E+03  0.88687325623E+03  0.41800000000E+01 0.  1.
         -5    1    3    3    0  502  0.11793994277E+02  0.14028994019E+02 -0.14906808159E+02  0.23991588186E+02  0.41800000000E+01 0.  1.
        -11    1    1    2    0    0  0.20957568607E+02 -0.42041938440E+02 -0.10826840800E+03  0.11802030520E+03  0.00000000000E+00 0. -1.
         11    1    1    2    0    0 -0.39700251583E+02  0.15986101003E+02 -0.22044514867E+03  0.22456119205E+03  0.00000000000E+00 0.  1.
</event>
<event>
 7    1  0.2644565E-009  0.3584123E+03  0.7561462E-02  0.1059214E+00
          1   -1    0    0  501    0  0.00000000000E+00  0.00000000000E+00  0.10294036630E+03  0.10294036630E+03  0.00000000000E+00 0. -1.
         -1   -1    0    0    0  501 -0.00000000000E+00 -0.00000000000E+00 -0.13442587387E+04  0.13442587387E+04  0.00000000000E+00 0.  1.
         25    2    1    2    0    0  0.34032321348E+03 -0.68276770517E+02 -0.77482151589E+03  0.85818279323E+03  0.12509083936E+03 0.  0.
          5    1    3    3  502    0  0.23532847212E+03  0.87011118485E+01 -0.44317142841E+03  0.50187008927E+03  0.41800000000E+01 0. -1.
         -5    1    3    3    0  502  0.10499474136E+03 -0.76977882366E+02 -0.33165008747E+03  0.35631270396E+03  0.41800000000E+01 0. -1.
        -11    1    1    2    0    0 -0.20571500866E+03  0.67251576428E+02 -0.34729108632E+03  0.40920965037E+03  0.00000000000E+00 0.  1.
         11    1    1    2    0    0 -0.13460820482E+03  0.10251940888E+01 -0.11920577015E+03  0.17980666135E+03  0.00000000000E+00 0. -1.
</event>
<event>
 7    1  0.2644565E-009  0.1379333E+03  0.7561462E-02  0.1216137E+00
         -2   -1    0    0    0  501 -0.00000000000E+00  0.00000000000E+00  0.25568701036E+03  0.25568701036E+03  0.00000000000E+00 0.  1.
          2   -1    0    0  501    0  0.00000000000E+00 -0.00000000000E+00 -0.86085126506E+02  0.86085126506E+02  0.00000000000E+00 0. -1.
         25    2    1    2    0    0  0.84668777450E+02 -0.23244866562E+01  0.29943682635E+02  0.15400974736E+03  0.12509265782E+03 0.  0.
          5    1    3    3  502    0 -0.13628991842E+02  0.40899334767E+02  0.42677950290E+01  0.43522310112E+02  0.41800000000E+01 0.  1.
         -5    1    3    3    0  502  0.98297769292E+02 -0.43223821423E+02  0.25675887606E+02  0.11048743725E+03  0.41800000000E+01 0.  1.
        -11    1    1    2    0    0 -0.61444634847E+02 -0.42429263304E+02  0.90707157209E+02  0.11748818624E+03  0.00000000000E+00 0. -1.
         11    1    1    2    0    0 -0.23224142603E+02  0.44753749960E+02  0.48951044012E+02  0.70274203268E+02  0.00000000000E+00 0.  1.
</event>
<event>
 7    1  0.2644565E-009  0.1201377E+03  0.7561462E-02  0.1242870E+00
         -1   -1    0    0    0  501 -0.00000000000E+00  0.00000000000E+00  0.10343891584E+03  0.10343891584E+03  0.00000000000E+00 0. -1.
          1   -1    0    0  501    0  0.00000000000E+00 -0.00000000000E+00 -0.22918446164E+03  0.22918446164E+03  0.00000000000E+00 0.  1.
         25    2    1    2    0    0 -0.24010671407E+02  0.76908159574E+02 -0.14754762035E+03  0.20954402356E+03  0.12508804974E+03 0.  0.
          5    1    3    3  502    0 -0.14895377892E+02  0.10340589282E+03 -0.14800145157E+03  0.18120858981E+03  0.41800000000E+01 0.  1.
         -5    1    3    3    0  502 -0.91152935149E+01 -0.26497733245E+02  0.45383122412E+00  0.28335433750E+02  0.41800000000E+01 0.  1.
        -11    1    1    2    0    0 -0.13960463282E+02 -0.66591603796E+02  0.40853525356E+02  0.79362124248E+02  0.00000000000E+00 0.  1.
         11    1    1    2    0    0  0.37971134689E+02 -0.10316555778E+02 -0.19051450809E+02  0.43717229676E+02  0.00000000000E+00 0. -1.
</event>
<event>
 7    1  0.2644565E-009  0.1147340E+03  0.7561462E-02  0.1252046E+00
         -3   -1    0    0    0  501 -0.00000000000E+00  0.00000000000E+00  0.26252522727E+03  0.26252522727E+03  0.00000000000E+00 0.  1.
          3   -1    0    0  501    0  0.00000000000E+00 -0.00000000000E+00 -0.63124672272E+02  0.63124672272E+02  0.00000000000E+00 0. -1.
         25    2    1    2    0    0  0.10327030288E+02  0.47065109384E+02  0.17096880208E+03  0.21724788242E+03  0.12507813180E+03 0.  0.
          5    1    3    3  502    0  0.61785626749E+02  0.82178710827E+01  0.11872772073E+03  0.13415938710E+03  0.41800000000E+01 0.  1.
         -5    1    3    3    0  502 -0.51458596461E+02  0.38847238302E+02  0.52241081348E+02  0.83088495316E+02  0.41800000000E+01 0.  1.
        -11    1    1    2    0    0  0.11691846494E+02 -0.69779590521E+02  0.29719514793E+02  0.76740732908E+02  0.00000000000E+00 0.  1.
         11    1    1    2    0    0 -0.22018876782E+02  0.22714481137E+02 -0.12877618659E+01  0.31661284223E+02  0.00000000000E+00 0. -1.
</event>
<event>
 7    1  0.2644565E-009  0.1155211E+03  0.7561462E-02  0.1250674E+00
          1   -1    0    0  501    0  0.00000000000E+00  0.00000000000E+00  0.57253269237E+03  0.57253269237E+03  0.00000000000E+00 0. -1.
         -1   -1    0    0    0  501 -0.00000000000E+00 -0.00000000000E+00 -0.28968183111E+02  0.28968183111E+02  0.00000000000E+00 0.  1.
         25    2    1    2    0    0  0.40801310997E+02 -0.24310150976E+02  0.42063413005E+03  0.44140257013E+03  0.12508967637E+03 0.  0.
          5    1    3    3  502    0  0.77727600977E+02  0.11711710818E+02  0.20370177913E+03  0.21838184756E+03  0.41800000000E+01 0. -1.
         -5    1    3    3    0  502 -0.36926289980E+02 -0.36021861794E+02  0.21693235092E+03  0.22302072257E+03  0.41800000000E+01 0. -1.
        -11    1    1    2    0    0  0.14008160042E+02  0.40959370110E+02  0.68803174984E+02  0.81288224458E+02  0.00000000000E+00 0. -1.
         11    1    1    2    0    0 -0.54809471039E+02 -0.16649219134E+02  0.54127204225E+02  0.78810080894E+02  0.00000000000E+00 0.  1.
</event>
<event>
 7    1  0.2644565E-009  0.1307952E+03  0.7561462E-02  0.1226281E+00
          1   -1    0    0  501    0  0.00000000000E+00  0.00000000000E+00  0.27985971706E+03  0.27985971706E+03  0.00000000000E+00 0. -1.
         -1   -1    0    0    0  501 -0.00000000000E+00 -0.00000000000E+00 -0.76517759665E+02  0.76517759665E+02  0.00000000000E+00 0.  1.
         25    2    1    2    0    0 -0.87449157702E+02 -0.13387262675E+00  0.38042241480E+02  0.15729442607E+03  0.12508777411E+03 0.  0.
          5    1    3    3  502    0  0.23076598528E+02  0.28988456329E+02  0.17088191317E+02  0.41016322147E+02  0.41800000000E+01 0. -1.
         -5    1    3    3    0  502 -0.11052575623E+03 -0.29122328956E+02  0.20954050163E+02  0.11627810392E+03  0.41800000000E+01 0. -1.
        -11    1    1    2    0    0  0.16306190044E+02  0.28905902131E+02  0.62902381710E+02  0.71120690636E+02  0.00000000000E+00 0.  1.
         11    1    1    2    0    0  0.71142967658E+02 -0.28772029504E+02  0.10239733421E+03  0.12796236002E+03  0.00000000000E+00 0. -1.
</event>
<event>
 7    1  0.2644565E-009  0.1399109E+03  0.7561462E-02  0.1213449E+00
         -4   -1    0    0    0  501 -0.00000000000E+00  0.00000000000E+00  0.63796257464E+03  0.63796257464E+03  0.00000000000E+00 0.  1.
          4   -1    0    0  501    0  0.00000000000E+00 -0.00000000000E+00 -0.40808708901E+02  0.40808708901E+02  0.00000000000E+00 0. -1.
         25    2    1    2    0    0 -0.10086784346E+03  0.10407413931E+01  0.18635128494E+03  0.24606887585E+03  0.12509070821E+03 0.  0.
          5    1    3    3  502    0 -0.55955763199E+02 -0.51676278214E+02  0.44891913225E+02  0.88511250349E+02  0.41800000000E+01 0.  1.
         -5    1    3    3    0  502 -0.44912080260E+02  0.52717019607E+02  0.14145937171E+03  0.15755762551E+03  0.41800000000E+01 0.  1.
        -11    1    1    2    0    0 -0.94297222813E+01 -0.20123263689E+02  0.45540250388E+02  0.50673265232E+02  0.00000000000E+00 0.  1.
         11    1    1    2    0    0  0.11029756574E+03  0.19082522296E+02  0.36526233041E+03  0.38202914245E+03  0.00000000000E+00 0. -1.
</event>
<event>
 7    1  0.2644565E-009  0.1164661E+03  0.7561462E-02  0.1249043E+00
         -2   -1    0    0    0  501 -0.00000000000E+00  0.00000000000E+00  0.54036614935E+02  0.54036614935E+02  0.00000000000E+00 0.  1.
          2   -1    0    0  501    0  0.00000000000E+00 -0.00000000000E+00 -0.29338379870E+03  0.29338379870E+03  0.00000000000E+00 0. -1.
         25    2    1    2    0    0  0.54385232120E+02  0.78525519161E+01 -0.17797005454E+03  0.22436566078E+03  0.12508874201E+03 0.  0.
          5    1    3    3  502    0  0.65657097097E+02  0.55339029144E+02 -0.12962121394E+03  0.15553904349E+03  0.41800000000E+01 0. -1.
         -5    1    3    3    0  502 -0.11271864977E+02 -0.47486477228E+02 -0.48348840604E+02  0.68826617288E+02  0.41800000000E+01 0. -1.
        -11    1    1    2    0    0 -0.11185942781E+02 -0.41651868927E+02 -0.51751141603E+02  0.67366046034E+02  0.00000000000E+00 0. -1.
         11    1    1    2    0    0 -0.43199289339E+02  0.33799317011E+02 -0.96259876132E+01  0.55688706820E+02  0.00000000000E+00 0.  1.
</event>
<event>
 7    1  0.2644565E-009  0.1246212E+03  0.7561462E-02  0.1235663E+00
          3   -1    0    0  501    0  0.00000000000E+00  0.00000000000E+00  0.14761169525E+03  0.14761169525E+03  0.00000000000E+00 0. -1.
         -3   -1    0    0    0  501 -0.00000000000E+00 -0.00000000000E+00 -0.14256727160E+03  0.14256727160E+03  0.00000000000E+00 0.  1.
         25    2    1    2    0    0 -0.74425565067E+02 -0.54407974369E+02  0.15324950350E+02  0.15614703476E+03  0.12509056699E+03 0.  0.
          5    1    3    3  502    0 -0.10669182194E+03 -0.47712641417E+02 -0.52614508135E+01  0.11706748603E+03  0.41800000000E+01 0.  1.
         -5    1    3    3    0  502  0.32266256876E+02 -0.66953329522E+01  0.20586401164E+02  0.39079548731E+02  0.41800000000E+01 0.  1.
        -11    1    1    2    0    0  0.21246680288E+02 -0.22556030844E+01 -0.44314519433E+02  0.49196400286E+02  0.00000000000E+00 0.  1.
         11    1    1    2    0    0  0.53178884779E+02  0.56663577454E+02  0.34033992731E+02  0.84835531810E+02  0.00000000000E+00 0. -1.
</event>
<event>
 7    1  0.2644565E-009  0.2348974E+03  0.7561462E-02  0.1123239E+00
         -2   -1    0    0    0  501 -0.00000000000E+00  0.00000000000E+00  0.16180578575E+03  0.16180578575E+03  0.00000000000E+00 0.  1.
          2   -1    0    0  501    0  0.00000000000E+00 -0.00000000000E+00 -0.38064956671E+03  0.38064956671E+03  0.00000000000E+00 0. -1.
         25    2    1    2    0    0 -0.18358815188E+03 -0.10620250193E+03 -0.18444036853E+03  0.30765231854E+03  0.12509244035E+03 0.  0.
          5    1    3    3  502    0 -0.18156707889E+03 -0.12387595448E+03 -0.18772685733E+03  0.28908597614E+03  0.41800000000E+01 0.  1.
         -5    1    3    3    0  502 -0.20210729831E+01  0.17673452559E+02  0.32864888023E+01  0.18566342397E+02  0.41800000000E+01 0.  1.
        -11    1    1    2    0    0  0.18035602693E+03  0.67080133304E+02 -0.34785212413E+02  0.19554552344E+03  0.00000000000E+00 0. -1.
         11    1    1    2    0    0  0.32321249460E+01  0.39122368622E+02  0.38179997767E+00  0.39257510485E+02  0.00000000000E+00 0.  1.
</event>
<event>
 7    1  0.2644565E-009  0.1429124E+03  0.7561462E-02  0.1209463E+00
         -2   -1    0    0    0  501 -0.00000000000E+00  0.00000000000E+00  0.24445860534E+03  0.24445860534E+03  0.00000000000E+00 0.  1.
          2   -1    0    0  501    0  0.00000000000E+00 -0.00000000000E+00 -0.11170215157E+03  0.11170215157E+03  0.00000000000E+00 0. -1.
         25    2    1    2    0    0 -0.10203326725E+03 -0.56379796896E+02  0.11877932241E+03  0.20819582529E+03  0.12508998806E+03 0.  0.
          5    1    3    3  502    0  0.13484309088E+02 -0.24255803218E+02 -0.12175823613E+02  0.30592379149E+02  0.41800000000E+01 0. -1.
         -5    1    3    3    0  502 -0.11551757634E+03 -0.32123993679E+02  0.13095514603E+03  0.17760344615E+03  0.41800000000E+01 0. -1.
        -11    1    1    2    0    0  0.52103034147E+02 -0.11659522324E+02 -0.19963020774E+02  0.57001691436E+02  0.00000000000E+00 0. -1.
         11    1    1    2    0    0  0.49930233100E+02  0.68039319220E+02  0.33940152129E+02  0.90963240179E+02  0.00000000000E+00 0.  1.
</event>
<event>
 7    1  0.2644565E-009  0.1453336E+03  0.7561462E-02  0.1206327E+00
         -1   -1    0    0    0  501 -0.00000000000E+00  0.00000000000E+00  0.21724282303E+02  0.21724282303E+02  0.00000000000E+00 0.  1.
          1   -1    0    0  501    0  0.00000000000E+00 -0.00000000000E+00 -0.11081546314E+04  0.11081546314E+04  0.00000000000E+00 0. -1.
         25    2    1    2    0    0 -0.19264560653E+02 -0.10164855939E+03 -0.69935022295E+03  0.71794158443E+03  0.12508329784E+03 0.  0.
          5    1    3    3  502    0  0.41894582093E+02 -0.90169923178E+02 -0.40369030876E+03  0.41577531053E+03  0.41800000000E+01 0. -1.
         -5    1    3    3    0  502 -0.61159142746E+02 -0.11478636215E+02 -0.29565991418E+03  0.30216627390E+03  0.41800000000E+01 0. -1.
        -11    1    1    2    0    0  0.41567679655E+02  0.24004077536E+02 -0.23375124428E+03  0.23862881622E+03  0.00000000000E+00 0. -1.
         11    1    1    2    0    0 -0.22303119002E+02  0.77644481858E+02 -0.15332888191E+03  0.17330851308E+03  0.00000000000E+00 0.  1.
</event>
<event>
 7    1  0.2644565E-009  0.3281778E+03  0.7561462E-02  0.1071946E+00
         -2   -1    0    0    0  501 -0.00000000000E+00  0.00000000000E+00  0.24803232482E+03  0.24803232482E+03  0.00000000000E+00 0.  1.
          2   -1    0    0  501    0  0.00000000000E+00 -0.00000000000E+00 -0.46896488892E+03  0.46896488892E+03  0.00000000000E+00 0. -1.
         25    2    1    2    0    0  0.32002720599E+03 -0.43256266327E+02 -0.98973004577E+02  0.36017984623E+03  0.12508136890E+03 0.  0.
          5    1    3    3  502    0  0.13963452993E+03 -0.53421538851E+02  0.86881599614E+01  0.14981528389E+03  0.41800000000E+01 0.  1.
         -5    1    3    3    0  502  0.18039267605E+03  0.10165272524E+02 -0.10766116454E+03  0.21036456234E+03  0.41800000000E+01 0.  1.
        -11    1    1    2    0    0 -0.25570376241E+03  0.52625709934E+02 -0.61866161418E+02  0.26829331223E+03  0.00000000000E+00 0.  1.
         11    1    1    2    0    0 -0.64323443576E+02 -0.93694436076E+01 -0.60093398108E+02  0.88524055279E+02  0.00000000000E+00 0. -1.
</event>
<event>
 7    1  0.2644565E-009  0.9294003E+02  0.7561462E-02  0.1295884E+00
         -1   -1    0    0    0  501 -0.00000000000E+00  0.00000000000E+00  0.27415814129E+03  0.27415814129E+03  0.00000000000E+00 0.  1.
          1   -1    0    0  501    0  0.00000000000E+00 -0.00000000000E+00 -0.50650590602E+02  0.50650590602E+02  0.00000000000E+00 0. -1.
         25    2    1    2    0    0 -0.10244585545E+02  0.24292566961E+01  0.18878649414E+03  0.22674328900E+03  0.12514521930E+03 0.  0.
          5    1    3    3  502    0  0.53502526859E+02  0.53173717520E+00  0.12688507459E+03  0.13776827530E+03  0.41800000000E+01 0. -1.
         -5    1    3    3    0  502 -0.63747112404E+02  0.18975195209E+01  0.61901419550E+02  0.88975013698E+02  0.41800000000E+01 0. -1.
        -11    1    1    2    0    0  0.16885056923E+02 -0.32971674870E+02 -0.14482181384E+02  0.39773987337E+02  0.00000000000E+00 0. -1.
         11    1    1    2    0    0 -0.66404713779E+01  0.30542418174E+02  0.49203237926E+02  0.58291455552E+02  0.00000000000E+00 0.  1.
</event>
<event>
 7    1  0.2644565E-009  0.1987278E+03  0.7561462E-02  0.1150817E+00
         -1   -1    0    0    0  501 -0.00000000000E+00  0.00000000000E+00  0.25327476585E+03  0.25327476585E+03  0.00000000000E+00 0.  1.
          1   -1    0    0  501    0  0.00000000000E+00 -0.00000000000E+00 -0.20954659846E+03  0.20954659846E+03  0.00000000000E+00 0. -1.
         25    2    1    2    0    0 -0.17171214039E+03  0.21142921092E+02  0.12894730843E+03  0.24941432942E+03  0.12509203452E+03 0.  0.
          5    1    3    3  502    0 -0.86707911214E+02  0.64489910482E+02  0.30748694843E+02  0.11242848863E+03  0.41800000000E+01 0.  1.
         -5    1    3    3    0  502 -0.85004229171E+02 -0.43346989390E+02  0.98198613587E+02  0.13698584079E+03  0.41800000000E+01 0.  1.
        -11    1    1    2    0    0  0.79983776347E+02 -0.53846043381E+02 -0.27763818984E+02  0.10033758275E+03  0.00000000000E+00 0.  1.
         11    1    1    2    0    0  0.91728364038E+02  0.32703122289E+02 -0.57455322060E+02  0.11306945215E+03  0.00000000000E+00 0. -1.
</event>
<event>
 7    1  0.2644565E-009  0.1495853E+03  0.7561462E-02  0.1200984E+00
          1   -1    0    0  501    0  0.00000000000E+00  0.00000000000E+00  0.18873946957E+03  0.18873946957E+03  0.00000000000E+00 0. -1.
         -1   -1    0    0    0  501 -0.00000000000E+00 -0.00000000000E+00 -0.14423137835E+03  0.14423137835E+03  0.00000000000E+00 0.  1.
         25    2    1    2    0    0  0.84147284893E+01 -0.94246399239E+02 -0.31789998937E+02  0.16003473754E+03  0.12508925518E+03 0.  0.
          5    1    3    3  502    0  0.48630042503E+02 -0.44268625887E+01  0.14626712264E+02  0.51145784361E+02  0.41800000000E+01 0. -1.
         -5    1    3    3    0  502 -0.40215314014E+02 -0.89819536650E+02 -0.46416711201E+02  0.10888895318E+03  0.41800000000E+01 0. -1.
        -11    1    1    2    0    0 -0.63597213755E+02  0.52468177879E+02  0.23046243874E+02  0.85607503433E+02  0.00000000000E+00 0.  1.
         11    1    1    2    0    0  0.55182485266E+02  0.41778221360E+02  0.53251846276E+02  0.87328606950E+02  0.00000000000E+00 0. -1.
</event>
<event>
 6    1  0.2644565E-009  0.7580134E+02  0.7561462E-02  0.1341407E+00
          1   -1    0    0  501    0  0.00000000000E+00  0.00000000000E+00  0.54104196607E+02  0.54104196607E+02  0.00000000000E+00 0. -1.
         -1   -1    0    0    0  501 -0.00000000000E+00 -0.00000000000E+00 -0.27190956701E+03  0.27190956701E+03  0.00000000000E+00 0.  1.
          5    1    1    2  502    0  0.11230582950E+02  0.12162643652E+02  0.20098286963E+02  0.26371754451E+02  0.41800000000E+01 0. -1.
         -5    1    1    2    0  502 -0.18559099602E+02  0.36567529890E+02 -0.17009698201E+03  0.17502022771E+03  0.41800000000E+01 0. -1.
        -11    1    1    2    0    0  0.29309831512E+02  0.97056691947E+01 -0.51579338287E+02  0.60114011478E+02  0.00000000000E+00 0.  1.
         11    1    1    2    0    0 -0.21981314861E+02 -0.58435842736E+02 -0.16227337073E+02  0.64507769980E+02  0.00000000000E+00 0. -1.
</event>
<event>
 7    1  0.2644565E-009  0.1342813E+03  0.7561462E-02  0.1221238E+00
          1   -1    0    0  501    0  0.00000000000E+00  0.00000000000E+00  0.41167931040E+03  0.41167931040E+03  0.00000000000E+00 0. -1.
         -1   -1    0    0    0  501 -0.00000000000E+00 -0.00000000000E+00 -0.52526351834E+02  0.52526351834E+02  0.00000000000E+00 0.  1.
         25    2    1    2    0    0 -0.38530749685E+01 -0.97404396820E+02  0.21990866188E+03  0.27112523648E+03  0.12508641645E+03 0.  0.
          5    1    3    3  502    0  0.40016887632E+01 -0.12355651196E+03  0.14123085806E+03  0.18773878882E+03  0.41800000000E+01 0. -1.
         -5    1    3    3    0  502 -0.78547637318E+01  0.26152115137E+02  0.78677803820E+02  0.83386447660E+02  0.41800000000E+01 0. -1.
        -11    1    1    2    0    0 -0.24506678860E+02  0.12059890533E+02 -0.64402486401E-02  0.27313335752E+02  0.00000000000E+00 0.  1.
         11    1    1    2    0    0  0.28359753828E+02  0.85344506287E+02  0.13925073694E+03  0.16576709000E+03  0.00000000000E+00 0. -1.
</event>
<event>
 7    1  0.2644565E-009  0.8182198E+02  0.7561462E-02  0.1323959E+00
          4   -1    0    0  501    0  0.00000000000E+00  0.00000000000E+00  0.61251575899E+02  0.61251575899E+02  0.00000000000E+00 0. -1.
         -4   -1    0    0    0  501 -0.00000000000E+00 -0.00000000000E+00 -0.22309497738E+03  0.22309497738E+03  0.00000000000E+00 0.  1.
         25    2    1    2    0    0  0.77655063259E+01  0.36002353648E+02 -0.10863507785E+03  0.16972379447E+03  0.12509242068E+03 0.  0.
          5    1    3    3  502    0 -0.24208232710E+02 -0.44622008941E+01 -0.11492085728E+03  0.11760197960E+03  0.41800000000E+01 0. -1.
         -5    1    3    3    0  502  0.31973739036E+02  0.40464554542E+02  0.62857794270E+01  0.52121814869E+02  0.41800000000E+01 0. -1.
        -11    1    1    2    0    0 -0.34106128193E+02  0.85645722141E+01  0.63244298232E+01  0.35729235790E+02  0.00000000000E+00 0. -1.
         11    1    1    2    0    0  0.26340621867E+02 -0.44566925862E+02 -0.59532753453E+02  0.78893523022E+02  0.00000000000E+00 0.  1.
</event>
<event>
 7    1  0.2644565E-009  0.9224880E+02  0.7561462E-02  0.1297495E+00
          2   -1    0    0  501    0  0.00000000000E+00  0.00000000000E+00  0.11480799277E+03  0.11480799277E+03  0.00000000000E+00 0. -1.
         -2   -1    0    0    0  501 -0.00000000000E+00 -0.00000000000E+00 -0.10749929700E+03  0.10749929700E+03  0.00000000000E+00 0.  1.
         25    2    1    2    0    0  0.28295818331E+02 -0.86497273491E+01  0.27688441371E+02  0.13149127816E+03  0.12509130796E+03 0.  0.
          5    1    3    3  502    0  0.41255700665E+02  0.47981927160E+02 -0.68318599614E+01  0.63784362361E+02  0.41800000000E+01 0. -1.
         -5    1    3    3    0  502 -0.12959882334E+02 -0.56631654509E+02  0.34520301333E+02  0.67706915796E+02  0.41800000000E+01 0. -1.
        -11    1    1    2    0    0 -0.10365559441E+02  0.31860692437E+02  0.21409919891E+02  0.39760950879E+02  0.00000000000E+00 0. -1.
         11    1    1    2    0    0 -0.17930258890E+02 -0.23210965088E+02 -0.41789665495E+02  0.51055060732E+02  0.00000000000E+00 0.  1.
</event>
<event>
 6    1  0.2644565E-009  0.1269220E+03  0.7561462E-02  0.1232096E+00
         -2   -1    0    0    0  501 -0.00000000000E+00  0.00000000000E+00  0.34032149965E+02  0.34032149965E+02  0.00000000000E+00 0.  1.
          2   -1    0    0  501    0  0.00000000000E+00 -0.00000000000E+00 -0.54725734003E+03  0.54725734003E+03  0.00000000000E+00 0. -1.
          5    1    1    2  502    0 -0.24623295662E+02 -0.52591724167E+02 -0.78862975504E+02  0.98025697883E+02  0.41800000000E+01 0.  1.
         -5    1    1    2    0  502  0.81947627395E+02  0.72983345973E+01 -0.25033697010E+03  0.26354269165E+03  0.41800000000E+01 0.  1.
        -11    1    1    2    0    0 -0.36391215054E+02 -0.22167343243E+02 -0.10720786760E+03  0.11536567304E+03  0.00000000000E+00 0.  1.
         11    1    1    2    0    0 -0.20933116679E+02  0.67460732812E+02 -0.76817376857E+02  0.10435542742E+03  0.00000000000E+00 0. -1.
</event>
<event>
 7    1  0.2644565E-009  0.1104011E+03  0.7561462E-02  0.1259829E+00
          1   -1    0    0  501    0  0.00000000000E+00  0.00000000000E+00  0.60748149335E+02  0.60748149335E+02  0.00000000000E+00 0. -1.
         -1   -1    0    0    0  501 -0.00000000000E+00 -0.00000000000E+00 -0.24290774116E+03  0.24290774116E+03  0.00000000000E+00 0.  1.
         25    2    1    2    0    0 -0.48496028691E+02  0.21986774178E+02 -0.72924854290E+02  0.15427410675E+03  0.12508869894E+03 0.  0.
          5    1    3    3  502    0 -0.85727490254E+02 -0.93517261891E+01 -0.38587600544E+02  0.94568137783E+02  0.41800000000E+01 0. -1.
         -5    1    3    3    0  502  0.37231461562E+02  0.31338500367E+02 -0.34337253745E+02  0.59705968965E+02  0.41800000000E+01 0. -1.
        -11    1    1    2    0    0  0.12739556945E+02  0.24117691016E+02 -0.79189235758E+02  0.83754966367E+02  0.00000000000E+00 0.  1.
         11    1    1    2    0    0  0.35756471747E+02 -0.46104465194E+02 -0.30045501778E+02  0.65626817382E+02  0.00000000000E+00 0. -1.
</event>
<event>
 7    1  0.2644565E-009  0.9792516E+02  0.7561462E-02  0.1284721E+00
          1   -1    0    0  501    0  0.00000000000E+00  0.00000000000E+00  0.33371316141E+03  0.33371316141E+03  0.00000000000E+00 0. -1.
         -1   -1    0    0    0  501 -0.00000000000E+00 -0.00000000000E+00 -0.41378706324E+02  0.41378706324E+02  0.00000000000E+00 0.  1.
         25    2    1    2    0    0 -0.23716889481E+02 -0.27637209001E+02  0.20995789383E+03  0.24709344029E+03  0.12508614984E+03 0.  0.
          5    1    3    3  502    0  0.31262359592E+02 -0.57196645301E+02  0.13076592697E+03  0.14617110322E+03  0.41800000000E+01 0.  1.
         -5    1    3    3    0  502 -0.54979249073E+02  0.29559436301E+02  0.79191966861E+02  0.10092233706E+03  0.41800000000E+01 0.  1.
        -11    1    1    2    0    0 -0.99417417873E+01  0.32479462928E+02  0.87266031130E+02  0.93643547194E+02  0.00000000000E+00 0. -1.
         11    1    1    2    0    0  0.33658631268E+02 -0.48422539278E+01 -0.48894698716E+01  0.34354880259E+02  0.00000000000E+00 0.  1.
</event>
<event>
 7    1  0.2644565E-009  0.1339737E+03  0.7561462E-02  0.1221676E+00
          2   -1    0    0  501    0  0.00000000000E+00  0.00000000000E+00  0.66179748903E+03  0.66179748903E+03  0.00000000000E+00 0. -1.
         -2   -1    0    0    0  501 -0.00000000000E+00 -0.00000000000E+00 -0.31110149828E+02  0.31110149828E+02  0.00000000000E+00 0.  1.
         25    2    1    2    0    0  0.27168925259E+02  0.85498659374E+02  0.28073319582E+03  0.32016634532E+03  0.12508872926E+03 0.  0.
          5    1    3    3  502    0 -0.26937099346E+02  0.83540437782E+02  0.22852113110E+03  0.24483462137E+03  0.41800000000E+01 0.  1.
         -5    1    3    3    0  502  0.54106024605E+02  0.19582215922E+01  0.52212064719E+02  0.75331723945E+02  0.41800000000E+01 0.  1.
        -11    1    1    2    0    0 -0.59026246696E+02 -0.44893658280E+02  0.24156496846E+03  0.25269185254E+03  0.00000000000E+00 0. -1.
         11    1    1    2    0    0  0.31857321437E+02 -0.40605001094E+02  0.10838917493E+03  0.12004944101E+03  0.00000000000E+00 0.  1.
</event>
<event>
 7    1  0.2644565E-009  0.9154694E+02  0.7561462E-02  0.1299148E+00
         -1   -1    0    0    0  501 -0.00000000000E+00  0.00000000000E+00  0.53677401093E+02  0.53677401093E+02  0.00000000000E+00 0.  1.
          1   -1    0    0  501    0  0.00000000000E+00 -0.00000000000E+00 -0.28273975940E+03  0.28273975940E+03  0.00000000000E+00 0. -1.
         25    2    1    2    0    0 -0.18396427962E+01  0.81924264562E+01 -0.20950455214E+03  0.24415493186E+03  0.12509585623E+03 0.  0.
          5    1    3    3  502    0  0.28196088780E+02 -0.50983611921E+02 -0.10859383224E+03  0.12330628900E+03  0.41800000000E+01 0. -1.
         -5    1    3    3    0  502 -0.30035731576E+02  0.59176038377E+02 -0.10091071990E+03  0.12084864286E+03  0.41800000000E+01 0. -1.
        -11    1    1    2    0    0  0.23617942230E+02 -0.22103155281E+02  0.24912425805E+02  0.40828735323E+02  0.00000000000E+00 0.  1.
         11    1    1    2    0    0 -0.21778299434E+02  0.13910728825E+02 -0.44470231976E+02  0.51433493316E+02  0.00000000000E+00 0. -1.
</event>
<event>
 7    1  0.2644565E-009  0.8331848E+02  0.7561462E-02  0.1319889E+00
          2   -1    0    0  501    0  0.00000000000E+00  0.00000000000E+00  0.45437490342E+03  0.45437490342E+03  0.00000000000E+00 0. -1.
         -2   -1    0    0    0  501 -0.00000000000E+00 -0.00000000000E+00 -0.30245006789E+02  0.30245006789E+02  0.00000000000E+00 0.  1.
         25    2    1    2    0    0  0.14937695635E+02 -0.18510335635E+02  0.31072002193E+03  0.33579770297E+03  0.12508955998E+03 0.  0.
          5    1    3    3  502    0 -0.42642522217E+02 -0.37259000923E+02  0.86227795831E+02  0.10324399752E+03  0.41800000000E+01 0. -1.
         -5    1    3    3    0  502  0.57580217851E+02  0.18748665288E+02  0.22449222610E+03  0.23255370545E+03  0.41800000000E+01 0. -1.
        -11    1    1    2    0    0  0.64442152670E+01  0.25779165361E+02 -0.60449579880E+01  0.27251326466E+02  0.00000000000E+00 0.  1.
         11    1    1    2    0    0 -0.21381910902E+02 -0.72688297254E+01  0.11945483269E+03  0.12157088077E+03  0.00000000000E+00 0. -1.
</event>
<event>
 7    1  0.2644565E-009  0.1134017E+03  0.7561462E-02  0.1254397E+00
         -2   -1    0    0    0  501 -0.00000000000E+00  0.00000000000E+00  0.39434680076E+02  0.39434680076E+02  0.00000000000E+00 0.  1.
          2   -1    0    0  501    0  0.00000000000E+00 -0.00000000000E+00 -0.50501114445E+03  0.50501114445E+03  0.00000000000E+00 0. -1.
         25    2    1    2    0    0 -0.26353034657E+02  0.63497541029E+02 -0.36794914546E+03  0.39466294815E+03  0.12508336757E+03 0.  0.
          5    1    3    3  502    0 -0.33699419840E+02  0.89148364630E+02 -0.17048485541E+03  0.19536028291E+03  0.41800000000E+01 0.  1.
         -5    1    3    3    0  502  0.73463851827E+01 -0.25650823601E+02 -0.19746429005E+03  0.19930266524E+03  0.41800000000E+01 0.  1.
        -11    1    1    2    0    0  0.37163428104E+02  0.27595974093E+01 -0.85382197813E+01  0.38231360993E+02  0.00000000000E+00 0.  1.
         11    1    1    2    0    0 -0.10810393447E+02 -0.66257138438E+02 -0.89089099133E+02  0.11155151539E+03  0.00000000000E+00 0. -1.
</event>
<event>
 7    1  0.2644565E-009  0.2160959E+03  0.7561462E-02  0.1136828E+00
         -2   -1    0    0    0  501 -0.00000000000E+00  0.00000000000E+00  0.76148122176E+02  0.76148122176E+02  0.00000000000E+00 0.  1.
          2   -1    0    0  501    0  0.00000000000E+00 -0.00000000000E+00 -0.69237536982E+03  0.69237536982E+03  0.00000000000E+00 0. -1.
         25    2    1    2    0    0 -0.31397822390E+02  0.19564521045E+03 -0.38169690871E+03  0.44788687315E+03  0.12508896594E+03 0.  0.
          5    1    3    3  502    0 -0.64297830336E+02  0.45677220449E+02 -0.15648025171E+03  0.17528308825E+03  0.41800000000E+01 0.  1.
         -5    1    3    3    0  502  0.32900007946E+02  0.14996799000E+03 -0.22521665700E+03  0.27260378489E+03  0.41800000000E+01 0.  1.
        -11    1    1    2    0    0 -0.46434341954E+00 -0.69841147535E+02 -0.15081391050E+03  0.16620119466E+03  0.00000000000E+00 0. -1.
         11    1    1    2    0    0  0.31862165810E+02 -0.12580406291E+03 -0.83716428432E+02  0.15443542419E+03  0.00000000000E+00 0.  1.
</event>
<event>
 7    1  0.2644565E-009  0.8682393E+02  0.7561462E-02  0.1310731E+00
          2   -1    0    0  501    0  0.00000000000E+00  0.00000000000E+00  0.13581835459E+04  0.13581835459E+04  0.00000000000E+00 0. -1.
         -2   -1    0    0    0  501 -0.00000000000E+00 -0.00000000000E+00 -0.14104886176E+02  0.14104886176E+02  0.00000000000E+00 0.  1.
         25    2    1    2    0    0  0.30201602480E+02  0.24126733011E+02  0.11165095618E+04  0.11241598561E+04  0.12509014543E+03 0.  0.
          5    1    3    3  502    0 -0.22595146280E+02  0.44930938090E+02  0.85703039962E+03  0.85851494344E+03  0.41800000000E+01 0. -1.
         -5    1    3    3    0  502  0.52796748760E+02 -0.20804205079E+02  0.25947916216E+03  0.26564491267E+03  0.41800000000E+01 0. -1.
        -11    1    1    2    0    0 -0.29448524792E+02  0.10784482029E+02  0.19023899632E+02  0.36680095724E+02  0.00000000000E+00 0.  1.
         11    1    1    2    0    0 -0.75307768816E+00 -0.34911215041E+02  0.20854519833E+03  0.21144848027E+03  0.00000000000E+00 0. -1.
</event>
<event>
 7    1  0.2644565E-009  0.1160757E+03  0.7561462E-02  0.1249715E+00
         -2   -1    0    0    0  501 -0.00000000000E+00  0.00000000000E+00  0.46524391136E+03  0.46524391136E+03  0.00000000000E+00 0.  1.
          2   -1    0    0  501    0  0.00000000000E+00 -0.00000000000E+00 -0.36781278604E+02  0.36781278604E+02  0.00000000000E+00 0. -1.
         25    2    1    2    0    0 -0.16412683073E+02  0.66859717796E+02  0.19144643028E+03  0.23882781372E+03  0.12508953158E+03 0.  0.
          5    1    3    3  502    0 -0.48523145636E+02  0.77270692550E+02  0.18182809849E+03  0.20348018427E+03  0.41800000000E+01 0.  1.
         -5    1    3    3    0  502  0.32110462563E+02 -0.10410974754E+02  0.96183317851E+01  0.35347629449E+02  0.41800000000E+01 0.  1.
        -11    1    1    2    0    0  0.48676722416E+02 -0.52157776590E+02  0.10829957545E+03  0.12968675725E+03  0.00000000000E+00 0. -1.
         11    1    1    2    0    0 -0.32264039343E+02 -0.14701941206E+02  0.12871662703E+03  0.13351061899E+03  0.00000000000E+00 0.  1.
</event>
<event>
 7    1  0.2644565E-009  0.8459876E+02  0.7561462E-02  0.1316485E+00
          1   -1    0    0  501    0  0.00000000000E+00  0.00000000000E+00  0.18098620029E+03  0.18098620029E+03  0.00000000000E+00 0.  1.
         -1   -1    0    0    0  501 -0.00000000000E+00 -0.00000000000E+00 -0.77929703379E+02  0.77929703379E+02  0.00000000000E+00 0. -1.
         25    2    1    2    0    0 -0.40301919471E+02 -0.18824969915E+02  0.75626222568E+02  0.15279245091E+03  0.12509030062E+03 0.  0.
          5    1    3    3  502    0 -0.40711386006E+02  0.12351940715E+02  0.10272921114E+03  0.11126882138E+03  0.41800000000E+01 0. -1.
         -5    1    3    3    0  502  0.40946653548E+00 -0.31176910631E+02 -0.27102988575E+02  0.41523629526E+02  0.41800000000E+01 0. -1.
        -11    1    1    2    0    0  0.66692737303E+02  0.12542832184E+02  0.37078195109E+02  0.77330695074E+02  0.00000000000E+00 0.  1.
         11    1    1    2    0    0 -0.26390817832E+02  0.62821377314E+01 -0.96479207616E+01  0.28792757689E+02  0.00000000000E+00 0. -1.
</event>
<event>
 7    1  0.2644565E-009  0.9006685E+02  0.7561462E-02  0.1302690E+00
         -2   -1    0    0    0  501 -0.00000000000E+00  0.00000000000E+00  0.10654289638E+03  0.10654289638E+03  0.00000000000E+00 0. -1.
          2   -1    0    0  501    0  0.00000000000E+00 -0.00000000000E+00 -0.40220018330E+03  0.40220018330E+03  0.00000000000E+00 0.  1.
         25    2    1    2    0    0  0.55802329154E+02  0.31250743516E+02 -0.35513857673E+03  0.38191815023E+03  0.12509019100E+03 0.  0.
          5    1    3    3  502    0  0.34009556209E+02  0.31593862338E+02 -0.28720117074E+02  0.54746137541E+02  0.41800000000E+01 0.  1.
         -5    1    3    3    0  502  0.21792772946E+02 -0.34311882196E+00 -0.32641845966E+03  0.32717201269E+03  0.41800000000E+01 0.  1.
        -11    1    1    2    0    0 -0.62665685839E+02 -0.56983938518E+02  0.51023243133E+02  0.98881387382E+02  0.00000000000E+00 0. -1.
         11    1    1    2    0    0  0.68633566846E+01  0.25733195002E+02  0.84580466725E+01  0.27943542072E+02  0.00000000000E+00 0.  1.
</event>
<event>
 7    1  0.2644565E-009  0.1043878E+03  0.7561462E-02  0.1271331E+00
         -2   -1    0    0    0  501 -0.00000000000E+00  0.00000000000E+00  0.22264238127E+02  0.22264238127E+02  0.00000000000E+00 0.  1.
          2   -1    0    0  501    0  0.00000000000E+00 -0.00000000000E+00 -0.72545384750E+03  0.72545384750E+03  0.00000000000E+00 0. -1.
         25    2    1    2    0    0  0.93573880391E+01  0.50962337889E+02 -0.27603125843E+03  0.30745023678E+03  0.12509065462E+03 0.  0.
          5    1    3    3  502    0  0.26954625676E+02 -0.17053232859E+02 -0.12218780148E+02  0.34411271186E+02  0.41800000000E+01 0.  1.
         -5    1    3    3    0  502 -0.17597237637E+02  0.68015570749E+02 -0.26381247828E+03  0.27303896560E+03  0.41800000000E+01 0.  1.
        -11    1    1    2    0    0 -0.36735616157E+02 -0.65597129195E+02 -0.28408589734E+03  0.29386610203E+03  0.00000000000E+00 0.  1.
         11    1    1    2    0    0  0.27378228118E+02  0.14634791306E+02 -0.14307245360E+03  0.14640174681E+03  0.00000000000E+00 0. -1.
</event>
<event>
 6    1  0.2644565E-009  0.7787198E+02  0.7561462E-02  0.1335201E+00
          1   -1    0    0  501    0  0.00000000000E+00  0.00000000000E+00  0.90787980338E+03  0.90787980338E+03  0.00000000000E+00 0. -1.
         -1   -1    0    0    0  501 -0.00000000000E+00 -0.00000000000E+00 -0.19553740220E+02  0.19553740220E+02  0.00000000000E+00 0.  1.
          5    1    1    2  502    0 -0.18903604824E+02 -0.12442994022E+02  0.14818630519E+02  0.27372222891E+02  0.41800000000E+01 0.  1.
         -5    1    1    2    0  502 -0.15504845630E+01 -0.42536071836E+02  0.66227390251E+03  0.66365346059E+03  0.41800000000E+01 0.  1.
        -11    1    1    2    0    0 -0.29366742914E+01 -0.15461635795E+02  0.39353932629E+01  0.16222624864E+02  0.00000000000E+00 0.  1.
         11    1    1    2    0    0  0.23390763678E+02  0.70440701653E+02  0.20729813687E+03  0.22018523526E+03  0.00000000000E+00 0. -1.
</event>
<event>
 7    1  0.2644565E-009  0.3627767E+03  0.7561462E-02  0.1057490E+00
         -2   -1    0    0    0  501 -0.00000000000E+00  0.00000000000E+00  0.23882212886E+03  0.23882212886E+03  0.00000000000E+00 0.  1.
          2   -1    0    0  501    0  0.00000000000E+00 -0.00000000000E+00 -0.79737298444E+03  0.79737298444E+03  0.00000000000E+00 0. -1.
         25    2    1    2    0    0 -0.26758027832E+03 -0.22614770869E+03 -0.56160228131E+03  0.67363667279E+03  0.12508898059E+03 0.  0.
          5    1    3    3  502    0 -0.27506277584E+03 -0.18962276362E+03 -0.51356575827E+03  0.61268555035E+03  0.41800000000E+01 0.  1.
         -5    1    3    3    0  502  0.74824975193E+01 -0.36524945071E+02 -0.48036523037E+02  0.60951122443E+02  0.41800000000E+01 0.  1.
        -11    1    1    2    0    0  0.12511658722E+03  0.13853826661E+03  0.40857156022E+02  0.19109243552E+03  0.00000000000E+00 0.  1.
         11    1    1    2    0    0  0.14246369110E+03  0.87609442081E+02 -0.37805730300E+02  0.17146600499E+03  0.00000000000E+00 0. -1.
</event>
<event>
 7    1  0.2644565E-009  0.1050898E+03  0.7561462E-02  0.1269943E+00
         -1   -1    0    0    0  501 -0.00000000000E+00  0.00000000000E+00  0.16887227231E+03  0.16887227231E+03  0.00000000000E+00 0.  1.
          1   -1    0    0  501    0  0.00000000000E+00 -0.00000000000E+00 -0.10565825140E+03  0.10565825140E+03  0.00000000000E+00 0. -1.
         25    2    1    2    0    0  0.12841656509E+02  0.41618103663E+00 -0.44149357201E+02  0.13327419943E+03  0.12509102743E+03 0.  0.
          5    1    3    3  502    0 -0.53254459096E+02 -0.13435794066E+02 -0.55091299064E+01  0.55356850417E+02  0.41800000000E+01 0. -1.
         -5    1    3    3    0  502  0.66096115604E+02  0.13851975103E+02 -0.38640227295E+02  0.77917349015E+02  0.41800000000E+01 0. -1.
        -11    1    1    2    0    0 -0.34942460681E+02  0.32545325474E+02  0.79598481096E+02  0.92822906448E+02  0.00000000000E+00 0.  1.
         11    1    1    2    0    0  0.22100804173E+02 -0.32961506510E+02  0.27764897011E+02  0.48433417828E+02  0.00000000000E+00 0. -1.
</event>
<event>
 7    1  0.2644565E-009  0.1527983E+03  0.7561462E-02  0.1197076E+00
         -2   -1    0    0    0  501 -0.00000000000E+00  0.00000000000E+00  0.25831629830E+02  0.25831629830E+02  0.00000000000E+00 0.  1.
          2   -1    0    0  501    0  0.00000000000E+00 -0.00000000000E+00 -0.14043739302E+04  0.14043739302E+04  0.00000000000E+00 0. -1.
         25    2    1    2    0    0  0.12327062586E+03 -0.70942967213E+02 -0.94275759889E+03  0.96159626484E+03  0.12508770723E+03 0.  0.
          5    1    3    3  502    0  0.31209869806E+02 -0.38345791151E+02 -0.86053365694E+02  0.99333326832E+02  0.41800000000E+01 0. -1.
         -5    1    3    3    0  502  0.92060756054E+02 -0.32597176062E+02 -0.85670423319E+03  0.86226293801E+03  0.41800000000E+01 0. -1.
        -11    1    1    2    0    0 -0.11585128140E+03  0.34272575138E+02 -0.39589783127E+03  0.41392175784E+03  0.00000000000E+00 0. -1.
         11    1    1    2    0    0 -0.74193444632E+01  0.36670392075E+02 -0.39886870250E+02  0.54687537388E+02  0.00000000000E+00 0.  1.
</event>
<event>
 7    1  0.2644565E-009  0.1444782E+03  0.7561462E-02  0.1207427E+00
          2   -1    0    0  501    0  0.00000000000E+00  0.00000000000E+00  0.13758046600E+03  0.13758046600E+03  0.00000000000E+00 0. -1.
         -2   -1    0    0    0  501 -0.00000000000E+00 -0.00000000000E+00 -0.19397949532E+03  0.19397949532E+03  0.00000000000E+00 0.  1.
         25    2    1    2    0    0 -0.11123975823E+03 -0.32914731857E+02  0.90422799733E+01  0.17084045055E+03  0.12508810228E+03 0.  0.
          5    1    3    3  502    0 -0.38625040376E+02  0.38489645441E+02  0.35920165201E+02  0.65429941298E+02  0.41800000000E+01 0. -1.
         -5    1    3    3    0  502 -0.72614717849E+02 -0.71404377297E+02 -0.26877885228E+02  0.10541050925E+03  0.41800000000E+01 0. -1.
        -11    1    1    2    0    0  0.24999715697E+02 -0.19250108175E+02  0.11851722927E+02  0.33704833274E+02  0.00000000000E+00 0. -1.
         11    1    1    2    0    0  0.86240042528E+02  0.52164840031E+02 -0.77293032219E+02  0.12701467750E+03  0.00000000000E+00 0.  1.
</event>
<event>
 6    1  0.2644565E-009  0.1950671E+03  0.7561462E-02  0.1153969E+00
          2   -1    0    0  501    0  0.00000000000E+00  0.00000000000E+00  0.49118446419E+02  0.49118446419E+02  0.00000000000E+00 0.  1.
         -2   -1    0    0    0  501 -0.00000000000E+00 -0.00000000000E+00 -0.82689296394E+03  0.82689296394E+03  0.00000000000E+00 0. -1.
          5    1    1    2  502    0 -0.93943486632E+02  0.89667128499E+01 -0.12432111201E+03  0.15613773378E+03  0.41800000000E+01 0. -1.
         -5    1    1    2    0  502 -0.34138665034E+02  0.10114405468E+03 -0.27756884348E+03  0.29741806185E+03  0.41800000000E+01 0. -1.
        -11    1    1    2    0    0  0.11829063146E+03 -0.50819490554E+02 -0.29337528119E+03  0.32038156895E+03  0.00000000000E+00 0.  1.
         11    1    1    2    0    0  0.97915202035E+01 -0.59291276978E+02 -0.82509280850E+02  0.10207404577E+03  0.00000000000E+00 0. -1.
</event>
<event>
 7    1  0.2644565E-009  0.2743675E+03  0.7561462E-02  0.1098806E+00
          2   -1    0    0  501    0  0.00000000000E+00  0.00000000000E+00  0.78825119249E+03  0.78825119249E+03  0.00000000000E+00 0. -1.
         -2   -1    0    0    0  501 -0.00000000000E+00 -0.00000000000E+00 -0.12090762768E+03  0.12090762768E+03  0.00000000000E+00 0.  1.
         25    2    1    2    0    0 -0.25822046751E+03 -0.59407230285E+01  0.14806309738E+03  0.32292953084E+03  0.12509076325E+03 0.  0.
          5    1    3    3  502    0 -0.78841889727E+02  0.55901867698E+02  0.58715955443E+02  0.11316403232E+03  0.41800000000E+01 0.  1.
         -5    1    3    3    0  502 -0.17937857779E+03 -0.61842590727E+02  0.89347141939E+02  0.20976549852E+03  0.41800000000E+01 0.  1.
        -11    1    1    2    0    0  0.29700364696E+02 -0.13973907378E+02  0.13284866455E+03  0.13684352167E+03  0.00000000000E+00 0. -1.
         11    1    1    2    0    0  0.22852010282E+03  0.19914630406E+02  0.38643180288E+03  0.44938576766E+03  0.00000000000E+00 0.  1.
</event>
<event>
 7    1  0.2644565E-009  0.2064431E+03  0.7561462E-02  0.1144414E+00
         -1   -1    0    0    0  501 -0.00000000000E+00  0.00000000000E+00  0.54104769747E+03  0.54104769747E+03  0.00000000000E+00 0.  1.
          1   -1    0    0  501    0  0.00000000000E+00 -0.00000000000E+00 -0.96333141398E+02  0.96333141398E+02  0.00000000000E+00 0. -1.
         25    2    1    2    0    0  0.13664532678E+02  0.19317280422E+03  0.29743443321E+03  0.37632066346E+03  0.12509015928E+03 0.  0.
          5    1    3    3  502    0  0.23246175068E+02  0.18210360184E+03  0.17739829282E+03  0.25532280186E+03  0.41800000000E+01 0.  1.
         -5    1    3    3    0  502 -0.95816423900E+01  0.11069202384E+02  0.12003614039E+03  0.12099786160E+03  0.41800000000E+01 0.  1.
        -11    1    1    2    0    0  0.34614318632E+01 -0.19654655550E+03  0.14300134653E+03  0.24308828663E+03  0.00000000000E+00 0.  1.
         11    1    1    2    0    0 -0.17125964541E+02  0.33737512771E+01  0.42787763368E+01  0.17971888773E+02  0.00000000000E+00 0. -1.
</event>
<event>
 7    1  0.2644565E-009  0.1021440E+03  0.7561462E-02  0.1275851E+00
         -1   -1    0    0    0  501 -0.00000000000E+00  0.00000000000E+00  0.56907162791E+03  0.56907162791E+03  0.00000000000E+00 0.  1.
          1   -1    0    0  501    0  0.00000000000E+00 -0.00000000000E+00 -0.23613825084E+02  0.23613825084E+02  0.00000000000E+00 0. -1.
         25    2    1    2    0    0  0.33059334693E+00  0.41211261976E+02  0.34528636205E+03  0.36955280901E+03  0.12509248349E+03 0.  0.
          5    1    3    3  502    0 -0.26699777938E+02  0.78104398681E+02  0.25810492631E+03  0.27101439191E+03  0.41800000000E+01 0. -1.
         -5    1    3    3    0  502  0.27030371285E+02 -0.36893136704E+02  0.87181435736E+02  0.98538417101E+02  0.41800000000E+01 0. -1.
        -11    1    1    2    0    0  0.24988120761E+02 -0.43631053823E+02  0.50308664708E+02  0.71126906171E+02  0.00000000000E+00 0. -1.
         11    1    1    2    0    0 -0.25318714108E+02  0.24197918463E+01  0.14986277607E+03  0.15200573781E+03  0.00000000000E+00 0.  1.
</event>
<event>
 7    1  0.2644565E-009  0.1627312E+03  0.7561462E-02  0.1185647E+00
          4   -1    0    0  501    0  0.00000000000E+00  0.00000000000E+00  0.34597316510E+03  0.34597316510E+03  0.00000000000E+00 0. -1.
         -4   -1    0    0    0  501 -0.00000000000E+00 -0.00000000000E+00 -0.11502075200E+03  0.11502075200E+03  0.00000000000E+00 0.  1.
         25    2    1    2    0    0 -0.27797711988E+02 -0.13360537647E+03  0.12247462500E+02  0.18552528305E+03  0.12508605398E+03 0.  0.
          5    1    3    3  502    0  0.22121678406E+02 -0.37225271037E+01  0.37643183340E+02  0.44019399308E+02  0.41800000000E+01 0.  1.
         -5    1    3    3    0  502 -0.49919390394E+02 -0.12988284937E+03 -0.25395720840E+02  0.14150588375E+03  0.41800000000E+01 0.  1.
        -11    1    1    2    0    0 -0.33133605958E+02  0.50015996242E+02  0.11074673142E+03  0.12595346063E+03  0.00000000000E+00 0. -1.
         11    1    1    2    0    0  0.60931317946E+02  0.83589380230E+02  0.10795821918E+03  0.14951517342E+03  0.00000000000E+00 0.  1.
</event>
<event>
 7    1  0.2644565E-009  0.1972892E+03  0.7561462E-02  0.1152046E+00
          1   -1    0    0  501    0  0.00000000000E+00  0.00000000000E+00  0.18650654963E+03  0.18650654963E+03  0.00000000000E+00 0. -1.
         -1   -1    0    0    0  501 -0.00000000000E+00 -0.00000000000E+00 -0.23337194960E+03  0.23337194960E+03  0.00000000000E+00 0.  1.
         25    2    1    2    0    0  0.17719393982E+03 -0.46824605562E+01 -0.16085374056E+02  0.21753827942E+03  0.12507815959E+03 0.  0.
          5    1    3    3  502    0  0.21460910174E+01  0.36633052959E+02 -0.21773048576E+00  0.36933806767E+02  0.41800000000E+01 0. -1.
         -5    1    3    3    0  502  0.17504784880E+03 -0.41315513515E+02 -0.15867643570E+02  0.18060447265E+03  0.41800000000E+01 0. -1.
        -11    1    1    2    0    0 -0.60826834275E+02  0.78349594136E+01 -0.56202689146E+02  0.83186733463E+02  0.00000000000E+00 0.  1.
         11    1    1    2    0    0 -0.11636710555E+03 -0.31524988574E+01  0.25422663231E+02  0.11915348635E+03  0.00000000000E+00 0. -1.
</event>
<event>
 7    1  0.2644565E-009  0.2282207E+03  0.7561462E-02  0.1127898E+00
          2   -1    0    0  501    0  0.00000000000E+00  0.00000000000E+00  0.13410323900E+04  0.13410323900E+04  0.00000000000E+00 0. -1.
         -2   -1    0    0    0  501 -0.00000000000E+00 -0.00000000000E+00 -0.44983403211E+02  0.44983403211E+02  0.00000000000E+00 0.  1.
         25    2    1    2    0    0 -0.64645675337E+02  0.20982738489E+03  0.69798180696E+03  0.74231589952E+03  0.12509075523E+03 0.  0.
          5    1    3    3  502    0  0.18618979595E+01  0.98199405533E+02  0.15162633859E+03  0.18070586284E+03  0.41800000000E+01 0.  1.
         -5    1    3    3    0  502 -0.66507573296E+02  0.11162797936E+03  0.54635546837E+03  0.56161003668E+03  0.41800000000E+01 0.  1.
        -11    1    1    2    0    0  0.73614253882E+02 -0.14431259344E+03  0.49859522391E+03  0.52425411806E+03  0.00000000000E+00 0.  1.
         11    1    1    2    0    0 -0.89685785449E+01 -0.65514791452E+02  0.99471955912E+02  0.11944577562E+03  0.00000000000E+00 0. -1.
</event>
<event>
 7    1  0.2644565E-009  0.1347801E+03  0.7561462E-02  0.1220530E+00
         -1   -1    0    0    0  501 -0.00000000000E+00  0.00000000000E+00  0.50037542366E+03  0.50037542366E+03  0.00000000000E+00 0.  1.
          1   -1    0    0  501    0  0.00000000000E+00 -0.00000000000E+00 -0.38867253181E+02  0.38867253181E+02  0.00000000000E+00 0. -1.
         25    2    1    2    0    0 -0.57183178130E+02 -0.67096352578E+02  0.25659870464E+03  0.29876735369E+03  0.12508876854E+03 0.  0.
          5    1    3    3  502    0 -0.96679209297E+02 -0.46158694443E+02  0.16528720251E+03  0.19701478700E+03  0.41800000000E+01 0.  1.
         -5    1    3    3    0  502  0.39496031168E+02 -0.20937658136E+02  0.91311502130E+02  0.10175256669E+03  0.41800000000E+01 0.  1.
        -11    1    1    2    0    0  0.55356971926E+02  0.52838135265E+01  0.14088556281E+03  0.15146304775E+03  0.00000000000E+00 0.  1.
         11    1    1    2    0    0  0.18262062039E+01  0.61812539052E+02  0.64023903031E+02  0.89012275403E+02  0.00000000000E+00 0. -1.
</event>
<event>
 7    1  0.2644565E-009  0.1068000E+03  0.7561462E-02  0.1266613E+00
          1   -1    0    0  501    0  0.00000000000E+00  0.00000000000E+00  0.16354006798E+03  0.16354006798E+03  0.00000000000E+00 0. -1.
         -1   -1    0    0    0  501 -0.00000000000E+00 -0.00000000000E+00 -0.10426482809E+03  0.10426482809E+03  0.00000000000E+00 0.  1.
         25    2    1    2    0    0  0.24926891818E+02 -0.66461721099E+02  0.24460173420E+02  0.14589294899E+03  0.12509173504E+03 0.  0.
          5    1    3    3  502    0  0.59971257282E+02 -0.31059708284E+02  0.55098899069E+02  0.87261780049E+02  0.41800000000E+01 0.  1.
         -5    1    3    3    0  502 -0.35044365464E+02 -0.35402012815E+02 -0.30638725649E+02  0.58631168942E+02  0.41800000000E+01 0.  1.
        -11    1    1    2    0    0 -0.44959312044E+02  0.59837566793E+02 -0.69014703413E+01  0.75163185351E+02  0.00000000000E+00 0.  1.
         11    1    1    2    0    0  0.20032420225E+02  0.66241543054E+01  0.41716536806E+02  0.46748761732E+02  0.00000000000E+00 0. -1.
</event>
<event>
 7    1  0.2644565E-009  0.1197015E+03  0.7561462E-02  0.1243590E+00
         -3   -1    0    0    0  501 -0.00000000000E+00  0.00000000000E+00  0.10148333512E+03  0.10148333512E+03  0.00000000000E+00 0.  1.
          3   -1    0    0  501    0  0.00000000000E+00 -0.00000000000E+00 -0.22658934957E+03  0.22658934957E+03  0.00000000000E+00 0. -1.
         25    2    1    2    0    0  0.82688508513E+02 -0.61970416019E+02 -0.99624669811E+02  0.19039621885E+03  0.12509166006E+03 0.  0.
          5    1    3    3  502    0  0.69642566595E+02 -0.40032256307E+02  0.69416333473E+01  0.80736158569E+02  0.41800000000E+01 0.  1.
         -5    1    3    3    0  502  0.13045941918E+02 -0.21938159712E+02 -0.10656630316E+03  0.10966006028E+03  0.41800000000E+01 0.  1.
        -11    1    1    2    0    0 -0.41683814289E+02 -0.16286771797E+02 -0.20395505125E+02  0.49181052638E+02  0.00000000000E+00 0. -1.
         11    1    1    2    0    0 -0.41004694224E+02  0.78257187816E+02 -0.50858395095E+01  0.88495413196E+02  0.00000000000E+00 0.  1.
</event>
<event>
 7    1  0.2644565E-009  0.1192152E+03  0.7561462E-02  0.1244397E+00
          1   -1    0    0  501    0  0.00000000000E+00  0.00000000000E+00  0.29427210957E+03  0.29427210957E+03  0.00000000000E+00 0. -1.
         -1   -1    0    0    0  501 -0.00000000000E+00 -0.00000000000E+00 -0.12813422162E+03  0.12813422162E+03  0.00000000000E+00 0.  1.
         25    2    1    2    0    0  0.10038194201E+03 -0.45585254508E+02  0.21347799394E+03  0.27087276393E+03  0.12507857784E+03 0.  0.
          5    1    3    3  502    0  0.28933745803E+02 -0.85647686466E+01  0.18173042767E+03  0.18426594273E+03  0.41800000000E+01 0.  1.
         -5    1    3    3    0  502  0.71448196207E+02 -0.37020485861E+02  0.31747566265E+02  0.86606821200E+02  0.41800000000E+01 0.  1.
        -11    1    1    2    0    0 -0.34512237112E+02 -0.15243873726E+02 -0.49019022134E+02  0.61857374077E+02  0.00000000000E+00 0.  1.
         11    1    1    2    0    0 -0.65869704898E+02  0.60829128234E+02  0.16789161470E+01  0.89676193187E+02  0.00000000000E+00 0. -1.
</event>
<event>
 7    1  0.2644565E-009  0.4491265E+03  0.7561462E-02  0.1027983E+00
         -1   -1    0    0    0  501 -0.00000000000E+00  0.00000000000E+00  0.40741425326E+03  0.40741425326E+03  0.00000000000E+00 0.  1.
          1   -1    0    0  501    0  0.00000000000E+00 -0.00000000000E+00 -0.54802700786E+03  0.54802700786E+03  0.00000000000E+00 0. -1.
         25    2    1    2    0    0 -0.42200055059E+03  0.12783665668E+03 -0.20273177698E+03  0.50117240557E+03  0.12508769413E+03 0.  0.
          5    1    3    3  502    0 -0.30383944940E+03  0.13641933107E+03 -0.18586031127E+03  0.38143174043E+03  0.41800000000E+01 0.  1.
         -5    1    3    3    0  502 -0.11816110119E+03 -0.85826743906E+01 -0.16871465711E+02  0.11974066515E+03  0.41800000000E+01 0.  1.
        -11    1    1    2    0    0  0.15980666850E+03 -0.84821475037E+02 -0.20383025123E+01  0.18093371328E+03  0.00000000000E+00 0.  1.
         11    1    1    2    0    0  0.26219388209E+03 -0.43015181640E+02  0.64157324897E+02  0.27333514226E+03  0.00000000000E+00 0. -1.
</event>
<event>
 7    1  0.2644565E-009  0.1998420E+03  0.7561462E-02  0.1149872E+00
          4   -1    0    0  501    0  0.00000000000E+00  0.00000000000E+00  0.10991508143E+03  0.10991508143E+03  0.00000000000E+00 0. -1.
         -4   -1    0    0    0  501 -0.00000000000E+00 -0.00000000000E+00 -0.76435616735E+03  0.76435616735E+03  0.00000000000E+00 0.  1.
         25    2    1    2    0    0  0.16217968756E+03 -0.53445837372E+02 -0.64662104258E+03  0.68038588558E+03  0.12508985570E+03 0.  0.
          5    1    3    3  502    0  0.11855218573E+03  0.25423106575E+02 -0.38242101611E+03  0.40120351575E+03  0.41800000000E+01 0. -1.
         -5    1    3    3    0  502  0.43627501826E+02 -0.78868943947E+02 -0.26420002648E+03  0.27918236983E+03  0.41800000000E+01 0. -1.
        -11    1    1    2    0    0 -0.10562003409E+03 -0.63728314020E+01  0.18581524811E+02  0.10743126940E+03  0.00000000000E+00 0. -1.
         11    1    1    2    0    0 -0.56559653468E+02  0.59818668774E+02 -0.26401568146E+02  0.86454093801E+02  0.00000000000E+00 0.  1.
</event>
<event>
 7    1  0.2644565E-009  0.9433739E+02  0.7561462E-02  0.1292675E+00
          1   -1    0    0  501    0  0.00000000000E+00  0.00000000000E+00  0.72539006883E+03  0.72539006883E+03  0.00000000000E+00 0. -1.
         -1   -1    0    0    0  501 -0.00000000000E+00 -0.00000000000E+00 -0.23862910323E+02  0.23862910323E+02  0.00000000000E+00 0.  1.
         25    2    1    2    0    0 -0.53543520081E+02 -0.49999924947E+02  0.38545633180E+03  0.41181450554E+03  0.12509077588E+03 0.  0.
          5    1    3    3  502    0 -0.40481551855E+02 -0.21749626256E+02  0.37627880707E+03  0.37909763298E+03  0.41800000000E+01 0.  1.
         -5    1    3    3    0  502 -0.13061968226E+02 -0.28250298691E+02  0.91775247364E+01  0.32716872564E+02  0.41800000000E+01 0.  1.
        -11    1    1    2    0    0 -0.17119545131E+02  0.34894632666E+02  0.61005957711E+02  0.72335614262E+02  0.00000000000E+00 0. -1.
         11    1    1    2    0    0  0.70663065213E+02  0.15105292281E+02  0.25506486899E+03  0.26510285935E+03  0.00000000000E+00 0.  1.
</event>
<event>
 7    1  0.2644565E-009  0.1642265E+03  0.7561462E-02  0.1184006E+00
         -2   -1    0    0    0  501 -0.00000000000E+00  0.00000000000E+00  0.32160117331E+03  0.32160117331E+03  0.00000000000E+00 0. -1.
          2   -1    0    0  501    0  0.00000000000E+00 -0.00000000000E+00 -0.98560712944E+02  0.98560712944E+02  0.00000000000E+00 0.  1.
         25    2    1    2    0    0  0.91296326482E+02 -0.10186907909E+03  0.77202006387E+02  0.20079917702E+03  0.12509129145E+03 0.  0.
          5    1    3    3  502    0 -0.70065538386E+01  0.16644614478E+02 -0.12680402915E+02  0.22458851393E+02  0.41800000000E+01 0.  1.
         -5    1    3    3    0  502  0.98302880321E+02 -0.11851369357E+03  0.89882409302E+02  0.17834032563E+03  0.41800000000E+01 0.  1.
        -11    1    1    2    0    0 -0.82518614031E+02  0.37020323530E+02  0.11691968704E+03  0.14781758770E+03  0.00000000000E+00 0. -1.
         11    1    1    2    0    0 -0.87777124514E+01  0.64848755561E+02  0.28918766934E+02  0.71545121530E+02  0.00000000000E+00 0.  1.
</event>
<event>
 7    1  0.2644565E-009  0.1177832E+03  0.7561462E-02  0.1246800E+00
         -2   -1    0    0    0  501 -0.00000000000E+00  0.00000000000E+00  0.44126940580E+02  0.44126940580E+02  0.00000000000E+00 0.  1.
          2   -1    0    0  501    0  0.00000000000E+00 -0.00000000000E+00 -0.52344186018E+03  0.52344186018E+03  0.00000000000E+00 0. -1.
         25    2    1    2    0    0  0.96209379740E+02 -0.20640415095E+02 -0.18328409503E+03  0.24274154459E+03  0.12509247178E+03 0.  0.
          5    1    3    3  502    0 -0.30868976931E+01  0.26596772922E+02 -0.10306012556E+03  0.10656349820E+03  0.41800000000E+01 0. -1.
         -5    1    3    3    0  502  0.99296277433E+02 -0.47237188016E+02 -0.80223969466E+02  0.13617804640E+03  0.41800000000E+01 0. -1.
        -11    1    1    2    0    0 -0.39971830830E+02  0.73672414415E+01 -0.25028223145E+02  0.47732959893E+02  0.00000000000E+00 0.  1.
         11    1    1    2    0    0 -0.56237548910E+02  0.13273173653E+02 -0.27100260143E+03  0.27709429628E+03  0.00000000000E+00 0. -1.
</event>
<event>
 7    1  0.2644565E-009  0.2150636E+03  0.7561462E-02  0.1137618E+00
          1   -1    0    0  501    0  0.00000000000E+00  0.00000000000E+00  0.61566523692E+03  0.61566523692E+03  0.00000000000E+00 0. -1.
         -1   -1    0    0    0  501 -0.00000000000E+00 -0.00000000000E+00 -0.93893689958E+02  0.93893689958E+02  0.00000000000E+00 0.  1.
         25    2    1    2    0    0  0.13676227095E+03  0.13532637495E+03  0.15945669246E+03  0.27944573166E+03  0.12508530552E+03 0.  0.
          5    1    3    3  502    0 -0.20990370318E+02  0.73650913099E+01  0.26227864201E+01  0.22785776807E+02  0.41800000000E+01 0. -1.
         -5    1    3    3    0  502  0.15775264127E+03  0.12796128364E+03  0.15683390604E+03  0.25665995485E+03  0.41800000000E+01 0. -1.
        -11    1    1    2    0    0 -0.63898611679E+02 -0.18298412063E+02  0.22857514397E+03  0.23804298120E+03  0.00000000000E+00 0. -1.
         11    1    1    2    0    0 -0.72863659275E+02 -0.11702796289E+03  0.13373971053E+03  0.19207021402E+03  0.00000000000E+00 0.  1.
</event>
<event>
 7    1  0.2644565E-009  0.1269814E+03  0.7561462E-02  0.1232005E+00
         -1   -1    0    0    0  501 -0.00000000000E+00  0.00000000000E+00  0.40309452127E+02  0.40309452127E+02  0.00000000000E+00 0.  1.
          1   -1    0    0  501    0  0.00000000000E+00 -0.00000000000E+00 -0.43550093821E+03  0.43550093821E+03  0.00000000000E+00 0. -1.
         25    2    1    2    0    0  0.74536355165E+02 -0.81607915362E+01 -0.20776094364E+03  0.25383942111E+03  0.12509026839E+03 0.  0.
          5    1    3    3  502    0  0.70448774417E+02 -0.60599406797E+02 -0.13598165035E+03  0.16475375429E+03  0.41800000000E+01 0. -1.
         -5    1    3    3    0  502  0.40875807486E+01  0.52438615261E+02 -0.71779293289E+02  0.89085666815E+02  0.41800000000E+01 0. -1.
        -11    1    1    2    0    0 -0.81365304760E+01  0.35463558190E+02 -0.24334621241E+02  0.43772604202E+02  0.00000000000E+00 0.  1.
         11    1    1    2    0    0 -0.66399824690E+02 -0.27302766654E+02 -0.16309592120E+03  0.17819836503E+03  0.00000000000E+00 0. -1.
</event>
<event>
 7    1  0.2644565E-009  0.1615669E+03  0.7561462E-02  0.1186939E+00
         -1   -1    0    0    0  501 -0.00000000000E+00  0.00000000000E+00  0.37462446310E+02  0.37462446310E+02  0.00000000000E+00 0.  1.
          1   -1    0    0  501    0  0.00000000000E+00 -0.00000000000E+00 -0.83031453956E+03  0.83031453956E+03  0.00000000000E+00 0. -1.
         25    2    1    2    0    0 -0.12888625630E+03 -0.30461746291E+02 -0.30974682826E+03  0.35934424341E+03  0.12508238328E+03 0.  0.
          5    1    3    3  502    0 -0.65607840206E+02  0.46209591189E+02 -0.11042868773E+03  0.13657116272E+03  0.41800000000E+01 0.  1.
         -5    1    3    3    0  502 -0.63278416097E+02 -0.76671337480E+02 -0.19931814053E+03  0.22277308069E+03  0.41800000000E+01 0.  1.
        -11    1    1    2    0    0  0.93915029218E+02 -0.42407566046E+01 -0.19901582382E+03  0.22010296423E+03  0.00000000000E+00 0.  1.
         11    1    1    2    0    0  0.34971227085E+02  0.34702502895E+02 -0.28408944117E+03  0.28832977823E+03  0.00000000000E+00 0. -1.
</event>
<event>
 7    1  0.2644565E-009  0.9354808E+02  0.7561462E-02  0.1294480E+00
         -1   -1    0    0    0  501 -0.00000000000E+00  0.00000000000E+00  0.81907452981E+02  0.81907452981E+02  0.00000000000E+00 0.  1.
          1   -1    0    0  501    0  0.00000000000E+00 -0.00000000000E+00 -0.17222439548E+03  0.17222439548E+03  0.00000000000E+00 0. -1.
         25    2    1    2    0    0 -0.10074598563E+02  0.27422983984E+02 -0.95403739217E+02  0.16001031119E+03  0.12509160101E+03 0.  0.
          5    1    3    3  502    0 -0.50563895911E+02 -0.11304839156E+02 -0.32529618237E+01  0.52082253395E+02  0.41800000000E+01 0. -1.
         -5    1    3    3    0  502  0.40489297348E+02  0.38727823140E+02 -0.92150777394E+02  0.10792805779E+03  0.41800000000E+01 0. -1.
        -11    1    1    2    0    0 -0.13208398474E+02  0.21224566054E+02 -0.22420004783E+02  0.33579764873E+02  0.00000000000E+00 0. -1.
         11    1    1    2    0    0  0.23282997037E+02 -0.48647550038E+02  0.27506801505E+02  0.60541772396E+02  0.00000000000E+00 0.  1.
</event>
<event>
 7    1  0.2644565E-009  0.9863226E+02  0.7561462E-02  0.1283199E+00
         -3   -1    0    0    0  501 -0.00000000000E+00  0.00000000000E+00  0.26382266722E+02  0.26382266722E+02  0.00000000000E+00 0.  1.
          3   -1    0    0  501    0  0.00000000000E+00 -0.00000000000E+00 -0.47629947394E+03  0.47629947394E+03  0.00000000000E+00 0. -1.
         25    2    1    2    0    0 -0.25889299121E+02 -0.18972121053E+01 -0.24367762646E+03  0.27513881439E+03  0.12509486931E+03 0.  0.
          5    1    3    3  502    0 -0.34162402831E+02 -0.45870765356E+02 -0.21335043672E+03  0.22092324036E+03  0.41800000000E+01 0.  1.
         -5    1    3    3    0  502  0.82731037095E+01  0.43973553251E+02 -0.30327189737E+02  0.54215574034E+02  0.41800000000E+01 0.  1.
        -11    1    1    2    0    0  0.39342073472E+02  0.39069715867E+02 -0.10266439907E+03  0.11667999091E+03  0.00000000000E+00 0.  1.
         11    1    1    2    0    0 -0.13452774351E+02 -0.37172503762E+02 -0.10357518169E+03  0.11086293536E+03  0.00000000000E+00 0. -1.
</event>
<event>
 7    1  0.2644565E-009  0.1262057E+03  0.7561462E-02  0.1233197E+00
          1   -1    0    0  501    0  0.00000000000E+00  0.00000000000E+00  0.79668589883E+02  0.79668589883E+02  0.00000000000E+00 0. -1.
         -1   -1    0    0    0  501 -0.00000000000E+00 -0.00000000000E+00 -0.25172568853E+03  0.25172568853E+03  0.00000000000E+00 0.  1.
         25    2    1    2    0    0 -0.17964483660E+02 -0.77612502916E+02 -0.14651918982E+03  0.20847396183E+03  0.12508835476E+03 0.  0.
          5    1    3    3  502    0 -0.50345214353E+02  0.11470876258E+02 -0.66915598370E+02  0.84625004081E+02  0.41800000000E+01 0.  1.
         -5    1    3    3    0  502  0.32380730694E+02 -0.89083379173E+02 -0.79603591446E+02  0.12384895775E+03  0.41800000000E+01 0.  1.
        -11    1    1    2    0    0 -0.26644922585E+02  0.35456089622E+02 -0.40152292304E+02  0.59827190876E+02  0.00000000000E+00 0.  1.
         11    1    1    2    0    0  0.44609406245E+02  0.42156413293E+02  0.14614383470E+02  0.63093125707E+02  0.00000000000E+00 0. -1.
</event>
<event>
 7    1  0.2644565E-009  0.7597889E+02  0.7561462E-02  0.1340866E+00
         -1   -1    0    0    0  501 -0.00000000000E+00  0.00000000000E+00  0.23113007371E+03  0.23113007371E+03  0.00000000000E+00 0.  1.
          1   -1    0    0  501    0  0.00000000000E+00 -0.00000000000E+00 -0.61001375943E+02  0.61001375943E+02  0.00000000000E+00 0. -1.
         25    2    1    2    0    0  0.22841176695E+02 -0.17346319143E+02  0.50435895094E+02  0.13789151165E+03  0.12509066844E+03 0.  0.
          5    1    3    3  502    0  0.26641767409E+02 -0.44069230056E+02  0.81519121775E+02  0.96512799272E+02  0.41800000000E+01 0.  1.
         -5    1    3    3    0  502 -0.38005907147E+01  0.26722910913E+02 -0.31083226680E+02  0.41378712381E+02  0.41800000000E+01 0.  1.
        -11    1    1    2    0    0 -0.11938152796E+02  0.43253341808E+02  0.17351103767E+02  0.48108542606E+02  0.00000000000E+00 0. -1.
         11    1    1    2    0    0 -0.10903023898E+02 -0.25907022665E+02  0.10234169891E+03  0.10613139540E+03  0.00000000000E+00 0.  1.
</event>
<event>
 7    1  0.2644565E-009  0.4054457E+03  0.7561462E-02  0.1041910E+00
         -2   -1    0    0    0  501 -0.00000000000E+00  0.00000000000E+00  0.31684466527E+03  0.31684466527E+03  0.00000000000E+00 0. -1.
          2   -1    0    0  501    0  0.00000000000E+00 -0.00000000000E+00 -0.54656233428E+03  0.54656233428E+03  0.00000000000E+00 0.  1.
         25    2    1    2    0    0  0.15772630894E+03 -0.37050127668E+03 -0.12283513360E+03  0.43918694749E+03  0.12509164738E+03 0.  0.
          5    1    3    3  502    0  0.56503729833E+02 -0.71878394298E+02  0.18906016602E+02  0.93456326248E+02  0.41800000000E+01 0.  1.
         -5    1    3    3    0  502  0.10122257911E+03 -0.29862288238E+03 -0.14174115021E+03  0.34573062124E+03  0.41800000000E+01 0.  1.
        -11    1    1    2    0    0 -0.30620194909E+02  0.43538525292E+02  0.10594896169E+02  0.54272012545E+02  0.00000000000E+00 0. -1.
         11    1    1    2    0    0 -0.12710611403E+03  0.32696275138E+03 -0.11747743158E+03  0.36994803952E+03  0.00000000000E+00 0.  1.
</event>
<event>
 7    1  0.2644565E-009  0.1386188E+03  0.7561462E-02  0.1215200E+00
          1   -1    0    0  501    0  0.00000000000E+00  0.00000000000E+00  0.10652858869E+04  0.10652858869E+04  0.00000000000E+00 0. -1.
         -1   -1    0    0    0  501 -0.00000000000E+00 -0.00000000000E+00 -0.25588300351E+02  0.25588300351E+02  0.00000000000E+00 0.  1.
         25    2    1    2    0    0  0.10891219279E+03 -0.49726224553E+02  0.66193282345E+03  0.68420438095E+03  0.12508400776E+03 0.  0.
          5    1    3    3  502    0  0.79446781078E+02 -0.71506802049E+02  0.26815383588E+03  0.28870220966E+03  0.41800000000E+01 0. -1.
         -5    1    3    3    0  502  0.29465411715E+02  0.21780577497E+02  0.39377898757E+03  0.39550217129E+03  0.41800000000E+01 0. -1.
        -11    1    1    2    0    0 -0.38003272960E+02 -0.11499390969E+02  0.21697898284E+03  0.22058187537E+03  0.00000000000E+00 0. -1.
         11    1    1    2    0    0 -0.70908919833E+02  0.61225615522E+02  0.16078578030E+03  0.18608793098E+03  0.00000000000E+00 0.  1.
</event>
<event>
 7    1  0.2644565E-009  0.8903059E+02  0.7561462E-02  0.1305216E+00
          2   -1    0    0  501    0  0.00000000000E+00  0.00000000000E+00  0.53836819858E+02  0.53836819858E+02  0.00000000000E+00 0. -1.
         -2   -1    0    0    0  501 -0.00000000000E+00 -0.00000000000E+00 -0.25216700709E+03  0.25216700709E+03  0.00000000000E+00 0.  1.
         25    2    1    2    0    0  0.26220037648E+02  0.27144655464E+02 -0.89946158475E+02  0.15862539834E+03  0.12508949948E+03 0.  0.
          5    1    3    3  502    0 -0.17298868920E+02 -0.14824418471E+02  0.21605363451E+02  0.31674569906E+02  0.41800000000E+01 0. -1.
         -5    1    3    3    0  502  0.43518906568E+02  0.41969073935E+02 -0.11155152193E+03  0.12695082843E+03  0.41800000000E+01 0. -1.
        -11    1    1    2    0    0  0.31942439214E+02 -0.12635104285E+02 -0.17621053617E+02  0.38606564388E+02  0.00000000000E+00 0.  1.
         11    1    1    2    0    0 -0.58162476862E+02 -0.14509551180E+02 -0.90762975143E+02  0.10877186422E+03  0.00000000000E+00 0. -1.
</event>
<event>
 7    1  0.2644565E-009  0.1292307E+03  0.7561462E-02  0.1228602E+00
         -1   -1    0    0    0  501 -0.00000000000E+00  0.00000000000E+00  0.19245491719E+02  0.19245491719E+02  0.00000000000E+00 0.  1.
          1   -1    0    0  501    0  0.00000000000E+00 -0.00000000000E+00 -0.99310616327E+03  0.99310616327E+03  0.00000000000E+00 0. -1.
         25    2    1    2    0    0  0.83413503604E+02 -0.18908428124E+02 -0.52697802125E+03  0.54832102338E+03  0.12503906816E+03 0.  0.
          5    1    3    3  502    0  0.10082038611E+03 -0.43602917221E+02 -0.47913271133E+03  0.49158070763E+03  0.41800000000E+01 0.  1.
         -5    1    3    3    0  502 -0.17406882510E+02  0.24694489097E+02 -0.47845309918E+02  0.56740315752E+02  0.41800000000E+01 0.  1.
        -11    1    1    2    0    0  0.51492182891E+01  0.28494482936E+02 -0.55063047232E+02  0.62212451947E+02  0.00000000000E+00 0.  1.
         11    1    1    2    0    0 -0.88562721893E+02 -0.95860548123E+01 -0.39181960307E+03  0.40181817966E+03  0.00000000000E+00 0. -1.
</event>
<event>
 7    1  0.2644565E-009  0.1300033E+03  0.7561462E-02  0.1227451E+00
          2   -1    0    0  501    0  0.00000000000E+00  0.00000000000E+00  0.74078159027E+03  0.74078159027E+03  0.00000000000E+00 0.  1.
         -2   -1    0    0    0  501 -0.00000000000E+00 -0.00000000000E+00 -0.28758033114E+02  0.28758033114E+02  0.00000000000E+00 0. -1.
         25    2    1    2    0    0 -0.56395761993E+02  0.62657856100E+02  0.53109102822E+03  0.55209997239E+03  0.12510080078E+03 0.  0.
          5    1    3    3  502    0  0.55184635433E+01  0.76943403935E+02  0.38592700909E+03  0.39358337058E+03  0.41800000000E+01 0.  1.
         -5    1    3    3    0  502 -0.61914225536E+02 -0.14285547835E+02  0.14516401912E+03  0.15851660181E+03  0.41800000000E+01 0.  1.
        -11    1    1    2    0    0 -0.12042165342E+02 -0.47466900805E+02  0.57861922932E+02  0.75803182938E+02  0.00000000000E+00 0. -1.
         11    1    1    2    0    0  0.68437927335E+02 -0.15190955295E+02  0.12307060600E+03  0.14163646805E+03  0.00000000000E+00 0.  1.
</event>
<event>
 7    1  0.2644565E-009  0.1655747E+03  0.7561462E-02  0.1182543E+00
          2   -1    0    0  501    0  0.00000000000E+00  0.00000000000E+00  0.39346583024E+03  0.39346583024E+03  0.00000000000E+00 0. -1.
         -2   -1    0    0    0  501 -0.00000000000E+00 -0.00000000000E+00 -0.12713091519E+03  0.12713091519E+03  0.00000000000E+00 0.  1.
         25    2    1    2    0    0  0.42869157302E+02  0.13679817176E+03 -0.15927659115E+02  0.19092701750E+03  0.12509169133E+03 0.  0.
          5    1    3    3  502    0 -0.13192718652E+02  0.83505638196E+02 -0.58159615723E+02  0.10269981858E+03  0.41800000000E+01 0. -1.
         -5    1    3    3    0  502  0.56061875954E+02  0.53292533568E+02  0.42231956608E+02  0.88227198916E+02  0.41800000000E+01 0. -1.
        -11    1    1    2    0    0  0.15859283511E+02 -0.96553523126E+02  0.18298165937E+03  0.20750033101E+03  0.00000000000E+00 0. -1.
         11    1    1    2    0    0 -0.58728440814E+02 -0.40244648638E+02  0.99280914792E+02  0.12216939693E+03  0.00000000000E+00 0.  1.
</event>
<event>
 7    1  0.2644565E-009  0.1562916E+03  0.7561462E-02  0.1192948E+00
         -3   -1    0    0    0  501 -0.00000000000E+00  0.00000000000E+00  0.16203700341E+03  0.16203700341E+03  0.00000000000E+00 0.  1.
          3   -1    0    0  501    0  0.00000000000E+00 -0.00000000000E+00 -0.20882923134E+03  0.20882923134E+03  0.00000000000E+00 0. -1.
         25    2    1    2    0    0  0.53756365162E+02  0.12005987743E+03  0.43821820471E+02  0.18674054982E+03  0.12509020758E+03 0.  0.
          5    1    3    3  502    0 -0.38531193039E+02  0.16232045770E+02  0.42165560554E+01  0.42230130142E+02  0.41800000000E+01 0. -1.
         -5    1    3    3    0  502  0.92287558200E+02  0.10382783166E+03  0.39605264416E+02  0.14451041967E+03  0.41800000000E+01 0. -1.
        -11    1    1    2    0    0 -0.30082714007E+02 -0.71173957603E+02 -0.10265918038E+03  0.12848972426E+03  0.00000000000E+00 0. -1.
         11    1    1    2    0    0 -0.23673651154E+02 -0.48885919824E+02  0.12045131972E+02  0.55635960675E+02  0.00000000000E+00 0.  1.
</event>
<event>
 7    1  0.2644565E-009  0.1446547E+03  0.7561462E-02  0.1207199E+00
          1   -1    0    0  501    0  0.00000000000E+00  0.00000000000E+00  0.63323957331E+02  0.63323957331E+02  0.00000000000E+00 0. -1.
         -1   -1    0    0    0  501 -0.00000000000E+00 -0.00000000000E+00 -0.45774500419E+03  0.45774500419E+03  0.00000000000E+00 0.  1.
         25    2    1    2    0    0  0.33328039714E+02 -0.12558103291E+03 -0.23411195010E+03  0.29552999756E+03  0.12509284640E+03 0.  0.
          5    1    3    3  502    0 -0.61013185472E+01 -0.86743868655E+02 -0.22236307119E+03  0.23879810022E+03  0.41800000000E+01 0. -1.
         -5    1    3    3    0  502  0.39429358261E+02 -0.38837164253E+02 -0.11748878900E+02  0.56731897337E+02  0.41800000000E+01 0. -1.
        -11    1    1    2    0    0 -0.50954954880E+02  0.59401711648E+02 -0.41956655899E+02  0.88799390469E+02  0.00000000000E+00 0.  1.
         11    1    1    2    0    0  0.17626915166E+02  0.66179321260E+02 -0.11835244086E+03  0.13673957349E+03  0.00000000000E+00 0. -1.
</event>
<event>
 7    1  0.2644565E-009  0.9058364E+02  0.7561462E-02  0.1301444E+00
         -1   -1    0    0    0  501 -0.00000000000E+00  0.00000000000E+00  0.32658179207E+02  0.32658179207E+02  0.00000000000E+00 0.  1.
          1   -1    0    0  501    0  0.00000000000E+00 -0.00000000000E+00 -0.38116662151E+03  0.38116662151E+03  0.00000000000E+00 0. -1.
         25    2    1    2    0    0  0.26183646669E+02 -0.15682462414E+02 -0.19366068770E+03  0.23255914000E+03  0.12509104146E+03 0.  0.
          5    1    3    3  502    0  0.29958170758E+02 -0.62154526394E+02 -0.16176150279E+03  0.17591172028E+03  0.41800000000E+01 0. -1.
         -5    1    3    3    0  502 -0.37745240887E+01  0.46472063979E+02 -0.31899184911E+02  0.56647419717E+02  0.41800000000E+01 0. -1.
        -11    1    1    2    0    0  0.50523986081E+01  0.30318109661E+02 -0.99320976955E+01  0.32301100132E+02  0.00000000000E+00 0.  1.
         11    1    1    2    0    0 -0.31236045277E+02 -0.14635647247E+02 -0.14491565691E+03  0.14896456059E+03  0.00000000000E+00 0. -1.
</event>
<event>
 7    1  0.2644565E-009  0.1344799E+03  0.7561462E-02  0.1220956E+00
          1   -1    0    0  501    0  0.00000000000E+00  0.00000000000E+00  0.33165734893E+03  0.33165734893E+03  0.00000000000E+00 0. -1.
         -1   -1    0    0    0  501 -0.00000000000E+00 -0.00000000000E+00 -0.73217988492E+02  0.73217988492E+02  0.00000000000E+00 0.  1.
         25    2    1    2    0    0 -0.52204421207E+01 -0.10447395175E+03  0.18929250592E+03  0.24983322947E+03  0.12507170000E+03 0.  0.
          5    1    3    3  502    0  0.56031578492E+02 -0.73253899414E+02  0.12667793004E+03  0.15674961540E+03  0.41800000000E+01 0. -1.
         -5    1    3    3    0  502 -0.61252020613E+02 -0.31220052335E+02  0.62614575880E+02  0.93083614077E+02  0.41800000000E+01 0. -1.
        -11    1    1    2    0    0 -0.75750465800E+01  0.10645033512E+02  0.58276247285E+02  0.59722852132E+02  0.00000000000E+00 0. -1.
         11    1    1    2    0    0  0.12795488701E+02  0.93828918236E+02  0.10870607235E+02  0.95319255820E+02  0.00000000000E+00 0.  1.
</event>
<event>
 7    1  0.2644565E-009  0.1024509E+03  0.7561462E-02  0.1275225E+00
          2   -1    0    0  501    0  0.00000000000E+00  0.00000000000E+00  0.57876058812E+02  0.57876058812E+02  0.00000000000E+00 0. -1.
         -2   -1    0    0    0  501 -0.00000000000E+00 -0.00000000000E+00 -0.32271363008E+03  0.32271363008E+03  0.00000000000E+00 0.  1.
         25    2    1    2    0    0 -0.47813460185E+01  0.49904509418E+02 -0.51992750767E+02  0.14444287614E+03  0.12508867657E+03 0.  0.
          5    1    3    3  502    0 -0.21219686465E+02  0.72751336442E+02 -0.75856033476E+02  0.10730630113E+03  0.41800000000E+01 0.  1.
         -5    1    3    3    0  502  0.16438340447E+02 -0.22846827023E+02  0.23863282710E+02  0.37136575008E+02  0.41800000000E+01 0.  1.
        -11    1    1    2    0    0 -0.34913789048E+02 -0.49841960217E+02 -0.14926064634E+03  0.16118912559E+03  0.00000000000E+00 0.  1.
         11    1    1    2    0    0  0.39695135067E+02 -0.62549201751E-01 -0.63584174165E+02  0.74957687161E+02  0.00000000000E+00 0. -1.
</event>
<event>
 7    1  0.2644565E-009  0.1465901E+03  0.7561462E-02  0.1204727E+00
         -2   -1    0    0    0  501 -0.00000000000E+00  0.00000000000E+00  0.18318162026E+02  0.18318162026E+02  0.00000000000E+00 0. -1.
          2   -1    0    0  501    0  0.00000000000E+00 -0.00000000000E+00 -0.27085504591E+04  0.27085504591E+04  0.00000000000E+00 0.  1.
         25    2    1    2    0    0  0.18720203173E+02  0.13452943919E+03 -0.22774316482E+04  0.22849051438E+04  0.12509191738E+03 0.  0.
          5    1    3    3  502    0 -0.11477363997E+02  0.46562801930E+02 -0.21285619440E+03  0.21823165743E+03  0.41800000000E+01 0.  1.
         -5    1    3    3    0  502  0.30197567170E+02  0.87966637262E+02 -0.20645754538E+04  0.20666734863E+04  0.41800000000E+01 0.  1.
        -11    1    1    2    0    0 -0.21311650788E+02 -0.43672452330E+01 -0.11362922303E+03  0.11569295405E+03  0.00000000000E+00 0.  1.
         11    1    1    2    0    0  0.25914476145E+01 -0.13016219396E+03 -0.29917142585E+03  0.32627052332E+03  0.00000000000E+00 0. -1.
</event>
<event>
 7    1  0.2644565E-009  0.1299731E+03  0.7561462E-02  0.1227496E+00
         -1   -1    0    0    0  501 -0.00000000000E+00  0.00000000000E+00  0.38498540486E+02  0.38498540486E+02  0.00000000000E+00 0.  1.
          1   -1    0    0  501    0  0.00000000000E+00 -0.00000000000E+00 -0.46778388945E+03  0.46778388945E+03  0.00000000000E+00 0. -1.
         25    2    1    2    0    0  0.12713235033E+02  0.78894785619E+02 -0.22933251329E+03  0.27317875531E+03  0.12508883707E+03 0.  0.
          5    1    3    3  502    0  0.62818890087E+02  0.15251376870E+02 -0.77217068581E+02  0.10079070160E+03  0.41800000000E+01 0. -1.
         -5    1    3    3    0  502 -0.50105655053E+02  0.63643408748E+02 -0.15211544471E+03  0.17238805372E+03  0.41800000000E+01 0. -1.
        -11    1    1    2    0    0 -0.28207343504E+01  0.17213528628E+02 -0.63882163122E+02  0.66220788845E+02  0.00000000000E+00 0. -1.
         11    1    1    2    0    0 -0.98925006829E+01 -0.96108314246E+02 -0.13607067256E+03  0.16688288578E+03  0.00000000000E+00 0.  1.
</event>
<event>
 7    1  0.2644565E-009  0.7475941E+02  0.7561462E-02  0.1344618E+00
          1   -1    0    0  501    0  0.00000000000E+00  0.00000000000E+00  0.76493915589E+02  0.76493915589E+02  0.00000000000E+00 0. -1.
         -1   -1    0    0    0  501 -0.00000000000E+00 -0.00000000000E+00 -0.19605765736E+03  0.19605765736E+03  0.00000000000E+00 0.  1.
         25    2    1    2    0    0 -0.28553885185E+02  0.17049828722E+02 -0.12033119338E+03  0.17672923315E+03  0.12509038625E+03 0.  0.
          5    1    3    3  502    0 -0.32062510926E+02 -0.10504431977E+02 -0.13893733871E+03  0.14303637365E+03  0.41800000000E+01 0. -1.
         -5    1    3    3    0  502  0.35086257404E+01  0.27554260700E+02  0.18606145334E+02  0.33692859503E+02  0.41800000000E+01 0. -1.
        -11    1    1    2    0    0  0.12673335675E+02 -0.49611238428E+02  0.19800348530E+02  0.54899382668E+02  0.00000000000E+00 0. -1.
         11    1    1    2    0    0  0.15880549510E+02  0.32561409706E+02 -0.19032896919E+02  0.40922957125E+02  0.00000000000E+00 0.  1.
</event>
<event>
 7    1  0.2727404E-009  0.1038855E+03  0.7561462E-02  0.1272331E+00
          2   -1    0    0  501    0  0.00000000000E+00  0.00000000000E+00  0.69963060287E+02  0.69963060287E+02  0.00000000000E+00 0. -1.
         -2   -1    0    0    0  501 -0.00000000000E+00 -0.00000000000E+00 -0.24501870178E+03  0.24501870178E+03  0.00000000000E+00 0.  1.
         25    2    1    2    0    0 -0.79721425942E+01  0.68835666394E+02 -0.68174699348E+02  0.15842003915E+03  0.12508882903E+03 0.  0.
          5    1    3    3  502    0  0.22239130599E+02  0.55774204408E+01  0.29828058204E+02  0.37853295825E+02  0.41800000000E+01 0.  1.
         -5    1    3    3    0  502 -0.30211273194E+02  0.63258245953E+02 -0.98002757552E+02  0.12056674333E+03  0.41800000000E+01 0.  1.
        -11    1    1    2    0    0 -0.41212294125E+02 -0.38831548882E+02 -0.48782316238E+02  0.74739927436E+02  0.00000000000E+00 0. -1.
         11    1    1    2    0    0  0.49184436719E+02 -0.30004117512E+02 -0.58098625911E+02  0.81821795481E+02  0.00000000000E+00 0.  1.
</event>
<event>
 7    1  0.2644565E-009  0.9405241E+02  0.7561462E-02  0.1293325E+00
         -1   -1    0    0    0  501 -0.00000000000E+00  0.00000000000E+00  0.34849906266E+02  0.34849906266E+02  0.00000000000E+00 0.  1.
          1   -1    0    0  501    0  0.00000000000E+00 -0.00000000000E+00 -0.49110541749E+03  0.49110541749E+03  0.00000000000E+00 0. -1.
         25    2    1    2    0    0 -0.40970085619E+01  0.79504573370E+01 -0.39833139593E+03  0.41760847876E+03  0.12509574453E+03 0.  0.
          5    1    3    3  502    0  0.67773303384E+01  0.64992526836E+02 -0.24491035962E+03  0.25351236144E+03  0.41800000000E+01 0.  1.
         -5    1    3    3    0  502 -0.10874338900E+02 -0.57042069499E+02 -0.15342103630E+03  0.16409611732E+03  0.41800000000E+01 0.  1.
        -11    1    1    2    0    0 -0.21410170879E+02  0.18035368817E+02  0.11253418655E+02  0.30171333694E+02  0.00000000000E+00 0.  1.
         11    1    1    2    0    0  0.25507179441E+02 -0.25985826154E+02 -0.69177533955E+02  0.78175511306E+02  0.00000000000E+00 0. -1.
</event>
<event>
 7    1  0.2644565E-009  0.1046480E+03  0.7561462E-02  0.1270815E+00
          1   -1    0    0  501    0  0.00000000000E+00  0.00000000000E+00  0.15386229347E+03  0.15386229347E+03  0.00000000000E+00 0. -1.
         -1   -1    0    0    0  501 -0.00000000000E+00 -0.00000000000E+00 -0.12154257164E+03  0.12154257164E+03  0.00000000000E+00 0.  1.
         25    2    1    2    0    0 -0.57450857712E+02  0.39718108589E+02 -0.29057517873E+02  0.14618439239E+03  0.12508960002E+03 0.  0.
          5    1    3    3  502    0  0.14410357043E+02  0.62684616853E+01 -0.59113650853E+02  0.61309445595E+02  0.41800000000E+01 0.  1.
         -5    1    3    3    0  502 -0.71861214756E+02  0.33449646903E+02  0.30056132980E+02  0.84874946797E+02  0.41800000000E+01 0.  1.
        -11    1    1    2    0    0 -0.24519106670E+02 -0.86742334467E+01  0.15728861228E+02  0.30394505972E+02  0.00000000000E+00 0. -1.
         11    1    1    2    0    0  0.81969964382E+02 -0.31043875142E+02  0.45648378478E+02  0.98825966741E+02  0.00000000000E+00 0.  1.
</event>
<event>
 7    1  0.2644565E-009  0.2342617E+03  0.7561462E-02  0.1123676E+00
         -2   -1    0    0    0  501 -0.00000000000E+00  0.00000000000E+00  0.11225703507E+03  0.11225703507E+03  0.00000000000E+00 0.  1.
          2   -1    0    0  501    0  0.00000000000E+00 -0.00000000000E+00 -0.82408947272E+03  0.82408947272E+03  0.00000000000E+00 0. -1.
         25    2    1    2    0    0 -0.10301623933E+03  0.20895478312E+03 -0.61210828566E+03  0.66678331128E+03  0.12509589874E+03 0.  0.
          5    1    3    3  502    0 -0.17853868954E+02  0.20870484528E+02 -0.88488962028E+01  0.29156699489E+02  0.41800000000E+01 0.  1.
         -5    1    3    3    0  502 -0.85162370377E+02  0.18808429859E+03 -0.60325938945E+03  0.63762661179E+03  0.41800000000E+01 0.  1.
        -11    1    1    2    0    0  0.93333628030E+02 -0.20131924291E+03 -0.11500019336E+03  0.24993128688E+03  0.00000000000E+00 0. -1.
         11    1    1    2    0    0  0.96826113014E+01 -0.76355402144E+01  0.15276041368E+02  0.19631909634E+02  0.00000000000E+00 0.  1.
</event>
<event>
 7    1  0.2644565E-009  0.2063838E+03  0.7561462E-02  0.1144462E+00
          1   -1    0    0  501    0  0.00000000000E+00  0.00000000000E+00  0.12043683676E+03  0.12043683676E+03  0.00000000000E+00 0. -1.
         -1   -1    0    0    0  501 -0.00000000000E+00 -0.00000000000E+00 -0.39893721496E+03  0.39893721496E+03  0.00000000000E+00 0.  1.
         25    2    1    2    0    0 -0.15659475758E+03 -0.10959361990E+03 -0.14177518678E+03  0.26885003045E+03  0.12508979038E+03 0.  0.
          5    1    3    3  502    0 -0.68674954101E+02  0.13256601456E+02 -0.15150569338E+02  0.71686811578E+02  0.41800000000E+01 0. -1.
         -5    1    3    3    0  502 -0.87919803480E+02 -0.12285022136E+03 -0.12662461745E+03  0.19716321887E+03  0.41800000000E+01 0. -1.
        -11    1    1    2    0    0  0.12678683804E+03  0.94707675046E+02 -0.14665308902E+03  0.21575813897E+03  0.00000000000E+00 0.  1.
         11    1    1    2    0    0  0.29807919538E+02  0.14885944853E+02  0.99278976048E+01  0.34765882302E+02  0.00000000000E+00 0. -1.
</event>
<event>
 6    1  0.2644565E-009  0.1184903E+03  0.7561462E-02  0.1245608E+00
          1   -1    0    0  501    0  0.00000000000E+00  0.00000000000E+00  0.39565213298E+02  0.39565213298E+02  0.00000000000E+00 0. -1.
         -1   -1    0    0    0  501 -0.00000000000E+00 -0.00000000000E+00 -0.51936970541E+03  0.51936970541E+03  0.00000000000E+00 0.  1.
          5    1    1    2  502    0 -0.28269314252E+02 -0.44806127388E+02 -0.23351720812E+03  0.23948799985E+03  0.41800000000E+01 0. -1.
         -5    1    1    2    0  502 -0.57344540008E+02  0.54518677761E+02 -0.10383163650E+03  0.13061073322E+03  0.41800000000E+01 0. -1.
        -11    1    1    2    0    0 -0.74357680489E+00  0.14811692071E+02  0.54653577680E+01  0.15805355549E+02  0.00000000000E+00 0. -1.
         11    1    1    2    0    0  0.86357431065E+02 -0.24524242445E+02 -0.14792100526E+03  0.17303083010E+03  0.00000000000E+00 0.  1.
</event>
<event>
 7    1  0.2644565E-009  0.1172546E+03  0.7561462E-02  0.1247696E+00
         -3   -1    0    0    0  501 -0.00000000000E+00  0.00000000000E+00  0.36057277056E+03  0.36057277056E+03  0.00000000000E+00 0.  1.
          3   -1    0    0  501    0  0.00000000000E+00 -0.00000000000E+00 -0.52129569451E+02  0.52129569451E+02  0.00000000000E+00 0. -1.
         25    2    1    2    0    0 -0.93335001767E+01 -0.73995614027E+02  0.22297414800E+03  0.26630101783E+03  0.12504517703E+03 0.  0.
          5    1    3    3  502    0 -0.21576430210E+02  0.23393870492E+02  0.11900080375E+03  0.12325371885E+03  0.41800000000E+01 0. -1.
         -5    1    3    3    0  502  0.12242930033E+02 -0.97389484520E+02  0.10397334426E+03  0.14304729898E+03  0.41800000000E+01 0. -1.
        -11    1    1    2    0    0  0.40677667457E+02  0.31961586079E+02  0.77771074513E+02  0.93405329855E+02  0.00000000000E+00 0.  1.
         11    1    1    2    0    0 -0.31344167281E+02  0.42034027948E+02  0.76979785923E+01  0.52995992325E+02  0.00000000000E+00 0. -1.
</event>
<event>
 7    1  0.2644565E-009  0.6764502E+02  0.7561462E-02  0.1368289E+00
          2   -1    0    0  501    0  0.00000000000E+00  0.00000000000E+00  0.15958052865E+03  0.15958052865E+03  0.00000000000E+00 0.  1.
         -2   -1    0    0    0  501 -0.00000000000E+00 -0.00000000000E+00 -0.78983540068E+02  0.78983540068E+02  0.00000000000E+00 0. -1.
         25    2    1    2    0    0  0.20434143297E+02  0.11277525345E+01  0.63383523339E+02  0.14171610727E+03  0.12508860057E+03 0.  0.
          5    1    3    3  502    0  0.41012192068E+02 -0.28243146718E+02  0.85747320820E+02  0.99245910054E+02  0.41800000000E+01 0. -1.
         -5    1    3    3    0  502 -0.20578048770E+02  0.29370899252E+02 -0.22363797481E+02  0.42470197219E+02  0.41800000000E+01 0. -1.
        -11    1    1    2    0    0 -0.34183595139E+02 -0.58401387573E+01  0.50077739077E+02  0.60913096690E+02  0.00000000000E+00 0.  1.
         11    1    1    2    0    0  0.13749451842E+02  0.47123862229E+01 -0.32864273837E+02  0.35934864752E+02  0.00000000000E+00 0. -1.
</event>
<event>
 6    1  0.2644565E-009  0.6052129E+02  0.7561462E-02  0.1395657E+00
         -2   -1    0    0    0  501 -0.00000000000E+00  0.00000000000E+00  0.56562063421E+02  0.56562063421E+02  0.00000000000E+00 0.  1.
          2   -1    0    0  501    0  0.00000000000E+00 -0.00000000000E+00 -0.24401954601E+03  0.24401954601E+03  0.00000000000E+00 0. -1.
          5    1    1    2  502    0  0.59978702274E+01 -0.44271636644E+01  0.22963285286E+02  0.24502226358E+02  0.41800000000E+01 0. -1.
         -5    1    1    2    0  502 -0.48206193653E+02  0.92291075091E+01 -0.14966541648E+03  0.15756339303E+03  0.41800000000E+01 0. -1.
        -11    1    1    2    0    0 -0.78776572131E+01 -0.10169449432E+02 -0.66576620153E+02  0.67807975459E+02  0.00000000000E+00 0. -1.
         11    1    1    2    0    0  0.50085980639E+02  0.53675055869E+01  0.58212687634E+01  0.50708014581E+02  0.00000000000E+00 0.  1.
</event>
<event>
 7    1  0.2644565E-009  0.1221357E+03  0.7561462E-02  0.1239615E+00
          1   -1    0    0  501    0  0.00000000000E+00  0.00000000000E+00  0.28812923787E+03  0.28812923787E+03  0.00000000000E+00 0. -1.
         -1   -1    0    0    0  501 -0.00000000000E+00 -0.00000000000E+00 -0.53244375996E+02  0.53244375996E+02  0.00000000000E+00 0.  1.
         25    2    1    2    0    0 -0.58078860535E+02  0.14899585806E+02  0.12759781198E+03  0.18847899783E+03  0.12509188344E+03 0.  0.
          5    1    3    3  502    0 -0.77316131774E+02  0.52874216749E+02  0.71382198090E+02  0.11784039050E+03  0.41800000000E+01 0.  1.
         -5    1    3    3    0  502  0.19237271239E+02 -0.37974630943E+02  0.56215613890E+02  0.70638607326E+02  0.41800000000E+01 0.  1.
        -11    1    1    2    0    0  0.75793371128E+02 -0.32770540302E+02  0.91201958139E+02  0.12302983617E+03  0.00000000000E+00 0. -1.
         11    1    1    2    0    0 -0.17714510593E+02  0.17870954496E+02  0.16085091757E+02  0.29864779875E+02  0.00000000000E+00 0.  1.
</event>
<event>
 7    1  0.2644565E-009  0.1114650E+03  0.7561462E-02  0.1257881E+00
         -2   -1    0    0    0  501 -0.00000000000E+00  0.00000000000E+00  0.51737178297E+02  0.51737178297E+02  0.00000000000E+00 0.  1.
          2   -1    0    0  501    0  0.00000000000E+00 -0.00000000000E+00 -0.34550304371E+03  0.34550304371E+03  0.00000000000E+00 0. -1.
         25    2    1    2    0    0  0.24679562655E+02 -0.54509711735E+02 -0.87670369692E+02  0.16405562730E+03  0.12509102942E+03 0.  0.
          5    1    3    3  502    0 -0.32720220862E+02 -0.49584158113E+02 -0.88041867782E+02  0.10629225970E+03  0.41800000000E+01 0.  1.
         -5    1    3    3    0  502  0.57399783516E+02 -0.49255536220E+01  0.37149808998E+00  0.57763367605E+02  0.41800000000E+01 0.  1.
        -11    1    1    2    0    0 -0.16292418152E+02  0.78513919534E+02 -0.12789137733E+03  0.15095059737E+03  0.00000000000E+00 0.  1.
         11    1    1    2    0    0 -0.83871445030E+01 -0.24004207799E+02 -0.78204118384E+02  0.82233997332E+02  0.00000000000E+00 0. -1.
</event>
<event>
 7    1  0.2793417E-009  0.1022031E+03  0.7561462E-02  0.1275730E+00
         -1   -1    0    0    0  501 -0.00000000000E+00  0.00000000000E+00  0.25979733774E+02  0.25979733774E+02  0.00000000000E+00 0.  1.
          1   -1    0    0  501    0  0.00000000000E+00 -0.00000000000E+00 -0.81081584400E+03  0.81081584400E+03  0.00000000000E+00 0. -1.
         25    2    1    2    0    0  0.64414936047E+02  0.36729500065E+01 -0.63417289023E+03  0.64960507146E+03  0.12509484249E+03 0.  0.
          5    1    3    3  502    0  0.20757919669E+02 -0.59132079327E+02 -0.24177606804E+03  0.24980118797E+03  0.41800000000E+01 0. -1.
         -5    1    3    3    0  502  0.43657016378E+02  0.62805029334E+02 -0.39239682220E+03  0.39980388350E+03  0.41800000000E+01 0. -1.
        -11    1    1    2    0    0 -0.52421681436E+02  0.10187574287E+00 -0.16199410558E+03  0.17026489159E+03  0.00000000000E+00 0. -1.
         11    1    1    2    0    0 -0.11993254610E+02 -0.37748257494E+01  0.11330885589E+02  0.16925614725E+02  0.00000000000E+00 0.  1.
</event>
<event>
 7    1  0.2644565E-009  0.8845793E+02  0.7561462E-02  0.1306630E+00
         -2   -1    0    0    0  501 -0.00000000000E+00  0.00000000000E+00  0.38025651427E+02  0.38025651427E+02  0.00000000000E+00 0.  1.
          2   -1    0    0  501    0  0.00000000000E+00 -0.00000000000E+00 -0.41426285106E+03  0.41426285106E+03  0.00000000000E+00 0. -1.
         25    2    1    2    0    0 -0.43437130984E+02  0.39063883930E+02 -0.25715259658E+03  0.29187201820E+03  0.12509614585E+03 0.  0.
          5    1    3    3  502    0 -0.16940916391E+02 -0.19392340811E+02  0.72279758856E+00  0.26096980029E+02  0.41800000000E+01 0.  1.
         -5    1    3    3    0  502 -0.26496214593E+02  0.58456224741E+02 -0.25787539416E+03  0.26577503817E+03  0.41800000000E+01 0.  1.
        -11    1    1    2    0    0  0.86061254491E+01  0.17832611445E+02  0.41986814415E+01  0.20240957290E+02  0.00000000000E+00 0.  1.
         11    1    1    2    0    0  0.34831005535E+02 -0.56896495374E+02 -0.12328328450E+03  0.14017552700E+03  0.00000000000E+00 0. -1.
</event>
<event>
 7    1  0.2644565E-009  0.9625422E+02  0.7561462E-02  0.1288376E+00
         -1   -1    0    0    0  501 -0.00000000000E+00  0.00000000000E+00  0.70173260305E+02  0.70173260305E+02  0.00000000000E+00 0.  1.
          1   -1    0    0  501    0  0.00000000000E+00 -0.00000000000E+00 -0.19200846377E+03  0.19200846377E+03  0.00000000000E+00 0. -1.
         25    2    1    2    0    0 -0.41578197060E+01  0.46736658601E+02 -0.69653874943E+02  0.15067766722E+03  0.12510193597E+03 0.  0.
          5    1    3    3  502    0  0.33820147545E+02  0.71048788914E+02 -0.15894122867E+02  0.80385498243E+02  0.41800000000E+01 0. -1.
         -5    1    3    3    0  502 -0.37977967251E+02 -0.24312130313E+02 -0.53759752076E+02  0.70292168982E+02  0.41800000000E+01 0. -1.
        -11    1    1    2    0    0 -0.65377396758E+01 -0.54699660290E+02  0.25734224586E+01  0.55149046946E+02  0.00000000000E+00 0.  1.
         11    1    1    2    0    0  0.10695559382E+02  0.79630016887E+01 -0.54754750976E+02  0.56355009900E+02  0.00000000000E+00 0. -1.
</event>
<event>
 7    1  0.2644565E-009  0.9905047E+02  0.7561462E-02  0.1282305E+00
         -2   -1    0    0    0  501 -0.00000000000E+00  0.00000000000E+00  0.49542401721E+02  0.49542401721E+02  0.00000000000E+00 0.  1.
          2   -1    0    0  501    0  0.00000000000E+00 -0.00000000000E+00 -0.45668855031E+03  0.45668855031E+03  0.00000000000E+00 0. -1.
         25    2    1    2    0    0 -0.81012472450E+02  0.77686266642E+01 -0.11048743004E+03  0.18568337619E+03  0.12508985469E+03 0.  0.
          5    1    3    3  502    0 -0.56985664151E+02  0.87870060238E+00  0.13841501591E+02  0.58797938737E+02  0.41800000000E+01 0. -1.
         -5    1    3    3    0  502 -0.24026808300E+02  0.68899260618E+01 -0.12432893163E+03  0.12688543746E+03  0.41800000000E+01 0. -1.
        -11    1    1    2    0    0  0.72345883645E+02 -0.39702573763E+02 -0.16107367228E+03  0.18098328416E+03  0.00000000000E+00 0.  1.
         11    1    1    2    0    0  0.86665888048E+01  0.31933947099E+02 -0.13558504627E+03  0.13956429168E+03  0.00000000000E+00 0. -1.
</event>
<event>
 7    1  0.2644565E-009  0.1048887E+03  0.7561462E-02  0.1270339E+00
          2   -1    0    0  501    0  0.00000000000E+00  0.00000000000E+00  0.63285037942E+02  0.63285037942E+02  0.00000000000E+00 0. -1.
         -2   -1    0    0    0  501 -0.00000000000E+00 -0.00000000000E+00 -0.22170704558E+03  0.22170704558E+03  0.00000000000E+00 0.  1.
         25    2    1    2    0    0  0.21686103541E+01 -0.46066958437E+02 -0.81220211353E+02  0.15611148426E+03  0.12508878949E+03 0.  0.
          5    1    3    3  502    0  0.43581606150E+02  0.13564692942E+02 -0.68295397248E+02  0.82250173097E+02  0.41800000000E+01 0.  1.
         -5    1    3    3    0  502 -0.41412995795E+02 -0.59631651380E+02 -0.12924814104E+02  0.73861311163E+02  0.41800000000E+01 0.  1.
        -11    1    1    2    0    0  0.75641902046E+01  0.67373373290E+02 -0.26065655035E+02  0.72634749083E+02  0.00000000000E+00 0. -1.
         11    1    1    2    0    0 -0.97328005587E+01 -0.21306414852E+02 -0.51136141251E+02  0.56245850182E+02  0.00000000000E+00 0.  1.
</event>
<event>
 7    1  0.2644565E-009  0.1660214E+03  0.7561462E-02  0.1182062E+00
         -2   -1    0    0    0  501 -0.00000000000E+00  0.00000000000E+00  0.40128160333E+02  0.40128160333E+02  0.00000000000E+00 0.  1.
          2   -1    0    0  501    0  0.00000000000E+00 -0.00000000000E+00 -0.14361079513E+04  0.14361079513E+04  0.00000000000E+00 0. -1.
         25    2    1    2    0    0  0.12948571118E+03  0.50042610605E+02 -0.12209265122E+04  0.12351442922E+04  0.12509621083E+03 0.  0.
          5    1    3    3  502    0 -0.11653443902E+02 -0.23528550803E+02 -0.13330301802E+03  0.13592851972E+03  0.41800000000E+01 0.  1.
         -5    1    3    3    0  502  0.14113915508E+03  0.73571161408E+02 -0.10876234942E+04  0.10992157724E+04  0.41800000000E+01 0.  1.
        -11    1    1    2    0    0 -0.77600349105E+02 -0.53471211622E+02 -0.52298781319E+02  0.10777823148E+03  0.00000000000E+00 0.  1.
         11    1    1    2    0    0 -0.51885362078E+02  0.34286010167E+01 -0.12275449748E+03  0.13331358803E+03  0.00000000000E+00 0. -1.
</event>
<event>
 7    1  0.2644565E-009  0.6376366E+02  0.7561462E-02  0.1382683E+00
         -2   -1    0    0    0  501 -0.00000000000E+00  0.00000000000E+00  0.60282734903E+02  0.60282734903E+02  0.00000000000E+00 0. -1.
          2   -1    0    0  501    0  0.00000000000E+00 -0.00000000000E+00 -0.27241845970E+03  0.27241845970E+03  0.00000000000E+00 0.  1.
         25    2    1    2    0    0 -0.46455977850E+02  0.15830573889E+02 -0.18289870331E+03  0.22695407424E+03  0.12508977254E+03 0.  0.
          5    1    3    3  502    0 -0.59625421649E+02  0.52239039338E+01 -0.19611574854E+03  0.20508861330E+03  0.41800000000E+01 0.  1.
         -5    1    3    3    0  502  0.13169443799E+02  0.10606669955E+02  0.13217045230E+02  0.21865460940E+02  0.41800000000E+01 0.  1.
        -11    1    1    2    0    0  0.18034164138E+02 -0.10276528159E+01 -0.59188510448E+02  0.61883494694E+02  0.00000000000E+00 0.  1.
         11    1    1    2    0    0  0.28421813712E+02 -0.14802921073E+02  0.29951488955E+02  0.43863625677E+02  0.00000000000E+00 0. -1.
</event>
<event>
 7    1  0.2644565E-009  0.1997182E+03  0.7561462E-02  0.1149977E+00
          2   -1    0    0  501    0  0.00000000000E+00  0.00000000000E+00  0.24096193665E+04  0.24096193665E+04  0.00000000000E+00 0. -1.
         -2   -1    0    0    0  501 -0.00000000000E+00 -0.00000000000E+00 -0.23833312296E+02  0.23833312296E+02  0.00000000000E+00 0.  1.
         25    2    1    2    0    0  0.15932608131E+03  0.80791139799E+02  0.18163745045E+04  0.18294195396E+04  0.12508997984E+03 0.  0.
          5    1    3    3  502    0 -0.11583159654E+02  0.31668072511E+02  0.48908536434E+03  0.49026421694E+03  0.41800000000E+01 0. -1.
         -5    1    3    3    0  502  0.17090924096E+03  0.49123067288E+02  0.13272891401E+04  0.13391553227E+04  0.41800000000E+01 0. -1.
        -11    1    1    2    0    0 -0.67644412931E+02 -0.36162024408E+01  0.32298148545E+03  0.33000891422E+03  0.00000000000E+00 0.  1.
         11    1    1    2    0    0 -0.91681668377E+02 -0.77174937358E+02  0.24643006430E+03  0.27402422496E+03  0.00000000000E+00 0. -1.
</event>
<event>
 7    1  0.2644565E-009  0.9865481E+02  0.7561462E-02  0.1283150E+00
          3   -1    0    0  501    0  0.00000000000E+00  0.00000000000E+00  0.22190787599E+03  0.22190787599E+03  0.00000000000E+00 0. -1.
         -3   -1    0    0    0  501 -0.00000000000E+00 -0.00000000000E+00 -0.63055905248E+02  0.63055905248E+02  0.00000000000E+00 0.  1.
         25    2    1    2    0    0  0.15571195671E+02 -0.13318542786E+02  0.31373256251E+02  0.13057502798E+03  0.12508281660E+03 0.  0.
          5    1    3    3  502    0  0.65778792392E+02 -0.25926313607E+02  0.34017657535E+02  0.78572875027E+02  0.41800000000E+01 0.  1.
         -5    1    3    3    0  502 -0.50207596721E+02  0.12607770822E+02 -0.26444012843E+01  0.52002152953E+02  0.41800000000E+01 0.  1.
        -11    1    1    2    0    0  0.28855698422E+02  0.67864258206E+01  0.14883741089E+02  0.33169755134E+02  0.00000000000E+00 0.  1.
         11    1    1    2    0    0 -0.44426894092E+02  0.65321169652E+01  0.11259497341E+03  0.12121899813E+03  0.00000000000E+00 0. -1.
</event>
<event>
 7    1  0.2644565E-009  0.5209322E+02  0.7561462E-02  0.1434368E+00
          1   -1    0    0  501    0  0.00000000000E+00  0.00000000000E+00  0.24716091961E+03  0.24716091961E+03  0.00000000000E+00 0. -1.
         -1   -1    0    0    0  501 -0.00000000000E+00 -0.00000000000E+00 -0.55211156562E+02  0.55211156562E+02  0.00000000000E+00 0.  1.
         25    2    1    2    0    0 -0.65539978930E+01  0.37129249279E+02  0.13038739423E+03  0.18457139603E+03  0.12507674292E+03 0.  0.
          5    1    3    3  502    0  0.19393035300E+02  0.16785551088E+01  0.13831008537E+03  0.13973567719E+03  0.41800000000E+01 0. -1.
         -5    1    3    3    0  502 -0.25947033193E+02  0.35450694170E+02 -0.79226911435E+01  0.44835718837E+02  0.41800000000E+01 0. -1.
        -11    1    1    2    0    0 -0.27888472363E+01 -0.23246481103E+02 -0.22270906308E+02  0.32313616640E+02  0.00000000000E+00 0.  1.
         11    1    1    2    0    0  0.93428451293E+01 -0.13882768175E+02  0.83833275134E+02  0.85487063506E+02  0.00000000000E+00 0. -1.
</event>
<event>
 7    1  0.2644565E-009  0.1037606E+03  0.7561462E-02  0.1272581E+00
          2   -1    0    0  501    0  0.00000000000E+00  0.00000000000E+00  0.12215967000E+03  0.12215967000E+03  0.00000000000E+00 0. -1.
         -2   -1    0    0    0  501 -0.00000000000E+00 -0.00000000000E+00 -0.15902967544E+03  0.15902967544E+03  0.00000000000E+00 0.  1.
         25    2    1    2    0    0  0.36404593414E+02  0.12195115798E+02 -0.10000329967E+03  0.16467455248E+03  0.12507211127E+03 0.  0.
          5    1    3    3  502    0  0.45795358992E+02 -0.42151739182E+02 -0.88344072341E+02  0.10814865482E+03  0.41800000000E+01 0.  1.
         -5    1    3    3    0  502 -0.93907655787E+01  0.54346854980E+02 -0.11659227329E+02  0.56525897660E+02  0.41800000000E+01 0.  1.
        -11    1    1    2    0    0 -0.50080300536E+02  0.20711443567E+02  0.59831829048E+02  0.80726997737E+02  0.00000000000E+00 0. -1.
         11    1    1    2    0    0  0.13675707122E+02 -0.32906559366E+02  0.33014651900E+01  0.35787795224E+02  0.00000000000E+00 0.  1.
</event>
<event>
 7    1  0.2644565E-009  0.1083235E+03  0.7561462E-02  0.1263706E+00
          1   -1    0    0  501    0  0.00000000000E+00  0.00000000000E+00  0.32010826702E+03  0.32010826702E+03  0.00000000000E+00 0. -1.
         -1   -1    0    0    0  501 -0.00000000000E+00 -0.00000000000E+00 -0.43162277654E+02  0.43162277654E+02  0.00000000000E+00 0.  1.
         25    2    1    2    0    0 -0.42985212498E+02 -0.77307386560E+01  0.14878217894E+03  0.19922954351E+03  0.12509508952E+03 0.  0.
          5    1    3    3  502    0 -0.86352972928E+02  0.24087769541E+00  0.11306325185E+03  0.14232942518E+03  0.41800000000E+01 0. -1.
         -5    1    3    3    0  502  0.43367760430E+02 -0.79716163514E+01  0.35718927097E+02  0.56900118321E+02  0.41800000000E+01 0. -1.
        -11    1    1    2    0    0  0.51102204522E+02 -0.21590880791E+02  0.33958115965E+02  0.65044254783E+02  0.00000000000E+00 0.  1.
         11    1    1    2    0    0 -0.81169920243E+01  0.29321619447E+02  0.94205694463E+02  0.98996746390E+02  0.00000000000E+00 0. -1.
</event>
<event>
 7    1  0.3285881E-009  0.1903530E+03  0.7561462E-02  0.1158143E+00
         -2   -1    0    0    0  501 -0.00000000000E+00  0.00000000000E+00  0.11390523911E+03  0.11390523911E+03  0.00000000000E+00 0.  1.
          2   -1    0    0  501    0  0.00000000000E+00 -0.00000000000E+00 -0.53304384432E+03  0.53304384432E+03  0.00000000000E+00 0. -1.
         25    2    1    2    0    0 -0.86116473481E+02 -0.16270091740E+03 -0.37584802642E+03  0.43680224439E+03  0.12508727441E+03 0.  0.
          5    1    3    3  502    0 -0.39493023697E+02 -0.11601547075E+03 -0.34034327514E+03  0.36176001120E+03  0.41800000000E+01 0.  1.
         -5    1    3    3    0  502 -0.46623449784E+02 -0.46685446655E+02 -0.35504751279E+02  0.75042233192E+02  0.41800000000E+01 0.  1.
        -11    1    1    2    0    0  0.55823519147E+02  0.48920125887E+02  0.19447411590E+02  0.76730996503E+02  0.00000000000E+00 0.  1.
         11    1    1    2    0    0  0.30292954334E+02  0.11378079152E+03 -0.62737990382E+02  0.13341584253E+03  0.00000000000E+00 0. -1.
</event>
<event>
 7    1  0.2644565E-009  0.1885985E+03  0.7561462E-02  0.1159731E+00
          2   -1    0    0  501    0  0.00000000000E+00  0.00000000000E+00  0.15022673419E+04  0.15022673419E+04  0.00000000000E+00 0. -1.
         -2   -1    0    0    0  501 -0.00000000000E+00 -0.00000000000E+00 -0.25578366576E+02  0.25578366576E+02  0.00000000000E+00 0.  1.
         25    2    1    2    0    0  0.63636183393E+02 -0.14271136484E+03  0.93652289918E+03  0.95767436381E+03  0.12509575903E+03 0.  0.
          5    1    3    3  502    0 -0.20926268847E+02  0.84115077106E+01  0.60786579440E+02  0.64970322685E+02  0.41800000000E+01 0. -1.
         -5    1    3    3    0  502  0.84562452239E+02 -0.15112287256E+03  0.87573631974E+03  0.89270404113E+03  0.41800000000E+01 0. -1.
        -11    1    1    2    0    0  0.72515575777E+01  0.95704282370E+02  0.32240767526E+03  0.33639055251E+03  0.00000000000E+00 0.  1.
         11    1    1    2    0    0 -0.70887740971E+02  0.47007082475E+02  0.21775840086E+03  0.23378079213E+03  0.00000000000E+00 0. -1.
</event>
<event>
 7    1  0.2644565E-009  0.6080709E+02  0.7561462E-02  0.1394476E+00
         -2   -1    0    0    0  501 -0.00000000000E+00  0.00000000000E+00  0.75607705897E+02  0.75607705897E+02  0.00000000000E+00 0.  1.
          2   -1    0    0  501    0  0.00000000000E+00 -0.00000000000E+00 -0.23415504118E+03  0.23415504118E+03  0.00000000000E+00 0. -1.
         25    2    1    2    0    0 -0.36674949209E+02 -0.28909910942E+02 -0.15988491488E+03  0.20830738709E+03  0.12509175296E+03 0.  0.
          5    1    3    3  502    0 -0.34169514512E+02 -0.16010185810E+02 -0.17997742812E+03  0.18393811135E+03  0.41800000000E+01 0.  1.
         -5    1    3    3    0  502 -0.25054346963E+01 -0.12899725132E+02  0.20092513245E+02  0.24369275738E+02  0.41800000000E+01 0.  1.
        -11    1    1    2    0    0  0.16633671442E+02  0.42503870733E+02  0.36719455689E+02  0.58579659260E+02  0.00000000000E+00 0.  1.
         11    1    1    2    0    0  0.20041277767E+02 -0.13593959791E+02 -0.35381876096E+02  0.42875700734E+02  0.00000000000E+00 0. -1.
</event>
<event>
 7    1  0.2644565E-009  0.4143553E+02  0.7561462E-02  0.1497906E+00
         -2   -1    0    0    0  501 -0.00000000000E+00  0.00000000000E+00  0.49182008506E+02  0.49182008506E+02  0.00000000000E+00 0.  1.
          2   -1    0    0  501    0  0.00000000000E+00 -0.00000000000E+00 -0.29483700618E+03  0.29483700618E+03  0.00000000000E+00 0. -1.
         25    2    1    2    0    0 -0.14987987296E+02  0.26576282019E+02 -0.19749622416E+03  0.23576042644E+03  0.12508909460E+03 0.  0.
          5    1    3    3  502    0 -0.23914034689E+02  0.13241316065E+02  0.86299857450E+01  0.28968302681E+02  0.41800000000E+01 0.  1.
         -5    1    3    3    0  502  0.89260473930E+01  0.13334965954E+02 -0.20612620990E+03  0.20679212375E+03  0.41800000000E+01 0.  1.
        -11    1    1    2    0    0  0.16059164470E+02 -0.46990979496E+01 -0.73143021472E+02  0.75032525447E+02  0.00000000000E+00 0. -1.
         11    1    1    2    0    0 -0.10711771733E+01 -0.21877184069E+02  0.24984247955E+02  0.33226062801E+02  0.00000000000E+00 0.  1.
</event>
<event>
 7    1  0.2644565E-009  0.1220299E+03  0.7561462E-02  0.1239785E+00
         -3   -1    0    0    0  501 -0.00000000000E+00  0.00000000000E+00  0.47923223274E+02  0.47923223274E+02  0.00000000000E+00 0.  1.
          3   -1    0    0  501    0  0.00000000000E+00 -0.00000000000E+00 -0.39119719448E+03  0.39119719448E+03  0.00000000000E+00 0. -1.
         25    2    1    2    0    0 -0.38753348389E+02 -0.71965217493E+02 -0.22454771801E+03  0.26972060423E+03  0.12508681842E+03 0.  0.
          5    1    3    3  502    0 -0.74204937519E+02 -0.28713102483E+02 -0.72742180262E+02  0.10788749787E+03  0.41800000000E+01 0.  1.
         -5    1    3    3    0  502  0.35451589130E+02 -0.43252115009E+02 -0.15180553775E+03  0.16183310636E+03  0.41800000000E+01 0.  1.
        -11    1    1    2    0    0 -0.19918452649E+02  0.78910739517E+01 -0.62111176559E+02  0.65702450925E+02  0.00000000000E+00 0. -1.
         11    1    1    2    0    0  0.58671801037E+02  0.64074143541E+02 -0.56615076637E+02  0.10369736260E+03  0.00000000000E+00 0.  1.
</event>
<event>
 7    1  0.2644565E-009  0.8665988E+02  0.7561462E-02  0.1311148E+00
          1   -1    0    0  501    0  0.00000000000E+00  0.00000000000E+00  0.20850756149E+03  0.20850756149E+03  0.00000000000E+00 0. -1.
         -1   -1    0    0    0  501 -0.00000000000E+00 -0.00000000000E+00 -0.71825750672E+02  0.71825750672E+02  0.00000000000E+00 0.  1.
         25    2    1    2    0    0  0.11632792252E+01 -0.34376813551E+02  0.25198931159E+02  0.13216080233E+03  0.12509345711E+03 0.  0.
          5    1    3    3  502    0 -0.58683972614E+02 -0.30086230358E+02  0.28412659505E+02  0.71928725270E+02  0.41800000000E+01 0.  1.
         -5    1    3    3    0  502  0.59847251839E+02 -0.42905831930E+01 -0.32137283465E+01  0.60232077058E+02  0.41800000000E+01 0.  1.
        -11    1    1    2    0    0  0.12382398819E+02  0.30632678286E+02  0.12462555822E+03  0.12893104569E+03  0.00000000000E+00 0. -1.
         11    1    1    2    0    0 -0.13545678044E+02  0.37441352646E+01 -0.13142678566E+02  0.19241464145E+02  0.00000000000E+00 0.  1.
</event>
<event>
 7    1  0.2778160E-009  0.1060070E+03  0.7561462E-02  0.1268148E+00
          2   -1    0    0  501    0  0.00000000000E+00  0.00000000000E+00  0.14686783443E+04  0.14686783443E+04  0.00000000000E+00 0. -1.
         -2   -1    0    0    0  501 -0.00000000000E+00 -0.00000000000E+00 -0.11093386153E+02  0.11093386153E+02  0.00000000000E+00 0.  1.
         25    2    1    2    0    0 -0.15956426591E+02  0.28255319518E+02  0.11522560063E+04  0.11594801417E+04  0.12508926595E+03 0.  0.
          5    1    3    3  502    0  0.19493854251E+02 -0.44002224787E+02  0.47251259903E+03  0.47497561493E+03  0.41800000000E+01 0.  1.
         -5    1    3    3    0  502 -0.35450280841E+02  0.72257544306E+02  0.67974340723E+03  0.68450452679E+03  0.41800000000E+01 0.  1.
        -11    1    1    2    0    0 -0.22846115336E+02 -0.36860892376E+02  0.75645716333E+02  0.87194866662E+02  0.00000000000E+00 0.  1.
         11    1    1    2    0    0  0.38802541927E+02  0.86055728575E+01  0.22968323554E+03  0.23309672205E+03  0.00000000000E+00 0. -1.
</event>
<event>
 7    1  0.2644565E-009  0.2016525E+03  0.7561462E-02  0.1148352E+00
          2   -1    0    0  501    0  0.00000000000E+00  0.00000000000E+00  0.20955633806E+03  0.20955633806E+03  0.00000000000E+00 0.  1.
         -2   -1    0    0    0  501 -0.00000000000E+00 -0.00000000000E+00 -0.27335510254E+03  0.27335510254E+03  0.00000000000E+00 0. -1.
         25    2    1    2    0    0  0.17953232970E+03 -0.17053246790E+02  0.78355133713E+02  0.23304261248E+03  0.12508661647E+03 0.  0.
          5    1    3    3  502    0 -0.85530685544E+01  0.24223575266E+02  0.16192490991E+02  0.30652989167E+02  0.41800000000E+01 0.  1.
         -5    1    3    3    0  502  0.18808539826E+03 -0.41276822056E+02  0.62162642722E+02  0.20238962332E+03  0.41800000000E+01 0.  1.
        -11    1    1    2    0    0 -0.13740763365E+03  0.29915546442E+02 -0.52731582277E+02  0.15018794050E+03  0.00000000000E+00 0.  1.
         11    1    1    2    0    0 -0.42124696055E+02 -0.12862299651E+02 -0.89422315916E+02  0.99680887605E+02  0.00000000000E+00 0. -1.
</event>
<event>
 7    1  0.2644565E-009  0.1902977E+03  0.7561462E-02  0.1158193E+00
          3   -1    0    0  501    0  0.00000000000E+00  0.00000000000E+00  0.49113693630E+02  0.49113693630E+02  0.00000000000E+00 0. -1.
         -3   -1    0    0    0  501 -0.00000000000E+00 -0.00000000000E+00 -0.10749873340E+04  0.10749873340E+04  0.00000000000E+00 0.  1.
         25    2    1    2    0    0  0.30123931576E+02  0.16110509679E+03 -0.24219620107E+03  0.31807097783E+03  0.12509134127E+03 0.  0.
          5    1    3    3  502    0  0.38638993729E+02  0.57416654430E+01 -0.99234224571E+02  0.10672788897E+03  0.41800000000E+01 0.  1.
         -5    1    3    3    0  502 -0.85150621533E+01  0.15536343135E+03 -0.14296197650E+03  0.21134308886E+03  0.41800000000E+01 0.  1.
        -11    1    1    2    0    0 -0.60384198216E+02 -0.12277823515E+03 -0.51025290689E+03  0.52827906963E+03  0.00000000000E+00 0. -1.
         11    1    1    2    0    0  0.30260266639E+02 -0.38326861645E+02 -0.27342453239E+03  0.27775098014E+03  0.00000000000E+00 0.  1.
</event>
<event>
 7    1  0.2644565E-009  0.1522830E+03  0.7561462E-02  0.1197695E+00
          2   -1    0    0  501    0  0.00000000000E+00  0.00000000000E+00  0.17112297655E+04  0.17112297655E+04  0.00000000000E+00 0. -1.
         -2   -1    0    0    0  501 -0.00000000000E+00 -0.00000000000E+00 -0.18206585094E+02  0.18206585094E+02  0.00000000000E+00 0.  1.
         25    2    1    2    0    0 -0.95266921129E+01 -0.11004775655E+03  0.13159886931E+04  0.13265274887E+04  0.12509065298E+03 0.  0.
          5    1    3    3  502    0 -0.44436974363E+02  0.54372818923E+01  0.43213488609E+03  0.43446776739E+03  0.41800000000E+01 0.  1.
         -5    1    3    3    0  502  0.34910282250E+02 -0.11548503844E+03  0.88385380699E+03  0.89205972135E+03  0.41800000000E+01 0.  1.
        -11    1    1    2    0    0  0.35944710586E+02  0.12869630449E+02  0.14542166149E+03  0.15034995589E+03  0.00000000000E+00 0. -1.
         11    1    1    2    0    0 -0.26418018473E+02  0.97178126098E+02  0.23161282584E+03  0.25255890597E+03  0.00000000000E+00 0.  1.
</event>
<event>
 7    1  0.2644565E-009  0.1225745E+03  0.7561462E-02  0.1238909E+00
          1   -1    0    0  501    0  0.00000000000E+00  0.00000000000E+00  0.76312340389E+02  0.76312340389E+02  0.00000000000E+00 0. -1.
         -1   -1    0    0    0  501 -0.00000000000E+00 -0.00000000000E+00 -0.19966575320E+03  0.19966575320E+03  0.00000000000E+00 0.  1.
         25    2    1    2    0    0 -0.50845198461E+02  0.31297388901E+02 -0.76433165855E+02  0.15828489266E+03  0.12508923873E+03 0.  0.
          5    1    3    3  502    0 -0.87778898878E+02 -0.29043791760E+01 -0.44740503300E+02  0.98654728939E+02  0.41800000000E+01 0.  1.
         -5    1    3    3    0  502  0.36933700417E+02  0.34201768077E+02 -0.31692662555E+02  0.59630163725E+02  0.41800000000E+01 0.  1.
        -11    1    1    2    0    0  0.76150179932E+02 -0.18547324534E+02 -0.42043369403E+02  0.88940980779E+02  0.00000000000E+00 0. -1.
         11    1    1    2    0    0 -0.25304981472E+02 -0.12750064367E+02 -0.48768775542E+01  0.28752220146E+02  0.00000000000E+00 0.  1.
</event>
<event>
 7    1  0.2644565E-009  0.2008385E+03  0.7561462E-02  0.1149034E+00
          2   -1    0    0  501    0  0.00000000000E+00  0.00000000000E+00  0.11387301831E+04  0.11387301831E+04  0.00000000000E+00 0.  1.
         -2   -1    0    0    0  501 -0.00000000000E+00 -0.00000000000E+00 -0.39517087266E+02  0.39517087266E+02  0.00000000000E+00 0. -1.
         25    2    1    2    0    0 -0.17102199898E+03  0.61980019339E+02  0.57375145641E+03  0.61476158257E+03  0.12510404765E+03 0.  0.
          5    1    3    3  502    0 -0.13296580790E+03  0.85466808550E+01  0.49264798205E+03  0.51036502470E+03  0.41800000000E+01 0.  1.
         -5    1    3    3    0  502 -0.38056191074E+02  0.53433338484E+02  0.81103474364E+02  0.10439655787E+03  0.41800000000E+01 0.  1.
        -11    1    1    2    0    0  0.29666613347E+02 -0.53319969254E+02  0.13551046456E+03  0.14861430978E+03  0.00000000000E+00 0.  1.
         11    1    1    2    0    0  0.14135538563E+03 -0.86600500858E+01  0.38995117488E+03  0.41487137803E+03  0.00000000000E+00 0. -1.
</event>
<event>
 6    1  0.2644565E-009  0.1026657E+03  0.7561462E-02  0.1274788E+00
          2   -1    0    0  501    0  0.00000000000E+00  0.00000000000E+00  0.10334491903E+04  0.10334491903E+04  0.00000000000E+00 0. -1.
         -2   -1    0    0    0  501 -0.00000000000E+00 -0.00000000000E+00 -0.14790194253E+02  0.14790194253E+02  0.00000000000E+00 0.  1.
          5    1    1    2  502    0 -0.48475474778E+02  0.15680582431E+02  0.38380711931E+03  0.38719649992E+03  0.41800000000E+01 0. -1.
         -5    1    1    2    0  502  0.62882544771E+02 -0.42158455967E+02  0.40186147227E+03  0.40895191055E+03  0.41800000000E+01 0. -1.
        -11    1    1    2    0    0  0.25139125623E+02  0.29463278115E+02  0.18872547092E+03  0.19265867167E+03  0.00000000000E+00 0. -1.
         11    1    1    2    0    0 -0.39546195617E+02 -0.29854045791E+01  0.44264933548E+02  0.59432302415E+02  0.00000000000E+00 0.  1.
</event>
<event>
 7    1  0.2644565E-009  0.6140681E+02  0.7561462E-02  0.1392021E+00
          2   -1    0    0  501    0  0.00000000000E+00  0.00000000000E+00  0.20911497223E+03  0.20911497223E+03  0.00000000000E+00 0. -1.
         -2   -1    0    0    0  501 -0.00000000000E+00 -0.00000000000E+00 -0.63882958328E+02  0.63882958328E+02  0.00000000000E+00 0.  1.
         25    2    1    2    0    0  0.40126056154E+02  0.52424978300E+01  0.90223655689E+02  0.15945315370E+03  0.12508963192E+03 0.  0.
          5    1    3    3  502    0  0.12448963411E+02  0.25057973619E+01  0.11868774698E+03  0.11943830789E+03  0.41800000000E+01 0. -1.
         -5    1    3    3    0  502  0.27677092743E+02  0.27367004681E+01 -0.28464091287E+02  0.40014845807E+02  0.41800000000E+01 0. -1.
        -11    1    1    2    0    0  0.18128776533E+02  0.10533861247E+02  0.48504296431E+02  0.52842043333E+02  0.00000000000E+00 0. -1.
         11    1    1    2    0    0 -0.58254832687E+02 -0.15776359077E+02  0.65040617794E+01  0.60702733519E+02  0.00000000000E+00 0.  1.
</event>
<event>
 7    1  0.2644565E-009  0.8159949E+02  0.7561462E-02  0.1324573E+00
          2   -1    0    0  501    0  0.00000000000E+00  0.00000000000E+00  0.71330643195E+03  0.71330643195E+03  0.00000000000E+00 0. -1.
         -2   -1    0    0    0  501 -0.00000000000E+00 -0.00000000000E+00 -0.19827434792E+02  0.19827434792E+02  0.00000000000E+00 0.  1.
         25    2    1    2    0    0  0.20144119696E+02 -0.31034318696E+02  0.29456618170E+03  0.32215614793E+03  0.12508570562E+03 0.  0.
          5    1    3    3  502    0  0.40799522605E+02 -0.23049705487E+02  0.29586556454E+03  0.29958270085E+03  0.41800000000E+01 0. -1.
         -5    1    3    3    0  502 -0.20655402909E+02 -0.79846132085E+01 -0.12993828351E+01  0.22573447082E+02  0.41800000000E+01 0. -1.
        -11    1    1    2    0    0  0.31108040816E+02 -0.42443585517E+01  0.77869193434E+02  0.83960324374E+02  0.00000000000E+00 0.  1.
         11    1    1    2    0    0 -0.51252160512E+02  0.35278677248E+02  0.32104362202E+03  0.32701739444E+03  0.00000000000E+00 0. -1.
</event>
<event>
 7    1  0.2644565E-009  0.9561801E+02  0.7561462E-02  0.1289790E+00
          3   -1    0    0  501    0  0.00000000000E+00  0.00000000000E+00  0.88914711398E+02  0.88914711398E+02  0.00000000000E+00 0. -1.
         -3   -1    0    0    0  501 -0.00000000000E+00 -0.00000000000E+00 -0.21930194312E+03  0.21930194312E+03  0.00000000000E+00 0.  1.
         25    2    1    2    0    0  0.49940193936E+02  0.37599872772E+02 -0.13889364615E+03  0.19709831835E+03  0.12509407962E+03 0.  0.
          5    1    3    3  502    0  0.16558158057E+02  0.59846023525E+02 -0.14358637071E+03  0.15649356978E+03  0.41800000000E+01 0.  1.
         -5    1    3    3    0  502  0.33382035879E+02 -0.22246150753E+02  0.46927245624E+01  0.40604748571E+02  0.41800000000E+01 0.  1.
        -11    1    1    2    0    0  0.13689505584E+02 -0.16915989619E+02 -0.27555114126E+02  0.35111786945E+02  0.00000000000E+00 0.  1.
         11    1    1    2    0    0 -0.63629699519E+02 -0.20683883153E+02  0.36061528549E+02  0.76006549221E+02  0.00000000000E+00 0. -1.
</event>
<event>
 7    1  0.2644565E-009  0.1257862E+03  0.7561462E-02  0.1233846E+00
          2   -1    0    0  501    0  0.00000000000E+00  0.00000000000E+00  0.99618838108E+02  0.99618838108E+02  0.00000000000E+00 0. -1.
         -2   -1    0    0    0  501 -0.00000000000E+00 -0.00000000000E+00 -0.18959747581E+03  0.18959747581E+03  0.00000000000E+00 0.  1.
         25    2    1    2    0    0  0.82494830658E+02 -0.16386504471E+02 -0.55093953533E+02  0.16048724923E+03  0.12508756468E+03 0.  0.
          5    1    3    3  502    0 -0.28239373707E+02  0.11411382328E+02 -0.31135121110E+02  0.43755571537E+02  0.41800000000E+01 0.  1.
         -5    1    3    3    0  502  0.11073420436E+03 -0.27797886799E+02 -0.23958832423E+02  0.11673167770E+03  0.41800000000E+01 0.  1.
        -11    1    1    2    0    0  0.74993208129E+01 -0.10276348370E+02 -0.32430141223E+02  0.34836148011E+02  0.00000000000E+00 0.  1.
         11    1    1    2    0    0 -0.89994151471E+02  0.26662852841E+02 -0.24545429472E+01  0.93892916674E+02  0.00000000000E+00 0. -1.
</event>
<event>
 7    1  0.2644565E-009  0.9775415E+02  0.7561462E-02  0.1285091E+00
          2   -1    0    0  501    0  0.00000000000E+00  0.00000000000E+00  0.37969219891E+03  0.37969219891E+03  0.00000000000E+00 0. -1.
         -2   -1    0    0    0  501 -0.00000000000E+00 -0.00000000000E+00 -0.35340757545E+02  0.35340757545E+02  0.00000000000E+00 0.  1.
         25    2    1    2    0    0  0.23175125392E+02 -0.21194583392E+02  0.15019466351E+03  0.19793920249E+03  0.12504076989E+03 0.  0.
          5    1    3    3  502    0 -0.40743820351E+02 -0.35407171454E+01  0.11629470326E+03  0.12334717662E+03  0.41800000000E+01 0.  1.
         -5    1    3    3    0  502  0.63918945743E+02 -0.17653866246E+02  0.33899960251E+02  0.74592025870E+02  0.41800000000E+01 0.  1.
        -11    1    1    2    0    0  0.16158768216E+02 -0.23434491509E+02  0.25369598494E+02  0.38130010625E+02  0.00000000000E+00 0. -1.
         11    1    1    2    0    0 -0.39333893608E+02  0.44629074900E+02  0.16878717936E+03  0.17896374334E+03  0.00000000000E+00 0.  1.
</event>
<event>
 7    1  0.2644565E-009  0.1043719E+03  0.7561462E-02  0.1271362E+00
         -2   -1    0    0    0  501 -0.00000000000E+00  0.00000000000E+00  0.96207810384E+03  0.96207810384E+03  0.00000000000E+00 0.  1.
          2   -1    0    0  501    0  0.00000000000E+00 -0.00000000000E+00 -0.14964461959E+02  0.14964461959E+02  0.00000000000E+00 0. -1.
         25    2    1    2    0    0  0.42586648793E+02  0.27996848913E+02  0.48320491474E+03  0.50172872866E+03  0.12508909355E+03 0.  0.
          5    1    3    3  502    0  0.49989936360E+02 -0.22664616467E+02  0.40122730053E+03  0.40498579934E+03  0.41800000000E+01 0. -1.
         -5    1    3    3    0  502 -0.74032875664E+01  0.50661465380E+02  0.81977614212E+02  0.96742929319E+02  0.41800000000E+01 0. -1.
        -11    1    1    2    0    0 -0.18568821009E+02 -0.59718475295E+02  0.24758256444E+03  0.25535900927E+03  0.00000000000E+00 0.  1.
         11    1    1    2    0    0 -0.24017827785E+02  0.31721626381E+02  0.21632616271E+03  0.21995482787E+03  0.00000000000E+00 0. -1.
</event>
<event>
 7    1  0.3084015E-009  0.1151800E+03  0.7561462E-02  0.1251267E+00
         -3   -1    0    0    0  501 -0.00000000000E+00  0.00000000000E+00  0.14341058426E+03  0.14341058426E+03  0.00000000000E+00 0.  1.
          3   -1    0    0  501    0  0.00000000000E+00 -0.00000000000E+00 -0.21283642425E+03  0.21283642425E+03  0.00000000000E+00 0. -1.
         25    2    1    2    0    0  0.48635454582E+02  0.83611821460E+02  0.61157690761E+02  0.16954558749E+03  0.12509635873E+03 0.  0.
          5    1    3    3  502    0 -0.25511279552E+02  0.10118905347E+02 -0.22471504147E+02  0.35716362195E+02  0.41800000000E+01 0.  1.
         -5    1    3    3    0  502  0.74146734134E+02  0.73492916113E+02  0.83629194908E+02  0.13382922529E+03  0.41800000000E+01 0.  1.
        -11    1    1    2    0    0 -0.23308528296E+02 -0.24542929490E+02  0.72546512574E+01  0.34616077827E+02  0.00000000000E+00 0.  1.
         11    1    1    2    0    0 -0.25326926286E+02 -0.59068891970E+02 -0.13783818201E+03  0.15208534319E+03  0.00000000000E+00 0. -1.
</event>
<event>
 7    1  0.2644565E-009  0.9688144E+02  0.7561462E-02  0.1286994E+00
         -2   -1    0    0    0  501 -0.00000000000E+00  0.00000000000E+00  0.34134537848E+02  0.34134537848E+02  0.00000000000E+00 0.  1.
          2   -1    0    0  501    0  0.00000000000E+00 -0.00000000000E+00 -0.42276111825E+03  0.42276111825E+03  0.00000000000E+00 0. -1.
         25    2    1    2    0    0 -0.19299471165E+02 -0.29557777793E+02 -0.29537057580E+03  0.32270153623E+03  0.12508546127E+03 0.  0.
          5    1    3    3  502    0 -0.52111271524E+02 -0.48887921294E+02 -0.26293758095E+03  0.27250551801E+03  0.41800000000E+01 0. -1.
         -5    1    3    3    0  502  0.32811800359E+02  0.19330143501E+02 -0.32432994850E+02  0.50196018223E+02  0.41800000000E+01 0. -1.
        -11    1    1    2    0    0  0.27260028053E+02 -0.19919569293E+02 -0.72454605114E+02  0.79934774489E+02  0.00000000000E+00 0. -1.
         11    1    1    2    0    0 -0.79605568883E+01  0.49477347086E+02 -0.20801399494E+02  0.54259345385E+02  0.00000000000E+00 0.  1.
</event>
<event>
 7    1  0.2644565E-009  0.9638728E+02  0.7561462E-02  0.1288082E+00
          2   -1    0    0  501    0  0.00000000000E+00  0.00000000000E+00  0.28872365234E+02  0.28872365234E+02  0.00000000000E+00 0. -1.
         -2   -1    0    0    0  501 -0.00000000000E+00 -0.00000000000E+00 -0.42602327464E+03  0.42602327464E+03  0.00000000000E+00 0.  1.
         25    2    1    2    0    0 -0.81904041919E+01 -0.28159026437E+02 -0.22753038387E+03  0.26130384985E+03  0.12509841276E+03 0.  0.
          5    1    3    3  502    0  0.30269556000E+02  0.32558686437E+02 -0.14531943306E+03  0.15202474834E+03  0.41800000000E+01 0. -1.
         -5    1    3    3    0  502 -0.38459960192E+02 -0.60717712875E+02 -0.82210950811E+02  0.10927910151E+03  0.41800000000E+01 0. -1.
        -11    1    1    2    0    0  0.51964796659E+00  0.51528704503E+02 -0.15837298163E+03  0.16654572565E+03  0.00000000000E+00 0.  1.
         11    1    1    2    0    0  0.76707562254E+01 -0.23369678066E+02 -0.11247543905E+02  0.27046064369E+02  0.00000000000E+00 0. -1.
</event>
<event>
 7    1  0.2644565E-009  0.8661526E+02  0.7561462E-02  0.1311262E+00
          2   -1    0    0  501    0  0.00000000000E+00  0.00000000000E+00  0.28159583423E+03  0.28159583423E+03  0.00000000000E+00 0. -1.
         -2   -1    0    0    0  501 -0.00000000000E+00 -0.00000000000E+00 -0.45365378739E+02  0.45365378739E+02  0.00000000000E+00 0.  1.
         25    2    1    2    0    0 -0.12089574320E+02  0.26530009867E+02  0.12226837959E+03  0.17733530042E+03  0.12509297700E+03 0.  0.
          5    1    3    3  502    0 -0.34829641286E+02  0.37669301320E+02 -0.93993684351E+00  0.51482385875E+02  0.41800000000E+01 0. -1.
         -5    1    3    3    0  502  0.22740066966E+02 -0.11139291453E+02  0.12320831644E+03  0.12585291454E+03  0.41800000000E+01 0. -1.
        -11    1    1    2    0    0  0.42140289164E+02 -0.44331641569E+02  0.62667898411E+02  0.87569194962E+02  0.00000000000E+00 0.  1.
         11    1    1    2    0    0 -0.30050714844E+02  0.17801631702E+02  0.51294177488E+02  0.62056717590E+02  0.00000000000E+00 0. -1.
</event>
<event>
 7    1  0.2644565E-009  0.1302520E+03  0.7561462E-02  0.1227082E+00
         -1   -1    0    0    0  501 -0.00000000000E+00  0.00000000000E+00  0.16908529673E+02  0.16908529673E+02  0.00000000000E+00 0.  1.
          1   -1    0    0  501    0  0.00000000000E+00 -0.00000000000E+00 -0.11052127745E+04  0.11052127745E+04  0.00000000000E+00 0. -1.
         25    2    1    2    0    0  0.77248089103E+02 -0.31379744563E+02 -0.64445167262E+03  0.66174722338E+03  0.12505788127E+03 0.  0.
          5    1    3    3  502    0  0.29759326789E+02 -0.72325974776E+02 -0.46641057694E+03  0.47294076039E+03  0.41800000000E+01 0. -1.
         -5    1    3    3    0  502  0.47488762314E+02  0.40946230213E+02 -0.17804109569E+03  0.18880646299E+03  0.41800000000E+01 0. -1.
        -11    1    1    2    0    0  0.53008103219E+01  0.36261761088E+02 -0.94234406266E+02  0.10110953086E+03  0.00000000000E+00 0. -1.
         11    1    1    2    0    0 -0.82548899425E+02 -0.48820165254E+01 -0.34961816598E+03  0.35926454997E+03  0.00000000000E+00 0.  1.
</event>
<event>
 7    1  0.2644565E-009  0.1070741E+03  0.7561462E-02  0.1266086E+00
          1   -1    0    0  501    0  0.00000000000E+00  0.00000000000E+00  0.52644792756E+03  0.52644792756E+03  0.00000000000E+00 0. -1.
         -1   -1    0    0    0  501 -0.00000000000E+00 -0.00000000000E+00 -0.45509322413E+02  0.45509322413E+02  0.00000000000E+00 0.  1.
         25    2    1    2    0    0  0.47803665177E+02 -0.30761640186E+02  0.93489589003E+02  0.16620356111E+03  0.12510736014E+03 0.  0.
          5    1    3    3  502    0  0.86969238561E+02 -0.30479665769E+02  0.41962761079E+02  0.10134596291E+03  0.41800000000E+01 0. -1.
         -5    1    3    3    0  502 -0.39165573383E+02 -0.28197441733E+00  0.51526827924E+02  0.64857598198E+02  0.41800000000E+01 0. -1.
        -11    1    1    2    0    0  0.14195078223E+02  0.89702828662E+01  0.47465223074E+01  0.17449804998E+02  0.00000000000E+00 0.  1.
         11    1    1    2    0    0 -0.61998743400E+02  0.21791357320E+02  0.38270249383E+03  0.38830388386E+03  0.00000000000E+00 0. -1.
</event>
<event>
 7    1  0.2644565E-009  0.1624302E+03  0.7561462E-02  0.1185980E+00
         -1   -1    0    0    0  501 -0.00000000000E+00  0.00000000000E+00  0.38578122944E+02  0.38578122944E+02  0.00000000000E+00 0.  1.
          1   -1    0    0  501    0  0.00000000000E+00 -0.00000000000E+00 -0.95940461976E+03  0.95940461976E+03  0.00000000000E+00 0. -1.
         25    2    1    2    0    0  0.52603484968E+02  0.14921552339E+03 -0.46882281776E+03  0.51036743368E+03  0.12509070252E+03 0.  0.
          5    1    3    3  502    0  0.19137147942E+02  0.24662381629E+02 -0.89620045259E+01  0.32745280944E+02  0.41800000000E+01 0.  1.
         -5    1    3    3    0  502  0.33466337026E+02  0.12455314177E+03 -0.45986081323E+03  0.47762215274E+03  0.41800000000E+01 0.  1.
        -11    1    1    2    0    0 -0.16137798528E+02 -0.10839803358E+03 -0.18470921054E+03  0.21477442744E+03  0.00000000000E+00 0.  1.
         11    1    1    2    0    0 -0.36465686440E+02 -0.40817489817E+02 -0.26729446851E+03  0.27284088158E+03  0.00000000000E+00 0. -1.
</event>
<event>
 7    1  0.2644565E-009  0.1169034E+03  0.7561462E-02  0.1248295E+00
         -2   -1    0    0    0  501 -0.00000000000E+00  0.00000000000E+00  0.46498663835E+02  0.46498663835E+02  0.00000000000E+00 0.  1.
          2   -1    0    0  501    0  0.00000000000E+00 -0.00000000000E+00 -0.42731081681E+03  0.42731081681E+03  0.00000000000E+00 0. -1.
         25    2    1    2    0    0  0.49039990200E+02  0.58175104773E+02 -0.12673827694E+03  0.19364471834E+03  0.12508566123E+03 0.  0.
          5    1    3    3  502    0  0.68829455646E+01  0.90938528556E+02 -0.65909487163E+02  0.11259983932E+03  0.41800000000E+01 0.  1.
         -5    1    3    3    0  502  0.42157044636E+02 -0.32763423783E+02 -0.60828789777E+02  0.81044879025E+02  0.41800000000E+01 0.  1.
        -11    1    1    2    0    0 -0.48058897735E+02 -0.22147744078E+02 -0.23187393283E+03  0.23783544930E+03  0.00000000000E+00 0. -1.
         11    1    1    2    0    0 -0.98109246525E+00 -0.36027360696E+02 -0.22199943211E+02  0.42329313007E+02  0.00000000000E+00 0.  1.
</event>
<event>
 7    1  0.2644565E-009  0.1022749E+03  0.7561462E-02  0.1275584E+00
          1   -1    0    0  501    0  0.00000000000E+00  0.00000000000E+00  0.69626365599E+03  0.69626365599E+03  0.00000000000E+00 0. -1.
         -1   -1    0    0    0  501 -0.00000000000E+00 -0.00000000000E+00 -0.18931808197E+02  0.18931808197E+02  0.00000000000E+00 0.  1.
         25    2    1    2    0    0  0.60004287333E+01  0.35517338750E+02  0.44535501982E+03  0.46398976742E+03  0.12509166277E+03 0.  0.
          5    1    3    3  502    0 -0.47795935538E+02  0.85554997469E+01  0.33225205999E+03  0.33580731350E+03  0.41800000000E+01 0. -1.
         -5    1    3    3    0  502  0.53796364272E+02  0.26961839003E+02  0.11310295983E+03  0.12818245392E+03  0.41800000000E+01 0. -1.
        -11    1    1    2    0    0 -0.46880671627E+02 -0.12240330470E+02  0.10059267343E+03  0.11165352216E+03  0.00000000000E+00 0.  1.
         11    1    1    2    0    0  0.40880242894E+02 -0.23277008280E+02  0.13138415454E+03  0.13955217461E+03  0.00000000000E+00 0. -1.
</event>
<event>
 7    1  0.2644565E-009  0.1410663E+03  0.7561462E-02  0.1211901E+00
          2   -1    0    0  501    0  0.00000000000E+00  0.00000000000E+00  0.19038269099E+03  0.19038269099E+03  0.00000000000E+00 0.  1.
         -2   -1    0    0    0  501 -0.00000000000E+00 -0.00000000000E+00 -0.12219400640E+03  0.12219400640E+03  0.00000000000E+00 0. -1.
         25    2    1    2    0    0  0.87959409206E+02  0.59309477164E+02  0.54032706939E+02  0.17268720024E+03  0.12508742526E+03 0.  0.
          5    1    3    3  502    0 -0.30138234282E+02  0.82882953991E+00  0.66359439175E+00  0.30445243989E+02  0.41800000000E+01 0.  1.
         -5    1    3    3    0  502  0.11809764349E+03  0.58480647624E+02  0.53369112547E+02  0.14224195625E+03  0.41800000000E+01 0.  1.
        -11    1    1    2    0    0 -0.48992463678E+02 -0.63996332017E+02 -0.25064628452E+02  0.84403954933E+02  0.00000000000E+00 0. -1.
         11    1    1    2    0    0 -0.38966945528E+02  0.46868548533E+01  0.39220606099E+02  0.55485542216E+02  0.00000000000E+00 0.  1.
</event>
<event>
 7    1  0.2644565E-009  0.1785816E+03  0.7561462E-02  0.1169183E+00
          2   -1    0    0  501    0  0.00000000000E+00  0.00000000000E+00  0.82520951684E+03  0.82520951684E+03  0.00000000000E+00 0. -1.
         -2   -1    0    0    0  501 -0.00000000000E+00 -0.00000000000E+00 -0.39005404834E+02  0.39005404834E+02  0.00000000000E+00 0.  1.
         25    2    1    2    0    0  0.17577367684E+02  0.14102711770E+03  0.43814732670E+03  0.47730267879E+03  0.12508859062E+03 0.  0.
          5    1    3    3  502    0  0.66225723403E+02  0.11579083607E+03  0.28824172262E+03  0.31763835917E+03  0.41800000000E+01 0.  1.
         -5    1    3    3    0  502 -0.48648355719E+02  0.25236281626E+02  0.14990560408E+03  0.15966431962E+03  0.41800000000E+01 0.  1.
        -11    1    1    2    0    0 -0.49435054613E+02 -0.42499171506E+02  0.12439232101E+03  0.14044021407E+03  0.00000000000E+00 0.  1.
         11    1    1    2    0    0  0.31857686929E+02 -0.98527946190E+02  0.22366446430E+03  0.24647202881E+03  0.00000000000E+00 0. -1.
</event>
<event>
 7    1  0.2644565E-009  0.1663003E+03  0.7561462E-02  0.1181762E+00
          2   -1    0    0  501    0  0.00000000000E+00  0.00000000000E+00  0.12800769951E+03  0.12800769951E+03  0.00000000000E+00 0.  1.
         -2   -1    0    0    0  501 -0.00000000000E+00 -0.00000000000E+00 -0.27359092984E+03  0.27359092984E+03  0.00000000000E+00 0. -1.
         25    2    1    2    0    0 -0.12150436314E+03 -0.91668638979E+02 -0.77413613137E+02  0.21167964482E+03  0.12509578289E+03 0.  0.
          5    1    3    3  502    0  0.34323789378E+01 -0.86029840639E+01  0.26996871643E+02  0.28846074923E+02  0.41800000000E+01 0. -1.
         -5    1    3    3    0  502 -0.12493674208E+03 -0.83065654915E+02 -0.10441048478E+03  0.18283356989E+03  0.41800000000E+01 0. -1.
        -11    1    1    2    0    0  0.62108035865E+02 -0.11907864271E+01 -0.37222961158E+01  0.62230873204E+02  0.00000000000E+00 0.  1.
         11    1    1    2    0    0  0.59396327280E+02  0.92859425406E+02 -0.64447321076E+02  0.12768811133E+03  0.00000000000E+00 0. -1.
</event>
<event>
 7    1  0.2644565E-009  0.1029357E+03  0.7561462E-02  0.1274241E+00
         -3   -1    0    0    0  501 -0.00000000000E+00  0.00000000000E+00  0.20221656101E+02  0.20221656101E+02  0.00000000000E+00 0.  1.
          3   -1    0    0  501    0  0.00000000000E+00 -0.00000000000E+00 -0.65806568928E+03  0.65806568928E+03  0.00000000000E+00 0. -1.
         25    2    1    2    0    0  0.74438336390E+01 -0.29400647846E+01 -0.37234016985E+03  0.39287270587E+03  0.12509079218E+03 0.  0.
          5    1    3    3  502    0  0.48533448463E+02  0.40334985532E+02 -0.15387273424E+03  0.16636314923E+03  0.41800000000E+01 0. -1.
         -5    1    3    3    0  502 -0.41089614824E+02 -0.43275050317E+02 -0.21846743561E+03  0.22650955664E+03  0.41800000000E+01 0. -1.
        -11    1    1    2    0    0 -0.37629591148E+02  0.25210168619E+02 -0.53413101289E+02  0.70032122066E+02  0.00000000000E+00 0.  1.
         11    1    1    2    0    0  0.30185757509E+02 -0.22270103834E+02 -0.21209076204E+03  0.21538251745E+03  0.00000000000E+00 0. -1.
</event>
<event>
 7    1  0.2644565E-009  0.8916201E+02  0.7561462E-02  0.1304894E+00
         -1   -1    0    0    0  501 -0.00000000000E+00  0.00000000000E+00  0.20730081726E+02  0.20730081726E+02  0.00000000000E+00 0.  1.
          1   -1    0    0  501    0  0.00000000000E+00 -0.00000000000E+00 -0.62673029626E+03  0.62673029626E+03  0.00000000000E+00 0. -1.
         25    2    1    2    0    0 -0.13166882315E+01 -0.32049690175E+02 -0.38097020725E+03  0.40226215166E+03  0.12509046144E+03 0.  0.
          5    1    3    3  502    0 -0.38635885274E+02 -0.40156484599E+02 -0.73143400400E+02  0.92047293867E+02  0.41800000000E+01 0. -1.
         -5    1    3    3    0  502  0.37319197043E+02  0.81067944238E+01 -0.30782680685E+03  0.31021485780E+03  0.41800000000E+01 0. -1.
        -11    1    1    2    0    0 -0.19683749160E+02 -0.19900407719E+02 -0.14390922267E+03  0.14660607279E+03  0.00000000000E+00 0. -1.
         11    1    1    2    0    0  0.21000437391E+02  0.51950097894E+02 -0.81120784613E+02  0.98592153532E+02  0.00000000000E+00 0.  1.
</event>
<event>
 7    1  0.2644565E-009  0.1129263E+03  0.7561462E-02  0.1255245E+00
         -1   -1    0    0    0  501 -0.00000000000E+00  0.00000000000E+00  0.52645667684E+03  0.52645667684E+03  0.00000000000E+00 0.  1.
          1   -1    0    0  501    0  0.00000000000E+00 -0.00000000000E+00 -0.32319723925E+02  0.32319723925E+02  0.00000000000E+00 0. -1.
         25    2    1    2    0    0  0.60538706208E+02 -0.31360325739E+02  0.21126084994E+03  0.25480802704E+03  0.12509028319E+03 0.  0.
          5    1    3    3  502    0  0.29045473467E+02  0.32631420295E+02  0.16247173447E+03  0.16829434340E+03  0.41800000000E+01 0.  1.
         -5    1    3    3    0  502  0.31493232742E+02 -0.63991746034E+02  0.48789115468E+02  0.86513683641E+02  0.41800000000E+01 0.  1.
        -11    1    1    2    0    0 -0.83255238700E+02  0.24043645131E+02  0.23511326463E+03  0.25057489668E+03  0.00000000000E+00 0.  1.
         11    1    1    2    0    0  0.22716532491E+02  0.73166806077E+01  0.47762838350E+02  0.53393477044E+02  0.00000000000E+00 0. -1.
</event>
<event>
 7    1  0.2644565E-009  0.8541086E+02  0.7561462E-02  0.1314362E+00
         -1   -1    0    0    0  501 -0.00000000000E+00  0.00000000000E+00  0.38883874063E+02  0.38883874063E+02  0.00000000000E+00 0.  1.
          1   -1    0    0  501    0  0.00000000000E+00 -0.00000000000E+00 -0.39320286712E+03  0.39320286712E+03  0.00000000000E+00 0. -1.
         25    2    1    2    0    0 -0.30759532505E+02  0.15520731722E+02 -0.11779876097E+03  0.17525195042E+03  0.12509858547E+03 0.  0.
          5    1    3    3  502    0 -0.39435960048E+02 -0.13747577960E+02  0.10532528173E+02  0.43273518397E+02  0.41800000000E+01 0. -1.
         -5    1    3    3    0  502  0.86764275438E+01  0.29268309681E+02 -0.12833128914E+03  0.13197843203E+03  0.41800000000E+01 0. -1.
        -11    1    1    2    0    0  0.36139102853E+00  0.37188796117E+02 -0.65626795864E+02  0.75432178117E+02  0.00000000000E+00 0.  1.
         11    1    1    2    0    0  0.30398141476E+02 -0.52709527838E+02 -0.17089343623E+03  0.18140261265E+03  0.00000000000E+00 0. -1.
</event>
<event>
 7    1  0.2644565E-009  0.1091879E+03  0.7561462E-02  0.1262081E+00
         -1   -1    0    0    0  501 -0.00000000000E+00  0.00000000000E+00  0.12498285594E+02  0.12498285594E+02  0.00000000000E+00 0.  1.
          1   -1    0    0  501    0  0.00000000000E+00 -0.00000000000E+00 -0.12025170523E+04  0.12025170523E+04  0.00000000000E+00 0. -1.
         25    2    1    2    0    0  0.18474242651E+02 -0.33428634218E+02 -0.87726944380E+03  0.88696571562E+03  0.12509089668E+03 0.  0.
          5    1    3    3  502    0 -0.49259635271E+01  0.41406413402E+02 -0.49168508407E+03  0.49346778059E+03  0.41800000000E+01 0. -1.
         -5    1    3    3    0  502  0.23400206178E+02 -0.74835047619E+02 -0.38558435973E+03  0.39349793503E+03  0.41800000000E+01 0. -1.
        -11    1    1    2    0    0 -0.25141065197E+02  0.62897063638E+02 -0.23723215760E+03  0.24671280950E+03  0.00000000000E+00 0.  1.
         11    1    1    2    0    0  0.66668225463E+01 -0.29468429420E+02 -0.75517165271E+02  0.81336812736E+02  0.00000000000E+00 0. -1.
</event>
<event>
 7    1  0.2644565E-009  0.1352647E+03  0.7561462E-02  0.1219847E+00
          2   -1    0    0  501    0  0.00000000000E+00  0.00000000000E+00  0.46319010070E+02  0.46319010070E+02  0.00000000000E+00 0. -1.
         -2   -1    0    0    0  501 -0.00000000000E+00 -0.00000000000E+00 -0.49728928292E+03  0.49728928292E+03  0.00000000000E+00 0.  1.
         25    2    1    2    0    0  0.17587241796E+02  0.99204722334E+02 -0.17559722363E+03  0.23797709178E+03  0.12509125972E+03 0.  0.
          5    1    3    3  502    0  0.51647316561E+02  0.87736723704E+02 -0.63208766151E+02  0.11990829209E+03  0.41800000000E+01 0.  1.
         -5    1    3    3    0  502 -0.34060074765E+02  0.11467998629E+02 -0.11238845748E+03  0.11806879969E+03  0.41800000000E+01 0.  1.
        -11    1    1    2    0    0 -0.49788221709E+02 -0.35745100734E+02 -0.13437525524E+03  0.14769322418E+03  0.00000000000E+00 0. -1.
         11    1    1    2    0    0  0.32200979912E+02 -0.63459621600E+02 -0.14099779398E+03  0.15793797703E+03  0.00000000000E+00 0.  1.
</event>
<event>
 7    1  0.2644565E-009  0.1356566E+03  0.7561462E-02  0.1219296E+00
         -2   -1    0    0    0  501 -0.00000000000E+00  0.00000000000E+00  0.20084637698E+03  0.20084637698E+03  0.00000000000E+00 0.  1.
          2   -1    0    0  501    0  0.00000000000E+00 -0.00000000000E+00 -0.12695724343E+03  0.12695724343E+03  0.00000000000E+00 0. -1.
         25    2    1    2    0    0  0.10880586857E+03 -0.25609590740E+02  0.77494871335E+02  0.18478934285E+03  0.12508828072E+03 0.  0.
          5    1    3    3  502    0  0.80587979803E+01 -0.27834740592E+02 -0.26808690693E+02  0.39697547851E+02  0.41800000000E+01 0.  1.
         -5    1    3    3    0  502  0.10074707059E+03  0.22251498516E+01  0.10430356203E+03  0.14509179500E+03  0.41800000000E+01 0.  1.
        -11    1    1    2    0    0 -0.66330151855E+01 -0.25913109589E+02 -0.96250145283E+01  0.28427575410E+02  0.00000000000E+00 0.  1.
         11    1    1    2    0    0 -0.10217285338E+03  0.51522700329E+02  0.60192767466E+01  0.11458670215E+03  0.00000000000E+00 0. -1.
</event>
<event>
 7    1  0.2644565E-009  0.1201883E+03  0.7561462E-02  0.1242787E+00
          2   -1    0    0  501    0  0.00000000000E+00  0.00000000000E+00  0.27361933912E+02  0.27361933912E+02  0.00000000000E+00 0. -1.
         -2   -1    0    0    0  501 -0.00000000000E+00 -0.00000000000E+00 -0.65154149104E+03  0.65154149104E+03  0.00000000000E+00 0.  1.
         25    2    1    2    0    0  0.31293480313E+02  0.72974937065E+02 -0.34406247449E+03  0.37460768345E+03  0.12508919539E+03 0.  0.
          5    1    3    3  502    0 -0.14354561146E+02 -0.22740825579E+02 -0.20462310006E+02  0.34049627083E+02  0.41800000000E+01 0. -1.
         -5    1    3    3    0  502  0.45648041459E+02  0.95715762644E+02 -0.32360016448E+03  0.34055805637E+03  0.41800000000E+01 0. -1.
        -11    1    1    2    0    0 -0.76600216085E+01 -0.81539038269E+02 -0.25842852334E+03  0.27109517216E+03  0.00000000000E+00 0.  1.
         11    1    1    2    0    0 -0.23633458705E+02  0.85641012041E+01 -0.21688559299E+02  0.33200569336E+02  0.00000000000E+00 0. -1.
</event>
<event>
 7    1  0.2644565E-009  0.1353646E+03  0.7561462E-02  0.1219706E+00
          1   -1    0    0  501    0  0.00000000000E+00  0.00000000000E+00  0.30737553612E+03  0.30737553612E+03  0.00000000000E+00 0. -1.
         -1   -1    0    0    0  501 -0.00000000000E+00 -0.00000000000E+00 -0.79837976426E+02  0.79837976426E+02  0.00000000000E+00 0.  1.
         25    2    1    2    0    0 -0.11337208781E+03  0.61832733153E+01  0.13354383059E+03  0.21534087533E+03  0.12508507000E+03 0.  0.
          5    1    3    3  502    0 -0.25640826273E+02 -0.22682370103E+02  0.11628469420E+03  0.12129115545E+03  0.41800000000E+01 0.  1.
         -5    1    3    3    0  502 -0.87731261540E+02  0.28865643418E+02  0.17259136393E+02  0.94049719884E+02  0.41800000000E+01 0.  1.
        -11    1    1    2    0    0  0.20080564762E+02 -0.39837757648E+02  0.32224208311E+02  0.55033404555E+02  0.00000000000E+00 0. -1.
         11    1    1    2    0    0  0.93291523050E+02  0.33654484333E+02  0.61769520789E+02  0.11683923265E+03  0.00000000000E+00 0.  1.
</event>
<event>
 7    1  0.2644565E-009  0.1179618E+03  0.7561462E-02  0.1246498E+00
          1   -1    0    0  501    0  0.00000000000E+00  0.00000000000E+00  0.45652877378E+02  0.45652877378E+02  0.00000000000E+00 0. -1.
         -1   -1    0    0    0  501 -0.00000000000E+00 -0.00000000000E+00 -0.35627274160E+03  0.35627274160E+03  0.00000000000E+00 0.  1.
         25    2    1    2    0    0 -0.27089422417E+02  0.53878473633E+02 -0.16600778403E+03  0.21643208490E+03  0.12509011267E+03 0.  0.
          5    1    3    3  502    0  0.48229772381E+02  0.38472958591E+02 -0.71392019110E+02  0.94448781248E+02  0.41800000000E+01 0. -1.
         -5    1    3    3    0  502 -0.75319194798E+02  0.15405515042E+02 -0.94615764916E+02  0.12198330365E+03  0.41800000000E+01 0. -1.
        -11    1    1    2    0    0  0.91380341766E+01  0.19509403799E+02  0.87263620178E+00  0.21561122400E+02  0.00000000000E+00 0. -1.
         11    1    1    2    0    0  0.17951388241E+02 -0.73387877433E+02 -0.14548471640E+03  0.16393241168E+03  0.00000000000E+00 0.  1.
</event>
<event>
 7    1  0.2644565E-009  0.9165570E+02  0.7561462E-02  0.1298891E+00
         -1   -1    0    0    0  501 -0.00000000000E+00  0.00000000000E+00  0.23179931057E+02  0.23179931057E+02  0.00000000000E+00 0.  1.
          1   -1    0    0  501    0  0.00000000000E+00 -0.00000000000E+00 -0.89524412052E+03  0.89524412052E+03  0.00000000000E+00 0. -1.
         25    2    1    2    0    0  0.60726899227E+02 -0.74208985172E+01 -0.69332064718E+03  0.70716614803E+03  0.12509042764E+03 0.  0.
          5    1    3    3  502    0 -0.69453851247E+01  0.40036509981E+01  0.13147901111E+01  0.91361189178E+01  0.41800000000E+01 0. -1.
         -5    1    3    3    0  502  0.67672284352E+02 -0.11424549515E+02 -0.69463543729E+03  0.69803002911E+03  0.41800000000E+01 0. -1.
        -11    1    1    2    0    0 -0.70985617793E+02 -0.22031096645E+02 -0.87365327390E+02  0.11470408704E+03  0.00000000000E+00 0.  1.
         11    1    1    2    0    0  0.10258718566E+02  0.29451995162E+02 -0.91378214891E+02  0.96553816508E+02  0.00000000000E+00 0. -1.
</event>
<event>
 7    1  0.2644565E-009  0.7202381E+02  0.7561462E-02  0.1353343E+00
         -2   -1    0    0    0  501 -0.00000000000E+00  0.00000000000E+00  0.54211397644E+03  0.54211397644E+03  0.00000000000E+00 0.  1.
          2   -1    0    0  501    0  0.00000000000E+00 -0.00000000000E+00 -0.26652410085E+02  0.26652410085E+02  0.00000000000E+00 0. -1.
         25    2    1    2    0    0 -0.21950845682E+02  0.33187460303E+02  0.22466570372E+03  0.26021075320E+03  0.12510679641E+03 0.  0.
          5    1    3    3  502    0  0.46522053565E+01  0.74655018108E+01  0.22270645453E+03  0.22291929935E+03  0.41800000000E+01 0. -1.
         -5    1    3    3    0  502 -0.26603051039E+02  0.25721958492E+02  0.19592491882E+01  0.37291453855E+02  0.41800000000E+01 0. -1.
        -11    1    1    2    0    0  0.40671987592E+02 -0.54948142747E+02  0.24623856760E+03  0.25555222781E+03  0.00000000000E+00 0.  1.
         11    1    1    2    0    0 -0.18721141910E+02  0.21760682444E+02  0.44557295040E+02  0.53003405514E+02  0.00000000000E+00 0. -1.
</event>
<event>
 7    1  0.2644565E-009  0.1007778E+03  0.7561462E-02  0.1278669E+00
         -1   -1    0    0    0  501 -0.00000000000E+00  0.00000000000E+00  0.28242058134E+02  0.28242058134E+02  0.00000000000E+00 0.  1.
          1   -1    0    0  501    0  0.00000000000E+00 -0.00000000000E+00 -0.54255816402E+03  0.54255816402E+03  0.00000000000E+00 0. -1.
         25    2    1    2    0    0  0.20296838363E+02 -0.49699553958E+02 -0.33985046262E+03  0.36609777490E+03  0.12508891449E+03 0.  0.
          5    1    3    3  502    0  0.42258165899E+02 -0.15288884150E+01 -0.30706460384E+02  0.52425653970E+02  0.41800000000E+01 0.  1.
         -5    1    3    3    0  502 -0.21961327536E+02 -0.48170665543E+02 -0.30914400224E+03  0.31367212093E+03  0.41800000000E+01 0.  1.
        -11    1    1    2    0    0 -0.41251089293E+01 -0.27131748638E+02 -0.59010702054E+02  0.65080037375E+02  0.00000000000E+00 0.  1.
         11    1    1    2    0    0 -0.16171729433E+02  0.76831302597E+02 -0.11545494121E+03  0.13962240988E+03  0.00000000000E+00 0. -1.
</event>
<event>
 7    1  0.2644565E-009  0.7803711E+02  0.7561462E-02  0.1334716E+00
         -1   -1    0    0    0  501 -0.00000000000E+00  0.00000000000E+00  0.39926392101E+02  0.39926392101E+02  0.00000000000E+00 0.  1.
          1   -1    0    0  501    0  0.00000000000E+00 -0.00000000000E+00 -0.36756696553E+03  0.36756696553E+03  0.00000000000E+00 0. -1.
         25    2    1    2    0    0  0.71928926603E+01 -0.41447730899E+02 -0.23881092043E+03  0.27285410360E+03  0.12509617914E+03 0.  0.
          5    1    3    3  502    0  0.32471732296E+02 -0.35865641829E+02 -0.24164688038E+03  0.24647808191E+03  0.41800000000E+01 0. -1.
         -5    1    3    3    0  502 -0.25278839635E+02 -0.55820890700E+01  0.28359599526E+01  0.26376021697E+02  0.41800000000E+01 0. -1.
        -11    1    1    2    0    0  0.59459514253E+00  0.60606024091E+02 -0.21668037084E+02  0.64365732580E+02  0.00000000000E+00 0.  1.
         11    1    1    2    0    0 -0.77874878028E+01 -0.19158293192E+02 -0.67161615921E+02  0.70273521453E+02  0.00000000000E+00 0. -1.
</event>
<event>
 7    1  0.2644565E-009  0.1370519E+03  0.7561462E-02  0.1217352E+00
          1   -1    0    0  501    0  0.00000000000E+00  0.00000000000E+00  0.54257074615E+02  0.54257074615E+02  0.00000000000E+00 0. -1.
         -1   -1    0    0    0  501 -0.00000000000E+00 -0.00000000000E+00 -0.54966436093E+03  0.54966436093E+03  0.00000000000E+00 0.  1.
         25    2    1    2    0    0 -0.95120457424E+02  0.10620017842E+02 -0.43392174566E+03  0.46162283488E+03  0.12508746592E+03 0.  0.
          5    1    3    3  502    0 -0.70772770487E+02 -0.51695363909E+02 -0.28739802209E+03  0.30049341289E+03  0.41800000000E+01 0. -1.
         -5    1    3    3    0  502 -0.24347686937E+02  0.62315381752E+02 -0.14652372357E+03  0.16112942199E+03  0.41800000000E+01 0. -1.
        -11    1    1    2    0    0  0.81482047970E+02 -0.37108981815E+02 -0.67218031964E+02  0.11195831588E+03  0.00000000000E+00 0. -1.
         11    1    1    2    0    0  0.13638409454E+02  0.26488963973E+02  0.57324912997E+01  0.30340284793E+02  0.00000000000E+00 0.  1.
</event>
<event>
 7    1  0.2644565E-009  0.1380665E+03  0.7561462E-02  0.1215955E+00
          3   -1    0    0  501    0  0.00000000000E+00  0.00000000000E+00  0.12129284667E+03  0.12129284667E+03  0.00000000000E+00 0. -1.
         -3   -1    0    0    0  501 -0.00000000000E+00 -0.00000000000E+00 -0.16492626154E+03  0.16492626154E+03  0.00000000000E+00 0.  1.
         25    2    1    2    0    0  0.59975110445E+02  0.72828030257E+02 -0.19274549026E+02  0.15786257088E+03  0.12509255446E+03 0.  0.
          5    1    3    3  502    0  0.50457212453E+02  0.10545086123E+03  0.30028858228E+01  0.11701411943E+03  0.41800000000E+01 0. -1.
         -5    1    3    3    0  502  0.95178979919E+01 -0.32622830973E+02 -0.22277434849E+02  0.40848451455E+02  0.41800000000E+01 0. -1.
        -11    1    1    2    0    0 -0.69924800707E+02 -0.84435264403E+02 -0.26841270540E+02  0.11286826584E+03  0.00000000000E+00 0.  1.
         11    1    1    2    0    0  0.99496902623E+01  0.11607234146E+02  0.24824046985E+01  0.15488271495E+02  0.00000000000E+00 0. -1.
</event>
<event>
 7    1  0.2644565E-009  0.1152735E+03  0.7561462E-02  0.1251104E+00
          1   -1    0    0  501    0  0.00000000000E+00  0.00000000000E+00  0.55125594191E+03  0.55125594191E+03  0.00000000000E+00 0. -1.
         -1   -1    0    0    0  501 -0.00000000000E+00 -0.00000000000E+00 -0.33529213186E+02  0.33529213186E+02  0.00000000000E+00 0.  1.
         25    2    1    2    0    0  0.11196689834E+02  0.68618768316E+02  0.36207225954E+03  0.38932984250E+03  0.12508998323E+03 0.  0.
          5    1    3    3  502    0  0.53032153993E+02  0.72653712869E+02  0.16692315127E+03  0.18966228455E+03  0.41800000000E+01 0. -1.
         -5    1    3    3    0  502 -0.41835464159E+02 -0.40349445531E+01  0.19514910827E+03  0.19966755795E+03  0.41800000000E+01 0. -1.
        -11    1    1    2    0    0  0.10791587007E+02  0.11151351880E+02 -0.36512854221E+01  0.15941859494E+02  0.00000000000E+00 0.  1.
         11    1    1    2    0    0 -0.21988276842E+02 -0.79770120196E+02  0.15930575461E+03  0.17951345310E+03  0.00000000000E+00 0. -1.
</event>
<event>
 7    1  0.2644565E-009  0.8852247E+02  0.7561462E-02  0.1306470E+00
          1   -1    0    0  501    0  0.00000000000E+00  0.00000000000E+00  0.22826589090E+03  0.22826589090E+03  0.00000000000E+00 0. -1.
         -1   -1    0    0    0  501 -0.00000000000E+00 -0.00000000000E+00 -0.63313033742E+02  0.63313033742E+02  0.00000000000E+00 0.  1.
         25    2    1    2    0    0 -0.40803576552E+02 -0.27146064517E+02  0.75363595063E+02  0.15404271421E+03  0.12509054985E+03 0.  0.
          5    1    3    3  502    0  0.64956520223E+01 -0.58411977163E+02  0.77253735939E+02  0.97158451449E+02  0.41800000000E+01 0. -1.
         -5    1    3    3    0  502 -0.47299228574E+02  0.31265912646E+02 -0.18901408764E+01  0.56884262761E+02  0.41800000000E+01 0. -1.
        -11    1    1    2    0    0  0.41622080918E+02  0.83421035491E+01  0.10497052287E+03  0.11322896706E+03  0.00000000000E+00 0. -1.
         11    1    1    2    0    0 -0.81850436627E+00  0.18803960968E+02 -0.15381260769E+02  0.24307243371E+02  0.00000000000E+00 0.  1.
</event>
<event>
 7    1  0.2644565E-009  0.2022199E+03  0.7561462E-02  0.1147880E+00
         -2   -1    0    0    0  501 -0.00000000000E+00  0.00000000000E+00  0.49033527783E+02  0.49033527783E+02  0.00000000000E+00 0.  1.
          2   -1    0    0  501    0  0.00000000000E+00 -0.00000000000E+00 -0.88881228149E+03  0.88881228149E+03  0.00000000000E+00 0. -1.
         25    2    1    2    0    0  0.23831037913E+01  0.17671023012E+03 -0.37685321584E+03  0.43462199354E+03  0.12508295793E+03 0.  0.
          5    1    3    3  502    0 -0.24419242560E+02  0.18135396209E+03 -0.28483530860E+03  0.33857670386E+03  0.41800000000E+01 0. -1.
         -5    1    3    3    0  502  0.26802346351E+02 -0.46437319640E+01 -0.92017907236E+02  0.96045289675E+02  0.41800000000E+01 0. -1.
        -11    1    1    2    0    0  0.38387418295E+02 -0.73763420902E+02 -0.24598173537E+03  0.25965679325E+03  0.00000000000E+00 0. -1.
         11    1    1    2    0    0 -0.40770522086E+02 -0.10294680922E+03 -0.21694380250E+03  0.24356702249E+03  0.00000000000E+00 0.  1.
</event>
<event>
 7    1  0.2644565E-009  0.5355660E+02  0.7561462E-02  0.1427051E+00
          4   -1    0    0  501    0  0.00000000000E+00  0.00000000000E+00  0.52637142239E+03  0.52637142239E+03  0.00000000000E+00 0. -1.
         -4   -1    0    0    0  501 -0.00000000000E+00 -0.00000000000E+00 -0.21015986222E+02  0.21015986222E+02  0.00000000000E+00 0.  1.
         25    2    1    2    0    0 -0.28285382505E+02  0.15645193436E+02  0.31517325723E+03  0.34062664466E+03  0.12508994380E+03 0.  0.
          5    1    3    3  502    0 -0.32112611824E+02  0.12035203477E+02  0.10824479260E+02  0.36203697492E+02  0.41800000000E+01 0.  1.
         -5    1    3    3    0  502  0.38272293185E+01  0.36099899587E+01  0.30434877797E+03  0.30442294717E+03  0.41800000000E+01 0.  1.
        -11    1    1    2    0    0  0.46777484303E+01  0.21407031897E+02  0.16022772599E+02  0.27145378737E+02  0.00000000000E+00 0.  1.
         11    1    1    2    0    0  0.23607634075E+02 -0.37052225332E+02  0.17415940634E+03  0.17961538521E+03  0.00000000000E+00 0. -1.
</event>
<event>
 7    1  0.2644565E-009  0.1183356E+03  0.7561462E-02  0.1245868E+00
         -2   -1    0    0    0  501 -0.00000000000E+00  0.00000000000E+00  0.57882688064E+03  0.57882688064E+03  0.00000000000E+00 0.  1.
          2   -1    0    0  501    0  0.00000000000E+00 -0.00000000000E+00 -0.26071855816E+02  0.26071855816E+02  0.00000000000E+00 0. -1.
         25    2    1    2    0    0  0.51257511375E+02  0.59070745025E+01  0.24617631657E+03  0.28091373367E+03  0.12509005125E+03 0.  0.
          5    1    3    3  502    0 -0.28599611364E+02 -0.32445013750E+02  0.11140623870E+03  0.11958026220E+03  0.41800000000E+01 0. -1.
         -5    1    3    3    0  502  0.79857122739E+02  0.38352088252E+02  0.13477007788E+03  0.16133347147E+03  0.41800000000E+01 0. -1.
        -11    1    1    2    0    0  0.16578637696E+02  0.24990864277E+02  0.98042407835E+02  0.10252662220E+03  0.00000000000E+00 0.  1.
         11    1    1    2    0    0 -0.67836149071E+02 -0.30897938779E+02  0.20853630042E+03  0.22145838059E+03  0.00000000000E+00 0. -1.
</event>
<event>
 7    1  0.2644565E-009  0.1535334E+03  0.7561462E-02  0.1196197E+00
         -2   -1    0    0    0  501 -0.00000000000E+00  0.00000000000E+00  0.14991130808E+03  0.14991130808E+03  0.00000000000E+00 0.  1.
          2   -1    0    0  501    0  0.00000000000E+00 -0.00000000000E+00 -0.27682799139E+03  0.27682799139E+03  0.00000000000E+00 0. -1.
         25    2    1    2    0    0 -0.34702812375E+02  0.11397812467E+03 -0.19618026306E+03  0.26140728721E+03  0.12510705857E+03 0.  0.
          5    1    3    3  502    0 -0.81987033152E+02  0.69694090374E+02 -0.12775747582E+03  0.16708855397E+03  0.41800000000E+01 0. -1.
         -5    1    3    3    0  502  0.47284220777E+02  0.44284034294E+02 -0.68422787238E+02  0.94318733246E+02  0.41800000000E+01 0. -1.
        -11    1    1    2    0    0  0.34530924535E+02 -0.18865100211E+02  0.57242653627E+02  0.69462206627E+02  0.00000000000E+00 0.  1.
         11    1    1    2    0    0  0.17188783963E+00 -0.95113024458E+02  0.12020926125E+02  0.95869805632E+02  0.00000000000E+00 0. -1.
</event>
<event>
 7    1  0.2644565E-009  0.9027543E+02  0.7561462E-02  0.1302186E+00
         -2   -1    0    0    0  501 -0.00000000000E+00  0.00000000000E+00  0.91474359062E+02  0.91474359062E+02  0.00000000000E+00 0.  1.
          2   -1    0    0  501    0  0.00000000000E+00 -0.00000000000E+00 -0.15988618247E+03  0.15988618247E+03  0.00000000000E+00 0. -1.
         25    2    1    2    0    0  0.48580649157E+02 -0.82910473801E+01 -0.56618990936E+02  0.14589339242E+03  0.12510136241E+03 0.  0.
          5    1    3    3  502    0  0.32232581602E+02 -0.42195836799E+02 -0.83788046120E+02  0.99284122761E+02  0.41800000000E+01 0.  1.
         -5    1    3    3    0  502  0.16348067555E+02  0.33904789419E+02  0.27169055184E+02  0.46609269656E+02  0.41800000000E+01 0.  1.
        -11    1    1    2    0    0  0.13564876850E+02 -0.17491530489E+02  0.21095611577E+02  0.30577513807E+02  0.00000000000E+00 0.  1.
         11    1    1    2    0    0 -0.62145526007E+02  0.25782577869E+02 -0.32888444045E+02  0.74889635304E+02  0.00000000000E+00 0. -1.
</event>
<event>
 7    1  0.2644565E-009  0.1439824E+03  0.7561462E-02  0.1208069E+00
         -1   -1    0    0    0  501 -0.00000000000E+00  0.00000000000E+00  0.10785508694E+03  0.10785508694E+03  0.00000000000E+00 0.  1.
          1   -1    0    0  501    0  0.00000000000E+00 -0.00000000000E+00 -0.38848997158E+03  0.38848997158E+03  0.00000000000E+00 0. -1.
         25    2    1    2    0    0  0.37993818334E+02  0.13202955380E+03 -0.27386289073E+03  0.33094364812E+03  0.12508989569E+03 0.  0.
          5    1    3    3  502    0  0.47662459694E+02  0.13129363486E+03 -0.14401700406E+03  0.20066912686E+03  0.41800000000E+01 0. -1.
         -5    1    3    3    0  502 -0.96686413595E+01  0.73591893919E+00 -0.12984588668E+03  0.13027452126E+03  0.41800000000E+01 0. -1.
        -11    1    1    2    0    0 -0.21757388566E+02 -0.59831473885E+02 -0.48874507880E+02  0.80261489800E+02  0.00000000000E+00 0. -1.
         11    1    1    2    0    0 -0.16236429769E+02 -0.72198079916E+02  0.42102513971E+02  0.85139920589E+02  0.00000000000E+00 0.  1.
</event>
<event>
 7    1  0.2644565E-009  0.1947530E+03  0.7561462E-02  0.1154243E+00
         -1   -1    0    0    0  501 -0.00000000000E+00  0.00000000000E+00  0.68431835392E+03  0.68431835392E+03  0.00000000000E+00 0.  1.
          1   -1    0    0  501    0  0.00000000000E+00 -0.00000000000E+00 -0.99138906714E+02  0.99138906714E+02  0.00000000000E+00 0. -1.
         25    2    1    2    0    0 -0.16283679986E+03 -0.61957357188E+02  0.61087473968E+02  0.22301171455E+03  0.12509199756E+03 0.  0.
          5    1    3    3  502    0 -0.34801332796E+02 -0.77231391358E+02  0.15730502044E+02  0.86259733770E+02  0.41800000000E+01 0.  1.
         -5    1    3    3    0  502 -0.12803546706E+03  0.15274034170E+02  0.45356971925E+02  0.13675198078E+03  0.41800000000E+01 0.  1.
        -11    1    1    2    0    0  0.20688277931E+02  0.16435379639E+02  0.16012207080E+02  0.30895263767E+02  0.00000000000E+00 0. -1.
         11    1    1    2    0    0  0.14214852192E+03  0.45521977549E+02  0.50807976616E+03  0.52955028232E+03  0.00000000000E+00 0.  1.
</event>
<event>
 7    1  0.2644565E-009  0.6678621E+02  0.7561462E-02  0.1371376E+00
         -1   -1    0    0    0  501 -0.00000000000E+00  0.00000000000E+00  0.78012302662E+02  0.78012302662E+02  0.00000000000E+00 0.  1.
          1   -1    0    0  501    0  0.00000000000E+00 -0.00000000000E+00 -0.26648595701E+03  0.26648595701E+03  0.00000000000E+00 0. -1.
         25    2    1    2    0    0  0.67968973344E+00  0.47002547018E+02 -0.10818735783E+02  0.13407032488E+03  0.12509238812E+03 0.  0.
          5    1    3    3  502    0  0.24801177736E+01  0.31498166620E+02  0.56483890774E+02  0.64855129339E+02  0.41800000000E+01 0.  1.
         -5    1    3    3    0  502 -0.18004280401E+01  0.15504380398E+02 -0.67302626557E+02  0.69215195544E+02  0.41800000000E+01 0.  1.
        -11    1    1    2    0    0 -0.24543594060E+02 -0.55118992028E+02 -0.44663264159E+02  0.75068624983E+02  0.00000000000E+00 0.  1.
         11    1    1    2    0    0  0.23863904326E+02  0.81164450106E+01 -0.13299165441E+03  0.13535930981E+03  0.00000000000E+00 0. -1.
</event>
<event>
 7    1  0.2644565E-009  0.1689359E+03  0.7561462E-02  0.1178962E+00
          2   -1    0    0  501    0  0.00000000000E+00  0.00000000000E+00  0.10918215364E+04  0.10918215364E+04  0.00000000000E+00 0. -1.
         -2   -1    0    0    0  501 -0.00000000000E+00 -0.00000000000E+00 -0.29236308464E+02  0.29236308464E+02  0.00000000000E+00 0.  1.
         25    2    1    2    0    0  0.43768791475E+02 -0.13109767729E+03  0.54433546863E+03  0.57537043282E+03  0.12509086480E+03 0.  0.
          5    1    3    3  502    0 -0.33343859964E+02 -0.67340047444E+01  0.56878100752E+02  0.66405952762E+02  0.41800000000E+01 0. -1.
         -5    1    3    3    0  502  0.77112651439E+02 -0.12436367254E+03  0.48745736788E+03  0.50896448005E+03  0.41800000000E+01 0. -1.
        -11    1    1    2    0    0 -0.41036386870E+02  0.19249609812E+02  0.67834268386E+02  0.81584437810E+02  0.00000000000E+00 0.  1.
         11    1    1    2    0    0 -0.27324046049E+01  0.11184806748E+03  0.45041549091E+03  0.46410297422E+03  0.00000000000E+00 0. -1.
</event>
<event>
 7    1  0.2644565E-009  0.1552253E+03  0.7561462E-02  0.1194195E+00
         -2   -1    0    0    0  501 -0.00000000000E+00  0.00000000000E+00  0.15725317441E+02  0.15725317441E+02  0.00000000000E+00 0.  1.
          2   -1    0    0  501    0  0.00000000000E+00 -0.00000000000E+00 -0.17202384493E+04  0.17202384493E+04  0.00000000000E+00 0. -1.
         25    2    1    2    0    0  0.93760342482E+02 -0.79047188518E+02 -0.99076707855E+03  0.10061341062E+04  0.12508787295E+03 0.  0.
          5    1    3    3  502    0  0.54573316094E+02  0.17114697563E+02 -0.18476847512E+03  0.19346323036E+03  0.41800000000E+01 0.  1.
         -5    1    3    3    0  502  0.39187026388E+02 -0.96161886081E+02 -0.80599860343E+03  0.81267087588E+03  0.41800000000E+01 0.  1.
        -11    1    1    2    0    0 -0.10942933480E+03  0.61011465237E+02 -0.64485620897E+03  0.65691453664E+03  0.00000000000E+00 0.  1.
         11    1    1    2    0    0  0.15668992319E+02  0.18035723281E+02 -0.68889844338E+02  0.72915123860E+02  0.00000000000E+00 0. -1.
</event>
<event>
 7    1  0.2644565E-009  0.1146424E+03  0.7561462E-02  0.1252207E+00
         -2   -1    0    0    0  501 -0.00000000000E+00  0.00000000000E+00  0.44219325089E+02  0.44219325089E+02  0.00000000000E+00 0. -1.
          2   -1    0    0  501    0  0.00000000000E+00 -0.00000000000E+00 -0.38538789604E+03  0.38538789604E+03  0.00000000000E+00 0.  1.
         25    2    1    2    0    0 -0.35932081511E+02 -0.60213115050E+02 -0.21603693389E+03  0.25929701635E+03  0.12508497982E+03 0.  0.
          5    1    3    3  502    0  0.17388163738E+02 -0.80244390682E+02 -0.96182593510E+02  0.12653092179E+03  0.41800000000E+01 0. -1.
         -5    1    3    3    0  502 -0.53320245249E+02  0.20031275632E+02 -0.11985434038E+03  0.13276609456E+03  0.41800000000E+01 0. -1.
        -11    1    1    2    0    0  0.48603833301E+02  0.29798777459E+02 -0.12497129451E+03  0.13736129077E+03  0.00000000000E+00 0.  1.
         11    1    1    2    0    0 -0.12671751790E+02  0.30414337591E+02 -0.16034254321E+00  0.32948914007E+02  0.00000000000E+00 0. -1.
</event>
<event>
 7    1  0.2644565E-009  0.1199570E+03  0.7561462E-02  0.1243168E+00
         -1   -1    0    0    0  501 -0.00000000000E+00  0.00000000000E+00  0.19305746482E+02  0.19305746482E+02  0.00000000000E+00 0.  1.
          1   -1    0    0  501    0  0.00000000000E+00 -0.00000000000E+00 -0.83230494439E+03  0.83230494439E+03  0.00000000000E+00 0. -1.
         25    2    1    2    0    0  0.26545729839E+02  0.44005357088E+02 -0.32135684660E+03  0.34865296460E+03  0.12509004613E+03 0.  0.
          5    1    3    3  502    0  0.41050443769E+02  0.83000993549E+02 -0.23754340430E+03  0.25498753929E+03  0.41800000000E+01 0. -1.
         -5    1    3    3    0  502 -0.14504713929E+02 -0.38995636461E+02 -0.83813442299E+02  0.93665425313E+02  0.41800000000E+01 0. -1.
        -11    1    1    2    0    0 -0.13516978890E+02 -0.72671962758E+02 -0.31746672046E+03  0.32595864997E+03  0.00000000000E+00 0. -1.
         11    1    1    2    0    0 -0.13028750949E+02  0.28666605670E+02 -0.17417563085E+03  0.17699907631E+03  0.00000000000E+00 0.  1.
</event>
<event>
 7    1  0.2644565E-009  0.1208250E+03  0.7561462E-02  0.1241742E+00
          2   -1    0    0  501    0  0.00000000000E+00  0.00000000000E+00  0.82215328016E+03  0.82215328016E+03  0.00000000000E+00 0. -1.
         -2   -1    0    0    0  501 -0.00000000000E+00 -0.00000000000E+00 -0.28595075632E+02  0.28595075632E+02  0.00000000000E+00 0.  1.
         25    2    1    2    0    0 -0.61669132262E+02  0.43027954561E+02  0.63355696882E+03  0.65015149767E+03  0.12509216778E+03 0.  0.
          5    1    3    3  502    0 -0.51370451577E+02  0.73352253324E+02  0.58503290581E+03  0.59186185013E+03  0.41800000000E+01 0. -1.
         -5    1    3    3    0  502 -0.10298680685E+02 -0.30324298762E+02  0.48524063005E+02  0.58289647535E+02  0.41800000000E+01 0. -1.
        -11    1    1    2    0    0 -0.20803725441E+02 -0.29547704548E+02  0.62392359216E+02  0.72101791413E+02  0.00000000000E+00 0.  1.
         11    1    1    2    0    0  0.82472857703E+02 -0.13480250013E+02  0.97608876496E+02  0.12849506671E+03  0.00000000000E+00 0. -1.
</event>
<event>
 7    1  0.2644565E-009  0.8393873E+02  0.7561462E-02  0.1318231E+00
          1   -1    0    0  501    0  0.00000000000E+00  0.00000000000E+00  0.37375791816E+03  0.37375791816E+03  0.00000000000E+00 0. -1.
         -1   -1    0    0    0  501 -0.00000000000E+00 -0.00000000000E+00 -0.37840394850E+02  0.37840394850E+02  0.00000000000E+00 0.  1.
         25    2    1    2    0    0  0.66277737027E+01  0.11294018448E+02  0.27055899635E+03  0.29836461448E+03  0.12509112850E+03 0.  0.
          5    1    3    3  502    0  0.14129583726E+02  0.46476742170E+02  0.34951800800E+02  0.59990278197E+02  0.41800000000E+01 0.  1.
         -5    1    3    3    0  502 -0.75018100236E+01 -0.35182723722E+02  0.23560719555E+03  0.23837433628E+03  0.41800000000E+01 0.  1.
        -11    1    1    2    0    0  0.37066566226E+02  0.23199899180E+01  0.49819072722E+01  0.37471750494E+02  0.00000000000E+00 0.  1.
         11    1    1    2    0    0 -0.43694339929E+02 -0.13614008366E+02  0.60376619689E+02  0.75761948039E+02  0.00000000000E+00 0. -1.
</event>
<event>
 7    1  0.2644565E-009  0.1252827E+03  0.7561462E-02  0.1234628E+00
          1   -1    0    0  501    0  0.00000000000E+00  0.00000000000E+00  0.58056651197E+03  0.58056651197E+03  0.00000000000E+00 0. -1.
         -1   -1    0    0    0  501 -0.00000000000E+00 -0.00000000000E+00 -0.32570187610E+02  0.32570187610E+02  0.00000000000E+00 0.  1.
         25    2    1    2    0    0 -0.71781741337E+02 -0.17610338797E+02  0.24460545334E+03  0.28450297273E+03  0.12508945305E+03 0.  0.
          5    1    3    3  502    0  0.29089946170E+02  0.98513414335E+01  0.20456091751E+02  0.37137554927E+02  0.41800000000E+01 0.  1.
         -5    1    3    3    0  502 -0.10087168751E+03 -0.27461680231E+02  0.22414936159E+03  0.24736541780E+03  0.41800000000E+01 0.  1.
        -11    1    1    2    0    0  0.39025363781E+02 -0.35360294639E+02  0.20910942210E+03  0.21563877171E+03  0.00000000000E+00 0. -1.
         11    1    1    2    0    0  0.32756377556E+02  0.52970633436E+02  0.94281448924E+02  0.11299495515E+03  0.00000000000E+00 0.  1.
</event>
<event>
 7    1  0.2644565E-009  0.1199218E+03  0.7561462E-02  0.1243226E+00
         -2   -1    0    0    0  501 -0.00000000000E+00  0.00000000000E+00  0.68099125460E+02  0.68099125460E+02  0.00000000000E+00 0.  1.
          2   -1    0    0  501    0  0.00000000000E+00 -0.00000000000E+00 -0.28662001452E+03  0.28662001452E+03  0.00000000000E+00 0. -1.
         25    2    1    2    0    0  0.45569732707E+02  0.66225391957E+02 -0.81023397547E+02  0.16933602784E+03  0.12508995281E+03 0.  0.
          5    1    3    3  502    0  0.86654377321E+02  0.63010536977E+02 -0.60387422948E+02  0.12305861258E+03  0.41800000000E+01 0.  1.
         -5    1    3    3    0  502 -0.41084644614E+02  0.32148549800E+01 -0.20635974599E+02  0.46277415261E+02  0.41800000000E+01 0.  1.
        -11    1    1    2    0    0  0.66037834218E+01 -0.21459315716E+02  0.85017942834E+01  0.24008179700E+02  0.00000000000E+00 0.  1.
         11    1    1    2    0    0 -0.52173516128E+02 -0.44766076242E+02 -0.14599928579E+03  0.16137493244E+03  0.00000000000E+00 0. -1.
</event>
<event>
 7    1  0.2644565E-009  0.1048495E+03  0.7561462E-02  0.1270416E+00
          3   -1    0    0  501    0  0.00000000000E+00  0.00000000000E+00  0.45676148604E+03  0.45676148604E+03  0.00000000000E+00 0. -1.
         -3   -1    0    0    0  501 -0.00000000000E+00 -0.00000000000E+00 -0.35000976632E+02  0.35000976632E+02  0.00000000000E+00 0.  1.
         25    2    1    2    0    0  0.68888141781E+01 -0.62468045729E+02  0.22574014829E+03  0.26562284905E+03  0.12508865214E+03 0.  0.
          5    1    3    3  502    0 -0.56168246774E+01 -0.89512297478E+02  0.92043665905E+02  0.12858269305E+03  0.41800000000E+01 0. -1.
         -5    1    3    3    0  502  0.12505638856E+02  0.27044251749E+02  0.13369648238E+03  0.13704015600E+03  0.41800000000E+01 0. -1.
        -11    1    1    2    0    0 -0.31495850159E+02  0.56214801065E+02  0.18916873995E+03  0.19984219927E+03  0.00000000000E+00 0. -1.
         11    1    1    2    0    0  0.24607035981E+02  0.62532446644E+01  0.68516211723E+01  0.26297414346E+02  0.00000000000E+00 0.  1.
</event>
<event>
 7    1  0.2644565E-009  0.1192573E+03  0.7561462E-02  0.1244327E+00
         -2   -1    0    0    0  501 -0.00000000000E+00  0.00000000000E+00  0.88952078826E+02  0.88952078826E+02  0.00000000000E+00 0.  1.
          2   -1    0    0  501    0  0.00000000000E+00 -0.00000000000E+00 -0.20266639975E+03  0.20266639975E+03  0.00000000000E+00 0. -1.
         25    2    1    2    0    0  0.25401640391E+02 -0.70641463729E+02 -0.93385642199E+02  0.17321455610E+03  0.12508774738E+03 0.  0.
          5    1    3    3  502    0 -0.38809100265E+02  0.86931847222E+01 -0.44949521981E+02  0.60163524251E+02  0.41800000000E+01 0.  1.
         -5    1    3    3    0  502  0.64210740655E+02 -0.79334648451E+02 -0.48436120218E+02  0.11305103185E+03  0.41800000000E+01 0.  1.
        -11    1    1    2    0    0 -0.30956887297E+02  0.60461958596E+01 -0.39731188456E+02  0.50729209452E+02  0.00000000000E+00 0. -1.
         11    1    1    2    0    0  0.55552469058E+01  0.64595267870E+02  0.19402509730E+02  0.67674713026E+02  0.00000000000E+00 0.  1.
</event>
<event>
 7    1  0.2644565E-009  0.9925221E+02  0.7561462E-02  0.1281876E+00
          2   -1    0    0  501    0  0.00000000000E+00  0.00000000000E+00  0.52379272162E+03  0.52379272162E+03  0.00000000000E+00 0. -1.
         -2   -1    0    0    0  501 -0.00000000000E+00 -0.00000000000E+00 -0.28139038581E+02  0.28139038581E+02  0.00000000000E+00 0.  1.
         25    2    1    2    0    0 -0.16579599865E+02  0.18081890979E+02  0.38950206998E+03  0.40983090258E+03  0.12509064023E+03 0.  0.
          5    1    3    3  502    0 -0.62742730572E+02 -0.14729801010E+02  0.14357782958E+03  0.15743469384E+03  0.41800000000E+01 0.  1.
         -5    1    3    3    0  502  0.46163130708E+02  0.32811691989E+02  0.24592424040E+03  0.25239620873E+03  0.41800000000E+01 0.  1.
        -11    1    1    2    0    0  0.39161905086E+02  0.10651826291E+02  0.95915911070E+02  0.10414882721E+03  0.00000000000E+00 0. -1.
         11    1    1    2    0    0 -0.22582305221E+02 -0.28733717271E+02  0.10235701988E+02  0.37952030413E+02  0.00000000000E+00 0.  1.
</event>
<event>
 7    1  0.2644565E-009  0.1035083E+03  0.7561462E-02  0.1273087E+00
          2   -1    0    0  501    0  0.00000000000E+00  0.00000000000E+00  0.46350984804E+03  0.46350984804E+03  0.00000000000E+00 0. -1.
         -2   -1    0    0    0  501 -0.00000000000E+00 -0.00000000000E+00 -0.31895576583E+02  0.31895576583E+02  0.00000000000E+00 0.  1.
         25    2    1    2    0    0 -0.73312683899E+01  0.30540848459E+02  0.32742951159E+03  0.35191348669E+03  0.12508607490E+03 0.  0.
          5    1    3    3  502    0 -0.39934044197E+00 -0.39586234917E+02  0.21859110563E+03  0.22218634820E+03  0.41800000000E+01 0. -1.
         -5    1    3    3    0  502 -0.69319279479E+01  0.70127083376E+02  0.10883840596E+03  0.12972713849E+03  0.41800000000E+01 0. -1.
        -11    1    1    2    0    0 -0.32869953496E+02 -0.43368459916E+02  0.72856400234E+02  0.90935758717E+02  0.00000000000E+00 0. -1.
         11    1    1    2    0    0  0.40201221886E+02  0.12827611457E+02  0.31328359640E+02  0.52556179223E+02  0.00000000000E+00 0.  1.
</event>
<event>
 7    1  0.2644565E-009  0.1595308E+03  0.7561462E-02  0.1189228E+00
         -2   -1    0    0    0  501 -0.00000000000E+00  0.00000000000E+00  0.47422006012E+02  0.47422006012E+02  0.00000000000E+00 0.  1.
          2   -1    0    0  501    0  0.00000000000E+00 -0.00000000000E+00 -0.91471427626E+03  0.91471427626E+03  0.00000000000E+00 0. -1.
         25    2    1    2    0    0  0.12475095390E+03  0.67754426609E+02 -0.20593386063E+03  0.27966038695E+03  0.12509082401E+03 0.  0.
          5    1    3    3  502    0  0.31719374201E+02  0.48484302725E+02 -0.61701394037E+01  0.58415659978E+02  0.41800000000E+01 0.  1.
         -5    1    3    3    0  502  0.93031579704E+02  0.19270123884E+02 -0.19976372122E+03  0.22124472697E+03  0.41800000000E+01 0.  1.
        -11    1    1    2    0    0 -0.64157063898E+02 -0.81518238587E+02 -0.46878543623E+03  0.48012616810E+03  0.00000000000E+00 0.  1.
         11    1    1    2    0    0 -0.60593890007E+02  0.13763811978E+02 -0.19257297339E+03  0.20234972722E+03  0.00000000000E+00 0. -1.
</event>
<event>
 7    1  0.2644565E-009  0.1180353E+03  0.7561462E-02  0.1246374E+00
          3   -1    0    0  501    0  0.00000000000E+00  0.00000000000E+00  0.22824218970E+02  0.22824218970E+02  0.00000000000E+00 0. -1.
         -3   -1    0    0    0  501 -0.00000000000E+00 -0.00000000000E+00 -0.61883818828E+03  0.61883818828E+03  0.00000000000E+00 0.  1.
         25    2    1    2    0    0  0.74173848076E+01 -0.44606530109E+02 -0.31435605621E+03  0.34133612566E+03  0.12508341407E+03 0.  0.
          5    1    3    3  502    0  0.21053708524E+02  0.40343992588E+02 -0.88308299480E+02  0.99432009623E+02  0.41800000000E+01 0. -1.
         -5    1    3    3    0  502 -0.13636323717E+02 -0.84950522697E+02 -0.22604775673E+03  0.24190411604E+03  0.41800000000E+01 0. -1.
        -11    1    1    2    0    0  0.18763869161E+02  0.67125626047E+02 -0.18907380289E+03  0.20151137783E+03  0.00000000000E+00 0.  1.
         11    1    1    2    0    0 -0.26181253969E+02 -0.22519095938E+02 -0.92584110211E+02  0.98814903759E+02  0.00000000000E+00 0. -1.
</event>
<event>
 7    1  0.2644565E-009  0.1274790E+03  0.7561462E-02  0.1231245E+00
          2   -1    0    0  501    0  0.00000000000E+00  0.00000000000E+00  0.12109310102E+04  0.12109310102E+04  0.00000000000E+00 0.  1.
         -2   -1    0    0    0  501 -0.00000000000E+00 -0.00000000000E+00 -0.21992086249E+02  0.21992086249E+02  0.00000000000E+00 0. -1.
         25    2    1    2    0    0 -0.89840059851E+02  0.15934676604E+02  0.95579535335E+03  0.96825664100E+03  0.12510401705E+03 0.  0.
          5    1    3    3  502    0 -0.68689564414E+02  0.59661783560E+02  0.39584012811E+03  0.40618304260E+03  0.41800000000E+01 0.  1.
         -5    1    3    3    0  502 -0.21150495437E+02 -0.43727106955E+02  0.55995522524E+03  0.56207359839E+03  0.41800000000E+01 0.  1.
        -11    1    1    2    0    0  0.47885145352E+02 -0.43690292510E+02  0.18079887981E+03  0.19206786235E+03  0.00000000000E+00 0.  1.
         11    1    1    2    0    0  0.41954914499E+02  0.27755615906E+02  0.52344690746E+02  0.72598593059E+02  0.00000000000E+00 0. -1.
</event>
<event>
 7    1  0.2644565E-009  0.1034109E+03  0.7561462E-02  0.1273282E+00
         -3   -1    0    0    0  501 -0.00000000000E+00  0.00000000000E+00  0.49378040711E+03  0.49378040711E+03  0.00000000000E+00 0.  1.
          3   -1    0    0  501    0  0.00000000000E+00 -0.00000000000E+00 -0.28671579301E+02  0.28671579301E+02  0.00000000000E+00 0. -1.
         25    2    1    2    0    0 -0.22811401337E+02 -0.42037006235E+02  0.28241017228E+03  0.31255087104E+03  0.12508026086E+03 0.  0.
          5    1    3    3  502    0  0.37756816514E+02 -0.59626908505E+02  0.15029158154E+03  0.16609026851E+03  0.41800000000E+01 0. -1.
         -5    1    3    3    0  502 -0.60568217851E+02  0.17589902270E+02  0.13211859074E+03  0.14646060253E+03  0.41800000000E+01 0. -1.
        -11    1    1    2    0    0 -0.18147961227E+02  0.17247617493E+02  0.14963967732E+03  0.15171968176E+03  0.00000000000E+00 0.  1.
         11    1    1    2    0    0  0.40959362564E+02  0.24789388741E+02  0.33058978200E+02  0.58181433597E+02  0.00000000000E+00 0. -1.
</event>
<event>
 6    1  0.2644565E-009  0.1431270E+03  0.7561462E-02  0.1209182E+00
         -1   -1    0    0    0  501 -0.00000000000E+00  0.00000000000E+00  0.76200065254E+02  0.76200065254E+02  0.00000000000E+00 0.  1.
          1   -1    0    0  501    0  0.00000000000E+00 -0.00000000000E+00 -0.34560009625E+03  0.34560009625E+03  0.00000000000E+00 0. -1.
          5    1    1    2  502    0 -0.61951194157E+02  0.12804197867E+03 -0.98939120359E+02  0.17331797569E+03  0.41800000000E+01 0. -1.
         -5    1    1    2    0  502  0.10870689737E+02 -0.23913339244E+02 -0.72140096058E+01  0.27559644841E+02  0.41800000000E+01 0. -1.
        -11    1    1    2    0    0  0.41656463705E+02 -0.65764604059E+02 -0.16386122142E+03  0.18141318585E+03  0.00000000000E+00 0. -1.
         11    1    1    2    0    0  0.94240407147E+01 -0.38364035369E+02  0.61432038091E+00  0.39509355129E+02  0.00000000000E+00 0.  1.
</event>
<event>
 7    1  0.2644565E-009  0.3077506E+03  0.7561462E-02  0.1081429E+00
         -2   -1    0    0    0  501 -0.00000000000E+00  0.00000000000E+00  0.61413505349E+02  0.61413505349E+02  0.00000000000E+00 0.  1.
          2   -1    0    0  501    0  0.00000000000E+00 -0.00000000000E+00 -0.17511916749E+04  0.17511916749E+04  0.00000000000E+00 0. -1.
         25    2    1    2    0    0 -0.29028362422E+03  0.45473943394E+02 -0.11250877145E+04  0.11695307451E+04  0.12508931384E+03 0.  0.
          5    1    3    3  502    0 -0.37494757699E+02 -0.33503631511E+02 -0.12108552454E+03  0.13117746313E+03  0.41800000000E+01 0. -1.
         -5    1    3    3    0  502 -0.25278886652E+03  0.78977574905E+02 -0.10040021899E+04  0.10383532820E+04  0.41800000000E+01 0. -1.
        -11    1    1    2    0    0  0.80396910525E+02  0.14921029834E+02 -0.22329160703E+03  0.23779285550E+03  0.00000000000E+00 0.  1.
         11    1    1    2    0    0  0.20988671369E+03 -0.60394973228E+02 -0.34139884810E+03  0.40528157972E+03  0.00000000000E+00 0. -1.
</event>
<event>
 7    1  0.2644565E-009  0.1092242E+03  0.7561462E-02  0.1262013E+00
          1   -1    0    0  501    0  0.00000000000E+00  0.00000000000E+00  0.93059450006E+03  0.93059450006E+03  0.00000000000E+00 0. -1.
         -1   -1    0    0    0  501 -0.00000000000E+00 -0.00000000000E+00 -0.18250779617E+02  0.18250779617E+02  0.00000000000E+00 0.  1.
         25    2    1    2    0    0  0.73512386666E+01 -0.66032215175E+02  0.61390961094E+03  0.63003585095E+03  0.12508344783E+03 0.  0.
          5    1    3    3  502    0 -0.51464432296E+02 -0.10465850505E+02  0.14715733656E+03  0.15630379369E+03  0.41800000000E+01 0. -1.
         -5    1    3    3    0  502  0.58815670963E+02 -0.55566364671E+02  0.46675227438E+03  0.47373205726E+03  0.41800000000E+01 0. -1.
        -11    1    1    2    0    0  0.22529524104E+02  0.35321673470E+02  0.43857901087E+02  0.60652415953E+02  0.00000000000E+00 0.  1.
         11    1    1    2    0    0 -0.29880762771E+02  0.30710541705E+02  0.25457620841E+03  0.25815701278E+03  0.00000000000E+00 0. -1.
</event>
<event>
 7    1  0.2644565E-009  0.3415934E+03  0.7561462E-02  0.1066119E+00
         -3   -1    0    0    0  501 -0.00000000000E+00  0.00000000000E+00  0.97279367445E+03  0.97279367445E+03  0.00000000000E+00 0.  1.
          3   -1    0    0  501    0  0.00000000000E+00 -0.00000000000E+00 -0.13229763011E+03  0.13229763011E+03  0.00000000000E+00 0. -1.
         25    2    1    2    0    0 -0.14657826799E+03 -0.29067792397E+03  0.26684709741E+03  0.43912815329E+03  0.12508923808E+03 0.  0.
          5    1    3    3  502    0 -0.15155414167E+03 -0.17151070458E+03  0.18633187761E+03  0.29516371839E+03  0.41800000000E+01 0.  1.
         -5    1    3    3    0  502  0.49758736762E+01 -0.11916721938E+03  0.80515219803E+02  0.14396443489E+03  0.41800000000E+01 0.  1.
        -11    1    1    2    0    0  0.26704970871E+01  0.78532700014E+02  0.17737701549E+03  0.19400289212E+03  0.00000000000E+00 0.  1.
         11    1    1    2    0    0  0.14390777090E+03  0.21214522395E+03  0.39627193144E+03  0.47196025915E+03  0.00000000000E+00 0. -1.
</event>
<event>
 7    1  0.2644565E-009  0.1327959E+03  0.7561462E-02  0.1223365E+00
         -2   -1    0    0    0  501 -0.00000000000E+00  0.00000000000E+00  0.24057655519E+03  0.24057655519E+03  0.00000000000E+00 0.  1.
          2   -1    0    0  501    0  0.00000000000E+00 -0.00000000000E+00 -0.97777172669E+02  0.97777172669E+02  0.00000000000E+00 0. -1.
         25    2    1    2    0    0  0.84468723660E+02 -0.38781723187E+02  0.15707305981E+02  0.15663054337E+03  0.12508964915E+03 0.  0.
          5    1    3    3  502    0 -0.98892799608E+01 -0.53222329483E+02  0.26605925391E+02  0.60462896719E+02  0.41800000000E+01 0.  1.
         -5    1    3    3    0  502  0.94358003621E+02  0.14440606296E+02 -0.10898619409E+02  0.96167646652E+02  0.41800000000E+01 0.  1.
        -11    1    1    2    0    0 -0.95748569099E+02  0.27098423975E+02  0.13148920440E+03  0.16489852619E+03  0.00000000000E+00 0.  1.
         11    1    1    2    0    0  0.11279845439E+02  0.11683299212E+02 -0.43971278551E+01  0.16824658302E+02  0.00000000000E+00 0. -1.
</event>
<event>
 7    1  0.2644565E-009  0.1106365E+03  0.7561462E-02  0.1259396E+00
         -1   -1    0    0    0  501 -0.00000000000E+00  0.00000000000E+00  0.13333314577E+03  0.13333314577E+03  0.00000000000E+00 0.  1.
          1   -1    0    0  501    0  0.00000000000E+00 -0.00000000000E+00 -0.11050244289E+03  0.11050244289E+03  0.00000000000E+00 0. -1.
         25    2    1    2    0    0 -0.28244569615E+02 -0.41605630377E+02 -0.10588842268E+02  0.13520689823E+03  0.12505997584E+03 0.  0.
          5    1    3    3  502    0  0.36061528093E+02 -0.41808578366E+02  0.25925111094E+02  0.61138979535E+02  0.41800000000E+01 0.  1.
         -5    1    3    3    0  502 -0.64306097707E+02  0.20294798877E+00 -0.36513953362E+02  0.74067918699E+02  0.41800000000E+01 0.  1.
        -11    1    1    2    0    0 -0.17810990519E+02 -0.18538529354E+02  0.17837272400E+02  0.31290201990E+02  0.00000000000E+00 0.  1.
         11    1    1    2    0    0  0.46055560134E+02  0.60144159731E+02  0.15582272753E+02  0.77338488433E+02  0.00000000000E+00 0. -1.
</event>
<event>
 7    1  0.2644565E-009  0.2223846E+03  0.7561462E-02  0.1132118E+00
          2   -1    0    0  501    0  0.00000000000E+00  0.00000000000E+00  0.64991088767E+03  0.64991088767E+03  0.00000000000E+00 0. -1.
         -2   -1    0    0    0  501 -0.00000000000E+00 -0.00000000000E+00 -0.83791451099E+02  0.83791451099E+02  0.00000000000E+00 0.  1.
         25    2    1    2    0    0  0.52616191801E+02 -0.18886884286E+03  0.39498665287E+03  0.45836834082E+03  0.12508867447E+03 0.  0.
          5    1    3    3  502    0 -0.65470652823E+01 -0.16931537046E+03  0.27327853662E+03  0.32157299283E+03  0.41800000000E+01 0. -1.
         -5    1    3    3    0  502  0.59163257084E+02 -0.19553472392E+02  0.12170811625E+03  0.13679534800E+03  0.41800000000E+01 0. -1.
        -11    1    1    2    0    0 -0.68391988839E+02  0.91763285735E+02  0.11415926318E+03  0.16164869971E+03  0.00000000000E+00 0. -1.
         11    1    1    2    0    0  0.15775797038E+02  0.97105557121E+02  0.56973520517E+02  0.11368529824E+03  0.00000000000E+00 0.  1.
</event>
<event>
 7    1  0.2644565E-009  0.1180368E+03  0.7561462E-02  0.1246371E+00
          2   -1    0    0  501    0  0.00000000000E+00  0.00000000000E+00  0.12944110132E+03  0.12944110132E+03  0.00000000000E+00 0. -1.
         -2   -1    0    0    0  501 -0.00000000000E+00 -0.00000000000E+00 -0.12462638900E+03  0.12462638900E+03  0.00000000000E+00 0.  1.
         25    2    1    2    0    0 -0.22838584218E+02 -0.56499458022E+02  0.25265661516E+02  0.14142151850E+03  0.12509157669E+03 0.  0.
          5    1    3    3  502    0 -0.94088107073E+01  0.37057926786E+02  0.26667856935E+02  0.46802378680E+02  0.41800000000E+01 0.  1.
         -5    1    3    3    0  502 -0.13429773511E+02 -0.93557384808E+02 -0.14021954191E+01  0.94619139822E+02  0.41800000000E+01 0.  1.
        -11    1    1    2    0    0  0.34452546098E+02 -0.97007181404E+01 -0.27400731027E+02  0.45076400987E+02  0.00000000000E+00 0.  1.
         11    1    1    2    0    0 -0.11613961880E+02  0.66200176162E+02  0.69497818336E+01  0.67569570829E+02  0.00000000000E+00 0. -1.
</event>
<event>
 7    1  0.2644565E-009  0.2161580E+03  0.7561462E-02  0.1136780E+00
          1   -1    0    0  501    0  0.00000000000E+00  0.00000000000E+00  0.59893138863E+03  0.59893138863E+03  0.00000000000E+00 0. -1.
         -1   -1    0    0    0  501 -0.00000000000E+00 -0.00000000000E+00 -0.99382388015E+02  0.99382388015E+02  0.00000000000E+00 0.  1.
         25    2    1    2    0    0 -0.16934312976E+03 -0.10131896327E+03  0.39375919257E+03  0.45786007180E+03  0.12508763210E+03 0.  0.
          5    1    3    3  502    0 -0.86429069882E+02  0.17844617762E+02  0.15406363365E+03  0.17759924020E+03  0.41800000000E+01 0.  1.
         -5    1    3    3    0  502 -0.82914059876E+02 -0.11916358103E+03  0.23969555892E+03  0.28026083161E+03  0.41800000000E+01 0.  1.
        -11    1    1    2    0    0  0.51118957442E+02  0.18399603662E+02 -0.10145271053E+02  0.55268614507E+02  0.00000000000E+00 0.  1.
         11    1    1    2    0    0  0.11822417232E+03  0.82919359603E+02  0.11593507910E+03  0.18518509034E+03  0.00000000000E+00 0. -1.
</event>
<event>
 7    1  0.2644565E-009  0.1561611E+03  0.7561462E-02  0.1193100E+00
         -1   -1    0    0    0  501 -0.00000000000E+00  0.00000000000E+00  0.82007619261E+02  0.82007619261E+02  0.00000000000E+00 0.  1.
          1   -1    0    0  501    0  0.00000000000E+00 -0.00000000000E+00 -0.40311499610E+03  0.40311499610E+03  0.00000000000E+00 0. -1.
         25    2    1    2    0    0  0.52235882282E+02  0.13521766447E+03 -0.15473077337E+03  0.24617503577E+03  0.12509249308E+03 0.  0.
          5    1    3    3  502    0 -0.97102713408E+01  0.51777310609E+02  0.75947025279E+01  0.53388492860E+02  0.41800000000E+01 0.  1.
         -5    1    3    3    0  502  0.61946153623E+02  0.83440353864E+02 -0.16232547590E+03  0.19278654291E+03  0.41800000000E+01 0.  1.
        -11    1    1    2    0    0 -0.33688319249E+02 -0.13251232976E+03 -0.17167508927E+03  0.21946926133E+03  0.00000000000E+00 0. -1.
         11    1    1    2    0    0 -0.18547563033E+02 -0.27053347123E+01  0.52984858044E+01  0.19478318259E+02  0.00000000000E+00 0.  1.
</event>
<event>
 7    1  0.2644565E-009  0.1139378E+03  0.7561462E-02  0.1253447E+00
         -2   -1    0    0    0  501 -0.00000000000E+00  0.00000000000E+00  0.52331265344E+03  0.52331265344E+03  0.00000000000E+00 0.  1.
          2   -1    0    0  501    0  0.00000000000E+00 -0.00000000000E+00 -0.25177270266E+02  0.25177270266E+02  0.00000000000E+00 0. -1.
         25    2    1    2    0    0 -0.26199369729E+02 -0.31927438931E+02  0.28695733691E+03  0.31574904797E+03  0.12508868758E+03 0.  0.
          5    1    3    3  502    0 -0.36887870930E+02 -0.76679404771E+02  0.19662068732E+03  0.21428395465E+03  0.41800000000E+01 0.  1.
         -5    1    3    3    0  502  0.10688501201E+02  0.44751965840E+02  0.90336649590E+02  0.10146509333E+03  0.41800000000E+01 0.  1.
        -11    1    1    2    0    0  0.55426625440E+02  0.32289505658E+01  0.14017211545E+03  0.15076723410E+03  0.00000000000E+00 0. -1.
         11    1    1    2    0    0 -0.29227255711E+02  0.28698488365E+02  0.71005930819E+02  0.81973641632E+02  0.00000000000E+00 0.  1.
</event>
<event>
 7    1  0.2644565E-009  0.1292754E+03  0.7561462E-02  0.1228535E+00
          1   -1    0    0  501    0  0.00000000000E+00  0.00000000000E+00  0.14267730837E+03  0.14267730837E+03  0.00000000000E+00 0. -1.
         -1   -1    0    0    0  501 -0.00000000000E+00 -0.00000000000E+00 -0.13484001243E+03  0.13484001243E+03  0.00000000000E+00 0.  1.
         25    2    1    2    0    0  0.45739959737E+02  0.69665419306E+02  0.23903373376E+02  0.15220087503E+03  0.12509324737E+03 0.  0.
          5    1    3    3  502    0 -0.40989622962E+02  0.40844001166E+01  0.41831299596E+01  0.41614931108E+02  0.41800000000E+01 0.  1.
         -5    1    3    3    0  502  0.86729582700E+02  0.65581019189E+02  0.19720243417E+02  0.11058594392E+03  0.41800000000E+01 0.  1.
        -11    1    1    2    0    0 -0.22245000388E+02  0.10641984048E+02 -0.31733651895E+02  0.40188512404E+02  0.00000000000E+00 0.  1.
         11    1    1    2    0    0 -0.23494959350E+02 -0.80307403354E+02  0.15667574464E+02  0.85127933358E+02  0.00000000000E+00 0. -1.
</event>
<event>
 7    1  0.2644565E-009  0.1395759E+03  0.7561462E-02  0.1213901E+00
          1   -1    0    0  501    0  0.00000000000E+00  0.00000000000E+00  0.14519417844E+04  0.14519417844E+04  0.00000000000E+00 0. -1.
         -1   -1    0    0    0  501 -0.00000000000E+00 -0.00000000000E+00 -0.18888356736E+02  0.18888356736E+02  0.00000000000E+00 0.  1.
         25    2    1    2    0    0 -0.12452287385E+03  0.66021439826E+01  0.77518459538E+03  0.79505174643E+03  0.12508632283E+03 0.  0.
          5    1    3    3  502    0 -0.77942335889E+02 -0.19445097325E+02  0.17635465785E+03  0.19383383936E+03  0.41800000000E+01 0.  1.
         -5    1    3    3    0  502 -0.46580537965E+02  0.26047241308E+02  0.59882993753E+03  0.60121790707E+03  0.41800000000E+01 0.  1.
        -11    1    1    2    0    0  0.26752104054E+02 -0.34358713312E+02  0.10543745565E+03  0.11407564729E+03  0.00000000000E+00 0.  1.
         11    1    1    2    0    0  0.97770769800E+02  0.27756569330E+02  0.55243137666E+03  0.56170274745E+03  0.00000000000E+00 0. -1.
</event>
<event>
 7    1  0.2644565E-009  0.1036275E+03  0.7561462E-02  0.1272848E+00
         -2   -1    0    0    0  501 -0.00000000000E+00  0.00000000000E+00  0.30585775760E+02  0.30585775760E+02  0.00000000000E+00 0.  1.
          2   -1    0    0  501    0  0.00000000000E+00 -0.00000000000E+00 -0.68596875237E+03  0.68596875237E+03  0.00000000000E+00 0. -1.
         25    2    1    2    0    0 -0.44564222079E+02  0.69189196038E+02 -0.23364869336E+03  0.27751069602E+03  0.12508940706E+03 0.  0.
          5    1    3    3  502    0  0.30797073413E+01  0.75604302583E+01  0.14628804872E+02  0.17266123913E+02  0.41800000000E+01 0.  1.
         -5    1    3    3    0  502 -0.47643929420E+02  0.61628765780E+02 -0.24827749823E+03  0.26024457211E+03  0.41800000000E+01 0.  1.
        -11    1    1    2    0    0 -0.12231971243E+02 -0.61564665531E+02 -0.18070677318E+03  0.19129758763E+03  0.00000000000E+00 0.  1.
         11    1    1    2    0    0  0.56796193322E+02 -0.76245305071E+01 -0.24102751007E+03  0.24774624448E+03  0.00000000000E+00 0. -1.
</event>
<event>
 7    1  0.2644565E-009  0.2262991E+03  0.7561462E-02  0.1129272E+00
         -1   -1    0    0    0  501 -0.00000000000E+00  0.00000000000E+00  0.10751714811E+03  0.10751714811E+03  0.00000000000E+00 0.  1.
          1   -1    0    0  501    0  0.00000000000E+00 -0.00000000000E+00 -0.63123095873E+03  0.63123095873E+03  0.00000000000E+00 0. -1.
         25    2    1    2    0    0 -0.90897135112E+02  0.19553277211E+03 -0.40186958716E+03  0.47290793925E+03  0.12508956702E+03 0.  0.
          5    1    3    3  502    0 -0.14056399637E+02  0.59810430670E+02 -0.27724345422E+02  0.67535040658E+02  0.41800000000E+01 0. -1.
         -5    1    3    3    0  502 -0.76840735475E+02  0.13572234144E+03 -0.37414524174E+03  0.40537289859E+03  0.41800000000E+01 0. -1.
        -11    1    1    2    0    0  0.32123006087E+02 -0.13922471648E+01 -0.76030781113E+01  0.33039864845E+02  0.00000000000E+00 0.  1.
         11    1    1    2    0    0  0.58774129025E+02 -0.19414052494E+03 -0.11424114535E+03  0.23280030274E+03  0.00000000000E+00 0. -1.
</event>
<event>
 7    1  0.2644565E-009  0.1828071E+03  0.7561462E-02  0.1165114E+00
         -1   -1    0    0    0  501 -0.00000000000E+00  0.00000000000E+00  0.11010125905E+03  0.11010125905E+03  0.00000000000E+00 0.  1.
          1   -1    0    0  501    0  0.00000000000E+00 -0.00000000000E+00 -0.42810096946E+03  0.42810096946E+03  0.00000000000E+00 0. -1.
         25    2    1    2    0    0 -0.38096009072E+02 -0.17806801473E+03 -0.11091889219E+03  0.24720238529E+03  0.12508594993E+03 0.  0.
          5    1    3    3  502    0 -0.21892246385E+02 -0.57803218107E+02 -0.10945392298E+03  0.12577009236E+03  0.41800000000E+01 0.  1.
         -5    1    3    3    0  502 -0.16203762687E+02 -0.12026479662E+03 -0.14649692135E+01  0.12143229293E+03  0.41800000000E+01 0.  1.
        -11    1    1    2    0    0  0.19978861380E+02  0.11011303307E+03 -0.18688266183E+03  0.21782829074E+03  0.00000000000E+00 0.  1.
         11    1    1    2    0    0  0.18117147692E+02  0.67954981654E+02 -0.20198156393E+02  0.73171552490E+02  0.00000000000E+00 0. -1.
</event>
<event>
 7    1  0.2644565E-009  0.1447256E+03  0.7561462E-02  0.1207108E+00
          3   -1    0    0  501    0  0.00000000000E+00  0.00000000000E+00  0.59590262245E+02  0.59590262245E+02  0.00000000000E+00 0. -1.
         -3   -1    0    0    0  501 -0.00000000000E+00 -0.00000000000E+00 -0.63921712867E+03  0.63921712867E+03  0.00000000000E+00 0.  1.
         25    2    1    2    0    0  0.10600525239E+03  0.24635782396E+02 -0.51705681635E+03  0.54299094016E+03  0.12508946582E+03 0.  0.
          5    1    3    3  502    0  0.11155343850E+03  0.58839082864E+02 -0.45048170122E+03  0.46782202048E+03  0.41800000000E+01 0.  1.
         -5    1    3    3    0  502 -0.55481861056E+01 -0.34203300468E+02 -0.66575115133E+02  0.75168919687E+02  0.41800000000E+01 0.  1.
        -11    1    1    2    0    0  0.54367852125E+01 -0.15637640296E+02  0.12845121845E+02  0.20954512227E+02  0.00000000000E+00 0. -1.
         11    1    1    2    0    0 -0.11144203760E+03 -0.89981421007E+01 -0.75415171924E+02  0.13486193853E+03  0.00000000000E+00 0.  1.
</event>
<event>
 7    1  0.2644565E-009  0.1390350E+03  0.7561462E-02  0.1214633E+00
          2   -1    0    0  501    0  0.00000000000E+00  0.00000000000E+00  0.14424327356E+04  0.14424327356E+04  0.00000000000E+00 0.  1.
         -2   -1    0    0    0  501 -0.00000000000E+00 -0.00000000000E+00 -0.16565863344E+02  0.16565863344E+02  0.00000000000E+00 0. -1.
         25    2    1    2    0    0  0.16025882704E+02 -0.84754719009E+02  0.10588182484E+04  0.10696652647E+04  0.12508998377E+03 0.  0.
          5    1    3    3  502    0 -0.51555325270E+02 -0.54382995584E+02  0.43222486681E+03  0.43869268248E+03  0.41800000000E+01 0.  1.
         -5    1    3    3    0  502  0.67581207974E+02 -0.30371723424E+02  0.62659338160E+03  0.63097258223E+03  0.41800000000E+01 0.  1.
        -11    1    1    2    0    0  0.15655395683E+02 -0.16480112011E+02  0.85333644072E+02  0.88309208560E+02  0.00000000000E+00 0.  1.
         11    1    1    2    0    0 -0.31681278387E+02  0.10123483102E+03  0.28171497978E+03  0.30102412569E+03  0.00000000000E+00 0. -1.
</event>
<event>
 7    1  0.2644565E-009  0.1082091E+03  0.7561462E-02  0.1263923E+00
          2   -1    0    0  501    0  0.00000000000E+00  0.00000000000E+00  0.42576847996E+03  0.42576847996E+03  0.00000000000E+00 0.  1.
         -2   -1    0    0    0  501 -0.00000000000E+00 -0.00000000000E+00 -0.31578055992E+02  0.31578055992E+02  0.00000000000E+00 0. -1.
         25    2    1    2    0    0  0.35766631278E+02  0.23874993409E+02  0.21219384150E+03  0.25004677004E+03  0.12509154093E+03 0.  0.
          5    1    3    3  502    0  0.19186137284E+02 -0.45102614824E+02  0.14150286705E+03  0.14980950407E+03  0.41800000000E+01 0.  1.
         -5    1    3    3    0  502  0.16580493994E+02  0.68977608234E+02  0.70690974456E+02  0.10023726597E+03  0.41800000000E+01 0.  1.
        -11    1    1    2    0    0 -0.60526064900E+02  0.17194652107E+01  0.13798575018E+03  0.15068652343E+03  0.00000000000E+00 0.  1.
         11    1    1    2    0    0  0.24759433622E+02 -0.25594458620E+02  0.44010832288E+02  0.56613242479E+02  0.00000000000E+00 0. -1.
</event>
<event>
 7    1  0.2644565E-009  0.1030988E+03  0.7561462E-02  0.1273911E+00
         -1   -1    0    0    0  501 -0.00000000000E+00  0.00000000000E+00  0.16928063528E+03  0.16928063528E+03  0.00000000000E+00 0.  1.
          1   -1    0    0  501    0  0.00000000000E+00 -0.00000000000E+00 -0.10566702160E+03  0.10566702160E+03  0.00000000000E+00 0. -1.
         25    2    1    2    0    0 -0.41275713459E+02 -0.36487587591E+02  0.92107930324E+02  0.16486071355E+03  0.12514054289E+03 0.  0.
          5    1    3    3  502    0  0.24961743000E+02  0.26716697302E+02  0.28226484279E+01  0.36909487567E+02  0.41800000000E+01 0.  1.
         -5    1    3    3    0  502 -0.66237456459E+02 -0.63204284893E+02  0.89285281896E+02  0.12795122598E+03  0.41800000000E+01 0.  1.
        -11    1    1    2    0    0  0.45991588499E+02  0.47285861417E+02  0.12757023231E+02  0.67185716818E+02  0.00000000000E+00 0.  1.
         11    1    1    2    0    0 -0.47158750394E+01 -0.10798273826E+02 -0.41251339876E+02  0.42901226516E+02  0.00000000000E+00 0. -1.
</event>
<event>
 7    1  0.2644565E-009  0.1081172E+03  0.7561462E-02  0.1264097E+00
         -1   -1    0    0    0  501 -0.00000000000E+00  0.00000000000E+00  0.30984505959E+02  0.30984505959E+02  0.00000000000E+00 0.  1.
          1   -1    0    0  501    0  0.00000000000E+00 -0.00000000000E+00 -0.47457660249E+03  0.47457660249E+03  0.00000000000E+00 0. -1.
         25    2    1    2    0    0 -0.23777913202E+02 -0.50327184522E+02 -0.21919920954E+03  0.25844542082E+03  0.12509007722E+03 0.  0.
          5    1    3    3  502    0  0.40051680415E+02 -0.64430019308E+01 -0.21564223023E+02  0.46131740619E+02  0.41800000000E+01 0. -1.
         -5    1    3    3    0  502 -0.63829593617E+02 -0.43884182591E+02 -0.19763498652E+03  0.21231368020E+03  0.41800000000E+01 0. -1.
        -11    1    1    2    0    0  0.53752264134E+02  0.35700436110E+02 -0.10582951993E+03  0.12395045109E+03  0.00000000000E+00 0. -1.
         11    1    1    2    0    0 -0.29974350932E+02  0.14626748412E+02 -0.11856336706E+03  0.12316523654E+03  0.00000000000E+00 0.  1.
</event>
<event>
 7    1  0.2644565E-009  0.2612301E+03  0.7561462E-02  0.1106406E+00
         -4   -1    0    0    0  501 -0.00000000000E+00  0.00000000000E+00  0.40219622931E+03  0.40219622931E+03  0.00000000000E+00 0. -1.
          4   -1    0    0  501    0  0.00000000000E+00 -0.00000000000E+00 -0.22225073726E+03  0.22225073726E+03  0.00000000000E+00 0.  1.
         25    2    1    2    0    0  0.10276718980E+02  0.24677893166E+03  0.22523008761E+03  0.35690604625E+03  0.12509149219E+03 0.  0.
          5    1    3    3  502    0  0.43325167687E+02  0.30460077119E+02  0.19694770230E+02  0.56659004823E+02  0.41800000000E+01 0. -1.
         -5    1    3    3    0  502 -0.33048448707E+02  0.21631885454E+03  0.20553531738E+03  0.30024704143E+03  0.41800000000E+01 0. -1.
        -11    1    1    2    0    0  0.15494340266E+02 -0.62425435816E+02  0.24381247748E+02  0.68785571589E+02  0.00000000000E+00 0. -1.
         11    1    1    2    0    0 -0.25771059246E+02 -0.18435349585E+03 -0.69665843304E+02  0.19875534873E+03  0.00000000000E+00 0.  1.
</event>
<event>
 7    1  0.2644565E-009  0.1131820E+03  0.7561462E-02  0.1254788E+00
          2   -1    0    0  501    0  0.00000000000E+00  0.00000000000E+00  0.16984869801E+03  0.16984869801E+03  0.00000000000E+00 0.  1.
         -2   -1    0    0    0  501 -0.00000000000E+00 -0.00000000000E+00 -0.82727727653E+02  0.82727727653E+02  0.00000000000E+00 0. -1.
         25    2    1    2    0    0  0.24229413343E+02 -0.26009194708E+02  0.75042753944E+02  0.15014439780E+03  0.12509349540E+03 0.  0.
          5    1    3    3  502    0  0.69621761533E+02  0.11826250675E+02  0.43156945601E+02  0.82867630819E+02  0.41800000000E+01 0. -1.
         -5    1    3    3    0  502 -0.45392348190E+02 -0.37835445383E+02  0.31885808343E+02  0.67276766980E+02  0.41800000000E+01 0. -1.
        -11    1    1    2    0    0  0.23797981205E+02  0.39835567233E+02  0.22199289116E+02  0.51439525304E+02  0.00000000000E+00 0.  1.
         11    1    1    2    0    0 -0.48027394548E+02 -0.13826372525E+02 -0.10121072707E+02  0.50992502557E+02  0.00000000000E+00 0. -1.
</event>
<event>
 7    1  0.2644565E-009  0.1052550E+03  0.7561462E-02  0.1269618E+00
         -2   -1    0    0    0  501 -0.00000000000E+00  0.00000000000E+00  0.60604796210E+02  0.60604796210E+02  0.00000000000E+00 0.  1.
          2   -1    0    0  501    0  0.00000000000E+00 -0.00000000000E+00 -0.29057336909E+03  0.29057336909E+03  0.00000000000E+00 0. -1.
         25    2    1    2    0    0  0.71500629597E+02 -0.75291414659E+01 -0.84463159263E+02  0.16718479731E+03  0.12509077974E+03 0.  0.
          5    1    3    3  502    0  0.58395329952E+02  0.49723561077E+02 -0.75354996043E+02  0.10760248564E+03  0.41800000000E+01 0.  1.
         -5    1    3    3    0  502  0.13105299645E+02 -0.57252702543E+02 -0.91081632199E+01  0.59582311675E+02  0.41800000000E+01 0.  1.
        -11    1    1    2    0    0 -0.45240567620E+02 -0.53733150006E+01 -0.14778323474E+03  0.15464626068E+03  0.00000000000E+00 0. -1.
         11    1    1    2    0    0 -0.26260061977E+02  0.12902456467E+02  0.22778211280E+01  0.29347107302E+02  0.00000000000E+00 0.  1.
</event>
<event>
 7    1  0.2644565E-009  0.8744676E+02  0.7561462E-02  0.1309155E+00
         -1   -1    0    0    0  501 -0.00000000000E+00  0.00000000000E+00  0.57692576943E+02  0.57692576943E+02  0.00000000000E+00 0.  1.
          1   -1    0    0  501    0  0.00000000000E+00 -0.00000000000E+00 -0.51739087843E+03  0.51739087843E+03  0.00000000000E+00 0. -1.
         25    2    1    2    0    0  0.39347700280E+01  0.32423864506E+02 -0.46052285045E+03  0.47832533099E+03  0.12508811724E+03 0.  0.
          5    1    3    3  502    0  0.10748934948E+02 -0.33633924292E+02 -0.44237923999E+02  0.56756028627E+02  0.41800000000E+01 0.  1.
         -5    1    3    3    0  502 -0.68141649203E+01  0.66057788798E+02 -0.41628492645E+03  0.42156930236E+03  0.41800000000E+01 0.  1.
        -11    1    1    2    0    0 -0.34262971915E+02 -0.12317712593E+02 -0.31455667569E+02  0.48115863394E+02  0.00000000000E+00 0. -1.
         11    1    1    2    0    0  0.30328201887E+02 -0.20106151913E+02  0.32280216533E+02  0.48642260987E+02  0.00000000000E+00 0.  1.
</event>
<event>
 7    1  0.3466101E-009  0.2059998E+03  0.7561462E-02  0.1144773E+00
          2   -1    0    0  501    0  0.00000000000E+00  0.00000000000E+00  0.36309803615E+03  0.36309803615E+03  0.00000000000E+00 0. -1.
         -2   -1    0    0    0  501 -0.00000000000E+00 -0.00000000000E+00 -0.13743342091E+03  0.13743342091E+03  0.00000000000E+00 0.  1.
         25    2    1    2    0    0 -0.17399494439E+03 -0.45449189482E+02  0.20078616903E+03  0.29715620941E+03  0.12508739990E+03 0.  0.
          5    1    3    3  502    0 -0.93193665725E+01  0.29278276958E+02  0.61437066402E+02  0.68818991732E+02  0.41800000000E+01 0. -1.
         -5    1    3    3    0  502 -0.16467557782E+03 -0.74727466440E+02  0.13934910263E+03  0.22833721768E+03  0.41800000000E+01 0. -1.
        -11    1    1    2    0    0  0.74528188042E+02  0.64815968917E+02  0.25615986044E+02  0.10203793109E+03  0.00000000000E+00 0. -1.
         11    1    1    2    0    0  0.99466756352E+02 -0.19366779435E+02 -0.73753984061E+00  0.10133731657E+03  0.00000000000E+00 0.  1.
</event>
<event>
 7    1  0.2644565E-009  0.1104844E+03  0.7561462E-02  0.1259676E+00
         -2   -1    0    0    0  501 -0.00000000000E+00  0.00000000000E+00  0.22902710310E+02  0.22902710310E+02  0.00000000000E+00 0. -1.
          2   -1    0    0  501    0  0.00000000000E+00 -0.00000000000E+00 -0.63071280468E+03  0.63071280468E+03  0.00000000000E+00 0.  1.
         25    2    1    2    0    0  0.59906373957E+02 -0.23411866122E+01 -0.35633734686E+03  0.38238803263E+03  0.12510015160E+03 0.  0.
          5    1    3    3  502    0 -0.35606815086E+02 -0.41354288083E+01 -0.15978913028E+03  0.16381387490E+03  0.41800000000E+01 0.  1.
         -5    1    3    3    0  502  0.95513189043E+02  0.17942421961E+01 -0.19654821658E+03  0.21857415773E+03  0.41800000000E+01 0.  1.
        -11    1    1    2    0    0 -0.40051886246E+02  0.33564894321E+02 -0.20639863128E+03  0.21291113338E+03  0.00000000000E+00 0.  1.
         11    1    1    2    0    0 -0.19854487711E+02 -0.31223707709E+02 -0.45074116230E+02  0.58316348988E+02  0.00000000000E+00 0. -1.
</event>
<event>
 7    1  0.2644565E-009  0.2535191E+03  0.7561462E-02  0.1111101E+00
         -2   -1    0    0    0  501 -0.00000000000E+00  0.00000000000E+00  0.44190095430E+03  0.44190095430E+03  0.00000000000E+00 0.  1.
          2   -1    0    0  501    0  0.00000000000E+00 -0.00000000000E+00 -0.20725067244E+03  0.20725067244E+03  0.00000000000E+00 0. -1.
         25    2    1    2    0    0 -0.35699927203E+02 -0.24123408896E+03  0.27176816656E+03  0.38597180927E+03  0.12509168922E+03 0.  0.
          5    1    3    3  502    0 -0.65779636079E+02 -0.11371983073E+03  0.19149387935E+03  0.23226394178E+03  0.41800000000E+01 0. -1.
         -5    1    3    3    0  502  0.30079708876E+02 -0.12751425823E+03  0.80274287213E+02  0.15370786748E+03  0.41800000000E+01 0. -1.
        -11    1    1    2    0    0 -0.20171984874E+01  0.18775255271E+02 -0.32394927703E+02  0.37496808412E+02  0.00000000000E+00 0. -1.
         11    1    1    2    0    0  0.37717125690E+02  0.22245883369E+03 -0.47229569918E+01  0.22568300906E+03  0.00000000000E+00 0.  1.
</event>
<event>
 7    1  0.2644565E-009  0.1432288E+03  0.7561462E-02  0.1209049E+00
          1   -1    0    0  501    0  0.00000000000E+00  0.00000000000E+00  0.84008859865E+02  0.84008859865E+02  0.00000000000E+00 0. -1.
         -1   -1    0    0    0  501 -0.00000000000E+00 -0.00000000000E+00 -0.30446928235E+03  0.30446928235E+03  0.00000000000E+00 0.  1.
         25    2    1    2    0    0 -0.17776507689E+02 -0.11183016692E+03 -0.15479629670E+03  0.22897846818E+03  0.12508898816E+03 0.  0.
          5    1    3    3  502    0  0.22568879937E+02 -0.11377481068E+03 -0.14754854032E+03  0.18772880983E+03  0.41800000000E+01 0. -1.
         -5    1    3    3    0  502 -0.40345387626E+02  0.19446437567E+01 -0.72477563777E+01  0.41249658356E+02  0.41800000000E+01 0. -1.
        -11    1    1    2    0    0  0.40317844038E+02  0.51672790643E+02  0.28183988781E+01  0.65601442156E+02  0.00000000000E+00 0. -1.
         11    1    1    2    0    0 -0.22541336349E+02  0.60157376282E+02 -0.68482524664E+02  0.93898231879E+02  0.00000000000E+00 0.  1.
</event>
<event>
 7    1  0.4148977E-009  0.1826400E+03  0.7561462E-02  0.1165272E+00
         -2   -1    0    0    0  501 -0.00000000000E+00  0.00000000000E+00  0.30687052045E+02  0.30687052045E+02  0.00000000000E+00 0.  1.
          2   -1    0    0  501    0  0.00000000000E+00 -0.00000000000E+00 -0.12410205470E+04  0.12410205470E+04  0.00000000000E+00 0. -1.
         25    2    1    2    0    0 -0.62929506775E+02  0.13526250190E+03 -0.83912282794E+03  0.86141217922E+03  0.12509098646E+03 0.  0.
          5    1    3    3  502    0 -0.76433962104E+02  0.15140398337E+03 -0.67976543500E+03  0.70061675384E+03  0.41800000000E+01 0. -1.
         -5    1    3    3    0  502  0.13504455329E+02 -0.16141481468E+02 -0.15935739294E+03  0.16079542538E+03  0.41800000000E+01 0. -1.
        -11    1    1    2    0    0 -0.11963647309E+02 -0.80513252339E+02 -0.19055753539E+03  0.20721410896E+03  0.00000000000E+00 0. -1.
         11    1    1    2    0    0  0.74893154085E+02 -0.54749249558E+02 -0.18065313161E+03  0.20308131085E+03  0.00000000000E+00 0.  1.
</event>
<event>
 7    1  0.2644565E-009  0.1243977E+03  0.7561462E-02  0.1236014E+00
          1   -1    0    0  501    0  0.00000000000E+00  0.00000000000E+00  0.55907992779E+03  0.55907992779E+03  0.00000000000E+00 0. -1.
         -1   -1    0    0    0  501 -0.00000000000E+00 -0.00000000000E+00 -0.49203801243E+02  0.49203801243E+02  0.00000000000E+00 0.  1.
         25    2    1    2    0    0 -0.77509394906E+02  0.25935689384E+02  0.47634502623E+03  0.49923110443E+03  0.12508695111E+03 0.  0.
          5    1    3    3  502    0 -0.89498130385E+02 -0.27247764433E+02  0.27068187470E+03  0.28642364724E+03  0.41800000000E+01 0.  1.
         -5    1    3    3    0  502  0.11988735480E+02  0.53183453817E+02  0.20566315153E+03  0.21280745719E+03  0.41800000000E+01 0.  1.
        -11    1    1    2    0    0  0.54414286707E+02  0.12312629159E+02  0.49412225922E+01  0.56008312913E+02  0.00000000000E+00 0.  1.
         11    1    1    2    0    0  0.23095108199E+02 -0.38248318543E+02  0.28589877726E+02  0.53044311688E+02  0.00000000000E+00 0. -1.
</event>
<event>
 7    1  0.2644565E-009  0.1334933E+03  0.7561462E-02  0.1222362E+00
         -1   -1    0    0    0  501 -0.00000000000E+00  0.00000000000E+00  0.34580420246E+03  0.34580420246E+03  0.00000000000E+00 0.  1.
          1   -1    0    0  501    0  0.00000000000E+00 -0.00000000000E+00 -0.60136275984E+02  0.60136275984E+02  0.00000000000E+00 0. -1.
         25    2    1    2    0    0 -0.22644635221E+02 -0.92320149138E+02  0.16009679389E+03  0.22430550156E+03  0.12508471199E+03 0.  0.
          5    1    3    3  502    0 -0.72698146240E+02 -0.49347756816E+02  0.11271113076E+03  0.14297374922E+03  0.41800000000E+01 0. -1.
         -5    1    3    3    0  502  0.50053511020E+02 -0.42972392322E+02  0.47385663136E+02  0.81331752337E+02  0.41800000000E+01 0. -1.
        -11    1    1    2    0    0  0.41278122618E+02  0.40401625086E+02  0.11012346749E+03  0.12435173022E+03  0.00000000000E+00 0.  1.
         11    1    1    2    0    0 -0.18633487398E+02  0.51918524052E+02  0.15447665096E+02  0.57283246672E+02  0.00000000000E+00 0. -1.
</event>
<event>
 7    1  0.2644565E-009  0.9658098E+02  0.7561462E-02  0.1287655E+00
          2   -1    0    0  501    0  0.00000000000E+00  0.00000000000E+00  0.25030982985E+03  0.25030982985E+03  0.00000000000E+00 0. -1.
         -2   -1    0    0    0  501 -0.00000000000E+00 -0.00000000000E+00 -0.63053489762E+02  0.63053489762E+02  0.00000000000E+00 0.  1.
         25    2    1    2    0    0  0.57883206327E+02  0.12536496555E+02  0.15474889743E+03  0.20761229939E+03  0.12509203125E+03 0.  0.
          5    1    3    3  502    0  0.60304477940E+02  0.51709462588E+02  0.14735523642E+03  0.16745607388E+03  0.41800000000E+01 0.  1.
         -5    1    3    3    0  502 -0.24212716129E+01 -0.39172966033E+02  0.73936610136E+01  0.40156225511E+02  0.41800000000E+01 0.  1.
        -11    1    1    2    0    0 -0.74518608457E+01 -0.21649082290E+02  0.47181642978E+02  0.52443497482E+02  0.00000000000E+00 0. -1.
         11    1    1    2    0    0 -0.50431345481E+02  0.91125857347E+01 -0.14674200316E+02  0.53307522741E+02  0.00000000000E+00 0.  1.
</event>
<event>
 7    1  0.2644565E-009  0.1060595E+03  0.7561462E-02  0.1268046E+00
         -2   -1    0    0    0  501 -0.00000000000E+00  0.00000000000E+00  0.42081973581E+02  0.42081973581E+02  0.00000000000E+00 0. -1.
          2   -1    0    0  501    0  0.00000000000E+00 -0.00000000000E+00 -0.32363598972E+03  0.32363598972E+03  0.00000000000E+00 0.  1.
         25    2    1    2    0    0 -0.30762652392E+02  0.33529294802E+01 -0.20527155113E+03  0.24236664222E+03  0.12509035389E+03 0.  0.
          5    1    3    3  502    0 -0.41169138070E+02 -0.50820696877E+02 -0.15217210245E+03  0.16568482829E+03  0.41800000000E+01 0.  1.
         -5    1    3    3    0  502  0.10406485678E+02  0.54173626357E+02 -0.53099448686E+02  0.76681813930E+02  0.41800000000E+01 0.  1.
        -11    1    1    2    0    0  0.32885801689E+02 -0.41557929186E+02 -0.64151826544E+02  0.83210541880E+02  0.00000000000E+00 0.  1.
         11    1    1    2    0    0 -0.21231492977E+01  0.38204999706E+02 -0.12130638456E+02  0.40140779201E+02  0.00000000000E+00 0. -1.
</event>
<event>
 7    1  0.2644565E-009  0.2566191E+03  0.7561462E-02  0.1109192E+00
         -1   -1    0    0    0  501 -0.00000000000E+00  0.00000000000E+00  0.57807950661E+02  0.57807950661E+02  0.00000000000E+00 0.  1.
          1   -1    0    0  501    0  0.00000000000E+00 -0.00000000000E+00 -0.12583283548E+04  0.12583283548E+04  0.00000000000E+00 0. -1.
         25    2    1    2    0    0 -0.20489392124E+03  0.11499451967E+03 -0.79820580595E+03  0.84141919367E+03  0.12509393393E+03 0.  0.
          5    1    3    3  502    0 -0.62147336365E+02 -0.20460632579E+02 -0.14353809253E+03  0.15780236155E+03  0.41800000000E+01 0. -1.
         -5    1    3    3    0  502 -0.14274658487E+03  0.13545515225E+03 -0.65466771342E+03  0.68361683212E+03  0.41800000000E+01 0. -1.
        -11    1    1    2    0    0  0.12239576126E+03 -0.11558315656E+03 -0.24812454623E+03  0.29984325721E+03  0.00000000000E+00 0.  1.
         11    1    1    2    0    0  0.82498159972E+02  0.58863688162E+00 -0.15419005195E+03  0.17487385457E+03  0.00000000000E+00 0. -1.
</event>
<event>
 7    1  0.2644565E-009  0.2317200E+03  0.7561462E-02  0.1125435E+00
          2   -1    0    0  501    0  0.00000000000E+00  0.00000000000E+00  0.10455097886E+04  0.10455097886E+04  0.00000000000E+00 0. -1.
         -2   -1    0    0    0  501 -0.00000000000E+00 -0.00000000000E+00 -0.60212441747E+02  0.60212441747E+02  0.00000000000E+00 0.  1.
         25    2    1    2    0    0  0.20342536039E+03 -0.61156611885E+02  0.33583093479E+03  0.41659554753E+03  0.12508966797E+03 0.  0.
          5    1    3    3  502    0  0.16017657094E+03 -0.98963902546E+02  0.24454965952E+03  0.30866226892E+03  0.41800000000E+01 0. -1.
         -5    1    3    3    0  502  0.43248789458E+02  0.37807290661E+02  0.91281275276E+02  0.10793327862E+03  0.41800000000E+01 0. -1.
        -11    1    1    2    0    0 -0.13885306436E+03  0.63972347690E+02  0.33715619799E+03  0.37019850971E+03  0.00000000000E+00 0.  1.
         11    1    1    2    0    0 -0.64572296030E+02 -0.28157358043E+01  0.31231021405E+03  0.31892817308E+03  0.00000000000E+00 0. -1.
</event>
<event>
 7    1  0.2644565E-009  0.1522652E+03  0.7561462E-02  0.1197717E+00
         -3   -1    0    0    0  501 -0.00000000000E+00  0.00000000000E+00  0.12565539399E+03  0.12565539399E+03  0.00000000000E+00 0.  1.
          3   -1    0    0  501    0  0.00000000000E+00 -0.00000000000E+00 -0.22902215688E+03  0.22902215688E+03  0.00000000000E+00 0. -1.
         25    2    1    2    0    0  0.10048312504E+03  0.73715593296E+02 -0.66940195800E+02  0.18884566211E+03  0.12510334596E+03 0.  0.
          5    1    3    3  502    0  0.59393144237E+02 -0.14617968650E+01 -0.82417323049E+02  0.10168465947E+03  0.41800000000E+01 0. -1.
         -5    1    3    3    0  502  0.41089980801E+02  0.75177390161E+02  0.15477127249E+02  0.87161002642E+02  0.41800000000E+01 0. -1.
        -11    1    1    2    0    0 -0.11918472628E+03 -0.74368180780E+02 -0.41423152310E+02  0.14646331568E+03  0.00000000000E+00 0. -1.
         11    1    1    2    0    0  0.18701601246E+02  0.65258748342E+00  0.49965852172E+01  0.19368573087E+02  0.00000000000E+00 0.  1.
</event>
<event>
 7    1  0.2644565E-009  0.1277241E+03  0.7561462E-02  0.1230872E+00
         -2   -1    0    0    0  501 -0.00000000000E+00  0.00000000000E+00  0.46326191133E+02  0.46326191133E+02  0.00000000000E+00 0.  1.
          2   -1    0    0  501    0  0.00000000000E+00 -0.00000000000E+00 -0.44725085659E+03  0.44725085659E+03  0.00000000000E+00 0. -1.
         25    2    1    2    0    0 -0.78595883066E+02 -0.19853993757E+02 -0.30046033682E+03  0.33540397184E+03  0.12509163210E+03 0.  0.
          5    1    3    3  502    0 -0.10799556060E+03 -0.27582558867E+02 -0.27016010349E+03  0.29228033218E+03  0.41800000000E+01 0.  1.
         -5    1    3    3    0  502  0.29399677533E+02  0.77285651099E+01 -0.30300233332E+02  0.43123639662E+02  0.41800000000E+01 0.  1.
        -11    1    1    2    0    0 -0.14107208287E+02 -0.82639191880E+01 -0.41890702864E+02  0.44968173995E+02  0.00000000000E+00 0. -1.
         11    1    1    2    0    0  0.92703091353E+02  0.28117912945E+02 -0.58573625774E+02  0.11320490189E+03  0.00000000000E+00 0.  1.
</event>
<event>
 7    1  0.2644565E-009  0.6642909E+02  0.7561462E-02  0.1372675E+00
          2   -1    0    0  501    0  0.00000000000E+00  0.00000000000E+00  0.65440118858E+02  0.65440118858E+02  0.00000000000E+00 0. -1.
         -2   -1    0    0    0  501 -0.00000000000E+00 -0.00000000000E+00 -0.21390862344E+03  0.21390862344E+03  0.00000000000E+00 0.  1.
         25    2    1    2    0    0  0.36391150646E+02 -0.11823159020E+02 -0.12317133663E+03  0.17967497254E+03  0.12509122533E+03 0.  0.
          5    1    3    3  502    0  0.15742446986E+01 -0.27960004789E+02 -0.13606272342E+03  0.13897761409E+03  0.41800000000E+01 0. -1.
         -5    1    3    3    0  502  0.34816905947E+02  0.16136845770E+02  0.12891386792E+02  0.40697358447E+02  0.41800000000E+01 0. -1.
        -11    1    1    2    0    0 -0.50380450201E+02  0.12596619681E+02 -0.49477339035E+02  0.71727760788E+02  0.00000000000E+00 0.  1.
         11    1    1    2    0    0  0.13989299555E+02 -0.77346066094E+00  0.24180171086E+02  0.27946008967E+02  0.00000000000E+00 0. -1.
</event>
<event>
 7    1  0.2644565E-009  0.1612778E+03  0.7561462E-02  0.1187262E+00
          2   -1    0    0  501    0  0.00000000000E+00  0.00000000000E+00  0.11096538010E+04  0.11096538010E+04  0.00000000000E+00 0. -1.
         -2   -1    0    0    0  501 -0.00000000000E+00 -0.00000000000E+00 -0.31117604049E+02  0.31117604049E+02  0.00000000000E+00 0.  1.
         25    2    1    2    0    0  0.14077995677E+03  0.16508980910E+02  0.72525047731E+03  0.74948531826E+03  0.12509374397E+03 0.  0.
          5    1    3    3  502    0  0.54735811932E+02  0.37423025291E+02  0.54049835470E+03  0.54456628225E+03  0.41800000000E+01 0. -1.
         -5    1    3    3    0  502  0.86044144835E+02 -0.20914044380E+02  0.18475212260E+03  0.20491903601E+03  0.41800000000E+01 0. -1.
        -11    1    1    2    0    0 -0.68631268381E+02 -0.52909976511E+02  0.16445731619E+03  0.18589224154E+03  0.00000000000E+00 0. -1.
         11    1    1    2    0    0 -0.72148688386E+02  0.36400995601E+02  0.18882840344E+03  0.20539384524E+03  0.00000000000E+00 0.  1.
</event>
<event>
 7    1  0.2644565E-009  0.1182542E+03  0.7561462E-02  0.1246005E+00
          2   -1    0    0  501    0  0.00000000000E+00  0.00000000000E+00  0.17860673216E+03  0.17860673216E+03  0.00000000000E+00 0. -1.
         -2   -1    0    0    0  501 -0.00000000000E+00 -0.00000000000E+00 -0.10496739444E+03  0.10496739444E+03  0.00000000000E+00 0.  1.
         25    2    1    2    0    0 -0.13463047770E+02  0.59242693777E+02 -0.18958376418E+02  0.14034557050E+03  0.12508600522E+03 0.  0.
          5    1    3    3  502    0  0.20202461766E+02 -0.32120566542E+02 -0.19540774935E+02  0.42885714888E+02  0.41800000000E+01 0. -1.
         -5    1    3    3    0  502 -0.33665509536E+02  0.91363260318E+02  0.58239851720E+00  0.97459855614E+02  0.41800000000E+01 0. -1.
        -11    1    1    2    0    0 -0.28179502301E+02  0.34136905078E+00  0.37470440470E+01  0.28429583568E+02  0.00000000000E+00 0.  1.
         11    1    1    2    0    0  0.41642550071E+02 -0.59584062827E+02  0.88850670085E+02  0.11479897253E+03  0.00000000000E+00 0. -1.
</event>
<event>
 7    1  0.2644565E-009  0.1362327E+03  0.7561462E-02  0.1218490E+00
         -2   -1    0    0    0  501 -0.00000000000E+00  0.00000000000E+00  0.12062539167E+03  0.12062539167E+03  0.00000000000E+00 0. -1.
          2   -1    0    0  501    0  0.00000000000E+00 -0.00000000000E+00 -0.18316972279E+03  0.18316972279E+03  0.00000000000E+00 0.  1.
         25    2    1    2    0    0  0.94050733493E+02 -0.23873842112E+02 -0.60455867992E+02  0.16945521119E+03  0.12507859856E+03 0.  0.
          5    1    3    3  502    0 -0.13238598196E+02  0.26530865858E+02  0.99095451382E+01  0.31540748409E+02  0.41800000000E+01 0. -1.
         -5    1    3    3    0  502  0.10728933169E+03 -0.50404707970E+02 -0.70365413130E+02  0.13791446278E+03  0.41800000000E+01 0. -1.
        -11    1    1    2    0    0 -0.46628710892E+02 -0.27386818438E+02 -0.26685680022E+02  0.60302570607E+02  0.00000000000E+00 0.  1.
         11    1    1    2    0    0 -0.47422022601E+02  0.51260660550E+02  0.24597216899E+02  0.74037332656E+02  0.00000000000E+00 0. -1.
</event>
<event>
 7    1  0.2644565E-009  0.1874477E+03  0.7561462E-02  0.1160784E+00
         -1   -1    0    0    0  501 -0.00000000000E+00  0.00000000000E+00  0.75307288556E+02  0.75307288556E+02  0.00000000000E+00 0.  1.
          1   -1    0    0  501    0  0.00000000000E+00 -0.00000000000E+00 -0.53039041247E+03  0.53039041247E+03  0.00000000000E+00 0. -1.
         25    2    1    2    0    0  0.60016976328E+02  0.15300060808E+03 -0.18816747875E+03  0.27940242354E+03  0.12508993044E+03 0.  0.
          5    1    3    3  502    0  0.83874082005E+02  0.67300551873E+02 -0.59649172498E+02  0.12304357803E+03  0.41800000000E+01 0. -1.
         -5    1    3    3    0  502 -0.23857105677E+02  0.85700056211E+02 -0.12851830626E+03  0.15635884551E+03  0.41800000000E+01 0. -1.
        -11    1    1    2    0    0  0.15551134704E+02 -0.21189132292E+02 -0.86606015867E+02  0.90506458898E+02  0.00000000000E+00 0.  1.
         11    1    1    2    0    0 -0.75568111033E+02 -0.13181147579E+03 -0.18030962929E+03  0.23578881859E+03  0.00000000000E+00 0. -1.
</event>
<event>
 7    1  0.2644565E-009  0.1098564E+03  0.7561462E-02  0.1260836E+00
         -1   -1    0    0    0  501 -0.00000000000E+00  0.00000000000E+00  0.99124280771E+02  0.99124280771E+02  0.00000000000E+00 0.  1.
          1   -1    0    0  501    0  0.00000000000E+00 -0.00000000000E+00 -0.23428681580E+03  0.23428681580E+03  0.00000000000E+00 0. -1.
         25    2    1    2    0    0 -0.98282360313E+02 -0.16549503870E+02 -0.11638647853E+03  0.19780702352E+03  0.12509395566E+03 0.  0.
          5    1    3    3  502    0 -0.37016311666E+02  0.10231416723E+02  0.21713299351E+02  0.44315110135E+02  0.41800000000E+01 0. -1.
         -5    1    3    3    0  502 -0.61266048647E+02 -0.26780920593E+02 -0.13809977788E+03  0.15349191339E+03  0.41800000000E+01 0. -1.
        -11    1    1    2    0    0  0.27905216153E+02  0.31559720508E+02  0.27260315943E+02  0.50178101523E+02  0.00000000000E+00 0.  1.
         11    1    1    2    0    0  0.70377144160E+02 -0.15010216638E+02 -0.46036372443E+02  0.85425971527E+02  0.00000000000E+00 0. -1.
</event>
<event>
 7    1  0.2644565E-009  0.1092337E+03  0.7561462E-02  0.1261996E+00
         -2   -1    0    0    0  501 -0.00000000000E+00  0.00000000000E+00  0.48972616558E+02  0.48972616558E+02  0.00000000000E+00 0. -1.
          2   -1    0    0  501    0  0.00000000000E+00 -0.00000000000E+00 -0.46220910455E+03  0.46220910455E+03  0.00000000000E+00 0.  1.
         25    2    1    2    0    0  0.31669909440E+02  0.82602108930E+02 -0.13340636148E+03  0.20315242836E+03  0.12509020866E+03 0.  0.
          5    1    3    3  502    0  0.55641939844E+01  0.32503825026E+02 -0.14201701949E+03  0.14585528829E+03  0.41800000000E+01 0.  1.
         -5    1    3    3    0  502  0.26105715456E+02  0.50098283904E+02  0.86106580128E+01  0.57297140077E+02  0.41800000000E+01 0.  1.
        -11    1    1    2    0    0  0.27840034924E+02 -0.13585848110E+01 -0.67432245164E+02  0.72965889189E+02  0.00000000000E+00 0.  1.
         11    1    1    2    0    0 -0.59509944365E+02 -0.81243524119E+02 -0.21239788135E+03  0.23506340356E+03  0.00000000000E+00 0. -1.
</event>
<event>
 7    1  0.2644565E-009  0.1377392E+03  0.7561462E-02  0.1216404E+00
          2   -1    0    0  501    0  0.00000000000E+00  0.00000000000E+00  0.67432247403E+03  0.67432247403E+03  0.00000000000E+00 0. -1.
         -2   -1    0    0    0  501 -0.00000000000E+00 -0.00000000000E+00 -0.45578815010E+02  0.45578815010E+02  0.00000000000E+00 0.  1.
         25    2    1    2    0    0  0.38629368545E+02 -0.12001861208E+03  0.43654535168E+03  0.47129229202E+03  0.12509150688E+03 0.  0.
          5    1    3    3  502    0  0.27888018670E+02 -0.15894637454E+02  0.12833165958E+02  0.34821597230E+02  0.41800000000E+01 0.  1.
         -5    1    3    3    0  502  0.10741349875E+02 -0.10412397462E+03  0.42371218572E+03  0.43647069479E+03  0.41800000000E+01 0.  1.
        -11    1    1    2    0    0  0.14226723346E+02  0.39939848093E+02  0.11361720800E+02  0.43893961116E+02  0.00000000000E+00 0.  1.
         11    1    1    2    0    0 -0.52856091891E+02  0.80078763983E+02  0.18083658654E+03  0.20471503590E+03  0.00000000000E+00 0. -1.
</event>
<event>
 7    1  0.2644565E-009  0.9303026E+02  0.7561462E-02  0.1295675E+00
          2   -1    0    0  501    0  0.00000000000E+00  0.00000000000E+00  0.28323607817E+03  0.28323607817E+03  0.00000000000E+00 0. -1.
         -2   -1    0    0    0  501 -0.00000000000E+00 -0.00000000000E+00 -0.45588965983E+02  0.45588965983E+02  0.00000000000E+00 0.  1.
         25    2    1    2    0    0 -0.13524661960E+02  0.11482829819E+02  0.92774585334E+02  0.15674018732E+03  0.12508233599E+03 0.  0.
          5    1    3    3  502    0 -0.33400651030E+02 -0.41144727396E+02  0.63543536073E+01  0.53538232054E+02  0.41800000000E+01 0.  1.
         -5    1    3    3    0  502  0.19875989070E+02  0.52627557215E+02  0.86420231727E+02  0.10320195527E+03  0.41800000000E+01 0.  1.
        -11    1    1    2    0    0  0.17276088163E+02 -0.42171357654E+02  0.33662616734E+02  0.56657377224E+02  0.00000000000E+00 0.  1.
         11    1    1    2    0    0 -0.37514262032E+01  0.30688527834E+02  0.11120991012E+03  0.11542747960E+03  0.00000000000E+00 0. -1.
</event>
<event>
 7    1  0.2644565E-009  0.1264630E+03  0.7561462E-02  0.1232800E+00
          1   -1    0    0  501    0  0.00000000000E+00  0.00000000000E+00  0.51412793590E+03  0.51412793590E+03  0.00000000000E+00 0. -1.
         -1   -1    0    0    0  501 -0.00000000000E+00 -0.00000000000E+00 -0.36312837429E+02  0.36312837429E+02  0.00000000000E+00 0.  1.
         25    2    1    2    0    0  0.79996072062E+02  0.19293069893E+02  0.24183771005E+03  0.28443852862E+03  0.12509278344E+03 0.  0.
          5    1    3    3  502    0  0.11183926659E+03  0.80133861943E+01  0.15653733168E+03  0.19259710413E+03  0.41800000000E+01 0.  1.
         -5    1    3    3    0  502 -0.31843194529E+02  0.11279683699E+02  0.85300378367E+02  0.91841424486E+02  0.41800000000E+01 0.  1.
        -11    1    1    2    0    0  0.56968635905E+01 -0.20196706565E+02  0.11987280976E+03  0.12169573424E+03  0.00000000000E+00 0. -1.
         11    1    1    2    0    0 -0.85692935652E+02  0.90363667200E+00  0.11610457866E+03  0.14430651048E+03  0.00000000000E+00 0.  1.
</event>
<event>
 7    1  0.2644565E-009  0.1016776E+03  0.7561462E-02  0.1276807E+00
          1   -1    0    0  501    0  0.00000000000E+00  0.00000000000E+00  0.31933147139E+02  0.31933147139E+02  0.00000000000E+00 0. -1.
         -1   -1    0    0    0  501 -0.00000000000E+00 -0.00000000000E+00 -0.51176841844E+03  0.51176841844E+03  0.00000000000E+00 0.  1.
         25    2    1    2    0    0  0.72557472652E+01  0.63740110328E+02 -0.33670253476E+03  0.36487234479E+03  0.12509110100E+03 0.  0.
          5    1    3    3  502    0 -0.51529519600E+02  0.94348750522E+01 -0.78082024956E+02  0.94120047167E+02  0.41800000000E+01 0. -1.
         -5    1    3    3    0  502  0.58785266865E+02  0.54305235276E+02 -0.25862050980E+03  0.27075229762E+03  0.41800000000E+01 0. -1.
        -11    1    1    2    0    0  0.10149127702E+02 -0.10297669268E+02  0.87366116915E+01  0.16893050917E+02  0.00000000000E+00 0. -1.
         11    1    1    2    0    0 -0.17404874967E+02 -0.53442441060E+02 -0.15186934824E+03  0.16193616987E+03  0.00000000000E+00 0.  1.
</event>
<event>
 7    1  0.2644565E-009  0.2151918E+03  0.7561462E-02  0.1137519E+00
          2   -1    0    0  501    0  0.00000000000E+00  0.00000000000E+00  0.65004453025E+03  0.65004453025E+03  0.00000000000E+00 0.  1.
         -2   -1    0    0    0  501 -0.00000000000E+00 -0.00000000000E+00 -0.82165501626E+02  0.82165501626E+02  0.00000000000E+00 0. -1.
         25    2    1    2    0    0 -0.96869286469E+02  0.17914661187E+03  0.29413256110E+03  0.37899836070E+03  0.12509447112E+03 0.  0.
          5    1    3    3  502    0 -0.39433824768E+02  0.44094700952E+01  0.11695955845E+03  0.12357783246E+03  0.41800000000E+01 0.  1.
         -5    1    3    3    0  502 -0.57435461701E+02  0.17473714178E+03  0.17717300265E+03  0.25542052824E+03  0.41800000000E+01 0.  1.
        -11    1    1    2    0    0  0.81716249873E+02 -0.11817682903E+03  0.24522548516E+03  0.28421619761E+03  0.00000000000E+00 0.  1.
         11    1    1    2    0    0  0.15153036596E+02 -0.60969782846E+02  0.28520982366E+02  0.68995473572E+02  0.00000000000E+00 0. -1.
</event>
<event>
 7    1  0.2644565E-009  0.6175908E+02  0.7561462E-02  0.1390595E+00
         -4   -1    0    0    0  501 -0.00000000000E+00  0.00000000000E+00  0.10855643857E+03  0.10855643857E+03  0.00000000000E+00 0.  1.
          4   -1    0    0  501    0  0.00000000000E+00 -0.00000000000E+00 -0.11760091791E+03  0.11760091791E+03  0.00000000000E+00 0. -1.
         25    2    1    2    0    0  0.25200378183E+02  0.13338043333E+02  0.95863446569E+01  0.12863351466E+03  0.12506686463E+03 0.  0.
          5    1    3    3  502    0  0.35112323944E+02  0.15111747120E+02 -0.52790424928E+02  0.65311113585E+02  0.41800000000E+01 0.  1.
         -5    1    3    3    0  502 -0.99119457607E+01 -0.17737037864E+01  0.62376769585E+02  0.63322401073E+02  0.41800000000E+01 0.  1.
        -11    1    1    2    0    0 -0.41280433691E+02 -0.29981414938E+02 -0.40913430176E+02  0.65397769199E+02  0.00000000000E+00 0. -1.
         11    1    1    2    0    0  0.16080055508E+02  0.16643371605E+02  0.22282606180E+02  0.32126072616E+02  0.00000000000E+00 0.  1.
</event>
<event>
 7    1  0.2797001E-009  0.1613403E+03  0.7561462E-02  0.1187192E+00
          3   -1    0    0  501    0  0.00000000000E+00  0.00000000000E+00  0.84705619829E+03  0.84705619829E+03  0.00000000000E+00 0. -1.
         -3   -1    0    0    0  501 -0.00000000000E+00 -0.00000000000E+00 -0.36341801379E+02  0.36341801379E+02  0.00000000000E+00 0.  1.
         25    2    1    2    0    0  0.12813019600E+03 -0.36847952745E+02  0.34795464381E+03  0.39305858453E+03  0.12508995952E+03 0.  0.
          5    1    3    3  502    0  0.94573469336E+02  0.33063191363E+02  0.15014165440E+03  0.18054723623E+03  0.41800000000E+01 0. -1.
         -5    1    3    3    0  502  0.33556726663E+02 -0.69911144108E+02  0.19781298941E+03  0.21251134830E+03  0.41800000000E+01 0. -1.
        -11    1    1    2    0    0 -0.87398231695E+02 -0.34270816841E+01  0.16132254033E+03  0.18350792302E+03  0.00000000000E+00 0.  1.
         11    1    1    2    0    0 -0.40731964304E+02  0.40275034429E+02  0.30143721276E+03  0.30683149211E+03  0.00000000000E+00 0. -1.
</event>
<event>
 7    1  0.2644565E-009  0.2482121E+03  0.7561462E-02  0.1114440E+00
          1   -1    0    0  501    0  0.00000000000E+00  0.00000000000E+00  0.17634998931E+04  0.17634998931E+04  0.00000000000E+00 0. -1.
         -1   -1    0    0    0  501 -0.00000000000E+00 -0.00000000000E+00 -0.46153053236E+02  0.46153053236E+02  0.00000000000E+00 0.  1.
         25    2    1    2    0    0 -0.21355518008E+03 -0.93731867273E+02  0.12545408696E+04  0.12821475873E+04  0.12505264537E+03 0.  0.
          5    1    3    3  502    0 -0.14506661776E+03 -0.22379197243E+02  0.49924833089E+03  0.52039554221E+03  0.41800000000E+01 0.  1.
         -5    1    3    3    0  502 -0.68488562319E+02 -0.71352670030E+02  0.75529253875E+03  0.76175204508E+03  0.41800000000E+01 0.  1.
        -11    1    1    2    0    0  0.79116540568E+02  0.84617914130E+02  0.17716216320E+03  0.21167439726E+03  0.00000000000E+00 0. -1.
         11    1    1    2    0    0  0.13443863951E+03  0.91139531432E+01  0.28564380700E+03  0.31583096177E+03  0.00000000000E+00 0.  1.
</event>
<event>
 7    1  0.2644565E-009  0.1188213E+03  0.7561462E-02  0.1245054E+00
         -1   -1    0    0    0  501 -0.00000000000E+00  0.00000000000E+00  0.59659257852E+02  0.59659257852E+02  0.00000000000E+00 0.  1.
          1   -1    0    0  501    0  0.00000000000E+00 -0.00000000000E+00 -0.26430079832E+03  0.26430079832E+03  0.00000000000E+00 0. -1.
         25    2    1    2    0    0  0.60791191745E+02 -0.13804913926E+02 -0.13135520199E+03  0.19180237100E+03  0.12509122986E+03 0.  0.
          5    1    3    3  502    0 -0.22912378377E+02  0.34632877648E+02 -0.51695689249E+02  0.66440424322E+02  0.41800000000E+01 0.  1.
         -5    1    3    3    0  502  0.83703570122E+02 -0.48437791574E+02 -0.79659512742E+02  0.12536194667E+03  0.41800000000E+01 0.  1.
        -11    1    1    2    0    0 -0.78464557060E+02  0.32694656028E+01 -0.78387606045E+02  0.11095942007E+03  0.00000000000E+00 0.  1.
         11    1    1    2    0    0  0.17673365315E+02  0.10535448323E+02  0.51012675660E+01  0.21198265111E+02  0.00000000000E+00 0. -1.
</event>
<event>
 7    1  0.2644565E-009  0.1559862E+03  0.7561462E-02  0.1193304E+00
         -1   -1    0    0    0  501 -0.00000000000E+00  0.00000000000E+00  0.11893682816E+03  0.11893682816E+03  0.00000000000E+00 0.  1.
          1   -1    0    0  501    0  0.00000000000E+00 -0.00000000000E+00 -0.26952399848E+03  0.26952399848E+03  0.00000000000E+00 0. -1.
         25    2    1    2    0    0  0.13147694525E+03 -0.14495742155E+02 -0.13439882043E+03  0.22629017482E+03  0.12509151297E+03 0.  0.
          5    1    3    3  502    0  0.14532486352E+03 -0.51747437609E+01 -0.73467596098E+02  0.16297562397E+03  0.41800000000E+01 0. -1.
         -5    1    3    3    0  502 -0.13847918279E+02 -0.93209983946E+01 -0.60931224328E+02  0.63314550854E+02  0.41800000000E+01 0. -1.
        -11    1    1    2    0    0 -0.92125648791E+01 -0.20194712381E+02  0.20158944559E+02  0.29984676178E+02  0.00000000000E+00 0.  1.
         11    1    1    2    0    0 -0.12226438037E+03  0.34690454536E+02 -0.36347294451E+02  0.13218597564E+03  0.00000000000E+00 0. -1.
</event>
<event>
 7    1  0.2644565E-009  0.1761953E+03  0.7561462E-02  0.1171537E+00
         -2   -1    0    0    0  501 -0.00000000000E+00  0.00000000000E+00  0.10312701608E+03  0.10312701608E+03  0.00000000000E+00 0.  1.
          2   -1    0    0  501    0  0.00000000000E+00 -0.00000000000E+00 -0.37523409387E+03  0.37523409387E+03  0.00000000000E+00 0. -1.
         25    2    1    2    0    0  0.13053293657E+03 -0.70761868563E+02 -0.58730992195E+02  0.20283723702E+03  0.12509007038E+03 0.  0.
          5    1    3    3  502    0  0.10158252489E+03  0.14729590775E+02 -0.20657466860E+02  0.10478632327E+03  0.41800000000E+01 0. -1.
         -5    1    3    3    0  502  0.28950411678E+02 -0.85491459338E+02 -0.38073525334E+02  0.98050913751E+02  0.41800000000E+01 0. -1.
        -11    1    1    2    0    0 -0.18486124041E+02 -0.10156746790E+02  0.24104672171E+00  0.21093942044E+02  0.00000000000E+00 0.  1.
         11    1    1    2    0    0 -0.11204681252E+03  0.80918615353E+02 -0.21361713232E+03  0.25442993088E+03  0.00000000000E+00 0. -1.
</event>
<event>
 7    1  0.2644565E-009  0.1202550E+03  0.7561462E-02  0.1242677E+00
          1   -1    0    0  501    0  0.00000000000E+00  0.00000000000E+00  0.24084745199E+03  0.24084745199E+03  0.00000000000E+00 0. -1.
         -1   -1    0    0    0  501 -0.00000000000E+00 -0.00000000000E+00 -0.11403348761E+03  0.11403348761E+03  0.00000000000E+00 0.  1.
         25    2    1    2    0    0  0.10470473296E+03  0.61021661754E+01 -0.44381312369E+01  0.16330242036E+03  0.12509063094E+03 0.  0.
          5    1    3    3  502    0  0.77369369913E+02 -0.50110358768E+01 -0.61418234980E+02  0.98998999335E+02  0.41800000000E+01 0. -1.
         -5    1    3    3    0  502  0.27335363047E+02  0.11113202052E+02  0.56980103743E+02  0.64303421023E+02  0.41800000000E+01 0. -1.
        -11    1    1    2    0    0 -0.87543948287E+02  0.30445752565E+02  0.62314058199E+02  0.11168674308E+03  0.00000000000E+00 0.  1.
         11    1    1    2    0    0 -0.17160784673E+02 -0.36547918740E+02  0.68938037416E+02  0.79891776157E+02  0.00000000000E+00 0. -1.
</event>
<event>
 7    1  0.2644565E-009  0.2238577E+03  0.7561462E-02  0.1131039E+00
          2   -1    0    0  501    0  0.00000000000E+00  0.00000000000E+00  0.70429847433E+03  0.70429847433E+03  0.00000000000E+00 0.  1.
         -2   -1    0    0    0  501 -0.00000000000E+00 -0.00000000000E+00 -0.93742734131E+02  0.93742734131E+02  0.00000000000E+00 0. -1.
         25    2    1    2    0    0 -0.20569275954E+03 -0.82056623367E+02  0.42468385975E+03  0.49502351554E+03  0.12509636060E+03 0.  0.
          5    1    3    3  502    0 -0.17309782718E+03 -0.51654644181E+02  0.21608969027E+03  0.28167940408E+03  0.41800000000E+01 0. -1.
         -5    1    3    3    0  502 -0.32594932361E+02 -0.30401979185E+02  0.20859416948E+03  0.21334411146E+03  0.41800000000E+01 0. -1.
        -11    1    1    2    0    0  0.15975937329E+03  0.72012992045E+02  0.18661089023E+03  0.25599326696E+03  0.00000000000E+00 0.  1.
         11    1    1    2    0    0  0.45933386243E+02  0.10043631322E+02 -0.73900977981E+00  0.47024425965E+02  0.00000000000E+00 0. -1.
</event>
<event>
 7    1  0.2644565E-009  0.1129438E+03  0.7561462E-02  0.1255213E+00
         -1   -1    0    0    0  501 -0.00000000000E+00  0.00000000000E+00  0.13868214735E+03  0.13868214735E+03  0.00000000000E+00 0.  1.
          1   -1    0    0  501    0  0.00000000000E+00 -0.00000000000E+00 -0.11626954789E+03  0.11626954789E+03  0.00000000000E+00 0. -1.
         25    2    1    2    0    0  0.39406128293E+02  0.33257847236E+02  0.50663181207E+02  0.14447459477E+03  0.12508886143E+03 0.  0.
          5    1    3    3  502    0  0.12272961070E+02 -0.47082460552E+02  0.81020634095E+01  0.49502520103E+02  0.41800000000E+01 0.  1.
         -5    1    3    3    0  502  0.27133167223E+02  0.80340307787E+02  0.42561117797E+02  0.94972074670E+02  0.41800000000E+01 0.  1.
        -11    1    1    2    0    0 -0.93553367643E-02  0.23258536440E+02  0.16329608453E+02  0.28418580491E+02  0.00000000000E+00 0.  1.
         11    1    1    2    0    0 -0.39396772957E+02 -0.56516383676E+02 -0.44580190191E+02  0.82058519976E+02  0.00000000000E+00 0. -1.
</event>
<event>
 7    1  0.2644565E-009  0.1315219E+03  0.7561462E-02  0.1225215E+00
          2   -1    0    0  501    0  0.00000000000E+00  0.00000000000E+00  0.12702676392E+03  0.12702676392E+03  0.00000000000E+00 0. -1.
         -2   -1    0    0    0  501 -0.00000000000E+00 -0.00000000000E+00 -0.22626828579E+03  0.22626828579E+03  0.00000000000E+00 0.  1.
         25    2    1    2    0    0 -0.10818298374E+03 -0.72821626863E+02 -0.54565802141E+02  0.18876223382E+03  0.12508879583E+03 0.  0.
          5    1    3    3  502    0 -0.84226186297E+02 -0.52359539145E+02  0.25613305747E+02  0.10251383140E+03  0.41800000000E+01 0.  1.
         -5    1    3    3    0  502 -0.23956797445E+02 -0.20462087718E+02 -0.80179107888E+02  0.86248402416E+02  0.41800000000E+01 0.  1.
        -11    1    1    2    0    0  0.47527049183E+02  0.19986235596E+02  0.25739399968E+02  0.57626267692E+02  0.00000000000E+00 0.  1.
         11    1    1    2    0    0  0.60655934559E+02  0.52835391267E+02 -0.70415119699E+02  0.10690654821E+03  0.00000000000E+00 0. -1.
</event>
<event>
 7    1  0.2644565E-009  0.1237043E+03  0.7561462E-02  0.1237108E+00
         -2   -1    0    0    0  501 -0.00000000000E+00  0.00000000000E+00  0.12502465748E+03  0.12502465748E+03  0.00000000000E+00 0.  1.
          2   -1    0    0  501    0  0.00000000000E+00 -0.00000000000E+00 -0.16394780393E+03  0.16394780393E+03  0.00000000000E+00 0. -1.
         25    2    1    2    0    0  0.46605177604E+02  0.77060692394E+02 -0.48381568777E+02  0.16155467805E+03  0.12509494359E+03 0.  0.
          5    1    3    3  502    0  0.15881377679E+02 -0.27332397957E+02 -0.41638712162E+02  0.52445523027E+02  0.41800000000E+01 0. -1.
         -5    1    3    3    0  502  0.30723799924E+02  0.10439309035E+03 -0.67428566151E+01  0.10910915502E+03  0.41800000000E+01 0. -1.
        -11    1    1    2    0    0 -0.58021908422E+02 -0.47675888266E+02 -0.26464776069E+02  0.79623592931E+02  0.00000000000E+00 0. -1.
         11    1    1    2    0    0  0.11416730819E+02 -0.29384804128E+02  0.35923198389E+02  0.47794190429E+02  0.00000000000E+00 0.  1.
</event>
<event>
 7    1  0.2644565E-009  0.1171723E+03  0.7561462E-02  0.1247836E+00
         -3   -1    0    0    0  501 -0.00000000000E+00  0.00000000000E+00  0.12592280594E+03  0.12592280594E+03  0.00000000000E+00 0.  1.
          3   -1    0    0  501    0  0.00000000000E+00 -0.00000000000E+00 -0.29734211442E+03  0.29734211442E+03  0.00000000000E+00 0. -1.
         25    2    1    2    0    0 -0.95123781168E+01  0.75429543508E+02  0.62110597748E+02  0.15901499969E+03  0.12509173595E+03 0.  0.
          5    1    3    3  502    0 -0.61213896262E+02  0.23565932731E+02  0.47479438382E+01  0.65897721143E+02  0.41800000000E+01 0.  1.
         -5    1    3    3    0  502  0.51701518146E+02  0.51863610777E+02  0.57362653910E+02  0.93117278552E+02  0.41800000000E+01 0.  1.
        -11    1    1    2    0    0 -0.13127566790E+02 -0.70993175720E+02 -0.22980703618E+03  0.24088096206E+03  0.00000000000E+00 0. -1.
         11    1    1    2    0    0  0.22639944907E+02 -0.44363677878E+01 -0.37228700550E+01  0.23368958599E+02  0.00000000000E+00 0.  1.
</event>
<event>
 7    1  0.2644565E-009  0.1035604E+03  0.7561462E-02  0.1272982E+00
         -2   -1    0    0    0  501 -0.00000000000E+00  0.00000000000E+00  0.32515760786E+02  0.32515760786E+02  0.00000000000E+00 0.  1.
          2   -1    0    0  501    0  0.00000000000E+00 -0.00000000000E+00 -0.77677500493E+03  0.77677500493E+03  0.00000000000E+00 0. -1.
         25    2    1    2    0    0 -0.45092223930E+02  0.71398926304E+02 -0.60368025509E+03  0.62226068593E+03  0.12508955009E+03 0.  0.
          5    1    3    3  502    0 -0.62440452365E+02  0.53314697512E+02 -0.58494394627E+03  0.59069294878E+03  0.41800000000E+01 0. -1.
         -5    1    3    3    0  502  0.17348228435E+02  0.18084228792E+02 -0.18736308812E+02  0.31567737149E+02  0.41800000000E+01 0. -1.
        -11    1    1    2    0    0  0.26066424073E+02 -0.47403978887E+00 -0.99561962587E+02  0.10291874257E+03  0.00000000000E+00 0. -1.
         11    1    1    2    0    0  0.19025799857E+02 -0.70924886515E+02 -0.41017026474E+02  0.84111337216E+02  0.00000000000E+00 0.  1.
</event>
<event>
 7    1  0.2644565E-009  0.2597182E+03  0.7561462E-02  0.1107313E+00
          2   -1    0    0  501    0  0.00000000000E+00  0.00000000000E+00  0.88785951170E+03  0.88785951170E+03  0.00000000000E+00 0. -1.
         -2   -1    0    0    0  501 -0.00000000000E+00 -0.00000000000E+00 -0.80430560280E+02  0.80430560280E+02  0.00000000000E+00 0.  1.
         25    2    1    2    0    0 -0.88750028914E+02 -0.22375212012E+03  0.34723387604E+03  0.44063673719E+03  0.12509112921E+03 0.  0.
          5    1    3    3  502    0 -0.89560565089E+02 -0.82846722615E+02  0.10816585764E+03  0.16310119383E+03  0.41800000000E+01 0. -1.
         -5    1    3    3    0  502  0.81053617577E+00 -0.14090539751E+03  0.23906801839E+03  0.27753554337E+03  0.41800000000E+01 0. -1.
        -11    1    1    2    0    0 -0.14365255149E+02  0.68680780540E+02  0.15476038902E+03  0.16992406592E+03  0.00000000000E+00 0.  1.
         11    1    1    2    0    0  0.10311528406E+03  0.15507133958E+03  0.30543468637E+03  0.35772926886E+03  0.00000000000E+00 0. -1.
</event>
<event>
 7    1  0.2644565E-009  0.1051131E+03  0.7561462E-02  0.1269897E+00
         -1   -1    0    0    0  501 -0.00000000000E+00  0.00000000000E+00  0.20646126433E+03  0.20646126433E+03  0.00000000000E+00 0. -1.
          1   -1    0    0  501    0  0.00000000000E+00 -0.00000000000E+00 -0.14443155013E+03  0.14443155013E+03  0.00000000000E+00 0.  1.
         25    2    1    2    0    0  0.50051817485E+02 -0.60977296277E+02 -0.77493354794E+02  0.16696352282E+03  0.12509269691E+03 0.  0.
          5    1    3    3  502    0 -0.11112047977E+02 -0.14551141752E+02 -0.87428415815E+02  0.89422668426E+02  0.41800000000E+01 0. -1.
         -5    1    3    3    0  502  0.61163865462E+02 -0.46426154525E+02  0.99350610217E+01  0.77540854391E+02  0.41800000000E+01 0. -1.
        -11    1    1    2    0    0 -0.48664737066E+02 -0.46648213433E+01  0.33646376618E+02  0.59347248053E+02  0.00000000000E+00 0.  1.
         11    1    1    2    0    0 -0.13870804185E+01  0.65642117620E+02  0.10587669237E+03  0.12458204359E+03  0.00000000000E+00 0. -1.
</event>
<event>
 7    1  0.2644565E-009  0.2037618E+03  0.7561462E-02  0.1146603E+00
          4   -1    0    0  501    0  0.00000000000E+00  0.00000000000E+00  0.11911753571E+04  0.11911753571E+04  0.00000000000E+00 0. -1.
         -4   -1    0    0    0  501 -0.00000000000E+00 -0.00000000000E+00 -0.37888800367E+02  0.37888800367E+02  0.00000000000E+00 0.  1.
         25    2    1    2    0    0  0.86879513810E+02 -0.15763174299E+03  0.67527582796E+03  0.70995840250E+03  0.12509065969E+03 0.  0.
          5    1    3    3  502    0 -0.28204438457E+01  0.12127825041E+02  0.15178728962E+03  0.15235449693E+03  0.41800000000E+01 0. -1.
         -5    1    3    3    0  502  0.89699957656E+02 -0.16975956803E+03  0.52348853834E+03  0.55760390558E+03  0.41800000000E+01 0. -1.
        -11    1    1    2    0    0  0.17933149538E+02  0.45229136086E+02  0.10865803567E+03  0.11905394290E+03  0.00000000000E+00 0.  1.
         11    1    1    2    0    0 -0.10481266335E+03  0.11240260691E+03  0.36935269315E+03  0.40005181211E+03  0.00000000000E+00 0. -1.
</event>
<event>
 7    1  0.3289101E-009  0.1714417E+03  0.7561462E-02  0.1176353E+00
         -1   -1    0    0    0  501 -0.00000000000E+00  0.00000000000E+00  0.32312595483E+02  0.32312595483E+02  0.00000000000E+00 0.  1.
          1   -1    0    0  501    0  0.00000000000E+00 -0.00000000000E+00 -0.93704375588E+03  0.93704375588E+03  0.00000000000E+00 0. -1.
         25    2    1    2    0    0  0.10557177224E+03  0.85483887874E+02 -0.46727643272E+03  0.50244208043E+03  0.12509150823E+03 0.  0.
          5    1    3    3  502    0  0.82065821514E+02  0.11565894319E+03 -0.40610855531E+03  0.43017835986E+03  0.41800000000E+01 0.  1.
         -5    1    3    3    0  502  0.23505950729E+02 -0.30175055316E+02 -0.61167877409E+02  0.72263720564E+02  0.41800000000E+01 0.  1.
        -11    1    1    2    0    0 -0.91923464090E+02 -0.17989163137E+02 -0.27312384639E+03  0.28873892828E+03  0.00000000000E+00 0. -1.
         11    1    1    2    0    0 -0.13648308153E+02 -0.67494724737E+02 -0.16433088130E+03  0.17817534266E+03  0.00000000000E+00 0.  1.
</event>
<event>
 7    1  0.2652744E-009  0.9367872E+02  0.7561462E-02  0.1294180E+00
          1   -1    0    0  501    0  0.00000000000E+00  0.00000000000E+00  0.14319948092E+03  0.14319948092E+03  0.00000000000E+00 0. -1.
         -1   -1    0    0    0  501 -0.00000000000E+00 -0.00000000000E+00 -0.10052835179E+03  0.10052835179E+03  0.00000000000E+00 0.  1.
         25    2    1    2    0    0 -0.20692285877E+02 -0.29742542917E+02  0.61969515652E+02  0.14422590093E+03  0.12509236617E+03 0.  0.
          5    1    3    3  502    0  0.50826728718E+02 -0.29997452171E+01  0.39339066039E+02  0.64477820530E+02  0.41800000000E+01 0. -1.
         -5    1    3    3    0  502 -0.71519014595E+02 -0.26742797700E+02  0.22630449613E+02  0.79748080398E+02  0.41800000000E+01 0. -1.
        -11    1    1    2    0    0 -0.15186125558E+02  0.13876599656E+02 -0.47115477647E+02  0.51410569549E+02  0.00000000000E+00 0.  1.
         11    1    1    2    0    0  0.35878411435E+02  0.15865943261E+02  0.27817091120E+02  0.48091362229E+02  0.00000000000E+00 0. -1.
</event>
<event>
 7    1  0.2644565E-009  0.9418026E+02  0.7561462E-02  0.1293033E+00
          2   -1    0    0  501    0  0.00000000000E+00  0.00000000000E+00  0.10498977059E+03  0.10498977059E+03  0.00000000000E+00 0. -1.
         -2   -1    0    0    0  501 -0.00000000000E+00 -0.00000000000E+00 -0.19310944795E+03  0.19310944795E+03  0.00000000000E+00 0.  1.
         25    2    1    2    0    0  0.20324385205E+02 -0.77694259707E+02 -0.33484489173E+00  0.14865123204E+03  0.12509035951E+03 0.  0.
          5    1    3    3  502    0  0.39797426534E+02 -0.32355600765E+02 -0.54707787232E+02  0.75107485934E+02  0.41800000000E+01 0.  1.
         -5    1    3    3    0  502 -0.19473041329E+02 -0.45338658942E+02  0.54372942340E+02  0.73543746111E+02  0.41800000000E+01 0.  1.
        -11    1    1    2    0    0  0.80567689127E+01  0.36345029442E+02 -0.91873569107E+02  0.99129336681E+02  0.00000000000E+00 0. -1.
         11    1    1    2    0    0 -0.28381154118E+02  0.41349230265E+02  0.40887366371E+01  0.50318649822E+02  0.00000000000E+00 0.  1.
</event>
<event>
 7    1  0.2644565E-009  0.1031250E+03  0.7561462E-02  0.1273859E+00
          2   -1    0    0  501    0  0.00000000000E+00  0.00000000000E+00  0.37236875626E+03  0.37236875626E+03  0.00000000000E+00 0. -1.
         -2   -1    0    0    0  501 -0.00000000000E+00 -0.00000000000E+00 -0.34089665422E+02  0.34089665422E+02  0.00000000000E+00 0.  1.
         25    2    1    2    0    0 -0.16913219410E+02  0.24906225364E+02  0.22998008208E+03  0.26352310488E+03  0.12508881486E+03 0.  0.
          5    1    3    3  502    0 -0.64470179279E+02  0.23430696086E+02  0.76750263913E+02  0.10302173046E+03  0.41800000000E+01 0.  1.
         -5    1    3    3    0  502  0.47556959869E+02  0.14755292783E+01  0.15322981816E+03  0.16050137443E+03  0.41800000000E+01 0.  1.
        -11    1    1    2    0    0 -0.24316392459E+02 -0.39197579601E+02  0.74981076203E+02  0.88033510537E+02  0.00000000000E+00 0. -1.
         11    1    1    2    0    0  0.41229611869E+02  0.14291354237E+02  0.33317932558E+02  0.54901806262E+02  0.00000000000E+00 0.  1.
</event>
<event>
 7    1  0.2644565E-009  0.1141669E+03  0.7561462E-02  0.1253042E+00
         -1   -1    0    0    0  501 -0.00000000000E+00  0.00000000000E+00  0.45995011315E+03  0.45995011315E+03  0.00000000000E+00 0.  1.
          1   -1    0    0  501    0  0.00000000000E+00 -0.00000000000E+00 -0.33022642043E+02  0.33022642043E+02  0.00000000000E+00 0. -1.
         25    2    1    2    0    0 -0.59184369541E+02  0.41933267944E+01  0.22398401829E+03  0.26331818953E+03  0.12508898794E+03 0.  0.
          5    1    3    3  502    0 -0.83547677565E+02 -0.29864233371E+02  0.18808485978E+03  0.20800354261E+03  0.41800000000E+01 0. -1.
         -5    1    3    3    0  502  0.24363308024E+02  0.34057560165E+02  0.35899158508E+02  0.55314646920E+02  0.41800000000E+01 0. -1.
        -11    1    1    2    0    0  0.69487110688E+02  0.19009482216E+02  0.18509719810E+03  0.19862223367E+03  0.00000000000E+00 0.  1.
         11    1    1    2    0    0 -0.10302741147E+02 -0.23202809010E+02  0.17846254726E+02  0.31032331991E+02  0.00000000000E+00 0. -1.
</event>
<event>
 7    1  0.2644565E-009  0.1043038E+03  0.7561462E-02  0.1271497E+00
         -1   -1    0    0    0  501 -0.00000000000E+00  0.00000000000E+00  0.17337942755E+03  0.17337942755E+03  0.00000000000E+00 0.  1.
          1   -1    0    0  501    0  0.00000000000E+00 -0.00000000000E+00 -0.90432877725E+02  0.90432877725E+02  0.00000000000E+00 0. -1.
         25    2    1    2    0    0  0.72215946028E+01  0.13480928456E+02  0.11096268906E+03  0.16791138288E+03  0.12509047636E+03 0.  0.
          5    1    3    3  502    0 -0.54794952131E+02  0.23789588951E+02  0.72739024501E+02  0.94217139666E+02  0.41800000000E+01 0.  1.
         -5    1    3    3    0  502  0.62016546734E+02 -0.10308660495E+02  0.38223664558E+02  0.73694243210E+02  0.41800000000E+01 0.  1.
        -11    1    1    2    0    0 -0.23354333434E+02 -0.44781435429E+02  0.62662225053E+00  0.50509350666E+02  0.00000000000E+00 0. -1.
         11    1    1    2    0    0  0.16132738831E+02  0.31300506973E+02 -0.28642761485E+02  0.45391571733E+02  0.00000000000E+00 0.  1.
</event>
<event>
 7    1  0.2644565E-009  0.1105338E+03  0.7561462E-02  0.1259585E+00
         -2   -1    0    0    0  501 -0.00000000000E+00  0.00000000000E+00  0.51317754284E+03  0.51317754284E+03  0.00000000000E+00 0.  1.
          2   -1    0    0  501    0  0.00000000000E+00 -0.00000000000E+00 -0.26595204736E+02  0.26595204736E+02  0.00000000000E+00 0. -1.
         25    2    1    2    0    0 -0.40980034668E+02 -0.32087110498E+01  0.30206197579E+03  0.32951327895E+03  0.12509158533E+03 0.  0.
          5    1    3    3  502    0  0.16062072033E+02 -0.51153210084E+02  0.16368799506E+03  0.17229588848E+03  0.41800000000E+01 0.  1.
         -5    1    3    3    0  502 -0.57042106701E+02  0.47944499034E+02  0.13837398073E+03  0.15721739048E+03  0.41800000000E+01 0.  1.
        -11    1    1    2    0    0  0.25966940437E+01  0.39647272893E+02  0.12220705143E+03  0.12850374503E+03  0.00000000000E+00 0. -1.
         11    1    1    2    0    0  0.38383340624E+02 -0.36438561843E+02  0.62313310878E+02  0.81755723587E+02  0.00000000000E+00 0.  1.
</event>
<event>
 7    1  0.2644565E-009  0.1081514E+03  0.7561462E-02  0.1264032E+00
         -2   -1    0    0    0  501 -0.00000000000E+00  0.00000000000E+00  0.14389580985E+03  0.14389580985E+03  0.00000000000E+00 0.  1.
          2   -1    0    0  501    0  0.00000000000E+00 -0.00000000000E+00 -0.20113245130E+03  0.20113245130E+03  0.00000000000E+00 0. -1.
         25    2    1    2    0    0 -0.74351867083E+02  0.86663783215E+01 -0.13940181890E+03  0.20168551610E+03  0.12506348004E+03 0.  0.
          5    1    3    3  502    0 -0.24771295875E+02  0.41787387750E+02  0.13415157706E+01  0.48775761797E+02  0.41800000000E+01 0.  1.
         -5    1    3    3    0  502 -0.49580571208E+02 -0.33121009429E+02 -0.14074333467E+03  0.15290975430E+03  0.41800000000E+01 0.  1.
        -11    1    1    2    0    0 -0.93116648759E+01 -0.21220064829E+02 -0.29201865481E+01  0.23356492536E+02  0.00000000000E+00 0. -1.
         11    1    1    2    0    0  0.83663531958E+02  0.12553686507E+02  0.85085363996E+02  0.11998625251E+03  0.00000000000E+00 0.  1.
</event>
<event>
 7    1  0.2644565E-009  0.8835968E+02  0.7561462E-02  0.1306873E+00
          3   -1    0    0  501    0  0.00000000000E+00  0.00000000000E+00  0.37777665620E+03  0.37777665620E+03  0.00000000000E+00 0.  1.
         -3   -1    0    0    0  501 -0.00000000000E+00 -0.00000000000E+00 -0.38765353245E+02  0.38765353245E+02  0.00000000000E+00 0. -1.
         25    2    1    2    0    0 -0.10610858111E+02  0.49658060722E+02  0.22391261304E+03  0.26146319079E+03  0.12509048147E+03 0.  0.
          5    1    3    3  502    0 -0.38563658205E+02  0.30361618207E+02  0.22176870660E+03  0.22717353547E+03  0.41800000000E+01 0.  1.
         -5    1    3    3    0  502  0.27952800094E+02  0.19296442515E+02  0.21439064465E+01  0.34289655316E+02  0.41800000000E+01 0.  1.
        -11    1    1    2    0    0  0.97508051088E+01 -0.71106549958E+02  0.11251622127E+03  0.13345830696E+03  0.00000000000E+00 0.  1.
         11    1    1    2    0    0  0.86005300264E+00  0.21448489236E+02  0.25824686389E+01  0.21620511695E+02  0.00000000000E+00 0. -1.
</event>
<event>
 7    1  0.3164100E-009  0.1011285E+03  0.7561462E-02  0.1277941E+00
          4   -1    0    0  501    0  0.00000000000E+00  0.00000000000E+00  0.19795140499E+03  0.19795140499E+03  0.00000000000E+00 0. -1.
         -4   -1    0    0    0  501 -0.00000000000E+00 -0.00000000000E+00 -0.92031448868E+02  0.92031448868E+02  0.00000000000E+00 0.  1.
         25    2    1    2    0    0 -0.71145041931E+02  0.15605980276E+02  0.94388076788E+02  0.17280337482E+03  0.12508690458E+03 0.  0.
          5    1    3    3  502    0 -0.92855136202E+02  0.69567488522E+01  0.20828860147E+02  0.95508044105E+02  0.41800000000E+01 0.  1.
         -5    1    3    3    0  502  0.21710094271E+02  0.86492314236E+01  0.73559216642E+02  0.77295330715E+02  0.41800000000E+01 0.  1.
        -11    1    1    2    0    0  0.51916825366E+02 -0.31182582585E+02  0.45075993578E+02  0.75495399925E+02  0.00000000000E+00 0. -1.
         11    1    1    2    0    0  0.19228216565E+02  0.15576602309E+02 -0.33544114240E+02  0.41684079118E+02  0.00000000000E+00 0.  1.
</event>
<event>
 7    1  0.2644565E-009  0.8958856E+02  0.7561462E-02  0.1303851E+00
         -1   -1    0    0    0  501 -0.00000000000E+00  0.00000000000E+00  0.54328931197E+02  0.54328931197E+02  0.00000000000E+00 0.  1.
          1   -1    0    0  501    0  0.00000000000E+00 -0.00000000000E+00 -0.38039779871E+03  0.38039779871E+03  0.00000000000E+00 0. -1.
         25    2    1    2    0    0 -0.25948785704E+02  0.50473028053E+02 -0.12759872499E+03  0.18749150375E+03  0.12510301083E+03 0.  0.
          5    1    3    3  502    0 -0.16371891203E+02 -0.49032789471E+01 -0.12990472527E+03  0.13109077395E+03  0.41800000000E+01 0. -1.
         -5    1    3    3    0  502 -0.95768945011E+01  0.55376307000E+02  0.23060002809E+01  0.56400729805E+02  0.41800000000E+01 0. -1.
        -11    1    1    2    0    0 -0.33157331206E+02 -0.20133717659E+02 -0.17099563242E+03  0.17534047310E+03  0.00000000000E+00 0. -1.
         11    1    1    2    0    0  0.59106116910E+02 -0.30339310394E+02 -0.27474510096E+02  0.71894753052E+02  0.00000000000E+00 0.  1.
</event>
<event>
 7    1  0.2644565E-009  0.1187470E+03  0.7561462E-02  0.1245179E+00
         -2   -1    0    0    0  501 -0.00000000000E+00  0.00000000000E+00  0.18514777402E+02  0.18514777402E+02  0.00000000000E+00 0.  1.
          2   -1    0    0  501    0  0.00000000000E+00 -0.00000000000E+00 -0.11348771284E+04  0.11348771284E+04  0.00000000000E+00 0. -1.
         25    2    1    2    0    0  0.47914507168E+02 -0.50164604647E+02 -0.85917331148E+03  0.87099956939E+03  0.12509669520E+03 0.  0.
          5    1    3    3  502    0  0.33155836453E+02 -0.91361363356E+02 -0.52375551461E+03  0.53271335602E+03  0.41800000000E+01 0.  1.
         -5    1    3    3    0  502  0.14758670715E+02  0.41196758709E+02 -0.33541779688E+03  0.33828621336E+03  0.41800000000E+01 0.  1.
        -11    1    1    2    0    0  0.16915093735E+02  0.66604597136E+01 -0.56826436280E+01  0.19046641653E+02  0.00000000000E+00 0.  1.
         11    1    1    2    0    0 -0.64829600904E+02  0.43504144934E+02 -0.25150639593E+03  0.26334569481E+03  0.00000000000E+00 0. -1.
</event>
<event>
 7    1  0.2644565E-009  0.9680656E+02  0.7561462E-02  0.1287158E+00
         -1   -1    0    0    0  501 -0.00000000000E+00  0.00000000000E+00  0.25499096147E+03  0.25499096147E+03  0.00000000000E+00 0.  1.
          1   -1    0    0  501    0  0.00000000000E+00 -0.00000000000E+00 -0.60583792914E+02  0.60583792914E+02  0.00000000000E+00 0. -1.
         25    2    1    2    0    0 -0.19248468420E+02  0.17061069123E+02  0.35901946699E+02  0.13265648880E+03  0.12508881096E+03 0.  0.
          5    1    3    3  502    0 -0.70935060198E+02  0.24821133404E+02  0.21717476874E+02  0.78338959850E+02  0.41800000000E+01 0.  1.
         -5    1    3    3    0  502  0.51686591778E+02 -0.77600642809E+01  0.14184469825E+02  0.54317528952E+02  0.41800000000E+01 0.  1.
        -11    1    1    2    0    0  0.12652119134E+02  0.22495346212E+02  0.13279938192E+03  0.13528411790E+03  0.00000000000E+00 0.  1.
         11    1    1    2    0    0  0.65963492858E+01 -0.39556415335E+02  0.25705839942E+02  0.47634147680E+02  0.00000000000E+00 0. -1.
</event>
<event>
 7    1  0.2644565E-009  0.1045946E+03  0.7561462E-02  0.1270920E+00
         -2   -1    0    0    0  501 -0.00000000000E+00  0.00000000000E+00  0.11715297542E+02  0.11715297542E+02  0.00000000000E+00 0.  1.
          2   -1    0    0  501    0  0.00000000000E+00 -0.00000000000E+00 -0.11846620967E+04  0.11846620967E+04  0.00000000000E+00 0. -1.
         25    2    1    2    0    0  0.93891706519E+01 -0.19143993617E+02 -0.82904116749E+03  0.83869673930E+03  0.12509322163E+03 0.  0.
          5    1    3    3  502    0 -0.24719717900E+02 -0.55631762930E+02 -0.64732713222E+03  0.65019677483E+03  0.41800000000E+01 0.  1.
         -5    1    3    3    0  502  0.34108888552E+02  0.36487769313E+02 -0.18171403527E+03  0.18849996446E+03  0.41800000000E+01 0.  1.
        -11    1    1    2    0    0 -0.52774088094E+02  0.10702828898E+02 -0.20173771099E+03  0.20880076379E+03  0.00000000000E+00 0.  1.
         11    1    1    2    0    0  0.43384917443E+02  0.84411647188E+01 -0.14216792071E+03  0.14887989120E+03  0.00000000000E+00 0. -1.
</event>
<event>
 7    1  0.2644565E-009  0.1061160E+03  0.7561462E-02  0.1267936E+00
         -2   -1    0    0    0  501 -0.00000000000E+00  0.00000000000E+00  0.12578266035E+04  0.12578266035E+04  0.00000000000E+00 0.  1.
          2   -1    0    0  501    0  0.00000000000E+00 -0.00000000000E+00 -0.14678172255E+02  0.14678172255E+02  0.00000000000E+00 0. -1.
         25    2    1    2    0    0 -0.50093239878E+02 -0.34499762510E+02  0.93638483153E+03  0.94665697044E+03  0.12507318121E+03 0.  0.
          5    1    3    3  502    0 -0.64151288765E+02  0.14680587200E+01  0.21962139965E+03  0.22884181137E+03  0.41800000000E+01 0.  1.
         -5    1    3    3    0  502  0.14058048887E+02 -0.35967821230E+02  0.71676343189E+03  0.71781515907E+03  0.41800000000E+01 0.  1.
        -11    1    1    2    0    0  0.15288066407E+02  0.62545117586E+02  0.19987630210E+03  0.20999083992E+03  0.00000000000E+00 0. -1.
         11    1    1    2    0    0  0.34805173471E+02 -0.28045355076E+02  0.10688729765E+03  0.11585696544E+03  0.00000000000E+00 0.  1.
</event>
<event>
 7    1  0.2644565E-009  0.1132848E+03  0.7561462E-02  0.1254605E+00
          1   -1    0    0  501    0  0.00000000000E+00  0.00000000000E+00  0.76980494116E+02  0.76980494116E+02  0.00000000000E+00 0. -1.
         -1   -1    0    0    0  501 -0.00000000000E+00 -0.00000000000E+00 -0.22591044659E+03  0.22591044659E+03  0.00000000000E+00 0.  1.
         25    2    1    2    0    0  0.69026287340E+02 -0.11045264333E+02 -0.11398837243E+03  0.18310192503E+03  0.12508532965E+03 0.  0.
          5    1    3    3  502    0  0.90800118673E+02 -0.10555813626E+02 -0.30098186340E+02  0.96329953667E+02  0.41800000000E+01 0. -1.
         -5    1    3    3    0  502 -0.21773831334E+02 -0.48945070621E+00 -0.83890186088E+02  0.86771971366E+02  0.41800000000E+01 0. -1.
        -11    1    1    2    0    0 -0.54050653446E+02 -0.35048909098E+02 -0.97061534224E+01  0.65146823262E+02  0.00000000000E+00 0.  1.
         11    1    1    2    0    0 -0.14975633894E+02  0.46094173431E+02 -0.25235426624E+02  0.54642192413E+02  0.00000000000E+00 0. -1.
</event>
<event>
 7    1  0.2644565E-009  0.1054954E+03  0.7561462E-02  0.1269147E+00
          1   -1    0    0  501    0  0.00000000000E+00  0.00000000000E+00  0.60417527612E+02  0.60417527612E+02  0.00000000000E+00 0. -1.
         -1   -1    0    0    0  501 -0.00000000000E+00 -0.00000000000E+00 -0.19800108759E+03  0.19800108759E+03  0.00000000000E+00 0.  1.
         25    2    1    2    0    0  0.13966435165E+02  0.12319552561E+02 -0.65461674875E+02  0.14240634322E+03  0.12508997971E+03 0.  0.
          5    1    3    3  502    0  0.53861475779E+02 -0.34454007854E+02 -0.25493183722E+02  0.68960220755E+02  0.41800000000E+01 0.  1.
         -5    1    3    3    0  502 -0.39895040614E+02  0.46773560415E+02 -0.39968491153E+02  0.73446122461E+02  0.41800000000E+01 0.  1.
        -11    1    1    2    0    0 -0.40976905225E+02  0.17943590231E+02 -0.17634927990E+02  0.48083987745E+02  0.00000000000E+00 0.  1.
         11    1    1    2    0    0  0.27010470060E+02 -0.30263142792E+02 -0.54486957114E+02  0.67928284242E+02  0.00000000000E+00 0. -1.
</event>
<event>
 7    1  0.2644565E-009  0.1121859E+03  0.7561462E-02  0.1256575E+00
         -2   -1    0    0    0  501 -0.00000000000E+00  0.00000000000E+00  0.38483243922E+02  0.38483243922E+02  0.00000000000E+00 0.  1.
          2   -1    0    0  501    0  0.00000000000E+00 -0.00000000000E+00 -0.53337962426E+03  0.53337962426E+03  0.00000000000E+00 0. -1.
         25    2    1    2    0    0 -0.33660654642E+02  0.87999973074E+02 -0.26487993200E+03  0.30771077557E+03  0.12508999997E+03 0.  0.
          5    1    3    3  502    0 -0.37954273069E+02  0.21409962630E+02 -0.10948395264E+02  0.45124861250E+02  0.41800000000E+01 0.  1.
         -5    1    3    3    0  502  0.42936184271E+01  0.66590010444E+02 -0.25393153673E+03  0.26258591432E+03  0.41800000000E+01 0.  1.
        -11    1    1    2    0    0  0.25236804284E+02  0.97392276648E-01 -0.10256241771E+02  0.27241443996E+02  0.00000000000E+00 0.  1.
         11    1    1    2    0    0  0.84238503575E+01 -0.88097365351E+02 -0.21976020657E+03  0.23691064861E+03  0.00000000000E+00 0. -1.
</event>
<event>
 7    1  0.2644565E-009  0.1177682E+03  0.7561462E-02  0.1246825E+00
         -2   -1    0    0    0  501 -0.00000000000E+00  0.00000000000E+00  0.13033995163E+02  0.13033995163E+02  0.00000000000E+00 0.  1.
          2   -1    0    0  501    0  0.00000000000E+00 -0.00000000000E+00 -0.10813462336E+04  0.10813462336E+04  0.00000000000E+00 0. -1.
         25    2    1    2    0    0  0.31099545305E+02 -0.33767263639E+02 -0.54027494724E+03  0.55646392356E+03  0.12509064632E+03 0.  0.
          5    1    3    3  502    0 -0.42027096008E+02 -0.41728692301E+02 -0.22607479725E+03  0.23374098252E+03  0.41800000000E+01 0. -1.
         -5    1    3    3    0  502  0.73126641313E+02  0.79614286622E+01 -0.31420015000E+03  0.32272294104E+03  0.41800000000E+01 0. -1.
        -11    1    1    2    0    0 -0.46389473979E+02 -0.17046760886E+02 -0.24105211726E+03  0.24606645157E+03  0.00000000000E+00 0.  1.
         11    1    1    2    0    0  0.15289928674E+02  0.50814024525E+02 -0.28698517397E+03  0.29184985366E+03  0.00000000000E+00 0. -1.
</event>
<event>
 7    1  0.2644565E-009  0.1419293E+03  0.7561462E-02  0.1210756E+00
         -1   -1    0    0    0  501 -0.00000000000E+00  0.00000000000E+00  0.16749902139E+03  0.16749902139E+03  0.00000000000E+00 0.  1.
          1   -1    0    0  501    0  0.00000000000E+00 -0.00000000000E+00 -0.25978820173E+03  0.25978820173E+03  0.00000000000E+00 0. -1.
         25    2    1    2    0    0 -0.96215691539E+02  0.31639305349E+02  0.10123347727E+03  0.19013903373E+03  0.12508449259E+03 0.  0.
          5    1    3    3  502    0 -0.87547619775E+02 -0.34414040119E+02  0.61244229845E+02  0.11232648830E+03  0.41800000000E+01 0.  1.
         -5    1    3    3    0  502 -0.86680717638E+01  0.66053345468E+02  0.39989247425E+02  0.77812545424E+02  0.41800000000E+01 0.  1.
        -11    1    1    2    0    0  0.83702220771E+02  0.53744821891E+01 -0.75586130700E+02  0.11290797126E+03  0.00000000000E+00 0.  1.
         11    1    1    2    0    0  0.12513470768E+02 -0.37013787538E+02 -0.11793652692E+03  0.12424021813E+03  0.00000000000E+00 0. -1.
</event>
<event>
 7    1  0.2644565E-009  0.3130783E+03  0.7561462E-02  0.1078880E+00
         -2   -1    0    0    0  501 -0.00000000000E+00  0.00000000000E+00  0.19901581499E+03  0.19901581499E+03  0.00000000000E+00 0. -1.
          2   -1    0    0  501    0  0.00000000000E+00 -0.00000000000E+00 -0.53488973378E+03  0.53488973378E+03  0.00000000000E+00 0.  1.
         25    2    1    2    0    0  0.28414841331E+03  0.10626916787E+03 -0.21942042608E+03  0.39474745116E+03  0.12508704964E+03 0.  0.
          5    1    3    3  502    0  0.19641130898E+03  0.12501862968E+03 -0.12444083699E+03  0.26402661679E+03  0.41800000000E+01 0.  1.
         -5    1    3    3    0  502  0.87737104328E+02 -0.18749461804E+02 -0.94979589096E+02  0.13072083437E+03  0.41800000000E+01 0.  1.
        -11    1    1    2    0    0 -0.26363759145E+02 -0.12420275549E+02 -0.48416298932E+02  0.56510610006E+02  0.00000000000E+00 0.  1.
         11    1    1    2    0    0 -0.25778465417E+03 -0.93848892323E+02 -0.68037193776E+02  0.28264748761E+03  0.00000000000E+00 0. -1.
</event>
<event>
 7    1  0.2644565E-009  0.9067076E+02  0.7561462E-02  0.1301235E+00
         -1   -1    0    0    0  501 -0.00000000000E+00  0.00000000000E+00  0.48164315564E+02  0.48164315564E+02  0.00000000000E+00 0.  1.
          1   -1    0    0  501    0  0.00000000000E+00 -0.00000000000E+00 -0.32064422661E+03  0.32064422661E+03  0.00000000000E+00 0. -1.
         25    2    1    2    0    0 -0.49481902324E+02 -0.19425050837E+02 -0.19852506153E+03  0.24060912921E+03  0.12511899034E+03 0.  0.
          5    1    3    3  502    0 -0.21636290873E+02  0.32364876315E+02 -0.64384202591E+01  0.39680473246E+02  0.41800000000E+01 0. -1.
         -5    1    3    3    0  502 -0.27845611450E+02 -0.51789927152E+02 -0.19208664127E+03  0.20092865596E+03  0.41800000000E+01 0. -1.
        -11    1    1    2    0    0 -0.28153576849E+01 -0.18451220917E+02  0.10865338149E+02  0.21596975837E+02  0.00000000000E+00 0.  1.
         11    1    1    2    0    0  0.52297260009E+02  0.37876271754E+02 -0.84820187661E+02  0.10660243713E+03  0.00000000000E+00 0. -1.
</event>
<event>
 7    1  0.2644565E-009  0.1645390E+03  0.7561462E-02  0.1183665E+00
         -2   -1    0    0    0  501 -0.00000000000E+00  0.00000000000E+00  0.16836723672E+03  0.16836723672E+03  0.00000000000E+00 0.  1.
          2   -1    0    0  501    0  0.00000000000E+00 -0.00000000000E+00 -0.51655476586E+03  0.51655476586E+03  0.00000000000E+00 0. -1.
         25    2    1    2    0    0  0.21590694668E+01 -0.15848942972E+03  0.81719953757E+02  0.21782790140E+03  0.12508909973E+03 0.  0.
          5    1    3    3  502    0  0.14900136059E+02 -0.38447840316E+02 -0.31666810123E+02  0.52158505949E+02  0.41800000000E+01 0. -1.
         -5    1    3    3    0  502 -0.12741066593E+02 -0.12004158940E+03  0.11338676388E+03  0.16566939545E+03  0.41800000000E+01 0. -1.
        -11    1    1    2    0    0  0.18394779207E+02  0.21385080609E+02 -0.20555324524E+02  0.34902878692E+02  0.00000000000E+00 0.  1.
         11    1    1    2    0    0 -0.20553848674E+02  0.13710434911E+03 -0.40935215837E+03  0.43219122249E+03  0.00000000000E+00 0. -1.
</event>
<event>
 7    1  0.2644565E-009  0.1482000E+03  0.7561462E-02  0.1202702E+00
          1   -1    0    0  501    0  0.00000000000E+00  0.00000000000E+00  0.12182614525E+03  0.12182614525E+03  0.00000000000E+00 0. -1.
         -1   -1    0    0    0  501 -0.00000000000E+00 -0.00000000000E+00 -0.32362325628E+03  0.32362325628E+03  0.00000000000E+00 0.  1.
         25    2    1    2    0    0  0.30401206423E+02 -0.11346900225E+03 -0.22067125715E+03  0.27953729077E+03  0.12508335371E+03 0.  0.
          5    1    3    3  502    0 -0.32287177676E+02 -0.17772736348E+02 -0.78987960122E+01  0.37923546485E+02  0.41800000000E+01 0. -1.
         -5    1    3    3    0  502  0.62688384099E+02 -0.95696265902E+02 -0.21277246113E+03  0.24161374428E+03  0.41800000000E+01 0. -1.
        -11    1    1    2    0    0 -0.57815121833E+02  0.52975486642E+02 -0.29464331342E+02  0.83768355117E+02  0.00000000000E+00 0. -1.
         11    1    1    2    0    0  0.27413915409E+02  0.60493515608E+02  0.48338477463E+02  0.82143755649E+02  0.00000000000E+00 0.  1.
</event>
<event>
 7    1  0.2644565E-009  0.4428954E+03  0.7561462E-02  0.1029862E+00
          2   -1    0    0  501    0  0.00000000000E+00  0.00000000000E+00  0.31623969003E+04  0.31623969003E+04  0.00000000000E+00 0. -1.
         -2   -1    0    0    0  501 -0.00000000000E+00 -0.00000000000E+00 -0.76334503841E+02  0.76334503841E+02  0.00000000000E+00 0.  1.
         25    2    1    2    0    0  0.40599091294E+03  0.14130316216E+03  0.85807737372E+03  0.96785313247E+03  0.12509077398E+03 0.  0.
          5    1    3    3  502    0  0.26965274709E+03  0.31714552787E+02  0.48686484615E+03  0.55747041866E+03  0.41800000000E+01 0. -1.
         -5    1    3    3    0  502  0.13633816585E+03  0.10958860937E+03  0.37121252757E+03  0.41038271381E+03  0.41800000000E+01 0. -1.
        -11    1    1    2    0    0 -0.29929535681E+03 -0.60287310267E+02  0.15416720240E+04  0.15716121977E+04  0.00000000000E+00 0.  1.
         11    1    1    2    0    0 -0.10669555613E+03 -0.81015851892E+02  0.68631299874E+03  0.69926607396E+03  0.00000000000E+00 0. -1.
</event>
<event>
 7    1  0.2644565E-009  0.1008334E+03  0.7561462E-02  0.1278553E+00
          2   -1    0    0  501    0  0.00000000000E+00  0.00000000000E+00  0.18464668796E+04  0.18464668796E+04  0.00000000000E+00 0. -1.
         -2   -1    0    0    0  501 -0.00000000000E+00 -0.00000000000E+00 -0.90700302014E+01  0.90700302014E+01  0.00000000000E+00 0.  1.
         25    2    1    2    0    0 -0.90204160334E+01 -0.40805325834E+02  0.13973899839E+04  0.14036001498E+04  0.12509264884E+03 0.  0.
          5    1    3    3  502    0  0.23932721378E+02  0.19160014670E+02  0.98996662668E+03  0.99045003693E+03  0.41800000000E+01 0.  1.
         -5    1    3    3    0  502 -0.32953137411E+02 -0.59965340504E+02  0.40742335723E+03  0.41315011284E+03  0.41800000000E+01 0.  1.
        -11    1    1    2    0    0  0.19148032504E+02 -0.27286133022E+02  0.17416180671E+03  0.17732319397E+03  0.00000000000E+00 0. -1.
         11    1    1    2    0    0 -0.10127616470E+02  0.68091458856E+02  0.26584505881E+03  0.27461356608E+03  0.00000000000E+00 0.  1.
</event>
<event>
 7    1  0.2644565E-009  0.1849662E+03  0.7561462E-02  0.1163081E+00
         -2   -1    0    0    0  501 -0.00000000000E+00  0.00000000000E+00  0.27628737819E+03  0.27628737819E+03  0.00000000000E+00 0.  1.
          2   -1    0    0  501    0  0.00000000000E+00 -0.00000000000E+00 -0.15341058983E+03  0.15341058983E+03  0.00000000000E+00 0. -1.
         25    2    1    2    0    0  0.94094334481E+02  0.14123188729E+03  0.99806059119E+02  0.23326524255E+03  0.12510489269E+03 0.  0.
          5    1    3    3  502    0  0.11214633798E+03  0.89713737719E+02  0.10545794878E+03  0.17822515877E+03  0.41800000000E+01 0. -1.
         -5    1    3    3    0  502 -0.18052003499E+02  0.51518149568E+02 -0.56518896608E+01  0.55040083775E+02  0.41800000000E+01 0. -1.
        -11    1    1    2    0    0 -0.39559503502E+02 -0.38520220522E+02  0.52803790465E+02  0.76400274828E+02  0.00000000000E+00 0.  1.
         11    1    1    2    0    0 -0.54534830979E+02 -0.10271166676E+03 -0.29733061217E+02  0.12003245065E+03  0.00000000000E+00 0. -1.
</event>
<event>
 7    1  0.2644565E-009  0.6030581E+02  0.7561462E-02  0.1396553E+00
          2   -1    0    0  501    0  0.00000000000E+00  0.00000000000E+00  0.27196819773E+03  0.27196819773E+03  0.00000000000E+00 0. -1.
         -2   -1    0    0    0  501 -0.00000000000E+00 -0.00000000000E+00 -0.48914061168E+02  0.48914061168E+02  0.00000000000E+00 0.  1.
         25    2    1    2    0    0  0.28417594487E+01 -0.39583758310E+02  0.12854635556E+03  0.18370333979E+03  0.12509117476E+03 0.  0.
          5    1    3    3  502    0 -0.19131034679E+02 -0.44985465993E+02 -0.39521147021E+01  0.49221745693E+02  0.41800000000E+01 0.  1.
         -5    1    3    3    0  502  0.21972794128E+02  0.54017076821E+01  0.13249847026E+03  0.13448159409E+03  0.41800000000E+01 0.  1.
        -11    1    1    2    0    0  0.11364701555E+02  0.79730144912E+01 -0.16105888299E+02  0.21263232102E+02  0.00000000000E+00 0.  1.
         11    1    1    2    0    0 -0.14206461003E+02  0.31610743819E+02  0.11061366930E+03  0.11591568701E+03  0.00000000000E+00 0. -1.
</event>
<event>
 7    1  0.2644565E-009  0.9887651E+02  0.7561462E-02  0.1282676E+00
          2   -1    0    0  501    0  0.00000000000E+00  0.00000000000E+00  0.67023586851E+03  0.67023586851E+03  0.00000000000E+00 0. -1.
         -2   -1    0    0    0  501 -0.00000000000E+00 -0.00000000000E+00 -0.18992272010E+02  0.18992272010E+02  0.00000000000E+00 0.  1.
         25    2    1    2    0    0 -0.21738322217E+02  0.25373837769E+02  0.34860252360E+03  0.37187078069E+03  0.12509105396E+03 0.  0.
          5    1    3    3  502    0 -0.13081131568E+02 -0.41632987895E+02  0.23946192615E+03  0.24344179624E+03  0.41800000000E+01 0. -1.
         -5    1    3    3    0  502 -0.86571906495E+01  0.67006825664E+02  0.10914059745E+03  0.12842898445E+03  0.41800000000E+01 0. -1.
        -11    1    1    2    0    0  0.34439664536E+02  0.19504750104E+02  0.20932848375E+03  0.21303741427E+03  0.00000000000E+00 0. -1.
         11    1    1    2    0    0 -0.12701342319E+02 -0.44878587872E+02  0.93312589155E+02  0.10431994556E+03  0.00000000000E+00 0.  1.
</event>
<event>
 7    1  0.2644565E-009  0.1040342E+03  0.7561462E-02  0.1272034E+00
          2   -1    0    0  501    0  0.00000000000E+00  0.00000000000E+00  0.13447209362E+03  0.13447209362E+03  0.00000000000E+00 0.  1.
         -2   -1    0    0    0  501 -0.00000000000E+00 -0.00000000000E+00 -0.12943851544E+03  0.12943851544E+03  0.00000000000E+00 0. -1.
         25    2    1    2    0    0  0.14441010473E+01  0.66974043181E+02 -0.30250649495E+02  0.14508304435E+03  0.12508549106E+03 0.  0.
          5    1    3    3  502    0 -0.24192667136E+02  0.68235511256E+02  0.30751681478E+02  0.78768702244E+02  0.41800000000E+01 0. -1.
         -5    1    3    3    0  502  0.25636768183E+02 -0.12614680748E+01 -0.61002330973E+02  0.66314342104E+02  0.41800000000E+01 0. -1.
        -11    1    1    2    0    0  0.34943437723E+02 -0.19086579407E+01  0.26222267578E+02  0.43729785410E+02  0.00000000000E+00 0.  1.
         11    1    1    2    0    0 -0.36387538771E+02 -0.65065385240E+02  0.90619600956E+01  0.75097779295E+02  0.00000000000E+00 0. -1.
</event>
<event>
 7    1  0.2644565E-009  0.1119123E+03  0.7561462E-02  0.1257069E+00
         -3   -1    0    0    0  501 -0.00000000000E+00  0.00000000000E+00  0.76406723090E+02  0.76406723090E+02  0.00000000000E+00 0.  1.
          3   -1    0    0  501    0  0.00000000000E+00 -0.00000000000E+00 -0.43860549225E+03  0.43860549225E+03  0.00000000000E+00 0. -1.
         25    2    1    2    0    0 -0.52596138794E+01  0.91984128656E+02 -0.35484967043E+03  0.38736887652E+03  0.12509042503E+03 0.  0.
          5    1    3    3  502    0 -0.37543420017E+02  0.91497782551E+02 -0.14851312271E+03  0.17847961401E+03  0.41800000000E+01 0.  1.
         -5    1    3    3    0  502  0.32283806138E+02  0.48634610518E+00 -0.20633654772E+03  0.20888926252E+03  0.41800000000E+01 0.  1.
        -11    1    1    2    0    0  0.63064219593E+01 -0.80771423292E+02  0.31703490830E+02  0.86999454650E+02  0.00000000000E+00 0.  1.
         11    1    1    2    0    0 -0.10468080799E+01 -0.11212705364E+02 -0.39052589564E+02  0.40643884169E+02  0.00000000000E+00 0. -1.
</event>
<event>
 7    1  0.2644565E-009  0.9634163E+02  0.7561462E-02  0.1288183E+00
         -2   -1    0    0    0  501 -0.00000000000E+00  0.00000000000E+00  0.67412636532E+02  0.67412636532E+02  0.00000000000E+00 0.  1.
          2   -1    0    0  501    0  0.00000000000E+00 -0.00000000000E+00 -0.26604722418E+03  0.26604722418E+03  0.00000000000E+00 0. -1.
         25    2    1    2    0    0 -0.49760489883E+02 -0.21878268234E+02 -0.17864287711E+03  0.22475478265E+03  0.12508664919E+03 0.  0.
          5    1    3    3  502    0 -0.73121438792E+01 -0.40411742109E+02 -0.17305944275E+03  0.17791464098E+03  0.41800000000E+01 0.  1.
         -5    1    3    3    0  502 -0.42448346004E+02  0.18533473875E+02 -0.55834343554E+01  0.46840141669E+02  0.41800000000E+01 0.  1.
        -11    1    1    2    0    0  0.17219267397E+02 -0.35204607595E+02 -0.17583857100E+02  0.42954156913E+02  0.00000000000E+00 0. -1.
         11    1    1    2    0    0  0.32541222486E+02  0.57082875829E+02 -0.24078534368E+01  0.65750921149E+02  0.00000000000E+00 0.  1.
</event>
<event>
 7    1  0.2644565E-009  0.1146878E+03  0.7561462E-02  0.1252127E+00
         -1   -1    0    0    0  501 -0.00000000000E+00  0.00000000000E+00  0.26085391294E+02  0.26085391294E+02  0.00000000000E+00 0.  1.
          1   -1    0    0  501    0  0.00000000000E+00 -0.00000000000E+00 -0.67516897791E+03  0.67516897791E+03  0.00000000000E+00 0. -1.
         25    2    1    2    0    0  0.50302432464E+02  0.46168419424E+02 -0.43737751091E+03  0.46000849500E+03  0.12508745243E+03 0.  0.
          5    1    3    3  502    0  0.54426367969E+02 -0.12753568097E+02 -0.79562517793E+02  0.97327024341E+02  0.41800000000E+01 0.  1.
         -5    1    3    3    0  502 -0.41239355052E+01  0.58921987521E+02 -0.35781499312E+03  0.36268147065E+03  0.41800000000E+01 0.  1.
        -11    1    1    2    0    0 -0.44639193463E+01 -0.64560308837E+02 -0.10007070487E+03  0.11917258924E+03  0.00000000000E+00 0.  1.
         11    1    1    2    0    0 -0.45838513118E+02  0.18391889414E+02 -0.11163537083E+03  0.12207328496E+03  0.00000000000E+00 0. -1.
</event>
<event>
 7    1  0.2644565E-009  0.2176760E+03  0.7561462E-02  0.1135628E+00
         -1   -1    0    0    0  501 -0.00000000000E+00  0.00000000000E+00  0.18941675839E+03  0.18941675839E+03  0.00000000000E+00 0.  1.
          1   -1    0    0  501    0  0.00000000000E+00 -0.00000000000E+00 -0.28695718867E+03  0.28695718867E+03  0.00000000000E+00 0. -1.
         25    2    1    2    0    0  0.12402286512E+03  0.16378938666E+03 -0.41128378768E+02  0.24402338373E+03  0.12508890442E+03 0.  0.
          5    1    3    3  502    0  0.10479199589E+03  0.64169692457E+02  0.21360864197E+02  0.12479130880E+03  0.41800000000E+01 0. -1.
         -5    1    3    3    0  502  0.19230869229E+02  0.99619694200E+02 -0.62489242965E+02  0.11923207492E+03  0.41800000000E+01 0. -1.
        -11    1    1    2    0    0 -0.96077499104E+02 -0.15347853731E+03 -0.15484856671E+02  0.18173147233E+03  0.00000000000E+00 0.  1.
         11    1    1    2    0    0 -0.27945366019E+02 -0.10310849343E+02 -0.40927194839E+02  0.50619090999E+02  0.00000000000E+00 0. -1.
</event>
<event>
 7    1  0.2644565E-009  0.1096886E+03  0.7561462E-02  0.1261148E+00
         -2   -1    0    0    0  501 -0.00000000000E+00  0.00000000000E+00  0.27394056088E+03  0.27394056088E+03  0.00000000000E+00 0.  1.
          2   -1    0    0  501    0  0.00000000000E+00 -0.00000000000E+00 -0.52947500539E+02  0.52947500539E+02  0.00000000000E+00 0. -1.
         25    2    1    2    0    0  0.80737745008E+01  0.44547174580E+02  0.87748319203E+02  0.15937544199E+03  0.12510446590E+03 0.  0.
          5    1    3    3  502    0  0.15832761224E+02 -0.42430467343E+02  0.33532049643E+02  0.56505677946E+02  0.41800000000E+01 0.  1.
         -5    1    3    3    0  502 -0.77589867236E+01  0.86977641923E+02  0.54216269560E+02  0.10286976404E+03  0.41800000000E+01 0.  1.
        -11    1    1    2    0    0  0.32271291729E+02 -0.28499189152E+02  0.22539408177E+02  0.48596964650E+02  0.00000000000E+00 0. -1.
         11    1    1    2    0    0 -0.40345066230E+02 -0.16047985428E+02  0.11070533296E+03  0.11891565478E+03  0.00000000000E+00 0.  1.
</event>
<event>
 7    1  0.2644565E-009  0.1428204E+03  0.7561462E-02  0.1209584E+00
          2   -1    0    0  501    0  0.00000000000E+00  0.00000000000E+00  0.29499426188E+03  0.29499426188E+03  0.00000000000E+00 0. -1.
         -2   -1    0    0    0  501 -0.00000000000E+00 -0.00000000000E+00 -0.86847396333E+02  0.86847396333E+02  0.00000000000E+00 0.  1.
         25    2    1    2    0    0  0.81714749410E+02 -0.83593328162E+02  0.11924712206E+03  0.20864388625E+03  0.12508896980E+03 0.  0.
          5    1    3    3  502    0  0.66967408956E+02 -0.14446430633E+02  0.11951137655E+03  0.13781790430E+03  0.41800000000E+01 0.  1.
         -5    1    3    3    0  502  0.14747340454E+02 -0.69146897529E+02 -0.26425449291E+00  0.70825981947E+02  0.41800000000E+01 0.  1.
        -11    1    1    2    0    0 -0.37288076755E+02  0.93500960666E+02  0.46092285259E+02  0.11071282254E+03  0.00000000000E+00 0.  1.
         11    1    1    2    0    0 -0.44426672655E+02 -0.99076325040E+01  0.42807458227E+02  0.62484949427E+02  0.00000000000E+00 0. -1.
</event>
<event>
 7    1  0.2644565E-009  0.3507482E+03  0.7561462E-02  0.1062308E+00
         -2   -1    0    0    0  501 -0.00000000000E+00  0.00000000000E+00  0.22705127650E+03  0.22705127650E+03  0.00000000000E+00 0.  1.
          2   -1    0    0  501    0  0.00000000000E+00 -0.00000000000E+00 -0.58102586569E+03  0.58102586569E+03  0.00000000000E+00 0. -1.
         25    2    1    2    0    0 -0.18409205402E+03 -0.28537339106E+03 -0.10408410162E+03  0.37658827578E+03  0.12512942329E+03 0.  0.
          5    1    3    3  502    0 -0.18493960996E+03 -0.22165061144E+03 -0.50213033459E+02  0.29303664278E+03  0.41800000000E+01 0. -1.
         -5    1    3    3    0  502  0.84755593796E+00 -0.63722779620E+02 -0.53871068158E+02  0.83551633006E+02  0.41800000000E+01 0.  1.
        -11    1    1    2    0    0  0.89171341075E+02  0.69328444964E+02 -0.55991108264E+02  0.12606730565E+03  0.00000000000E+00 0. -1.
         11    1    1    2    0    0  0.94920712942E+02  0.21604494609E+03 -0.19389937931E+03  0.30542156076E+03  0.00000000000E+00 0.  1.
</event>
<event>
 7    1  0.2644565E-009  0.1024076E+03  0.7561462E-02  0.1275313E+00
         -2   -1    0    0    0  501 -0.00000000000E+00  0.00000000000E+00  0.11844888992E+03  0.11844888992E+03  0.00000000000E+00 0.  1.
          2   -1    0    0  501    0  0.00000000000E+00 -0.00000000000E+00 -0.10426563833E+03  0.10426563833E+03  0.00000000000E+00 0. -1.
         25    2    1    2    0    0 -0.17696571752E+02  0.56268390904E+01  0.25059531960E+02  0.12892324128E+03  0.12509353313E+03 0.  0.
          5    1    3    3  502    0 -0.48317712236E+02  0.51719378370E+02  0.11948038808E+02  0.71900788911E+02  0.41800000000E+01 0. -1.
         -5    1    3    3    0  502  0.30621140484E+02 -0.46092539279E+02  0.13111493152E+02  0.57022452371E+02  0.41800000000E+01 0. -1.
        -11    1    1    2    0    0 -0.28748821800E+02 -0.12717407853E+02 -0.29633876379E+02  0.43201780596E+02  0.00000000000E+00 0. -1.
         11    1    1    2    0    0  0.46445393552E+02  0.70905687624E+01  0.18757596004E+02  0.50589506377E+02  0.00000000000E+00 0.  1.
</event>
<event>
 7    1  0.2644565E-009  0.9197712E+02  0.7561462E-02  0.1298133E+00
          2   -1    0    0  501    0  0.00000000000E+00  0.00000000000E+00  0.21198175716E+03  0.21198175716E+03  0.00000000000E+00 0. -1.
         -2   -1    0    0    0  501 -0.00000000000E+00 -0.00000000000E+00 -0.73088492520E+02  0.73088492520E+02  0.00000000000E+00 0.  1.
         25    2    1    2    0    0 -0.41995570485E+02 -0.45145617979E+01  0.34392920245E+02  0.13643542050E+03  0.12509093411E+03 0.  0.
          5    1    3    3  502    0 -0.62175215103E+02 -0.15569415281E+02 -0.27801420693E+02  0.69989681081E+02  0.41800000000E+01 0. -1.
         -5    1    3    3    0  502  0.20179644618E+02  0.11054853483E+02  0.62194340937E+02  0.66445739420E+02  0.41800000000E+01 0. -1.
        -11    1    1    2    0    0  0.13377484738E+02 -0.40691534987E+02  0.17022916052E+02  0.46092708625E+02  0.00000000000E+00 0.  1.
         11    1    1    2    0    0  0.28618085747E+02  0.45206096785E+02  0.87477428344E+02  0.10254212056E+03  0.00000000000E+00 0. -1.
</event>
<event>
 7    1  0.2644565E-009  0.1187401E+03  0.7561462E-02  0.1245190E+00
          4   -1    0    0  501    0  0.00000000000E+00  0.00000000000E+00  0.41863773710E+03  0.41863773710E+03  0.00000000000E+00 0. -1.
         -4   -1    0    0    0  501 -0.00000000000E+00 -0.00000000000E+00 -0.35038548016E+02  0.35038548016E+02  0.00000000000E+00 0.  1.
         25    2    1    2    0    0 -0.65290730685E+01  0.52948833885E+02  0.24529495459E+03  0.28046925595E+03  0.12508869245E+03 0.  0.
          5    1    3    3  502    0  0.23346238427E+02  0.86767627479E+02  0.14905855665E+03  0.17409650696E+03  0.41800000000E+01 0.  1.
         -5    1    3    3    0  502 -0.29875311496E+02 -0.33818793594E+02  0.96236397944E+02  0.10637274898E+03  0.41800000000E+01 0.  1.
        -11    1    1    2    0    0 -0.37610175044E+02 -0.42692800186E+02  0.59656155847E+02  0.82438203431E+02  0.00000000000E+00 0.  1.
         11    1    1    2    0    0  0.44139248112E+02 -0.10256033699E+02  0.78648078646E+02  0.90768825738E+02  0.00000000000E+00 0. -1.
</event>
<event>
 7    1  0.2707681E-009  0.9885741E+02  0.7561462E-02  0.1282717E+00
         -1   -1    0    0    0  501 -0.00000000000E+00  0.00000000000E+00  0.58075097637E+02  0.58075097637E+02  0.00000000000E+00 0.  1.
          1   -1    0    0  501    0  0.00000000000E+00 -0.00000000000E+00 -0.62782585072E+03  0.62782585072E+03  0.00000000000E+00 0. -1.
         25    2    1    2    0    0 -0.72249485086E+02 -0.32734325077E+02 -0.56157834914E+02  0.15840893735E+03  0.12509262519E+03 0.  0.
          5    1    3    3  502    0 -0.23637164775E+02 -0.17894148834E+02 -0.91557465790E+02  0.96328386590E+02  0.41800000000E+01 0. -1.
         -5    1    3    3    0  502 -0.48612320311E+02 -0.14840176243E+02  0.35399630877E+02  0.62080550764E+02  0.41800000000E+01 0. -1.
        -11    1    1    2    0    0  0.40534319206E+02 -0.27306380171E+02 -0.15486306143E+03  0.16239223266E+03  0.00000000000E+00 0.  1.
         11    1    1    2    0    0  0.31715165880E+02  0.60040705248E+02 -0.35872985674E+03  0.36509977835E+03  0.00000000000E+00 0. -1.
</event>
<event>
 7    1  0.2688534E-009  0.1265775E+03  0.7561462E-02  0.1232624E+00
          2   -1    0    0  501    0  0.00000000000E+00  0.00000000000E+00  0.61068644772E+03  0.61068644772E+03  0.00000000000E+00 0. -1.
         -2   -1    0    0    0  501 -0.00000000000E+00 -0.00000000000E+00 -0.41020132701E+02  0.41020132701E+02  0.00000000000E+00 0.  1.
         25    2    1    2    0    0 -0.65111129853E+02  0.66983170113E+02  0.16766212120E+03  0.22909386068E+03  0.12508879170E+03 0.  0.
          5    1    3    3  502    0 -0.97948270334E+02  0.48275214169E+02  0.86162939538E+02  0.13916136143E+03  0.41800000000E+01 0. -1.
         -5    1    3    3    0  502  0.32837140481E+02  0.18707955944E+02  0.81499181665E+02  0.89932499257E+02  0.41800000000E+01 0. -1.
        -11    1    1    2    0    0  0.36936502301E+02 -0.68300221761E+02  0.37702074264E+03  0.38493358632E+03  0.00000000000E+00 0. -1.
         11    1    1    2    0    0  0.28174627552E+02  0.13170516485E+01  0.24983451182E+02  0.37679133425E+02  0.00000000000E+00 0.  1.
</event>
<event>
 7    1  0.2644565E-009  0.6574062E+02  0.7561462E-02  0.1375207E+00
         -3   -1    0    0    0  501 -0.00000000000E+00  0.00000000000E+00  0.10268497702E+03  0.10268497702E+03  0.00000000000E+00 0.  1.
          3   -1    0    0  501    0  0.00000000000E+00 -0.00000000000E+00 -0.11824182583E+03  0.11824182583E+03  0.00000000000E+00 0. -1.
         25    2    1    2    0    0 -0.14277040772E+02  0.13830148024E+02 -0.35516521359E+02  0.13154699654E+03  0.12509229441E+03 0.  0.
          5    1    3    3  502    0  0.12736056990E+02 -0.49622947251E+01 -0.77066011283E+02  0.78380316481E+02  0.41800000000E+01 0. -1.
         -5    1    3    3    0  502 -0.27013097762E+02  0.18792442749E+02  0.41549489925E+02  0.53166680056E+02  0.41800000000E+01 0. -1.
        -11    1    1    2    0    0  0.47662740607E+02 -0.16709334103E+02  0.25781018981E+00  0.50507476223E+02  0.00000000000E+00 0. -1.
         11    1    1    2    0    0 -0.33385699835E+02  0.28791860788E+01  0.19701862357E+02  0.38872330086E+02  0.00000000000E+00 0.  1.
</event>
<event>
 7    1  0.2644565E-009  0.2606795E+03  0.7561462E-02  0.1106736E+00
          1   -1    0    0  501    0  0.00000000000E+00  0.00000000000E+00  0.15611183864E+04  0.15611183864E+04  0.00000000000E+00 0. -1.
         -1   -1    0    0    0  501 -0.00000000000E+00 -0.00000000000E+00 -0.53289598794E+02  0.53289598794E+02  0.00000000000E+00 0.  1.
         25    2    1    2    0    0  0.23737654251E+03  0.45967719527E+01  0.43200266483E+03  0.50856852609E+03  0.12508752960E+03 0.  0.
          5    1    3    3  502    0  0.76483797164E+02  0.60676089369E+02  0.14801861621E+03  0.17736499710E+03  0.41800000000E+01 0.  1.
         -5    1    3    3    0  502  0.16089274535E+03 -0.56079317417E+02  0.28398404862E+03  0.33120352899E+03  0.41800000000E+01 0.  1.
        -11    1    1    2    0    0 -0.11204789277E+03 -0.46130273015E+02  0.59514126202E+03  0.60735150787E+03  0.00000000000E+00 0. -1.
         11    1    1    2    0    0 -0.12532864975E+03  0.41533501062E+02  0.48068486075E+03  0.49848795122E+03  0.00000000000E+00 0.  1.
</event>
<event>
 7    1  0.2644565E-009  0.1578950E+03  0.7561462E-02  0.1191094E+00
          2   -1    0    0  501    0  0.00000000000E+00  0.00000000000E+00  0.10810720198E+04  0.10810720198E+04  0.00000000000E+00 0.  1.
         -2   -1    0    0    0  501 -0.00000000000E+00 -0.00000000000E+00 -0.24857111873E+02  0.24857111873E+02  0.00000000000E+00 0. -1.
         25    2    1    2    0    0  0.12036113799E+03  0.13706099726E+02  0.65241361800E+03  0.67525239595E+03  0.12509040161E+03 0.  0.
          5    1    3    3  502    0 -0.77828085576E+01  0.35061185523E+02  0.73313261052E+02  0.81744513489E+02  0.41800000000E+01 0.  1.
         -5    1    3    3    0  502  0.12814394655E+03 -0.21355085797E+02  0.57910035694E+03  0.59350788246E+03  0.41800000000E+01 0.  1.
        -11    1    1    2    0    0 -0.84520700838E+02 -0.50363097276E+02  0.27291879928E+03  0.29011180851E+03  0.00000000000E+00 0.  1.
         11    1    1    2    0    0 -0.35840437153E+02  0.36656997549E+02  0.13088249066E+03  0.14056492723E+03  0.00000000000E+00 0. -1.
</event>
<event>
 7    1  0.2644565E-009  0.9414678E+02  0.7561462E-02  0.1293109E+00
          2   -1    0    0  501    0  0.00000000000E+00  0.00000000000E+00  0.11204952488E+03  0.11204952488E+03  0.00000000000E+00 0. -1.
         -2   -1    0    0    0  501 -0.00000000000E+00 -0.00000000000E+00 -0.12018444046E+03  0.12018444046E+03  0.00000000000E+00 0.  1.
         25    2    1    2    0    0 -0.39106019466E+02  0.96505127494E+01 -0.14576268995E+02  0.13222060063E+03  0.12508959373E+03 0.  0.
          5    1    3    3  502    0 -0.59661270301E+02  0.54125487274E+02 -0.18931661538E+02  0.82854787159E+02  0.41800000000E+01 0. -1.
         -5    1    3    3    0  502  0.20555250834E+02 -0.44474974524E+02  0.43553925433E+01  0.49365813475E+02  0.41800000000E+01 0. -1.
        -11    1    1    2    0    0  0.46110132833E+02  0.51436445571E+00 -0.34282041512E+02  0.57460136537E+02  0.00000000000E+00 0.  1.
         11    1    1    2    0    0 -0.70041133665E+01 -0.10164877205E+02  0.40723394929E+02  0.42553228164E+02  0.00000000000E+00 0. -1.
</event>
<event>
 7    1  0.2644565E-009  0.7973413E+02  0.7561462E-02  0.1329808E+00
         -4   -1    0    0    0  501 -0.00000000000E+00  0.00000000000E+00  0.82427336271E+02  0.82427336271E+02  0.00000000000E+00 0.  1.
          4   -1    0    0  501    0  0.00000000000E+00 -0.00000000000E+00 -0.12354592958E+03  0.12354592958E+03  0.00000000000E+00 0. -1.
         25    2    1    2    0    0 -0.30215094630E+02 -0.21026435605E+02 -0.30537314573E+02  0.13392281573E+03  0.12509088717E+03 0.  0.
          5    1    3    3  502    0  0.26346996073E+02 -0.27349217469E+02 -0.58892187166E+02  0.70199045631E+02  0.41800000000E+01 0.  1.
         -5    1    3    3    0  502 -0.56562090703E+02  0.63227818642E+01  0.28354872594E+02  0.63723770094E+02  0.41800000000E+01 0.  1.
        -11    1    1    2    0    0  0.30375716821E+02 -0.10897478727E+02  0.10333205998E+02  0.33885311879E+02  0.00000000000E+00 0.  1.
         11    1    1    2    0    0 -0.16062219053E+00  0.31923914331E+02 -0.20914484735E+02  0.38165138247E+02  0.00000000000E+00 0. -1.
</event>
<event>
 7    1  0.2644565E-009  0.1487182E+03  0.7561462E-02  0.1202057E+00
         -2   -1    0    0    0  501 -0.00000000000E+00  0.00000000000E+00  0.56359599615E+02  0.56359599615E+02  0.00000000000E+00 0.  1.
          2   -1    0    0  501    0  0.00000000000E+00 -0.00000000000E+00 -0.48029476995E+03  0.48029476995E+03  0.00000000000E+00 0. -1.
         25    2    1    2    0    0  0.73585650298E+02 -0.97469577047E+02 -0.19872464142E+03  0.26466991116E+03  0.12507402762E+03 0.  0.
          5    1    3    3  502    0  0.83302038963E+01  0.20734311506E+02 -0.85311659524E+02  0.88288479550E+02  0.41800000000E+01 0. -1.
         -5    1    3    3    0  502  0.65255446401E+02 -0.11820388855E+03 -0.11341298190E+03  0.17638143161E+03  0.41800000000E+01 0. -1.
        -11    1    1    2    0    0 -0.28369901225E+02 -0.38861720433E+01 -0.10895893613E+02  0.30637789188E+02  0.00000000000E+00 0.  1.
         11    1    1    2    0    0 -0.45215749072E+02  0.10135574909E+03 -0.21431463530E+03  0.24134666921E+03  0.00000000000E+00 0. -1.
</event>
<event>
 7    1  0.2644565E-009  0.2934484E+03  0.7561462E-02  0.1088562E+00
          1   -1    0    0  501    0  0.00000000000E+00  0.00000000000E+00  0.14752490893E+03  0.14752490893E+03  0.00000000000E+00 0. -1.
         -1   -1    0    0    0  501 -0.00000000000E+00 -0.00000000000E+00 -0.64871637925E+03  0.64871637925E+03  0.00000000000E+00 0.  1.
         25    2    1    2    0    0 -0.15255350001E+03 -0.23608244009E+03 -0.16945016081E+03  0.35123994300E+03  0.12509457096E+03 0.  0.
          5    1    3    3  502    0  0.55693794858E+01 -0.33797325819E+02  0.12307449762E+02  0.36636360900E+02  0.41800000000E+01 0. -1.
         -5    1    3    3    0  502 -0.15812287949E+03 -0.20228511427E+03 -0.18175761057E+03  0.31460358210E+03  0.41800000000E+01 0. -1.
        -11    1    1    2    0    0 -0.70075294651E+01  0.49950615102E+02 -0.71123028708E+02  0.87193202894E+02  0.00000000000E+00 0.  1.
         11    1    1    2    0    0  0.15956102947E+03  0.18613182498E+03 -0.26061828080E+03  0.35780814229E+03  0.00000000000E+00 0. -1.
</event>
<event>
 7    1  0.2644565E-009  0.1690867E+03  0.7561462E-02  0.1178804E+00
         -2   -1    0    0    0  501 -0.00000000000E+00  0.00000000000E+00  0.10246960850E+03  0.10246960850E+03  0.00000000000E+00 0.  1.
          2   -1    0    0  501    0  0.00000000000E+00 -0.00000000000E+00 -0.37859131726E+03  0.37859131726E+03  0.00000000000E+00 0. -1.
         25    2    1    2    0    0 -0.14854550601E+03  0.36980987222E+02 -0.21806611187E+03  0.29433460907E+03  0.12508665867E+03 0.  0.
          5    1    3    3  502    0 -0.49220010932E+02  0.64249696182E+02 -0.44482745461E+02  0.92449012863E+02  0.41800000000E+01 0.  1.
         -5    1    3    3    0  502 -0.99325495081E+02 -0.27268708960E+02 -0.17358336641E+03  0.20188559621E+03  0.41800000000E+01 0.  1.
        -11    1    1    2    0    0  0.11485020498E+03 -0.35904115266E+02 -0.81790313583E+02  0.14549684008E+03  0.00000000000E+00 0. -1.
         11    1    1    2    0    0  0.33695301036E+02 -0.10768719556E+01  0.23734716690E+02  0.41229476609E+02  0.00000000000E+00 0.  1.
</event>
<event>
 7    1  0.2644565E-009  0.1276971E+03  0.7561462E-02  0.1230913E+00
         -1   -1    0    0    0  501 -0.00000000000E+00  0.00000000000E+00  0.19047302346E+02  0.19047302346E+02  0.00000000000E+00 0.  1.
          1   -1    0    0  501    0  0.00000000000E+00 -0.00000000000E+00 -0.11089830559E+04  0.11089830559E+04  0.00000000000E+00 0. -1.
         25    2    1    2    0    0  0.28123882873E+02 -0.78678005185E+02 -0.77203340201E+03  0.78655198596E+03  0.12508905429E+03 0.  0.
          5    1    3    3  502    0  0.17692619977E+02 -0.11186748055E+03 -0.52891077383E+03  0.54091722202E+03  0.41800000000E+01 0.  1.
         -5    1    3    3    0  502  0.10431262895E+02  0.33189475360E+02 -0.24312262819E+03  0.24563476394E+03  0.41800000000E+01 0.  1.
        -11    1    1    2    0    0  0.15900286023E+02  0.54542043419E+02 -0.25366163014E+03  0.25994591015E+03  0.00000000000E+00 0. -1.
         11    1    1    2    0    0 -0.44024168896E+02  0.24135961767E+02 -0.64240721416E+02  0.81532462157E+02  0.00000000000E+00 0.  1.
</event>
<event>
 7    1  0.2644565E-009  0.1026296E+03  0.7561462E-02  0.1274861E+00
          2   -1    0    0  501    0  0.00000000000E+00  0.00000000000E+00  0.82931939910E+03  0.82931939910E+03  0.00000000000E+00 0. -1.
         -2   -1    0    0    0  501 -0.00000000000E+00 -0.00000000000E+00 -0.22154330889E+02  0.22154330889E+02  0.00000000000E+00 0.  1.
         25    2    1    2    0    0  0.62778056768E+02 -0.40778316471E+02  0.50511330593E+03  0.52572826779E+03  0.12508718647E+03 0.  0.
          5    1    3    3  502    0  0.26038589986E+02  0.25033319625E+01  0.43320767993E+03  0.43401686740E+03  0.41800000000E+01 0.  1.
         -5    1    3    3    0  502  0.36739466782E+02 -0.43281648434E+02  0.71905626003E+02  0.91711400390E+02  0.41800000000E+01 0.  1.
        -11    1    1    2    0    0  0.25026577043E+02  0.18877903601E+02  0.71548215805E+02  0.78114351995E+02  0.00000000000E+00 0. -1.
         11    1    1    2    0    0 -0.87804633811E+02  0.21900412870E+02  0.23050354647E+03  0.24763111020E+03  0.00000000000E+00 0.  1.
</event>
<event>
 7    1  0.2644565E-009  0.1279065E+03  0.7561462E-02  0.1230596E+00
          2   -1    0    0  501    0  0.00000000000E+00  0.00000000000E+00  0.89502299136E+03  0.89502299136E+03  0.00000000000E+00 0. -1.
         -2   -1    0    0    0  501 -0.00000000000E+00 -0.00000000000E+00 -0.25923095999E+02  0.25923095999E+02  0.00000000000E+00 0.  1.
         25    2    1    2    0    0 -0.80805595445E+02 -0.68914554531E+02  0.53769260183E+03  0.56217272035E+03  0.12508426507E+03 0.  0.
          5    1    3    3  502    0 -0.96450796929E+02 -0.83076426422E+02  0.33589474984E+03  0.35923140763E+03  0.41800000000E+01 0.  1.
         -5    1    3    3    0  502  0.15645201484E+02  0.14161871891E+02  0.20179785198E+03  0.20294131272E+03  0.41800000000E+01 0.  1.
        -11    1    1    2    0    0  0.46856302608E+02  0.31760477836E+02  0.28415685679E+03  0.28974015998E+03  0.00000000000E+00 0. -1.
         11    1    1    2    0    0  0.33949292837E+02  0.37154076695E+02  0.47250436742E+02  0.69033207020E+02  0.00000000000E+00 0.  1.
</event>
<event>
 7    1  0.2644565E-009  0.1001950E+03  0.7561462E-02  0.1279886E+00
          1   -1    0    0  501    0  0.00000000000E+00  0.00000000000E+00  0.37563985275E+02  0.37563985275E+02  0.00000000000E+00 0. -1.
         -1   -1    0    0    0  501 -0.00000000000E+00 -0.00000000000E+00 -0.36707921366E+03  0.36707921366E+03  0.00000000000E+00 0.  1.
         25    2    1    2    0    0 -0.36584608893E+02  0.76750147432E+01 -0.21437175337E+03  0.25099865636E+03  0.12509091650E+03 0.  0.
          5    1    3    3  502    0 -0.50198856512E+02  0.39358175995E+02 -0.20540609033E+03  0.21512351233E+03  0.41800000000E+01 0. -1.
         -5    1    3    3    0  502  0.13614247619E+02 -0.31683161252E+02 -0.89656630437E+01  0.35875144027E+02  0.41800000000E+01 0. -1.
        -11    1    1    2    0    0 -0.30590867642E+02  0.10144576513E+02 -0.36658719245E+02  0.48811630913E+02  0.00000000000E+00 0.  1.
         11    1    1    2    0    0  0.67175476535E+02 -0.17819591257E+02 -0.78484755766E+02  0.10483291166E+03  0.00000000000E+00 0. -1.
</event>
<event>
 7    1  0.2644565E-009  0.1893406E+03  0.7561462E-02  0.1159057E+00
         -1   -1    0    0    0  501 -0.00000000000E+00  0.00000000000E+00  0.62818969866E+02  0.62818969866E+02  0.00000000000E+00 0.  1.
          1   -1    0    0  501    0  0.00000000000E+00 -0.00000000000E+00 -0.66205860637E+03  0.66205860637E+03  0.00000000000E+00 0. -1.
         25    2    1    2    0    0  0.10196490136E+03 -0.13428071859E+03 -0.37668063364E+03  0.43123549953E+03  0.12509038254E+03 0.  0.
          5    1    3    3  502    0  0.34509644486E+02 -0.13436821805E+03 -0.21391146079E+03  0.25499278234E+03  0.41800000000E+01 0. -1.
         -5    1    3    3    0  502  0.67455256877E+02  0.87499458431E-01 -0.16276917284E+03  0.17624271719E+03  0.41800000000E+01 0. -1.
        -11    1    1    2    0    0 -0.30215992119E+02  0.16598375456E+02 -0.32628494467E+01  0.34628867062E+02  0.00000000000E+00 0.  1.
         11    1    1    2    0    0 -0.71748909245E+02  0.11768234314E+03 -0.21929615342E+03  0.25901320964E+03  0.00000000000E+00 0. -1.
</event>
<event>
 7    1  0.2644565E-009  0.1369589E+03  0.7561462E-02  0.1217481E+00
          2   -1    0    0  501    0  0.00000000000E+00  0.00000000000E+00  0.42973911800E+03  0.42973911800E+03  0.00000000000E+00 0. -1.
         -2   -1    0    0    0  501 -0.00000000000E+00 -0.00000000000E+00 -0.65961719211E+02  0.65961719211E+02  0.00000000000E+00 0.  1.
         25    2    1    2    0    0 -0.84351902409E+02  0.78237978772E+02  0.11164509599E+03  0.20334425718E+03  0.12509130549E+03 0.  0.
          5    1    3    3  502    0  0.50015546878E+01  0.60428518636E+02  0.21206582481E+01  0.60816042334E+02  0.41800000000E+01 0. -1.
         -5    1    3    3    0  502 -0.89353457096E+02  0.17809460137E+02  0.10952443774E+03  0.14252821485E+03  0.41800000000E+01 0. -1.
        -11    1    1    2    0    0  0.35530049275E+02 -0.80446686070E+01  0.16978037108E+03  0.17364468175E+03  0.00000000000E+00 0. -1.
         11    1    1    2    0    0  0.48821853133E+02 -0.70193310165E+02  0.82351931715E+02  0.11871189828E+03  0.00000000000E+00 0.  1.
</event>
<event>
 7    1  0.2644565E-009  0.1638881E+03  0.7561462E-02  0.1184376E+00
          1   -1    0    0  501    0  0.00000000000E+00  0.00000000000E+00  0.66434767042E+02  0.66434767042E+02  0.00000000000E+00 0. -1.
         -1   -1    0    0    0  501 -0.00000000000E+00 -0.00000000000E+00 -0.43503109424E+03  0.43503109424E+03  0.00000000000E+00 0.  1.
         25    2    1    2    0    0 -0.10834242236E+03  0.65293071972E+02 -0.14934928625E+03  0.23228022659E+03  0.12509048178E+03 0.  0.
          5    1    3    3  502    0 -0.59876744303E+02 -0.28364055280E+02 -0.29672206591E+02  0.72716273173E+02  0.41800000000E+01 0. -1.
         -5    1    3    3    0  502 -0.48465678062E+02  0.93657127253E+02 -0.11967707966E+03  0.15956395342E+03  0.41800000000E+01 0. -1.
        -11    1    1    2    0    0  0.96794716375E+02 -0.76861348965E+01 -0.14490747970E+03  0.17443185334E+03  0.00000000000E+00 0.  1.
         11    1    1    2    0    0  0.11547705990E+02 -0.57606937076E+02 -0.74339561250E+02  0.94753781348E+02  0.00000000000E+00 0. -1.
</event>
<event>
 7    1  0.2644565E-009  0.1386401E+03  0.7561462E-02  0.1215171E+00
         -2   -1    0    0    0  501 -0.00000000000E+00  0.00000000000E+00  0.12011501162E+03  0.12011501162E+03  0.00000000000E+00 0.  1.
          2   -1    0    0  501    0  0.00000000000E+00 -0.00000000000E+00 -0.23351846433E+03  0.23351846433E+03  0.00000000000E+00 0. -1.
         25    2    1    2    0    0  0.99614604103E+02 -0.73227211542E+02 -0.94780220818E+02  0.19978761705E+03  0.12508600164E+03 0.  0.
          5    1    3    3  502    0  0.47352026637E+02 -0.55450345515E+01 -0.10320366263E+03  0.11376040707E+03  0.41800000000E+01 0. -1.
         -5    1    3    3    0  502  0.52262577466E+02 -0.67682176991E+02  0.84234418148E+01  0.86027209984E+02  0.41800000000E+01 0. -1.
        -11    1    1    2    0    0 -0.98029493377E+02  0.32831808660E+02  0.10657561307E+02  0.10392926847E+03  0.00000000000E+00 0.  1.
         11    1    1    2    0    0 -0.15851107258E+01  0.40395402882E+02 -0.29280793197E+02  0.49916590431E+02  0.00000000000E+00 0. -1.
</event>
<event>
 7    1  0.2644565E-009  0.1284334E+03  0.7561462E-02  0.1229799E+00
          2   -1    0    0  501    0  0.00000000000E+00  0.00000000000E+00  0.97867119907E+03  0.97867119907E+03  0.00000000000E+00 0. -1.
         -2   -1    0    0    0  501 -0.00000000000E+00 -0.00000000000E+00 -0.18229029153E+02  0.18229029153E+02  0.00000000000E+00 0.  1.
         25    2    1    2    0    0  0.55550141714E+02  0.46715096187E+02  0.63501125957E+03  0.65127191632E+03  0.12509073008E+03 0.  0.
          5    1    3    3  502    0  0.61093316619E+02 -0.29539109222E+02  0.28893185760E+03  0.29682325220E+03  0.41800000000E+01 0.  1.
         -5    1    3    3    0  502 -0.55431749050E+01  0.76254205410E+02  0.34607940197E+03  0.35444866412E+03  0.41800000000E+01 0.  1.
        -11    1    1    2    0    0  0.18955141577E+02 -0.30733546004E+02  0.15139601051E+03  0.15564253995E+03  0.00000000000E+00 0.  1.
         11    1    1    2    0    0 -0.74505283292E+02 -0.15981550183E+02  0.17403489984E+03  0.18998577196E+03  0.00000000000E+00 0. -1.
</event>
<event>
 7    1  0.2644565E-009  0.1421387E+03  0.7561462E-02  0.1210480E+00
         -1   -1    0    0    0  501 -0.00000000000E+00  0.00000000000E+00  0.60003761791E+03  0.60003761791E+03  0.00000000000E+00 0.  1.
          1   -1    0    0  501    0  0.00000000000E+00 -0.00000000000E+00 -0.58712935384E+02  0.58712935384E+02  0.00000000000E+00 0. -1.
         25    2    1    2    0    0  0.10017500672E+03 -0.10878589552E+02  0.88874305161E+02  0.18357306482E+03  0.12508817821E+03 0.  0.
          5    1    3    3  502    0  0.10943187567E+03  0.29363808745E+02  0.41862226230E+02  0.12086143744E+03  0.41800000000E+01 0.  1.
         -5    1    3    3    0  502 -0.92568689457E+01 -0.40242398298E+02  0.47012078931E+02  0.62711627382E+02  0.41800000000E+01 0.  1.
        -11    1    1    2    0    0  0.65367509333E+01 -0.17743562236E+02  0.15424782203E+02  0.24402602722E+02  0.00000000000E+00 0. -1.
         11    1    1    2    0    0 -0.10671175765E+03  0.28622151789E+02  0.43702559516E+03  0.45077488575E+03  0.00000000000E+00 0.  1.
</event>
<event>
 7    1  0.2644565E-009  0.1116767E+03  0.7561462E-02  0.1257496E+00
         -1   -1    0    0    0  501 -0.00000000000E+00  0.00000000000E+00  0.43416186079E+02  0.43416186079E+02  0.00000000000E+00 0.  1.
          1   -1    0    0  501    0  0.00000000000E+00 -0.00000000000E+00 -0.42577515134E+03  0.42577515134E+03  0.00000000000E+00 0. -1.
         25    2    1    2    0    0  0.29825229719E+02  0.71833830284E+02 -0.24936780572E+03  0.28962264735E+03  0.12508929540E+03 0.  0.
          5    1    3    3  502    0  0.32384666092E+02  0.10188909804E+03 -0.22963082460E+03  0.25333365924E+03  0.41800000000E+01 0. -1.
         -5    1    3    3    0  502 -0.25594363734E+01 -0.30055267751E+02 -0.19736981124E+02  0.36288988110E+02  0.41800000000E+01 0. -1.
        -11    1    1    2    0    0  0.60327808127E+01 -0.30924578542E+02  0.43872309953E+01  0.31811504179E+02  0.00000000000E+00 0.  1.
         11    1    1    2    0    0 -0.35858010531E+02 -0.40909251742E+02 -0.13737839053E+03  0.14775718589E+03  0.00000000000E+00 0. -1.
</event>
<event>
 7    1  0.2644565E-009  0.8499797E+02  0.7561462E-02  0.1315438E+00
          1   -1    0    0  501    0  0.00000000000E+00  0.00000000000E+00  0.72881526507E+03  0.72881526507E+03  0.00000000000E+00 0. -1.
         -1   -1    0    0    0  501 -0.00000000000E+00 -0.00000000000E+00 -0.16922639414E+02  0.16922639414E+02  0.00000000000E+00 0.  1.
         25    2    1    2    0    0  0.28298891317E+02  0.22838540292E+01  0.39619247171E+03  0.41644142380E+03  0.12509572966E+03 0.  0.
          5    1    3    3  502    0 -0.84814506063E+01 -0.30005770516E+02  0.20497097662E+02  0.37548431142E+02  0.41800000000E+01 0.  1.
         -5    1    3    3    0  502  0.36780341923E+02  0.32289624545E+02  0.37569537405E+03  0.37889299266E+03  0.41800000000E+01 0.  1.
        -11    1    1    2    0    0 -0.16098310471E+02 -0.43524880051E+02  0.21222267961E+03  0.21723728162E+03  0.00000000000E+00 0. -1.
         11    1    1    2    0    0 -0.12200580846E+02  0.41241026021E+02  0.10347747433E+03  0.11205919906E+03  0.00000000000E+00 0.  1.
</event>
<event>
 7    1  0.2644565E-009  0.1079870E+03  0.7561462E-02  0.1264344E+00
          1   -1    0    0  501    0  0.00000000000E+00  0.00000000000E+00  0.15327749645E+03  0.15327749645E+03  0.00000000000E+00 0. -1.
         -1   -1    0    0    0  501 -0.00000000000E+00 -0.00000000000E+00 -0.81952112352E+02  0.81952112352E+02  0.00000000000E+00 0.  1.
         25    2    1    2    0    0  0.12053798223E+01 -0.11674815992E+02  0.12901801519E+02  0.12630065956E+03  0.12509055062E+03 0.  0.
          5    1    3    3  502    0  0.54006545043E+02  0.25512696070E+02 -0.19253152422E+01  0.59906458809E+02  0.41800000000E+01 0.  1.
         -5    1    3    3    0  502 -0.52801165221E+02 -0.37187512062E+02  0.14827116761E+02  0.66394200752E+02  0.41800000000E+01 0.  1.
        -11    1    1    2    0    0 -0.29922272225E+02  0.40723068033E+02  0.38212522557E+02  0.63355406441E+02  0.00000000000E+00 0.  1.
         11    1    1    2    0    0  0.28716892402E+02 -0.29048252041E+02  0.20211060019E+02  0.45573542796E+02  0.00000000000E+00 0. -1.
</event>
<event>
 7    1  0.2644565E-009  0.1071994E+03  0.7561462E-02  0.1265846E+00
         -1   -1    0    0    0  501 -0.00000000000E+00  0.00000000000E+00  0.52505031076E+02  0.52505031076E+02  0.00000000000E+00 0.  1.
          1   -1    0    0  501    0  0.00000000000E+00 -0.00000000000E+00 -0.82402959755E+03  0.82402959755E+03  0.00000000000E+00 0. -1.
         25    2    1    2    0    0 -0.48928366999E+02 -0.21391247013E+02 -0.75761599556E+03  0.76973199532E+03  0.12511505640E+03 0.  0.
          5    1    3    3  502    0 -0.86744928500E+02 -0.19272018093E+02 -0.63855506930E+03  0.64472175566E+03  0.41800000000E+01 0.  1.
         -5    1    3    3    0  502  0.37816561501E+02 -0.21192289199E+01 -0.11906092627E+03  0.12501023966E+03  0.41800000000E+01 0.  1.
        -11    1    1    2    0    0 -0.14258784152E+02 -0.93655730943E+01  0.22036526701E+02  0.27868178877E+02  0.00000000000E+00 0.  1.
         11    1    1    2    0    0  0.63187151150E+02  0.30756820107E+02 -0.35945097610E+02  0.78934454428E+02  0.00000000000E+00 0. -1.
</event>
<event>
 7    1  0.2644565E-009  0.1181589E+03  0.7561462E-02  0.1246166E+00
         -2   -1    0    0    0  501 -0.00000000000E+00  0.00000000000E+00  0.12112586134E+03  0.12112586134E+03  0.00000000000E+00 0.  1.
          2   -1    0    0  501    0  0.00000000000E+00 -0.00000000000E+00 -0.17524060289E+03  0.17524060289E+03  0.00000000000E+00 0. -1.
         25    2    1    2    0    0 -0.17789817888E+02  0.95354719156E+02 -0.23577566686E+02  0.16005675565E+03  0.12511300209E+03 0.  0.
          5    1    3    3  502    0  0.58887488103E+01 -0.19336284981E+02 -0.36734340095E+02  0.42136129647E+02  0.41800000000E+01 0.  1.
         -5    1    3    3    0  502 -0.23678566699E+02  0.11469100414E+03  0.13156773408E+02  0.11792062600E+03  0.41800000000E+01 0.  1.
        -11    1    1    2    0    0  0.32598232712E+01 -0.62301564018E+02  0.27323489753E+02  0.68107888084E+02  0.00000000000E+00 0.  1.
         11    1    1    2    0    0  0.14529994617E+02 -0.33053155137E+02 -0.57860664621E+02  0.68201820492E+02  0.00000000000E+00 0. -1.
</event>
<event>
 7    1  0.2644565E-009  0.1132460E+03  0.7561462E-02  0.1254674E+00
         -2   -1    0    0    0  501 -0.00000000000E+00  0.00000000000E+00  0.75021373590E+02  0.75021373590E+02  0.00000000000E+00 0.  1.
          2   -1    0    0  501    0  0.00000000000E+00 -0.00000000000E+00 -0.24394414930E+03  0.24394414930E+03  0.00000000000E+00 0. -1.
         25    2    1    2    0    0  0.41556713405E+02 -0.11007521007E+02 -0.16808661706E+03  0.21388874049E+03  0.12508859470E+03 0.  0.
          5    1    3    3  502    0 -0.31626479113E+02 -0.35959146751E+02 -0.33416126231E+02  0.58544037343E+02  0.41800000000E+01 0.  1.
         -5    1    3    3    0  502  0.73183192517E+02  0.24951625744E+02 -0.13467049083E+03  0.15534470314E+03  0.41800000000E+01 0.  1.
        -11    1    1    2    0    0  0.20056916766E+02  0.30378093897E+02 -0.14284987079E+02  0.39104595060E+02  0.00000000000E+00 0. -1.
         11    1    1    2    0    0 -0.61613630170E+02 -0.19370572890E+02  0.13448828430E+02  0.65972187344E+02  0.00000000000E+00 0.  1.
</event>
<event>
 7    1  0.2644565E-009  0.1316463E+03  0.7561462E-02  0.1225033E+00
         -2   -1    0    0    0  501 -0.00000000000E+00  0.00000000000E+00  0.18658818418E+02  0.18658818418E+02  0.00000000000E+00 0. -1.
          2   -1    0    0  501    0  0.00000000000E+00 -0.00000000000E+00 -0.97705143237E+03  0.97705143237E+03  0.00000000000E+00 0.  1.
         25    2    1    2    0    0  0.40491672327E+01  0.76106774501E+02 -0.61334158337E+03  0.63059077816E+03  0.12509274453E+03 0.  0.
          5    1    3    3  502    0  0.61696313618E+02  0.59284900713E+02 -0.33124916686E+03  0.34214707001E+03  0.41800000000E+01 0. -1.
         -5    1    3    3    0  502 -0.57647146386E+02  0.16821873788E+02 -0.28209241650E+03  0.28844370815E+03  0.41800000000E+01 0. -1.
        -11    1    1    2    0    0 -0.15381523472E+02  0.17408761347E+02 -0.45205101965E+02  0.50824772303E+02  0.00000000000E+00 0. -1.
         11    1    1    2    0    0  0.11332356239E+02 -0.93515535849E+02 -0.29984592862E+03  0.31429470032E+03  0.00000000000E+00 0.  1.
</event>
<event>
 7    1  0.2644565E-009  0.1007175E+03  0.7561462E-02  0.1278794E+00
          2   -1    0    0  501    0  0.00000000000E+00  0.00000000000E+00  0.58625266496E+03  0.58625266496E+03  0.00000000000E+00 0. -1.
         -2   -1    0    0    0  501 -0.00000000000E+00 -0.00000000000E+00 -0.19178166577E+02  0.19178166577E+02  0.00000000000E+00 0.  1.
         25    2    1    2    0    0  0.13105727623E+02 -0.87758171296E+01  0.30183609826E+03  0.32710916409E+03  0.12508636999E+03 0.  0.
          5    1    3    3  502    0 -0.42100984390E+02 -0.40895571100E+02  0.10815539768E+03  0.12312596424E+03  0.41800000000E+01 0.  1.
         -5    1    3    3    0  502  0.55206712012E+02  0.32119753971E+02  0.19368070057E+03  0.20398319985E+03  0.41800000000E+01 0.  1.
        -11    1    1    2    0    0  0.32296466784E+02  0.75476256220E+01  0.64716816034E+02  0.72720662104E+02  0.00000000000E+00 0.  1.
         11    1    1    2    0    0 -0.45402194406E+02  0.12281915076E+01  0.20052158409E+03  0.20560100534E+03  0.00000000000E+00 0. -1.
</event>
<event>
 7    1  0.2644565E-009  0.2250051E+03  0.7561462E-02  0.1130206E+00
          2   -1    0    0  501    0  0.00000000000E+00  0.00000000000E+00  0.47871341817E+03  0.47871341817E+03  0.00000000000E+00 0.  1.
         -2   -1    0    0    0  501 -0.00000000000E+00 -0.00000000000E+00 -0.15388549570E+03  0.15388549570E+03  0.00000000000E+00 0. -1.
         25    2    1    2    0    0  0.21340433344E+03  0.18066102979E+02  0.19121868329E+02  0.24875978104E+03  0.12509192303E+03 0.  0.
          5    1    3    3  502    0  0.14559322560E+03 -0.14627342945E+02  0.65359498604E+02  0.16031432550E+03  0.41800000000E+01 0. -1.
         -5    1    3    3    0  502  0.67811107835E+02  0.32693445924E+02 -0.46237630276E+02  0.88445455540E+02  0.41800000000E+01 0. -1.
        -11    1    1    2    0    0 -0.46894781945E+02 -0.38227575588E+02  0.52411959837E+02  0.80046746611E+02  0.00000000000E+00 0. -1.
         11    1    1    2    0    0 -0.16650955149E+03  0.20161472610E+02  0.25329409431E+03  0.30379238622E+03  0.00000000000E+00 0.  1.
</event>
<event>
 7    1  0.2644565E-009  0.1144913E+03  0.7561462E-02  0.1252472E+00
          1   -1    0    0  501    0  0.00000000000E+00  0.00000000000E+00  0.19404017349E+02  0.19404017349E+02  0.00000000000E+00 0. -1.
         -1   -1    0    0    0  501 -0.00000000000E+00 -0.00000000000E+00 -0.13589082030E+04  0.13589082030E+04  0.00000000000E+00 0.  1.
         25    2    1    2    0    0  0.67618569958E+02 -0.42819123918E+01 -0.11399257658E+04  0.11487689354E+04  0.12509480206E+03 0.  0.
          5    1    3    3  502    0  0.74692416652E+01 -0.50397849229E+02 -0.73595283742E+03  0.73772609015E+03  0.41800000000E+01 0.  1.
         -5    1    3    3    0  502  0.60149328293E+02  0.46115936838E+02 -0.40397292839E+03  0.41104284521E+03  0.41800000000E+01 0.  1.
        -11    1    1    2    0    0 -0.54163101911E+02 -0.32240525332E+02 -0.69775333666E+02  0.94030262525E+02  0.00000000000E+00 0.  1.
         11    1    1    2    0    0 -0.13455468047E+02  0.36522437724E+02 -0.12980308615E+03  0.13551302244E+03  0.00000000000E+00 0. -1.
</event>
<event>
 7    1  0.2644565E-009  0.1579303E+03  0.7561462E-02  0.1191053E+00
          1   -1    0    0  501    0  0.00000000000E+00  0.00000000000E+00  0.69215919529E+03  0.69215919529E+03  0.00000000000E+00 0. -1.
         -1   -1    0    0    0  501 -0.00000000000E+00 -0.00000000000E+00 -0.46969993326E+02  0.46969993326E+02  0.00000000000E+00 0.  1.
         25    2    1    2    0    0  0.49886081455E+01 -0.14137912439E+03  0.27980457214E+03  0.33756747470E+03  0.12509299885E+03 0.  0.
          5    1    3    3  502    0 -0.29118633428E+02 -0.35142853922E+02  0.18653227291E+03  0.19207986940E+03  0.41800000000E+01 0.  1.
         -5    1    3    3    0  502  0.34107241573E+02 -0.10623627047E+03  0.93272299232E+02  0.14548760530E+03  0.41800000000E+01 0.  1.
        -11    1    1    2    0    0 -0.18394096449E+02  0.21694518880E+01  0.13546027258E+02  0.22946550071E+02  0.00000000000E+00 0.  1.
         11    1    1    2    0    0  0.13405488304E+02  0.13920967251E+03  0.35183860256E+03  0.37861516384E+03  0.00000000000E+00 0. -1.
</event>
<event>
 7    1  0.2644565E-009  0.1147583E+03  0.7561462E-02  0.1252004E+00
         -2   -1    0    0    0  501 -0.00000000000E+00  0.00000000000E+00  0.11467938388E+03  0.11467938388E+03  0.00000000000E+00 0.  1.
          2   -1    0    0  501    0  0.00000000000E+00 -0.00000000000E+00 -0.20580358946E+03  0.20580358946E+03  0.00000000000E+00 0. -1.
         25    2    1    2    0    0  0.49586959747E+02 -0.19353043337E+02 -0.14799014324E+03  0.20095302241E+03  0.12509047868E+03 0.  0.
          5    1    3    3  502    0 -0.19648994551E+02  0.36255024162E+02 -0.75965764031E+02  0.86537734363E+02  0.41800000000E+01 0. -1.
         -5    1    3    3    0  502  0.69235954299E+02 -0.55608067500E+02 -0.72024379205E+02  0.11441528805E+03  0.41800000000E+01 0. -1.
        -11    1    1    2    0    0  0.20273872158E+02 -0.10921716030E+02 -0.22469245842E+01  0.23137900583E+02  0.00000000000E+00 0. -1.
         11    1    1    2    0    0 -0.69860831905E+02  0.30274759367E+02  0.59112862236E+02  0.96392050351E+02  0.00000000000E+00 0.  1.
</event>
<event>
 7    1  0.2644565E-009  0.6128369E+02  0.7561462E-02  0.1392522E+00
         -2   -1    0    0    0  501 -0.00000000000E+00  0.00000000000E+00  0.55027670334E+03  0.55027670334E+03  0.00000000000E+00 0. -1.
          2   -1    0    0  501    0  0.00000000000E+00 -0.00000000000E+00 -0.25935232481E+02  0.25935232481E+02  0.00000000000E+00 0.  1.
         25    2    1    2    0    0 -0.11314201148E+02 -0.17857415555E+02  0.40176420077E+03  0.42131633289E+03  0.12508429521E+03 0.  0.
          5    1    3    3  502    0 -0.20167439742E+02 -0.14272430988E+02  0.40826257629E+03  0.40903084420E+03  0.41800000000E+01 0. -1.
         -5    1    3    3    0  502  0.88532385940E+01 -0.35849845667E+01 -0.64983755222E+01  0.12285488691E+02  0.41800000000E+01 0. -1.
        -11    1    1    2    0    0  0.48273271472E+02  0.99883298470E+01  0.98337965833E+02  0.11000195906E+03  0.00000000000E+00 0.  1.
         11    1    1    2    0    0 -0.36959070323E+02  0.78690857079E+01  0.24239304256E+02  0.44893643870E+02  0.00000000000E+00 0. -1.
</event>
<event>
 7    1  0.2644565E-009  0.8904965E+02  0.7561462E-02  0.1305170E+00
          2   -1    0    0  501    0  0.00000000000E+00  0.00000000000E+00  0.59156858100E+03  0.59156858100E+03  0.00000000000E+00 0. -1.
         -2   -1    0    0    0  501 -0.00000000000E+00 -0.00000000000E+00 -0.16269453325E+02  0.16269453325E+02  0.00000000000E+00 0.  1.
         25    2    1    2    0    0  0.17871047252E+02 -0.14764067699E+02  0.36977689369E+03  0.39104985474E+03  0.12509071011E+03 0.  0.
          5    1    3    3  502    0  0.57904898111E+02 -0.35755459179E+02  0.12779278384E+03  0.14484439267E+03  0.41800000000E+01 0.  1.
         -5    1    3    3    0  502 -0.40033850859E+02  0.20991391480E+02  0.24198410986E+03  0.24620546207E+03  0.41800000000E+01 0.  1.
        -11    1    1    2    0    0  0.11378614588E+02 -0.17561546883E+02  0.34971508378E+02  0.40753983819E+02  0.00000000000E+00 0. -1.
         11    1    1    2    0    0 -0.29249661840E+02  0.32325614582E+02  0.17055072561E+03  0.17603419577E+03  0.00000000000E+00 0.  1.
</event>
<event>
 7    1  0.2644565E-009  0.1261430E+03  0.7561462E-02  0.1233294E+00
          2   -1    0    0  501    0  0.00000000000E+00  0.00000000000E+00  0.27535212915E+03  0.27535212915E+03  0.00000000000E+00 0. -1.
         -2   -1    0    0    0  501 -0.00000000000E+00 -0.00000000000E+00 -0.80881487882E+02  0.80881487882E+02  0.00000000000E+00 0.  1.
         25    2    1    2    0    0 -0.67897140873E+02 -0.19794166651E+01  0.15301458216E+02  0.14316254501E+03  0.12508972716E+03 0.  0.
          5    1    3    3  502    0 -0.92096281566E+02 -0.32724746931E+02  0.28102958964E+02  0.10178350968E+03  0.41800000000E+01 0. -1.
         -5    1    3    3    0  502  0.24199140693E+02  0.30745330266E+02 -0.12801500748E+02  0.41379035330E+02  0.41800000000E+01 0. -1.
        -11    1    1    2    0    0  0.26929592702E+02  0.47044478403E+02  0.90738536497E+02  0.10569705728E+03  0.00000000000E+00 0.  1.
         11    1    1    2    0    0  0.40967548171E+02 -0.45065061738E+02  0.88430646557E+02  0.10737401475E+03  0.00000000000E+00 0. -1.
</event>
<event>
 7    1  0.2644565E-009  0.8850606E+02  0.7561462E-02  0.1306510E+00
          2   -1    0    0  501    0  0.00000000000E+00  0.00000000000E+00  0.31750888706E+03  0.31750888706E+03  0.00000000000E+00 0. -1.
         -2   -1    0    0    0  501 -0.00000000000E+00 -0.00000000000E+00 -0.46304316269E+02  0.46304316269E+02  0.00000000000E+00 0.  1.
         25    2    1    2    0    0 -0.39882808081E+02  0.23108021990E+02  0.10792889151E+03  0.17152078009E+03  0.12508442477E+03 0.  0.
          5    1    3    3  502    0  0.10332361975E+02 -0.26888682564E+02 -0.12540529471E+02  0.31693788562E+02  0.41800000000E+01 0.  1.
         -5    1    3    3    0  502 -0.50215170055E+02  0.49996704554E+02  0.12046942098E+03  0.13982699153E+03  0.41800000000E+01 0.  1.
        -11    1    1    2    0    0  0.11177292742E+02 -0.41400311481E+02  0.24467684929E+02  0.49371907696E+02  0.00000000000E+00 0.  1.
         11    1    1    2    0    0  0.28705515339E+02  0.18292289490E+02  0.13880799435E+03  0.14292051554E+03  0.00000000000E+00 0. -1.
</event>
<event>
 7    1  0.2644565E-009  0.1051922E+03  0.7561462E-02  0.1269741E+00
          1   -1    0    0  501    0  0.00000000000E+00  0.00000000000E+00  0.40784424431E+02  0.40784424431E+02  0.00000000000E+00 0. -1.
         -1   -1    0    0    0  501 -0.00000000000E+00 -0.00000000000E+00 -0.34999970924E+03  0.34999970924E+03  0.00000000000E+00 0.  1.
         25    2    1    2    0    0  0.17612590428E+02  0.60556305624E+02 -0.16206053664E+03  0.21420597496E+03  0.12507322928E+03 0.  0.
          5    1    3    3  502    0  0.23161702837E+02  0.84597089606E+02 -0.16701862165E+03  0.18869505671E+03  0.41800000000E+01 0.  1.
         -5    1    3    3    0  502 -0.55491124092E+01 -0.24040783982E+02  0.49580850169E+01  0.25510918252E+02  0.41800000000E+01 0.  1.
        -11    1    1    2    0    0  0.10973706024E+02 -0.67291901986E+02 -0.10535920343E+03  0.12549575309E+03  0.00000000000E+00 0.  1.
         11    1    1    2    0    0 -0.28586296452E+02  0.67355963624E+01 -0.41795544742E+02  0.51082405615E+02  0.00000000000E+00 0. -1.
</event>
<event>
 7    1  0.2644565E-009  0.1489608E+03  0.7561462E-02  0.1201756E+00
          2   -1    0    0  501    0  0.00000000000E+00  0.00000000000E+00  0.52317732635E+03  0.52317732635E+03  0.00000000000E+00 0. -1.
         -2   -1    0    0    0  501 -0.00000000000E+00 -0.00000000000E+00 -0.46541984542E+02  0.46541984542E+02  0.00000000000E+00 0.  1.
         25    2    1    2    0    0 -0.82417301665E+02 -0.60240214953E+02  0.17273820392E+03  0.23644724709E+03  0.12508924194E+03 0.  0.
          5    1    3    3  502    0 -0.88491650447E+01  0.37504086543E+02  0.35640365177E+02  0.52655220628E+02  0.41800000000E+01 0. -1.
         -5    1    3    3    0  502 -0.73568136620E+02 -0.97744301495E+02  0.13709783875E+03  0.18379202646E+03  0.41800000000E+01 0. -1.
        -11    1    1    2    0    0  0.67141766295E+01  0.60679082066E+02  0.13095823288E+03  0.14448906508E+03  0.00000000000E+00 0.  1.
         11    1    1    2    0    0  0.75703125036E+02 -0.43886711387E+00  0.17293890500E+03  0.18878299872E+03  0.00000000000E+00 0. -1.
</event>
<event>
 7    1  0.2644565E-009  0.1149034E+03  0.7561462E-02  0.1251750E+00
         -4   -1    0    0    0  501 -0.00000000000E+00  0.00000000000E+00  0.22569893572E+03  0.22569893572E+03  0.00000000000E+00 0.  1.
          4   -1    0    0  501    0  0.00000000000E+00 -0.00000000000E+00 -0.62893340976E+02  0.62893340976E+02  0.00000000000E+00 0. -1.
         25    2    1    2    0    0 -0.95139553773E+01  0.47110942136E+02  0.10767344140E+03  0.17190384219E+03  0.12508958694E+03 0.  0.
          5    1    3    3  502    0  0.29143498415E+02 -0.33038880265E+02  0.43993532798E+02  0.62400436193E+02  0.41800000000E+01 0.  1.
         -5    1    3    3    0  502 -0.38657453792E+02  0.80149822401E+02  0.63679908602E+02  0.10950340599E+03  0.41800000000E+01 0.  1.
        -11    1    1    2    0    0 -0.27092870736E+02 -0.52874784472E+02  0.52922500782E+02  0.79564801054E+02  0.00000000000E+00 0.  1.
         11    1    1    2    0    0  0.36606826114E+02  0.57638423365E+01  0.22096525623E+01  0.37123633457E+02  0.00000000000E+00 0. -1.
</event>
<event>
 7    1  0.2644565E-009  0.1486435E+03  0.7561462E-02  0.1202150E+00
         -1   -1    0    0    0  501 -0.00000000000E+00  0.00000000000E+00  0.19389844767E+02  0.19389844767E+02  0.00000000000E+00 0. -1.
          1   -1    0    0  501    0  0.00000000000E+00 -0.00000000000E+00 -0.13046322858E+04  0.13046322858E+04  0.00000000000E+00 0.  1.
         25    2    1    2    0    0 -0.27794754248E+01  0.10588451669E+03 -0.89414212934E+03  0.90904162534E+03  0.12508905938E+03 0.  0.
          5    1    3    3  502    0 -0.35387156307E+02 -0.11604980872E+02 -0.31270791803E+03  0.31494545689E+03  0.41800000000E+01 0. -1.
         -5    1    3    3    0  502  0.32607680882E+02  0.11748949756E+03 -0.58143421131E+03  0.59409616845E+03  0.41800000000E+01 0. -1.
        -11    1    1    2    0    0 -0.20920226784E+02 -0.11150658975E+03 -0.33869150222E+03  0.35718805848E+03  0.00000000000E+00 0.  1.
         11    1    1    2    0    0  0.23699702208E+02  0.56220730593E+01 -0.52408809428E+02  0.57792446702E+02  0.00000000000E+00 0. -1.
</event>
<event>
 7    1  0.3872996E-009  0.1384544E+03  0.7561462E-02  0.1215424E+00
         -2   -1    0    0    0  501 -0.00000000000E+00  0.00000000000E+00  0.59108603031E+02  0.59108603031E+02  0.00000000000E+00 0.  1.
          2   -1    0    0  501    0  0.00000000000E+00 -0.00000000000E+00 -0.53252821947E+03  0.53252821947E+03  0.00000000000E+00 0. -1.
         25    2    1    2    0    0  0.94733141899E+02 -0.97680229677E+02 -0.19801043300E+03  0.27087074624E+03  0.12508810553E+03 0.  0.
          5    1    3    3  502    0  0.64550563472E+01 -0.25766806358E+02 -0.14085746014E+03  0.14340115947E+03  0.41800000000E+01 0.  1.
         -5    1    3    3    0  502  0.88278085552E+02 -0.71913423319E+02 -0.57152972867E+02  0.12746958676E+03  0.41800000000E+01 0.  1.
        -11    1    1    2    0    0 -0.42208858332E+02  0.42517830825E+02 -0.36837848448E+02  0.70330510719E+02  0.00000000000E+00 0.  1.
         11    1    1    2    0    0 -0.52524283567E+02  0.55162398852E+02 -0.23857133499E+03  0.25043556555E+03  0.00000000000E+00 0. -1.
</event>
<event>
 7    1  0.2644565E-009  0.2247407E+03  0.7561462E-02  0.1130397E+00
          3   -1    0    0  501    0  0.00000000000E+00  0.00000000000E+00  0.30322601550E+03  0.30322601550E+03  0.00000000000E+00 0. -1.
         -3   -1    0    0    0  501 -0.00000000000E+00 -0.00000000000E+00 -0.19021916269E+03  0.19021916269E+03  0.00000000000E+00 0.  1.
         25    2    1    2    0    0  0.31980515534E+02 -0.20827546615E+03  0.96378732983E+02  0.26331947113E+03  0.12508741158E+03 0.  0.
          5    1    3    3  502    0 -0.17190414261E+02 -0.95269861637E+02  0.10094304584E+03  0.13992436451E+03  0.41800000000E+01 0. -1.
         -5    1    3    3    0  502  0.49170929795E+02 -0.11300560451E+03 -0.45643128605E+01  0.12339510663E+03  0.41800000000E+01 0. -1.
        -11    1    1    2    0    0  0.11377176243E+02  0.17300957982E+03  0.79349628643E+01  0.17356473860E+03  0.00000000000E+00 0.  1.
         11    1    1    2    0    0 -0.43357691777E+02  0.35265886327E+02  0.86931569683E+01  0.56560968456E+02  0.00000000000E+00 0. -1.
</event>
<event>
 7    1  0.2644565E-009  0.1113495E+03  0.7561462E-02  0.1258091E+00
          2   -1    0    0  501    0  0.00000000000E+00  0.00000000000E+00  0.91844174700E+03  0.91844174700E+03  0.00000000000E+00 0. -1.
         -2   -1    0    0    0  501 -0.00000000000E+00 -0.00000000000E+00 -0.25527927218E+02  0.25527927218E+02  0.00000000000E+00 0.  1.
         25    2    1    2    0    0  0.12020288419E+01 -0.31434907539E+02  0.80287446596E+03  0.81316945616E+03  0.12509019964E+03 0.  0.
          5    1    3    3  502    0  0.93906012183E+01 -0.79431292818E+02  0.50596860987E+03  0.51226869926E+03  0.41800000000E+01 0.  1.
         -5    1    3    3    0  502 -0.81885723764E+01  0.47996385279E+02  0.29690585609E+03  0.30090075690E+03  0.41800000000E+01 0.  1.
        -11    1    1    2    0    0 -0.23819018796E+02 -0.24031658632E+02  0.42521396927E+02  0.54340918925E+02  0.00000000000E+00 0. -1.
         11    1    1    2    0    0  0.22616989955E+02  0.55466566171E+02  0.47517956894E+02  0.76459299138E+02  0.00000000000E+00 0.  1.
</event>
<event>
 7    1  0.2644565E-009  0.1193270E+03  0.7561462E-02  0.1244211E+00
         -2   -1    0    0    0  501 -0.00000000000E+00  0.00000000000E+00  0.28146390632E+02  0.28146390632E+02  0.00000000000E+00 0. -1.
          2   -1    0    0  501    0  0.00000000000E+00 -0.00000000000E+00 -0.58632755522E+03  0.58632755522E+03  0.00000000000E+00 0.  1.
         25    2    1    2    0    0 -0.28724293564E+02  0.37629851496E+02 -0.40658453768E+03  0.42801816109E+03  0.12508984443E+03 0.  0.
          5    1    3    3  502    0  0.12448201947E+02  0.73973064158E+02 -0.18459469912E+03  0.19929788583E+03  0.41800000000E+01 0.  1.
         -5    1    3    3    0  502 -0.41172495510E+02 -0.36343212661E+02 -0.22198983855E+03  0.22872027526E+03  0.41800000000E+01 0.  1.
        -11    1    1    2    0    0 -0.36102265705E+02 -0.19974918908E+02 -0.53680302157E+02  0.67704843358E+02  0.00000000000E+00 0.  1.
         11    1    1    2    0    0  0.64826559269E+02 -0.17654932588E+02 -0.97916324758E+02  0.11875094141E+03  0.00000000000E+00 0. -1.
</event>
<event>
 7    1  0.2644565E-009  0.1586443E+03  0.7561462E-02  0.1190236E+00
         -1   -1    0    0    0  501 -0.00000000000E+00  0.00000000000E+00  0.16037096061E+03  0.16037096061E+03  0.00000000000E+00 0.  1.
          1   -1    0    0  501    0  0.00000000000E+00 -0.00000000000E+00 -0.48647910502E+03  0.48647910502E+03  0.00000000000E+00 0. -1.
         25    2    1    2    0    0  0.12188499999E+03 -0.13670223238E+02  0.94796467992E+02  0.19919060659E+03  0.12509076379E+03 0.  0.
          5    1    3    3  502    0  0.76720188460E+02  0.53340235174E+02  0.59886526507E+02  0.11106320931E+03  0.41800000000E+01 0.  1.
         -5    1    3    3    0  502  0.45164811530E+02 -0.67010458412E+02  0.34909941486E+02  0.88127397282E+02  0.41800000000E+01 0.  1.
        -11    1    1    2    0    0 -0.13017555074E+03  0.20892089720E+02 -0.41443889197E+03  0.43490429821E+03  0.00000000000E+00 0. -1.
         11    1    1    2    0    0  0.82905507463E+01 -0.72218664824E+01 -0.64657204273E+01  0.12755160830E+02  0.00000000000E+00 0.  1.
</event>
<event>
 7    1  0.2644565E-009  0.2307279E+03  0.7561462E-02  0.1126128E+00
         -2   -1    0    0    0  501 -0.00000000000E+00  0.00000000000E+00  0.34007328062E+02  0.34007328062E+02  0.00000000000E+00 0.  1.
          2   -1    0    0  501    0  0.00000000000E+00 -0.00000000000E+00 -0.19344408198E+04  0.19344408198E+04  0.00000000000E+00 0. -1.
         25    2    1    2    0    0  0.16231322256E+03  0.15347962861E+03 -0.94895478371E+03  0.98288557971E+03  0.12508917887E+03 0.  0.
          5    1    3    3  502    0  0.68551776422E+02  0.14310136121E+02 -0.13877785712E+03  0.15550206453E+03  0.41800000000E+01 0. -1.
         -5    1    3    3    0  502  0.93761446133E+02  0.13916949249E+03 -0.81017692659E+03  0.82738351518E+03  0.41800000000E+01 0. -1.
        -11    1    1    2    0    0 -0.45804076998E+02 -0.40256710267E+02 -0.88816256404E+02  0.10773552614E+03  0.00000000000E+00 0.  1.
         11    1    1    2    0    0 -0.11650914556E+03 -0.11322291834E+03 -0.86266245159E+03  0.87782704198E+03  0.00000000000E+00 0. -1.
</event>
<event>
 7    1  0.2644565E-009  0.1292578E+03  0.7561462E-02  0.1228561E+00
          2   -1    0    0  501    0  0.00000000000E+00  0.00000000000E+00  0.86404485836E+03  0.86404485836E+03  0.00000000000E+00 0. -1.
         -2   -1    0    0    0  501 -0.00000000000E+00 -0.00000000000E+00 -0.32807198284E+02  0.32807198284E+02  0.00000000000E+00 0.  1.
         25    2    1    2    0    0 -0.10140152189E+03 -0.67198576032E+02  0.33193512512E+03  0.37499997755E+03  0.12508452588E+03 0.  0.
          5    1    3    3  502    0 -0.67989919661E+02 -0.74126774523E+02  0.10495723639E+03  0.14543349596E+03  0.41800000000E+01 0. -1.
         -5    1    3    3    0  502 -0.33411602225E+02  0.69281984902E+01  0.22697788873E+03  0.22956648159E+03  0.41800000000E+01 0. -1.
        -11    1    1    2    0    0  0.65140798228E+02  0.30684025860E+02  0.42745083641E+03  0.43347324091E+03  0.00000000000E+00 0.  1.
         11    1    1    2    0    0  0.36260723658E+02  0.36514550173E+02  0.71851698542E+02  0.88378838179E+02  0.00000000000E+00 0. -1.
</event>
<event>
 7    1  0.2644565E-009  0.1095708E+03  0.7561462E-02  0.1261367E+00
          2   -1    0    0  501    0  0.00000000000E+00  0.00000000000E+00  0.56346590275E+03  0.56346590275E+03  0.00000000000E+00 0.  1.
         -2   -1    0    0    0  501 -0.00000000000E+00 -0.00000000000E+00 -0.27583804768E+02  0.27583804768E+02  0.00000000000E+00 0. -1.
         25    2    1    2    0    0  0.49336619735E+01  0.52817332499E+02  0.37119331492E+03  0.39528941935E+03  0.12512088706E+03 0.  0.
          5    1    3    3  502    0  0.57249126859E+02  0.43289667160E+02  0.13291272687E+03  0.15111162487E+03  0.41800000000E+01 0.  1.
         -5    1    3    3    0  502 -0.52315464886E+02  0.95276653387E+01  0.23828058805E+03  0.24417779448E+03  0.41800000000E+01 0.  1.
        -11    1    1    2    0    0 -0.41253731796E+02 -0.30089139293E+02  0.13301408801E+03  0.14247797829E+03  0.00000000000E+00 0.  1.
         11    1    1    2    0    0  0.36320069822E+02 -0.22728193206E+02  0.31674695053E+02  0.53282309869E+02  0.00000000000E+00 0. -1.
</event>
<event>
 6    1  0.2644565E-009  0.1042374E+03  0.7561462E-02  0.1271629E+00
          1   -1    0    0  501    0  0.00000000000E+00  0.00000000000E+00  0.40071494847E+03  0.40071494847E+03  0.00000000000E+00 0. -1.
         -1   -1    0    0    0  501 -0.00000000000E+00 -0.00000000000E+00 -0.43775420137E+02  0.43775420137E+02  0.00000000000E+00 0.  1.
          5    1    1    2  502    0  0.15185369174E+02 -0.12455685781E+02 -0.37104150370E+01  0.20420066723E+02  0.41800000000E+01 0.  1.
         -5    1    1    2    0  502 -0.80391569946E+02 -0.82153019246E+01  0.26640820544E+03  0.27842611233E+03  0.41800000000E+01 0.  1.
        -11    1    1    2    0    0 -0.44401781587E+01 -0.24215142466E+02  0.76118468487E+01  0.25768750827E+02  0.00000000000E+00 0.  1.
         11    1    1    2    0    0  0.69646378930E+02  0.44886130172E+02  0.86629891081E+02  0.11987543872E+03  0.00000000000E+00 0. -1.
</event>
<event>
 7    1  0.2644565E-009  0.1001010E+03  0.7561462E-02  0.1280084E+00
         -1   -1    0    0    0  501 -0.00000000000E+00  0.00000000000E+00  0.10087084959E+03  0.10087084959E+03  0.00000000000E+00 0.  1.
          1   -1    0    0  501    0  0.00000000000E+00 -0.00000000000E+00 -0.18496696473E+03  0.18496696473E+03  0.00000000000E+00 0. -1.
         25    2    1    2    0    0  0.35927090064E+02 -0.73361424993E+01  0.25720113561E+02  0.13286639872E+03  0.12508949148E+03 0.  0.
          5    1    3    3  502    0 -0.17219406074E+02 -0.42186270052E+02 -0.24366787857E+02  0.51840158920E+02  0.41800000000E+01 0.  1.
         -5    1    3    3    0  502  0.53146496137E+02  0.34850127552E+02  0.50086901418E+02  0.81026239798E+02  0.41800000000E+01 0.  1.
        -11    1    1    2    0    0  0.64671717409E+00  0.41024481904E+02 -0.90970727206E+02  0.99795288300E+02  0.00000000000E+00 0.  1.
         11    1    1    2    0    0 -0.36573807238E+02 -0.33688339405E+02 -0.18845501492E+02  0.53176127296E+02  0.00000000000E+00 0. -1.
</event>
<event>
 7    1  0.2644565E-009  0.1686860E+03  0.7561462E-02  0.1179225E+00
         -4   -1    0    0    0  501 -0.00000000000E+00  0.00000000000E+00  0.13852471891E+03  0.13852471891E+03  0.00000000000E+00 0.  1.
          4   -1    0    0  501    0  0.00000000000E+00 -0.00000000000E+00 -0.34023797210E+03  0.34023797210E+03  0.00000000000E+00 0. -1.
         25    2    1    2    0    0 -0.83069644489E+02 -0.12152833400E+03  0.23901961905E+02  0.19465136937E+03  0.12509256579E+03 0.  0.
          5    1    3    3  502    0 -0.10493287390E+03 -0.84290346561E+02 -0.16127099952E+02  0.13562199785E+03  0.41800000000E+01 0. -1.
         -5    1    3    3    0  502  0.21863229414E+02 -0.37237987437E+02  0.40029061857E+02  0.59029371519E+02  0.41800000000E+01 0. -1.
        -11    1    1    2    0    0  0.70143259728E+01  0.62923619203E+02 -0.39321898322E+02  0.74530492485E+02  0.00000000000E+00 0.  1.
         11    1    1    2    0    0  0.76055318516E+02  0.58604714795E+02 -0.18629331678E+03  0.20958082915E+03  0.00000000000E+00 0. -1.
</event>
<event>
 7    1  0.2644565E-009  0.1114763E+03  0.7561462E-02  0.1257860E+00
         -1   -1    0    0    0  501 -0.00000000000E+00  0.00000000000E+00  0.34813681243E+02  0.34813681243E+02  0.00000000000E+00 0.  1.
          1   -1    0    0  501    0  0.00000000000E+00 -0.00000000000E+00 -0.46695319004E+03  0.46695319004E+03  0.00000000000E+00 0. -1.
         25    2    1    2    0    0  0.22491834783E+02 -0.52626712021E+02 -0.30575255162E+03  0.33527563006E+03  0.12509864844E+03 0.  0.
          5    1    3    3  502    0  0.59754548683E+02 -0.17238470357E+01 -0.22429385383E+03  0.23216111432E+03  0.41800000000E+01 0. -1.
         -5    1    3    3    0  502 -0.37262713900E+02 -0.50902864985E+02 -0.81458697787E+02  0.10311451574E+03  0.41800000000E+01 0. -1.
        -11    1    1    2    0    0  0.10338435369E+01  0.70345334685E+02 -0.11520559390E+03  0.13498838398E+03  0.00000000000E+00 0. -1.
         11    1    1    2    0    0 -0.23525678320E+02 -0.17718622664E+02 -0.11181363282E+02  0.31502857242E+02  0.00000000000E+00 0.  1.
</event>
<event>
 7    1  0.2644565E-009  0.9319456E+02  0.7561462E-02  0.1295295E+00
          1   -1    0    0  501    0  0.00000000000E+00  0.00000000000E+00  0.34713930677E+02  0.34713930677E+02  0.00000000000E+00 0. -1.
         -1   -1    0    0    0  501 -0.00000000000E+00 -0.00000000000E+00 -0.56263981427E+03  0.56263981427E+03  0.00000000000E+00 0.  1.
         25    2    1    2    0    0 -0.41670947182E+01  0.58457872405E+01 -0.10111152858E+03  0.16100492399E+03  0.12508999333E+03 0.  0.
          5    1    3    3  502    0  0.34217029983E+02  0.35294302543E+02 -0.55611523169E+00  0.49338368407E+02  0.41800000000E+01 0.  1.
         -5    1    3    3    0  502 -0.38384124702E+02 -0.29448515303E+02 -0.10055541335E+03  0.11166655558E+03  0.41800000000E+01 0.  1.
        -11    1    1    2    0    0  0.31571505039E+02  0.29879451145E+02 -0.25784019558E+03  0.26147869510E+03  0.00000000000E+00 0.  1.
         11    1    1    2    0    0 -0.27404410320E+02 -0.35725238386E+02 -0.16897415943E+03  0.17487012586E+03  0.00000000000E+00 0. -1.
</event>
<event>
 7    1  0.2644565E-009  0.8113915E+02  0.7561462E-02  0.1325849E+00
          1   -1    0    0  501    0  0.00000000000E+00  0.00000000000E+00  0.14030300565E+03  0.14030300565E+03  0.00000000000E+00 0. -1.
         -1   -1    0    0    0  501 -0.00000000000E+00 -0.00000000000E+00 -0.10802624312E+03  0.10802624312E+03  0.00000000000E+00 0.  1.
         25    2    1    2    0    0 -0.23467958986E+02 -0.50813273147E+02  0.40448003320E+02  0.14287767032E+03  0.12508098927E+03 0.  0.
          5    1    3    3  502    0 -0.21917303524E+02 -0.40059154544E+02  0.85135506604E+02  0.96698660493E+02  0.41800000000E+01 0. -1.
         -5    1    3    3    0  502 -0.15506554627E+01 -0.10754118602E+02 -0.44687503284E+02  0.46179009831E+02  0.41800000000E+01 0. -1.
        -11    1    1    2    0    0 -0.32628731582E+01  0.71131628422E+02 -0.95667948119E+01  0.71846214000E+02  0.00000000000E+00 0.  1.
         11    1    1    2    0    0  0.26730832145E+02 -0.20318355275E+02  0.13955540174E+01  0.33605364441E+02  0.00000000000E+00 0. -1.
</event>
<event>
 7    1  0.2644565E-009  0.1030799E+03  0.7561462E-02  0.1273949E+00
         -2   -1    0    0    0  501 -0.00000000000E+00  0.00000000000E+00  0.69141815839E+02  0.69141815839E+02  0.00000000000E+00 0.  1.
          2   -1    0    0  501    0  0.00000000000E+00 -0.00000000000E+00 -0.18718683818E+03  0.18718683818E+03  0.00000000000E+00 0. -1.
         25    2    1    2    0    0 -0.31000099443E+02 -0.13267118780E+01 -0.50816207005E+02  0.13853617973E+03  0.12508884790E+03 0.  0.
          5    1    3    3  502    0 -0.67432497169E+02 -0.16893474576E+02  0.51574895871E+01  0.69832680433E+02  0.41800000000E+01 0. -1.
         -5    1    3    3    0  502  0.36432397726E+02  0.15566762698E+02 -0.55973696592E+02  0.68703499293E+02  0.41800000000E+01 0. -1.
        -11    1    1    2    0    0  0.51885667123E+02  0.30963689718E+02 -0.40292901773E+02  0.72624998912E+02  0.00000000000E+00 0.  1.
         11    1    1    2    0    0 -0.20885567680E+02 -0.29636977840E+02 -0.26935913565E+02  0.45167475382E+02  0.00000000000E+00 0. -1.
</event>
<event>
 7    1  0.2644565E-009  0.9727927E+02  0.7561462E-02  0.1286124E+00
          2   -1    0    0  501    0  0.00000000000E+00  0.00000000000E+00  0.24136864565E+03  0.24136864565E+03  0.00000000000E+00 0. -1.
         -2   -1    0    0    0  501 -0.00000000000E+00 -0.00000000000E+00 -0.62632413061E+02  0.62632413061E+02  0.00000000000E+00 0.  1.
         25    2    1    2    0    0  0.53681961477E+02  0.17768402135E+01  0.13209286127E+03  0.18968667648E+03  0.12509037167E+03 0.  0.
          5    1    3    3  502    0 -0.25868987100E+02 -0.37844102288E+02  0.33798859316E+02  0.57107056155E+02  0.41800000000E+01 0. -1.
         -5    1    3    3    0  502  0.79550948577E+02  0.39620942501E+02  0.98294001958E+02  0.13257962032E+03  0.41800000000E+01 0. -1.
        -11    1    1    2    0    0 -0.27668677339E+02 -0.13778088142E+02  0.70535584943E+02  0.77010779517E+02  0.00000000000E+00 0. -1.
         11    1    1    2    0    0 -0.26013284139E+02  0.12001247929E+02 -0.23892213628E+02  0.37303602716E+02  0.00000000000E+00 0.  1.
</event>
<event>
 7    1  0.2644565E-009  0.1059753E+03  0.7561462E-02  0.1268210E+00
          2   -1    0    0  501    0  0.00000000000E+00  0.00000000000E+00  0.29928706261E+03  0.29928706261E+03  0.00000000000E+00 0. -1.
         -2   -1    0    0    0  501 -0.00000000000E+00 -0.00000000000E+00 -0.50065968019E+02  0.50065968019E+02  0.00000000000E+00 0.  1.
         25    2    1    2    0    0  0.34266304324E+02 -0.40967800636E+02  0.17021883327E+03  0.21788275537E+03  0.12508358639E+03 0.  0.
          5    1    3    3  502    0  0.59099409946E+02  0.15511274509E+02  0.13112621132E+03  0.14472351429E+03  0.41800000000E+01 0.  1.
         -5    1    3    3    0  502 -0.24833105622E+02 -0.56479075145E+02  0.39092621949E+02  0.73159241077E+02  0.41800000000E+01 0.  1.
        -11    1    1    2    0    0 -0.39084807654E+02  0.58683835730E+02  0.25619365086E+02  0.75018441951E+02  0.00000000000E+00 0.  1.
         11    1    1    2    0    0  0.48185033301E+01 -0.17716035095E+02  0.53382896236E+02  0.56451833312E+02  0.00000000000E+00 0. -1.
</event>
<event>
 7    1  0.2644565E-009  0.1216194E+03  0.7561462E-02  0.1240449E+00
          1   -1    0    0  501    0  0.00000000000E+00  0.00000000000E+00  0.18704907755E+03  0.18704907755E+03  0.00000000000E+00 0. -1.
         -1   -1    0    0    0  501 -0.00000000000E+00 -0.00000000000E+00 -0.13033141573E+03  0.13033141573E+03  0.00000000000E+00 0.  1.
         25    2    1    2    0    0  0.50220554669E+02 -0.64855426965E+02 -0.48055127808E+02  0.15711509359E+03  0.12509007477E+03 0.  0.
          5    1    3    3  502    0 -0.30096247691E+02  0.16939410034E+02 -0.89391696353E+01  0.35918085850E+02  0.41800000000E+01 0.  1.
         -5    1    3    3    0  502  0.80316802360E+02 -0.81794836998E+02 -0.39115958173E+02  0.12119700774E+03  0.41800000000E+01 0.  1.
        -11    1    1    2    0    0 -0.54026067303E+02  0.36662891747E+02  0.16249389948E+02  0.67283179571E+02  0.00000000000E+00 0.  1.
         11    1    1    2    0    0  0.38055126340E+01  0.28192535218E+02  0.88523399675E+02  0.92982220120E+02  0.00000000000E+00 0. -1.
</event>
<event>
 7    1  0.2644565E-009  0.1112914E+03  0.7561462E-02  0.1258197E+00
         -1   -1    0    0    0  501 -0.00000000000E+00  0.00000000000E+00  0.16058924879E+03  0.16058924879E+03  0.00000000000E+00 0.  1.
          1   -1    0    0  501    0  0.00000000000E+00 -0.00000000000E+00 -0.13200860156E+03  0.13200860156E+03  0.00000000000E+00 0. -1.
         25    2    1    2    0    0 -0.41215969257E+02  0.16270518426E+02  0.10455009896E+03  0.16894048070E+03  0.12508667769E+03 0.  0.
          5    1    3    3  502    0 -0.57275123261E+01 -0.50389938400E+02  0.68016559641E+02  0.84945129789E+02  0.41800000000E+01 0.  1.
         -5    1    3    3    0  502 -0.35488456931E+02  0.66660456826E+02  0.36533539317E+02  0.83995350911E+02  0.41800000000E+01 0.  1.
        -11    1    1    2    0    0  0.45647332824E+02  0.26687533540E+02 -0.52470610304E+02  0.74492069283E+02  0.00000000000E+00 0. -1.
         11    1    1    2    0    0 -0.44313635674E+01 -0.42958051966E+02 -0.23498841423E+02  0.49165300365E+02  0.00000000000E+00 0.  1.
</event>
<event>
 7    1  0.2644565E-009  0.1252623E+03  0.7561462E-02  0.1234660E+00
         -2   -1    0    0    0  501 -0.00000000000E+00  0.00000000000E+00  0.21427730190E+02  0.21427730190E+02  0.00000000000E+00 0.  1.
          2   -1    0    0  501    0  0.00000000000E+00 -0.00000000000E+00 -0.11095592239E+04  0.11095592239E+04  0.00000000000E+00 0. -1.
         25    2    1    2    0    0 -0.35325079135E+02  0.10418508775E+03 -0.51694589279E+03  0.54312294748E+03  0.12508831393E+03 0.  0.
          5    1    3    3  502    0  0.11038589110E+02  0.22653913823E+02 -0.35509844579E+03  0.35601605142E+03  0.41800000000E+01 0. -1.
         -5    1    3    3    0  502 -0.46363668244E+02  0.81531173932E+02 -0.16184744700E+03  0.18710689606E+03  0.41800000000E+01 0. -1.
        -11    1    1    2    0    0 -0.21490516124E+02 -0.39759757727E+02 -0.11313483932E+03  0.12182845515E+03  0.00000000000E+00 0. -1.
         11    1    1    2    0    0  0.56815595259E+02 -0.64425330027E+02 -0.45805076158E+03  0.46603555143E+03  0.00000000000E+00 0.  1.
</event>
<event>
 7    1  0.2644565E-009  0.1537332E+03  0.7561462E-02  0.1195959E+00
          1   -1    0    0  501    0  0.00000000000E+00  0.00000000000E+00  0.26219952257E+03  0.26219952257E+03  0.00000000000E+00 0. -1.
         -1   -1    0    0    0  501 -0.00000000000E+00 -0.00000000000E+00 -0.18182341021E+03  0.18182341021E+03  0.00000000000E+00 0.  1.
         25    2    1    2    0    0 -0.82187488306E+02 -0.95226841336E+02 -0.10220301865E+03  0.20473006557E+03  0.12508400450E+03 0.  0.
          5    1    3    3  502    0  0.12364582711E+02 -0.42582224632E+02 -0.83767634724E+02  0.94871585775E+02  0.41800000000E+01 0.  1.
         -5    1    3    3    0  502 -0.94552071017E+02 -0.52644616704E+02 -0.18435383923E+02  0.10985847979E+03  0.41800000000E+01 0.  1.
        -11    1    1    2    0    0  0.76308398125E+02  0.19616376503E+02  0.96132060877E+02  0.12429459755E+03  0.00000000000E+00 0.  1.
         11    1    1    2    0    0  0.58790901808E+01  0.75610464834E+02  0.86447070130E+02  0.11499826967E+03  0.00000000000E+00 0. -1.
</event>
<event>
 7    1  0.2644565E-009  0.1167523E+03  0.7561462E-02  0.1248553E+00
         -2   -1    0    0    0  501 -0.00000000000E+00  0.00000000000E+00  0.21480607442E+02  0.21480607442E+02  0.00000000000E+00 0.  1.
          2   -1    0    0  501    0  0.00000000000E+00 -0.00000000000E+00 -0.70415898982E+03  0.70415898982E+03  0.00000000000E+00 0. -1.
         25    2    1    2    0    0  0.42975822805E+02  0.28350394773E+02 -0.32395995207E+03  0.35106770616E+03  0.12509123684E+03 0.  0.
          5    1    3    3  502    0  0.85645058659E+02  0.29254570169E+02 -0.19173998762E+03  0.21206744493E+03  0.41800000000E+01 0.  1.
         -5    1    3    3    0  502 -0.42669235854E+02 -0.90417539614E+00 -0.13221996446E+03  0.13900026123E+03  0.41800000000E+01 0.  1.
        -11    1    1    2    0    0 -0.11546311645E+01 -0.51975696207E+02 -0.11557745824E+03  0.12673182324E+03  0.00000000000E+00 0. -1.
         11    1    1    2    0    0 -0.41821191640E+02  0.23625301434E+02 -0.24314097207E+03  0.24784006786E+03  0.00000000000E+00 0.  1.
</event>
<event>
 7    1  0.2644565E-009  0.8653374E+02  0.7561462E-02  0.1311470E+00
          2   -1    0    0  501    0  0.00000000000E+00  0.00000000000E+00  0.68578526094E+03  0.68578526094E+03  0.00000000000E+00 0.  1.
         -2   -1    0    0    0  501 -0.00000000000E+00 -0.00000000000E+00 -0.26837687970E+02  0.26837687970E+02  0.00000000000E+00 0. -1.
         25    2    1    2    0    0 -0.21205437548E+02 -0.92091972823E+01  0.58060624925E+03  0.59438141418E+03  0.12510463207E+03 0.  0.
          5    1    3    3  502    0  0.37854411449E+02 -0.37662302677E+02  0.36743550573E+03  0.37131890442E+03  0.41800000000E+01 0.  1.
         -5    1    3    3    0  502 -0.59059848997E+02  0.28453105395E+02  0.21317074352E+03  0.22306250976E+03  0.41800000000E+01 0.  1.
        -11    1    1    2    0    0  0.35291709122E+02  0.15304804027E+02  0.57708976053E-01  0.38467454938E+02  0.00000000000E+00 0. -1.
         11    1    1    2    0    0 -0.14086271574E+02 -0.60956067447E+01  0.78283614749E+02  0.79774079791E+02  0.00000000000E+00 0.  1.
</event>
<event>
 7    1  0.2644565E-009  0.1093679E+03  0.7561462E-02  0.1261745E+00
         -2   -1    0    0    0  501 -0.00000000000E+00  0.00000000000E+00  0.13544065617E+03  0.13544065617E+03  0.00000000000E+00 0.  1.
          2   -1    0    0  501    0  0.00000000000E+00 -0.00000000000E+00 -0.98072616836E+02  0.98072616836E+02  0.00000000000E+00 0. -1.
         25    2    1    2    0    0 -0.68592456297E+01  0.28905994129E+02  0.47229677550E+02  0.13696959961E+03  0.12508965996E+03 0.  0.
          5    1    3    3  502    0 -0.54289330115E+02 -0.17139610774E+02  0.26833261826E+01  0.57146918213E+02  0.41800000000E+01 0. -1.
         -5    1    3    3    0  502  0.47430084486E+02  0.46045604903E+02  0.44546351368E+02  0.79822681397E+02  0.41800000000E+01 0. -1.
        -11    1    1    2    0    0 -0.35929017777E+02  0.10305325707E+02 -0.92394117314E+01  0.38502737377E+02  0.00000000000E+00 0.  1.
         11    1    1    2    0    0  0.42788263407E+02 -0.39211319836E+02 -0.62222648117E+00  0.58040936023E+02  0.00000000000E+00 0. -1.
</event>
<event>
 7    1  0.2644565E-009  0.1245400E+03  0.7561462E-02  0.1235790E+00
          2   -1    0    0  501    0  0.00000000000E+00  0.00000000000E+00  0.35691294545E+03  0.35691294545E+03  0.00000000000E+00 0. -1.
         -2   -1    0    0    0  501 -0.00000000000E+00 -0.00000000000E+00 -0.50191731654E+02  0.50191731654E+02  0.00000000000E+00 0.  1.
         25    2    1    2    0    0 -0.23006437031E+02 -0.65273360600E+02  0.21861609626E+03  0.26120969050E+03  0.12509035582E+03 0.  0.
          5    1    3    3  502    0  0.15873537868E+02 -0.90207670311E+02  0.17490030464E+03  0.19747653519E+03  0.41800000000E+01 0. -1.
         -5    1    3    3    0  502 -0.38879974899E+02  0.24934309711E+02  0.43715791620E+02  0.63733155311E+02  0.41800000000E+01 0. -1.
        -11    1    1    2    0    0 -0.20956535685E+02  0.63660557723E+02  0.31091528837E+02  0.73881839196E+02  0.00000000000E+00 0. -1.
         11    1    1    2    0    0  0.43962972716E+02  0.16128028771E+01  0.57013588697E+02  0.72013147406E+02  0.00000000000E+00 0.  1.
</event>
<event>
 7    1  0.2644565E-009  0.1619947E+03  0.7561462E-02  0.1186463E+00
         -2   -1    0    0    0  501 -0.00000000000E+00  0.00000000000E+00  0.17908265858E+02  0.17908265858E+02  0.00000000000E+00 0. -1.
          2   -1    0    0  501    0  0.00000000000E+00 -0.00000000000E+00 -0.14845232027E+04  0.14845232027E+04  0.00000000000E+00 0.  1.
         25    2    1    2    0    0 -0.56483527093E+02 -0.10532900436E+03 -0.82690323559E+03  0.84480889972E+03  0.12509407671E+03 0.  0.
          5    1    3    3  502    0  0.14247693178E+02 -0.99583156991E+02 -0.53342357268E+03  0.54284250221E+03  0.41800000000E+01 0. -1.
         -5    1    3    3    0  502 -0.70731220270E+02 -0.57458473640E+01 -0.29347966291E+03  0.30196639751E+03  0.41800000000E+01 0. -1.
        -11    1    1    2    0    0 -0.24877421183E+02  0.43188542608E+02 -0.22623178380E+03  0.23165697982E+03  0.00000000000E+00 0.  1.
         11    1    1    2    0    0  0.81360948275E+02  0.62140461748E+02 -0.41347991740E+03  0.42596558897E+03  0.00000000000E+00 0. -1.
</event>
<event>
 7    1  0.2644565E-009  0.1775418E+03  0.7561462E-02  0.1170204E+00
         -1   -1    0    0    0  501 -0.00000000000E+00  0.00000000000E+00  0.30605229917E+03  0.30605229917E+03  0.00000000000E+00 0.  1.
          1   -1    0    0  501    0  0.00000000000E+00 -0.00000000000E+00 -0.11235543438E+03  0.11235543438E+03  0.00000000000E+00 0. -1.
         25    2    1    2    0    0  0.11379011431E+03 -0.94778808264E+02  0.86163102431E+02  0.21213681226E+03  0.12508690693E+03 0.  0.
          5    1    3    3  502    0  0.12787666572E+03 -0.11248745179E+03  0.70916198641E+02  0.18453305415E+03  0.41800000000E+01 0.  1.
         -5    1    3    3    0  502 -0.14086551419E+02  0.17708643523E+02  0.15246903790E+02  0.27603758104E+02  0.41800000000E+01 0.  1.
        -11    1    1    2    0    0 -0.89544753017E+02  0.33150138151E+02  0.10214735114E+03  0.13982587671E+03  0.00000000000E+00 0.  1.
         11    1    1    2    0    0 -0.24245361288E+02  0.61628670112E+02  0.53864112097E+01  0.66445044582E+02  0.00000000000E+00 0. -1.
</event>
<event>
 7    1  0.2644565E-009  0.2157939E+03  0.7561462E-02  0.1137058E+00
          2   -1    0    0  501    0  0.00000000000E+00  0.00000000000E+00  0.30719354937E+04  0.30719354937E+04  0.00000000000E+00 0. -1.
         -2   -1    0    0    0  501 -0.00000000000E+00 -0.00000000000E+00 -0.19266576323E+02  0.19266576323E+02  0.00000000000E+00 0.  1.
         25    2    1    2    0    0 -0.19677059534E+03  0.45949577287E+01  0.22140630736E+04  0.22263113903E+04  0.12508929551E+03 0.  0.
          5    1    3    3  502    0 -0.21178308484E+03  0.11057882310E+02  0.21324183329E+04  0.21429418496E+04  0.41800000000E+01 0. -1.
         -5    1    3    3    0  502  0.15012489502E+02 -0.64629245817E+01  0.81644740657E+02  0.83369540674E+02  0.41800000000E+01 0. -1.
        -11    1    1    2    0    0  0.11008468273E+03  0.21314855765E+02  0.33626847128E+03  0.35447065496E+03  0.00000000000E+00 0. -1.
         11    1    1    2    0    0  0.86685912609E+02 -0.25909813493E+02  0.50233737246E+03  0.51042002474E+03  0.00000000000E+00 0.  1.
</event>
<event>
 7    1  0.2644565E-009  0.1006286E+03  0.7561462E-02  0.1278980E+00
          3   -1    0    0  501    0  0.00000000000E+00  0.00000000000E+00  0.14367416574E+03  0.14367416574E+03  0.00000000000E+00 0. -1.
         -3   -1    0    0    0  501 -0.00000000000E+00 -0.00000000000E+00 -0.10957630305E+03  0.10957630305E+03  0.00000000000E+00 0.  1.
         25    2    1    2    0    0 -0.36186501933E+02  0.25946319070E+02 -0.32252781971E+02  0.13664101718E+03  0.12509137154E+03 0.  0.
          5    1    3    3  502    0 -0.28220342076E+01  0.69956043853E+02  0.43194810556E+01  0.70270493561E+02  0.41800000000E+01 0.  1.
         -5    1    3    3    0  502 -0.33364467726E+02 -0.44009724783E+02 -0.36572263027E+02  0.66370523616E+02  0.41800000000E+01 0.  1.
        -11    1    1    2    0    0 -0.15341799571E+02  0.43667251363E+01 -0.10609573978E+02  0.19157300501E+02  0.00000000000E+00 0.  1.
         11    1    1    2    0    0  0.51528301505E+02 -0.30313044206E+02  0.76960218636E+02  0.97452151118E+02  0.00000000000E+00 0. -1.
</event>
<event>
 7    1  0.2644565E-009  0.1097960E+03  0.7561462E-02  0.1260948E+00
          3   -1    0    0  501    0  0.00000000000E+00  0.00000000000E+00  0.23486088724E+03  0.23486088724E+03  0.00000000000E+00 0. -1.
         -3   -1    0    0    0  501 -0.00000000000E+00 -0.00000000000E+00 -0.66242912010E+02  0.66242912010E+02  0.00000000000E+00 0.  1.
         25    2    1    2    0    0  0.55080126055E+02 -0.12018162696E+02  0.64382181554E+02  0.15156289936E+03  0.12509192876E+03 0.  0.
          5    1    3    3  502    0  0.72232614737E+02 -0.41052254264E+02  0.52391188330E+01  0.83353218162E+02  0.41800000000E+01 0.  1.
         -5    1    3    3    0  502 -0.17152488682E+02  0.29034091568E+02  0.59143062721E+02  0.68209681198E+02  0.41800000000E+01 0.  1.
        -11    1    1    2    0    0 -0.17400556693E+02 -0.36828715076E+02  0.64086708068E+02  0.75935760866E+02  0.00000000000E+00 0. -1.
         11    1    1    2    0    0 -0.37679569362E+02  0.48846877772E+02  0.40149085607E+02  0.73605139022E+02  0.00000000000E+00 0.  1.
</event>
<event>
 7    1  0.2644565E-009  0.1251313E+03  0.7561462E-02  0.1234864E+00
         -3   -1    0    0    0  501 -0.00000000000E+00  0.00000000000E+00  0.80112929531E+02  0.80112929531E+02  0.00000000000E+00 0.  1.
          3   -1    0    0  501    0  0.00000000000E+00 -0.00000000000E+00 -0.22011454039E+03  0.22011454039E+03  0.00000000000E+00 0. -1.
         25    2    1    2    0    0 -0.24370352163E+02  0.71617885649E+02 -0.94505362920E+02  0.17407202815E+03  0.12508705670E+03 0.  0.
          5    1    3    3  502    0  0.50208862014E+02  0.42244237206E+02 -0.38383567390E+02  0.76133278186E+02  0.41800000000E+01 0.  1.
         -5    1    3    3    0  502 -0.74579214176E+02  0.29373648443E+02 -0.56121795530E+02  0.97938749959E+02  0.41800000000E+01 0.  1.
        -11    1    1    2    0    0  0.50060729544E+02 -0.46871946913E+02 -0.30074809245E+00  0.68579490369E+02  0.00000000000E+00 0.  1.
         11    1    1    2    0    0 -0.25690377382E+02 -0.24745938737E+02 -0.45195499843E+02  0.57575951404E+02  0.00000000000E+00 0. -1.
</event>
<event>
 7    1  0.2644565E-009  0.1334497E+03  0.7561462E-02  0.1222425E+00
         -3   -1    0    0    0  501 -0.00000000000E+00  0.00000000000E+00  0.14730282931E+03  0.14730282931E+03  0.00000000000E+00 0.  1.
          3   -1    0    0  501    0  0.00000000000E+00 -0.00000000000E+00 -0.17135472602E+03  0.17135472602E+03  0.00000000000E+00 0. -1.
         25    2    1    2    0    0  0.72376735014E+02  0.67961483575E+02  0.46431158720E+02  0.16631506776E+03  0.12509074404E+03 0.  0.
          5    1    3    3  502    0  0.96405546815E+02  0.17112707388E+02  0.85414228697E+01  0.98373281512E+02  0.41800000000E+01 0. -1.
         -5    1    3    3    0  502 -0.24028811801E+02  0.50848776187E+02  0.37889735850E+02  0.67941786252E+02  0.41800000000E+01 0. -1.
        -11    1    1    2    0    0 -0.45889390827E+02 -0.75066928433E+01 -0.72704299434E+02  0.86302385738E+02  0.00000000000E+00 0. -1.
         11    1    1    2    0    0 -0.26487344187E+02 -0.60454790732E+02  0.22212439975E+01  0.66040101827E+02  0.00000000000E+00 0.  1.
</event>
<event>
 7    1  0.2644565E-009  0.1060557E+03  0.7561462E-02  0.1268053E+00
          2   -1    0    0  501    0  0.00000000000E+00  0.00000000000E+00  0.54125820729E+02  0.54125820729E+02  0.00000000000E+00 0. -1.
         -2   -1    0    0    0  501 -0.00000000000E+00 -0.00000000000E+00 -0.39828963400E+03  0.39828963400E+03  0.00000000000E+00 0.  1.
         25    2    1    2    0    0 -0.86915592250E+02  0.47082639781E+02 -0.19457067374E+03  0.25154855177E+03  0.12509129337E+03 0.  0.
          5    1    3    3  502    0 -0.20282524241E+02  0.34626876020E+02 -0.17680115543E+03  0.18134641517E+03  0.41800000000E+01 0. -1.
         -5    1    3    3    0  502 -0.66633068009E+02  0.12455763762E+02 -0.17769518304E+02  0.70202136606E+02  0.41800000000E+01 0. -1.
        -11    1    1    2    0    0  0.44245753415E+02 -0.41772988930E+02 -0.19571303944E+02  0.63919521568E+02  0.00000000000E+00 0. -1.
         11    1    1    2    0    0  0.42669838836E+02 -0.53096508512E+01 -0.13002183559E+03  0.13694738139E+03  0.00000000000E+00 0.  1.
</event>
<event>
 7    1  0.2644565E-009  0.1389041E+03  0.7561462E-02  0.1214811E+00
          1   -1    0    0  501    0  0.00000000000E+00  0.00000000000E+00  0.94863198653E+03  0.94863198653E+03  0.00000000000E+00 0. -1.
         -1   -1    0    0    0  501 -0.00000000000E+00 -0.00000000000E+00 -0.21550427840E+02  0.21550427840E+02  0.00000000000E+00 0.  1.
         25    2    1    2    0    0  0.42890132962E+02 -0.77222253960E+02  0.59799794289E+03  0.61729652452E+03  0.12510243595E+03 0.  0.
          5    1    3    3  502    0  0.86969197701E+02 -0.47855304957E+02  0.41615657438E+03  0.42785223893E+03  0.41800000000E+01 0. -1.
         -5    1    3    3    0  502 -0.44079064739E+02 -0.29366949002E+02  0.18184136851E+03  0.18944428559E+03  0.41800000000E+01 0. -1.
        -11    1    1    2    0    0  0.23595231717E+01  0.79956471834E+02  0.23914834556E+03  0.25217163980E+03  0.00000000000E+00 0. -1.
         11    1    1    2    0    0 -0.45249656134E+02 -0.27342178742E+01  0.89935270241E+02  0.10071425004E+03  0.00000000000E+00 0.  1.
</event>
<event>
 7    1  0.2644565E-009  0.8825091E+02  0.7561462E-02  0.1307143E+00
          2   -1    0    0  501    0  0.00000000000E+00  0.00000000000E+00  0.29018917939E+03  0.29018917939E+03  0.00000000000E+00 0. -1.
         -2   -1    0    0    0  501 -0.00000000000E+00 -0.00000000000E+00 -0.45981970782E+02  0.45981970782E+02  0.00000000000E+00 0.  1.
         25    2    1    2    0    0 -0.34118480091E+02 -0.22099728319E+02  0.16551872065E+03  0.21141440555E+03  0.12508850992E+03 0.  0.
          5    1    3    3  502    0 -0.61862364396E+02  0.71591637914E+01  0.28664852825E+02  0.68682981460E+02  0.41800000000E+01 0. -1.
         -5    1    3    3    0  502  0.27743884305E+02 -0.29258892110E+02  0.13685386783E+03  0.14273142409E+03  0.41800000000E+01 0. -1.
        -11    1    1    2    0    0 -0.16048662838E+02  0.16586880032E+02  0.69792328930E+02  0.73509545949E+02  0.00000000000E+00 0. -1.
         11    1    1    2    0    0  0.50167142929E+02  0.55128482864E+01  0.88961590210E+01  0.51247198667E+02  0.00000000000E+00 0.  1.
</event>
<event>
 7    1  0.2644565E-009  0.9595398E+02  0.7561462E-02  0.1289042E+00
         -1   -1    0    0    0  501 -0.00000000000E+00  0.00000000000E+00  0.90893549631E+02  0.90893549631E+02  0.00000000000E+00 0.  1.
          1   -1    0    0  501    0  0.00000000000E+00 -0.00000000000E+00 -0.15452907629E+03  0.15452907629E+03  0.00000000000E+00 0. -1.
         25    2    1    2    0    0  0.25849903403E+02 -0.40692602531E+02 -0.33406036040E+02  0.13815863359E+03  0.12509092447E+03 0.  0.
          5    1    3    3  502    0 -0.37482833097E+02 -0.41735947908E+02  0.15128563980E+02  0.58251162846E+02  0.41800000000E+01 0. -1.
         -5    1    3    3    0  502  0.63332736500E+02  0.10433453772E+01 -0.48534600021E+02  0.79907470748E+02  0.41800000000E+01 0. -1.
        -11    1    1    2    0    0 -0.20309444411E+02  0.54037058253E+02  0.15114563793E+02  0.59673505307E+02  0.00000000000E+00 0.  1.
         11    1    1    2    0    0 -0.55404589913E+01 -0.13344455722E+02 -0.45344054411E+02  0.47590487020E+02  0.00000000000E+00 0. -1.
</event>
<event>
 7    1  0.2644565E-009  0.1415977E+03  0.7561462E-02  0.1211195E+00
         -2   -1    0    0    0  501 -0.00000000000E+00  0.00000000000E+00  0.12318069144E+03  0.12318069144E+03  0.00000000000E+00 0.  1.
          2   -1    0    0  501    0  0.00000000000E+00 -0.00000000000E+00 -0.21885331134E+03  0.21885331134E+03  0.00000000000E+00 0. -1.
         25    2    1    2    0    0 -0.11774631177E+03 -0.22358826326E+02 -0.76445076856E+02  0.18935990003E+03  0.12509680617E+03 0.  0.
          5    1    3    3  502    0 -0.35733831861E+02 -0.41790124542E+02 -0.88340991777E+02  0.10413896714E+03  0.41800000000E+01 0. -1.
         -5    1    3    3    0  502 -0.82012479905E+02  0.19431298216E+02  0.11895914921E+02  0.85220932888E+02  0.41800000000E+01 0. -1.
        -11    1    1    2    0    0  0.71256584734E+02 -0.26684511808E+02  0.14006750373E+02  0.77367648888E+02  0.00000000000E+00 0.  1.
         11    1    1    2    0    0  0.46489727032E+02  0.49043338133E+02 -0.33234293417E+02  0.75306453865E+02  0.00000000000E+00 0. -1.
</event>
<event>
 7    1  0.2644565E-009  0.1057469E+03  0.7561462E-02  0.1268655E+00
          1   -1    0    0  501    0  0.00000000000E+00  0.00000000000E+00  0.17014507155E+03  0.17014507155E+03  0.00000000000E+00 0. -1.
         -1   -1    0    0    0  501 -0.00000000000E+00 -0.00000000000E+00 -0.95269859374E+02  0.95269859374E+02  0.00000000000E+00 0.  1.
         25    2    1    2    0    0 -0.45537360653E+02 -0.48340365919E+02  0.36690181153E+02  0.14629929126E+03  0.12508745356E+03 0.  0.
          5    1    3    3  502    0  0.18507675022E+02  0.27798976434E+01 -0.33316251940E+02  0.38440953538E+02  0.41800000000E+01 0. -1.
         -5    1    3    3    0  502 -0.64045035674E+02 -0.51120263562E+02  0.70006433092E+02  0.10785833772E+03  0.41800000000E+01 0. -1.
        -11    1    1    2    0    0  0.14567723715E+02  0.70624808525E+02  0.12669217066E+02  0.73216058447E+02  0.00000000000E+00 0. -1.
         11    1    1    2    0    0  0.30969636937E+02 -0.22284442607E+02  0.25515813959E+02  0.45899581222E+02  0.00000000000E+00 0.  1.
</event>
<event>
 7    1  0.2644565E-009  0.1093062E+03  0.7561462E-02  0.1261860E+00
         -2   -1    0    0    0  501 -0.00000000000E+00  0.00000000000E+00  0.69001526162E+02  0.69001526162E+02  0.00000000000E+00 0.  1.
          2   -1    0    0  501    0  0.00000000000E+00 -0.00000000000E+00 -0.19684022462E+03  0.19684022462E+03  0.00000000000E+00 0. -1.
         25    2    1    2    0    0  0.43343791290E+02 -0.35394388351E+01 -0.43117596104E+02  0.13927391330E+03  0.12508750522E+03 0.  0.
          5    1    3    3  502    0 -0.25243467811E+02 -0.42472485035E+02 -0.62007945892E+00  0.49588320709E+02  0.41800000000E+01 0. -1.
         -5    1    3    3    0  502  0.68587259101E+02  0.38933046200E+02 -0.42497516645E+02  0.89685592591E+02  0.41800000000E+01 0. -1.
        -11    1    1    2    0    0  0.23203780730E+02 -0.18961000830E+01 -0.74466006485E+01  0.24443045983E+02  0.00000000000E+00 0.  1.
         11    1    1    2    0    0 -0.66547572020E+02  0.54355389181E+01 -0.77274501708E+02  0.10212479150E+03  0.00000000000E+00 0. -1.
</event>
<event>
 7    1  0.2644565E-009  0.1800519E+03  0.7561462E-02  0.1167753E+00
         -2   -1    0    0    0  501 -0.00000000000E+00  0.00000000000E+00  0.36604850006E+03  0.36604850006E+03  0.00000000000E+00 0.  1.
          2   -1    0    0  501    0  0.00000000000E+00 -0.00000000000E+00 -0.89278527119E+02  0.89278527119E+02  0.00000000000E+00 0. -1.
         25    2    1    2    0    0 -0.14327487003E+03 -0.10319211069E+02  0.15929682037E+03  0.24831290685E+03  0.12509855407E+03 0.  0.
          5    1    3    3  502    0 -0.13590141597E+03 -0.53274761353E+02  0.13102322342E+03  0.19619366079E+03  0.41800000000E+01 0.  1.
         -5    1    3    3    0  502 -0.73734540571E+01  0.42955550285E+02  0.28273596951E+02  0.52119246057E+02  0.41800000000E+01 0.  1.
        -11    1    1    2    0    0  0.33176042851E+01 -0.25586004563E+02  0.14606654340E+02  0.29648009692E+02  0.00000000000E+00 0. -1.
         11    1    1    2    0    0  0.13995726574E+03  0.35905215632E+02  0.10286649822E+03  0.17736611063E+03  0.00000000000E+00 0.  1.
</event>
<event>
 7    1  0.2644565E-009  0.2019043E+03  0.7561462E-02  0.1148142E+00
         -4   -1    0    0    0  501 -0.00000000000E+00  0.00000000000E+00  0.24408850666E+02  0.24408850666E+02  0.00000000000E+00 0.  1.
          4   -1    0    0  501    0  0.00000000000E+00 -0.00000000000E+00 -0.20178791184E+04  0.20178791184E+04  0.00000000000E+00 0. -1.
         25    2    1    2    0    0  0.13168579437E+03 -0.13949625721E+03 -0.92360181635E+03  0.95157129233E+03  0.12508898835E+03 0.  0.
          5    1    3    3  502    0  0.23932648169E+02 -0.21927495868E+02 -0.46240967157E+03  0.46356635284E+03  0.41800000000E+01 0.  1.
         -5    1    3    3    0  502  0.10775314620E+03 -0.11756876134E+03 -0.46119214478E+03  0.48800493949E+03  0.41800000000E+01 0.  1.
        -11    1    1    2    0    0 -0.14233563753E+03  0.14151048814E+03 -0.10315469354E+04  0.10508918745E+04  0.00000000000E+00 0. -1.
         11    1    1    2    0    0  0.10649843156E+02 -0.20142309273E+01 -0.38321515904E+02  0.39824802154E+02  0.00000000000E+00 0.  1.
</event>
<event>
 7    1  0.2644565E-009  0.4853869E+02  0.7561462E-02  0.1453387E+00
         -1   -1    0    0    0  501 -0.00000000000E+00  0.00000000000E+00  0.32279608852E+02  0.32279608852E+02  0.00000000000E+00 0.  1.
          1   -1    0    0  501    0  0.00000000000E+00 -0.00000000000E+00 -0.48465833813E+03  0.48465833813E+03  0.00000000000E+00 0. -1.
         25    2    1    2    0    0  0.41505898807E+02  0.99689180798E+01 -0.34975090307E+03  0.37390978279E+03  0.12514276849E+03 0.  0.
          5    1    3    3  502    0  0.65483104322E+01  0.16522107441E+02 -0.33448085184E+03  0.33497876508E+03  0.41800000000E+01 0.  1.
         -5    1    3    3    0  502  0.34957588374E+02 -0.65531893617E+01 -0.15270051227E+02  0.38931017714E+02  0.41800000000E+01 0.  1.
        -11    1    1    2    0    0 -0.25379835519E+02 -0.34435230003E+01 -0.11742751827E+03  0.12018825213E+03  0.00000000000E+00 0. -1.
         11    1    1    2    0    0 -0.16126063288E+02 -0.65253950795E+01  0.14799692061E+02  0.22839912066E+02  0.00000000000E+00 0.  1.
</event>
<event>
 7    1  0.2644565E-009  0.1250032E+03  0.7561462E-02  0.1235064E+00
          1   -1    0    0  501    0  0.00000000000E+00  0.00000000000E+00  0.45339744835E+03  0.45339744835E+03  0.00000000000E+00 0. -1.
         -1   -1    0    0    0  501 -0.00000000000E+00 -0.00000000000E+00 -0.55606811219E+02  0.55606811219E+02  0.00000000000E+00 0.  1.
         25    2    1    2    0    0  0.91904931202E+02  0.52524047264E+02  0.13845242048E+03  0.21452732603E+03  0.12509040314E+03 0.  0.
          5    1    3    3  502    0 -0.53901449011E+01 -0.20820480904E+02  0.72869605131E+02  0.76092035319E+02  0.41800000000E+01 0.  1.
         -5    1    3    3    0  502  0.97295076103E+02  0.73344528168E+02  0.65582815345E+02  0.13843529071E+03  0.41800000000E+01 0.  1.
        -11    1    1    2    0    0 -0.81153437192E+02 -0.49313465159E+02  0.26529120193E+03  0.28177494572E+03  0.00000000000E+00 0. -1.
         11    1    1    2    0    0 -0.10751494010E+02 -0.32105821057E+01 -0.59529852717E+01  0.12701987819E+02  0.00000000000E+00 0.  1.
</event>
<event>
 7    1  0.2644565E-009  0.1096359E+03  0.7561462E-02  0.1261246E+00
         -2   -1    0    0    0  501 -0.00000000000E+00  0.00000000000E+00  0.22762141402E+02  0.22762141402E+02  0.00000000000E+00 0.  1.
          2   -1    0    0  501    0  0.00000000000E+00 -0.00000000000E+00 -0.74859170045E+03  0.74859170045E+03  0.00000000000E+00 0. -1.
         25    2    1    2    0    0  0.29786969163E+02  0.32217756314E+02 -0.57047838225E+03  0.58567671865E+03  0.12508551795E+03 0.  0.
          5    1    3    3  502    0 -0.47431367862E+02  0.21126897038E+02 -0.17646165146E+03  0.18398985643E+03  0.41800000000E+01 0.  1.
         -5    1    3    3    0  502  0.77218337025E+02  0.11090859276E+02 -0.39401673079E+03  0.40168686222E+03  0.41800000000E+01 0.  1.
        -11    1    1    2    0    0 -0.42140784332E+02 -0.51260289317E+02 -0.66396382521E+02  0.93871947764E+02  0.00000000000E+00 0.  1.
         11    1    1    2    0    0  0.12353815170E+02  0.19042533003E+02 -0.88954794273E+02  0.91805175435E+02  0.00000000000E+00 0. -1.
</event>
<event>
 7    1  0.2644565E-009  0.1539345E+03  0.7561462E-02  0.1195720E+00
          1   -1    0    0  501    0  0.00000000000E+00  0.00000000000E+00  0.10961665452E+03  0.10961665452E+03  0.00000000000E+00 0. -1.
         -1   -1    0    0    0  501 -0.00000000000E+00 -0.00000000000E+00 -0.35802434428E+03  0.35802434428E+03  0.00000000000E+00 0.  1.
         25    2    1    2    0    0 -0.12325243295E+03 -0.37406202742E+02 -0.25256621944E+03  0.30988275444E+03  0.12508892863E+03 0.  0.
          5    1    3    3  502    0 -0.14054202879E+03 -0.38551595900E+02 -0.25305785422E+03  0.29205142935E+03  0.41800000000E+01 0. -1.
         -5    1    3    3    0  502  0.17289595838E+02  0.11453931582E+01  0.49163478005E+00  0.17831325091E+02  0.41800000000E+01 0. -1.
        -11    1    1    2    0    0  0.63243706325E+02 -0.14526495928E+02  0.33648542913E+02  0.73095895329E+02  0.00000000000E+00 0. -1.
         11    1    1    2    0    0  0.60008726624E+02  0.51932698670E+02 -0.29490013231E+02  0.84662349026E+02  0.00000000000E+00 0.  1.
</event>
<event>
 7    1  0.2644565E-009  0.1768477E+03  0.7561462E-02  0.1170889E+00
          4   -1    0    0  501    0  0.00000000000E+00  0.00000000000E+00  0.32872136759E+03  0.32872136759E+03  0.00000000000E+00 0. -1.
         -4   -1    0    0    0  501 -0.00000000000E+00 -0.00000000000E+00 -0.11152821182E+03  0.11152821182E+03  0.00000000000E+00 0.  1.
         25    2    1    2    0    0  0.71420367103E+02  0.13530538749E+03  0.70559471526E+02  0.20983911424E+03  0.12508156588E+03 0.  0.
          5    1    3    3  502    0  0.12677959946E+02 -0.23980459461E+02  0.55730808418E+01  0.28005798229E+02  0.41800000000E+01 0. -1.
         -5    1    3    3    0  502  0.58742407157E+02  0.15928584696E+03  0.64986390684E+02  0.18183331602E+03  0.41800000000E+01 0. -1.
        -11    1    1    2    0    0 -0.36389916644E+02 -0.36273125425E+02  0.16952043058E+01  0.51408553560E+02  0.00000000000E+00 0.  1.
         11    1    1    2    0    0 -0.35030450459E+02 -0.99032262070E+02  0.14493847994E+03  0.17900191160E+03  0.00000000000E+00 0. -1.
</event>
<event>
 7    1  0.2644565E-009  0.9278452E+02  0.7561462E-02  0.1296245E+00
          4   -1    0    0  501    0  0.00000000000E+00  0.00000000000E+00  0.22329666791E+03  0.22329666791E+03  0.00000000000E+00 0. -1.
         -4   -1    0    0    0  501 -0.00000000000E+00 -0.00000000000E+00 -0.58220689883E+02  0.58220689883E+02  0.00000000000E+00 0.  1.
         25    2    1    2    0    0 -0.21991339919E+02  0.25215198341E+02  0.98764491006E+02  0.16285217448E+03  0.12508789226E+03 0.  0.
          5    1    3    3  502    0 -0.10230326750E+02 -0.45363794682E+02  0.73066140303E+02  0.86710245716E+02  0.41800000000E+01 0. -1.
         -5    1    3    3    0  502 -0.11761013169E+02  0.70578993023E+02  0.25698350703E+02  0.76141928763E+02  0.41800000000E+01 0. -1.
        -11    1    1    2    0    0  0.40635139746E+01  0.19033136986E+02 -0.14865345834E+02  0.24489813313E+02  0.00000000000E+00 0.  1.
         11    1    1    2    0    0  0.17927825944E+02 -0.44248335327E+02  0.81176832860E+02  0.94175370005E+02  0.00000000000E+00 0. -1.
</event>
<event>
 7    1  0.2644565E-009  0.1147991E+03  0.7561462E-02  0.1251932E+00
         -1   -1    0    0    0  501 -0.00000000000E+00  0.00000000000E+00  0.18828233399E+03  0.18828233399E+03  0.00000000000E+00 0.  1.
          1   -1    0    0  501    0  0.00000000000E+00 -0.00000000000E+00 -0.98378384175E+02  0.98378384175E+02  0.00000000000E+00 0. -1.
         25    2    1    2    0    0  0.14528020193E+01  0.81508466013E+02  0.58372103028E+02  0.16030908466E+03  0.12508381009E+03 0.  0.
          5    1    3    3  502    0  0.31615341519E+02  0.15974531750E+02  0.77708929228E+02  0.85503599725E+02  0.41800000000E+01 0.  1.
         -5    1    3    3    0  502 -0.30162539500E+02  0.65533934264E+02 -0.19336826201E+02  0.74805484937E+02  0.41800000000E+01 0.  1.
        -11    1    1    2    0    0 -0.31100869439E+02  0.38202624027E+01  0.14061345397E+02  0.34345013016E+02  0.00000000000E+00 0. -1.
         11    1    1    2    0    0  0.29648067419E+02 -0.85328728416E+02  0.17470501390E+02  0.92006620488E+02  0.00000000000E+00 0.  1.
</event>
<event>
 7    1  0.2644565E-009  0.9759125E+02  0.7561462E-02  0.1285444E+00
         -2   -1    0    0    0  501 -0.00000000000E+00  0.00000000000E+00  0.33873922204E+02  0.33873922204E+02  0.00000000000E+00 0.  1.
          2   -1    0    0  501    0  0.00000000000E+00 -0.00000000000E+00 -0.45162388683E+03  0.45162388683E+03  0.00000000000E+00 0. -1.
         25    2    1    2    0    0 -0.14865618505E+02 -0.11957280039E+02 -0.34499787554E+03  0.36746998972E+03  0.12508675411E+03 0.  0.
          5    1    3    3  502    0  0.57159231453E+01 -0.55492913199E+02 -0.77164494015E+02  0.95309845920E+02  0.41800000000E+01 0.  1.
         -5    1    3    3    0  502 -0.20581541651E+02  0.43535633160E+02 -0.26783338153E+03  0.27216014380E+03  0.41800000000E+01 0.  1.
        -11    1    1    2    0    0  0.17499359112E+02 -0.37496638078E+02 -0.45496024261E+02  0.61498891535E+02  0.00000000000E+00 0.  1.
         11    1    1    2    0    0 -0.26337406063E+01  0.49453918118E+02 -0.27256064825E+02  0.56528927785E+02  0.00000000000E+00 0. -1.
</event>
<event>
 7    1  0.2644565E-009  0.1069497E+03  0.7561462E-02  0.1266325E+00
          1   -1    0    0  501    0  0.00000000000E+00  0.00000000000E+00  0.81072724356E+02  0.81072724356E+02  0.00000000000E+00 0. -1.
         -1   -1    0    0    0  501 -0.00000000000E+00 -0.00000000000E+00 -0.16918931681E+03  0.16918931681E+03  0.00000000000E+00 0.  1.
         25    2    1    2    0    0  0.17543472886E+02 -0.10015141846E+02 -0.92451635587E+02  0.15680466458E+03  0.12502928219E+03 0.  0.
          5    1    3    3  502    0 -0.51749743445E+02 -0.26954140719E+01 -0.18679351470E+02  0.55242119573E+02  0.41800000000E+01 0.  1.
         -5    1    3    3    0  502  0.69293216331E+02 -0.73197277742E+01 -0.73772284117E+02  0.10156254501E+03  0.41800000000E+01 0.  1.
        -11    1    1    2    0    0  0.27118161825E+02 -0.23805678309E+02 -0.57336111006E+01  0.36537368772E+02  0.00000000000E+00 0.  1.
         11    1    1    2    0    0 -0.44661634711E+02  0.33820820155E+02  0.10068654239E+02  0.56920007811E+02  0.00000000000E+00 0. -1.
</event>
<event>
 7    1  0.2644565E-009  0.1951731E+03  0.7561462E-02  0.1153877E+00
          1   -1    0    0  501    0  0.00000000000E+00  0.00000000000E+00  0.22750970770E+03  0.22750970770E+03  0.00000000000E+00 0. -1.
         -1   -1    0    0    0  501 -0.00000000000E+00 -0.00000000000E+00 -0.18680764955E+03  0.18680764955E+03  0.00000000000E+00 0.  1.
         25    2    1    2    0    0 -0.13602273278E+03  0.87781746071E+02  0.86554838578E+02  0.22214167771E+03  0.12508943248E+03 0.  0.
          5    1    3    3  502    0 -0.53674837027E+02  0.10712198688E+03  0.51387632393E+02  0.13043875714E+03  0.41800000000E+01 0.  1.
         -5    1    3    3    0  502 -0.82347895750E+02 -0.19340240807E+02  0.35167206185E+02  0.91702920563E+02  0.41800000000E+01 0.  1.
        -11    1    1    2    0    0  0.32353206210E+02 -0.74532754911E+02 -0.10935781219E+02  0.81984466929E+02  0.00000000000E+00 0.  1.
         11    1    1    2    0    0  0.10366952657E+03 -0.13248991160E+02 -0.34916999210E+02  0.11019121262E+03  0.00000000000E+00 0. -1.
</event>
<event>
 7    1  0.2644565E-009  0.1392599E+03  0.7561462E-02  0.1214328E+00
         -1   -1    0    0    0  501 -0.00000000000E+00  0.00000000000E+00  0.51886847426E+02  0.51886847426E+02  0.00000000000E+00 0.  1.
          1   -1    0    0  501    0  0.00000000000E+00 -0.00000000000E+00 -0.44685107969E+03  0.44685107969E+03  0.00000000000E+00 0. -1.
         25    2    1    2    0    0  0.10718706908E+03 -0.40075393357E+01 -0.20667350791E+03  0.26432104821E+03  0.12508616833E+03 0.  0.
          5    1    3    3  502    0  0.29690229421E+02  0.57932298274E+02 -0.74887674545E+02  0.99314133461E+02  0.41800000000E+01 0. -1.
         -5    1    3    3    0  502  0.77496839656E+02 -0.61939837610E+02 -0.13178583336E+03  0.16500691475E+03  0.41800000000E+01 0. -1.
        -11    1    1    2    0    0 -0.49852802275E+02  0.21144281948E+02 -0.15865114937E+03  0.16763821089E+03  0.00000000000E+00 0. -1.
         11    1    1    2    0    0 -0.57334266802E+02 -0.17136742612E+02 -0.29639574990E+02  0.66778668021E+02  0.00000000000E+00 0.  1.
</event>
<event>
 7    1  0.2644565E-009  0.1057579E+03  0.7561462E-02  0.1268634E+00
          2   -1    0    0  501    0  0.00000000000E+00  0.00000000000E+00  0.14882726489E+03  0.14882726489E+03  0.00000000000E+00 0. -1.
         -2   -1    0    0    0  501 -0.00000000000E+00 -0.00000000000E+00 -0.12353768719E+03  0.12353768719E+03  0.00000000000E+00 0.  1.
         25    2    1    2    0    0 -0.36255153479E+00  0.30218757499E+02  0.89221888588E+02  0.15659016815E+03  0.12508649252E+03 0.  0.
          5    1    3    3  502    0 -0.77127082132E+01 -0.41873360297E+02  0.16058310135E+01  0.42812559650E+02  0.41800000000E+01 0. -1.
         -5    1    3    3    0  502  0.73501566784E+01  0.72092117796E+02  0.87616057574E+02  0.11377760850E+03  0.41800000000E+01 0. -1.
        -11    1    1    2    0    0 -0.41977755085E+02  0.33540499521E+01 -0.33089720954E+02  0.53556616826E+02  0.00000000000E+00 0.  1.
         11    1    1    2    0    0  0.42340306620E+02 -0.33572807451E+02 -0.30842589934E+02  0.62218167111E+02  0.00000000000E+00 0. -1.
</event>
<event>
 7    1  0.2644565E-009  0.1084361E+03  0.7561462E-02  0.1263494E+00
         -1   -1    0    0    0  501 -0.00000000000E+00  0.00000000000E+00  0.48173232244E+02  0.48173232244E+02  0.00000000000E+00 0.  1.
          1   -1    0    0  501    0  0.00000000000E+00 -0.00000000000E+00 -0.43966107600E+03  0.43966107600E+03  0.00000000000E+00 0. -1.
         25    2    1    2    0    0 -0.72942867172E+02 -0.54493770497E+02 -0.26220335370E+03  0.30444700426E+03  0.12508855590E+03 0.  0.
          5    1    3    3  502    0 -0.36522062633E+02 -0.74904367352E+02 -0.24548942029E+03  0.25928180264E+03  0.41800000000E+01 0.  1.
         -5    1    3    3    0  502 -0.36420804539E+02  0.20410596855E+02 -0.16713933410E+02  0.45165201619E+02  0.41800000000E+01 0.  1.
        -11    1    1    2    0    0  0.19785055421E+02  0.19839060526E+02  0.10462270285E+02  0.29908123313E+02  0.00000000000E+00 0.  1.
         11    1    1    2    0    0  0.53157811751E+02  0.34654709971E+02 -0.13974676034E+03  0.15347918067E+03  0.00000000000E+00 0. -1.
</event>
<event>
 7    1  0.2644565E-009  0.1696418E+03  0.7561462E-02  0.1178222E+00
          2   -1    0    0  501    0  0.00000000000E+00  0.00000000000E+00  0.11412477033E+03  0.11412477033E+03  0.00000000000E+00 0. -1.
         -2   -1    0    0    0  501 -0.00000000000E+00 -0.00000000000E+00 -0.32209123595E+03  0.32209123595E+03  0.00000000000E+00 0.  1.
         25    2    1    2    0    0  0.10556652483E+03  0.96626119254E+02 -0.32131507379E+02  0.19277170615E+03  0.12509036270E+03 0.  0.
          5    1    3    3  502    0  0.13162008610E+03  0.61006188104E+02 -0.17990360971E+02  0.14624201701E+03  0.41800000000E+01 0.  1.
         -5    1    3    3    0  502 -0.26053561267E+02  0.35619931149E+02 -0.14141146408E+02  0.46529689141E+02  0.41800000000E+01 0.  1.
        -11    1    1    2    0    0  0.33856939062E+01 -0.10223863651E+02  0.76579143562E+01  0.13214914433E+02  0.00000000000E+00 0.  1.
         11    1    1    2    0    0 -0.10895221874E+03 -0.86402255602E+02 -0.18349287260E+03  0.23022938570E+03  0.00000000000E+00 0. -1.
</event>
<event>
 7    1  0.2644565E-009  0.1417037E+03  0.7561462E-02  0.1211055E+00
         -1   -1    0    0    0  501 -0.00000000000E+00  0.00000000000E+00  0.24223457888E+03  0.24223457888E+03  0.00000000000E+00 0.  1.
          1   -1    0    0  501    0  0.00000000000E+00 -0.00000000000E+00 -0.10294509394E+03  0.10294509394E+03  0.00000000000E+00 0. -1.
         25    2    1    2    0    0 -0.14575729903E+02 -0.10196410746E+03  0.20905156497E+02  0.16338536718E+03  0.12509445043E+03 0.  0.
          5    1    3    3  502    0 -0.50951732430E+02 -0.10486429866E+03 -0.75740492127E+01  0.11690782178E+03  0.41800000000E+01 0. -1.
         -5    1    3    3    0  502  0.36376002526E+02  0.29001912032E+01  0.28479205710E+02  0.46477545403E+02  0.41800000000E+01 0. -1.
        -11    1    1    2    0    0  0.45039876804E+02  0.82111732903E+02  0.11001982598E+03  0.14448283390E+03  0.00000000000E+00 0.  1.
         11    1    1    2    0    0 -0.30464146901E+02  0.19852374558E+02  0.83645024645E+01  0.37311471741E+02  0.00000000000E+00 0. -1.
</event>
<event>
 7    1  0.2644565E-009  0.1226452E+03  0.7561462E-02  0.1238796E+00
         -4   -1    0    0    0  501 -0.00000000000E+00  0.00000000000E+00  0.18704636657E+03  0.18704636657E+03  0.00000000000E+00 0.  1.
          4   -1    0    0  501    0  0.00000000000E+00 -0.00000000000E+00 -0.11642478419E+03  0.11642478419E+03  0.00000000000E+00 0. -1.
         25    2    1    2    0    0  0.88620785602E+02  0.19455893740E+02  0.83205944970E+02  0.17550783551E+03  0.12509034976E+03 0.  0.
          5    1    3    3  502    0  0.88371134309E+02 -0.33043630891E+02  0.26434641162E+02  0.98069371238E+02  0.41800000000E+01 0.  1.
         -5    1    3    3    0  502  0.24965129289E+00  0.52499524631E+02  0.56771303809E+02  0.77438464270E+02  0.41800000000E+01 0.  1.
        -11    1    1    2    0    0 -0.63676046002E+02 -0.30856133768E+02  0.30369412795E+02  0.77000266617E+02  0.00000000000E+00 0.  1.
         11    1    1    2    0    0 -0.24944739601E+02  0.11400240028E+02 -0.42953775389E+02  0.50963048639E+02  0.00000000000E+00 0. -1.
</event>
<event>
 7    1  0.2644565E-009  0.1653680E+03  0.7561462E-02  0.1182766E+00
         -1   -1    0    0    0  501 -0.00000000000E+00  0.00000000000E+00  0.12376236046E+03  0.12376236046E+03  0.00000000000E+00 0.  1.
          1   -1    0    0  501    0  0.00000000000E+00 -0.00000000000E+00 -0.31770123997E+03  0.31770123997E+03  0.00000000000E+00 0. -1.
         25    2    1    2    0    0 -0.13006139069E+03 -0.71056382086E+02 -0.18338407776E+03  0.26691208427E+03  0.12508943189E+03 0.  0.
          5    1    3    3  502    0 -0.12579534681E+03 -0.81732266673E+02 -0.19761843911E+03  0.24814341130E+03  0.41800000000E+01 0.  1.
         -5    1    3    3    0  502 -0.42660438730E+01  0.10675884587E+02  0.14234361350E+02  0.18768672971E+02  0.41800000000E+01 0.  1.
        -11    1    1    2    0    0 -0.11293342731E+02  0.40552795860E+01 -0.13541643961E+02  0.18093120342E+02  0.00000000000E+00 0. -1.
         11    1    1    2    0    0  0.14135473342E+03  0.67001102500E+02  0.29868422025E+01  0.15645839582E+03  0.00000000000E+00 0.  1.
</event>
<event>
 7    1  0.2644565E-009  0.2282018E+03  0.7561462E-02  0.1127912E+00
         -3   -1    0    0    0  501 -0.00000000000E+00  0.00000000000E+00  0.61912902162E+03  0.61912902162E+03  0.00000000000E+00 0.  1.
          3   -1    0    0  501    0  0.00000000000E+00 -0.00000000000E+00 -0.10288232058E+03  0.10288232058E+03  0.00000000000E+00 0. -1.
         25    2    1    2    0    0  0.60630484677E+02 -0.20506228748E+03  0.15549193997E+03  0.29249225472E+03  0.12508948100E+03 0.  0.
          5    1    3    3  502    0 -0.18665092828E+02 -0.10546736277E+03  0.11864811107E+03  0.15989558143E+03  0.41800000000E+01 0.  1.
         -5    1    3    3    0  502  0.79295577505E+02 -0.99594924708E+02  0.36843828894E+02  0.13259667329E+03  0.41800000000E+01 0.  1.
        -11    1    1    2    0    0 -0.50927025644E+02  0.70720486083E+02  0.80776231992E+02  0.11882654900E+03  0.00000000000E+00 0. -1.
         11    1    1    2    0    0 -0.97034590327E+01  0.13434180140E+03  0.27997852908E+03  0.31069253848E+03  0.00000000000E+00 0.  1.
</event>
<event>
 7    1  0.2644565E-009  0.1324592E+03  0.7561462E-02  0.1223852E+00
         -1   -1    0    0    0  501 -0.00000000000E+00  0.00000000000E+00  0.14915614633E+02  0.14915614633E+02  0.00000000000E+00 0.  1.
          1   -1    0    0  501    0  0.00000000000E+00 -0.00000000000E+00 -0.12316073807E+04  0.12316073807E+04  0.00000000000E+00 0. -1.
         25    2    1    2    0    0  0.44974319381E+02  0.84747338574E+02 -0.75880759861E+03  0.77501066262E+03  0.12509098556E+03 0.  0.
          5    1    3    3  502    0  0.79070921523E+02  0.24240669260E+02 -0.31126913852E+03  0.32209590135E+03  0.41800000000E+01 0. -1.
         -5    1    3    3    0  502 -0.34096602142E+02  0.60506669315E+02 -0.44753846009E+03  0.45291476127E+03  0.41800000000E+01 0. -1.
        -11    1    1    2    0    0 -0.50833961035E+02 -0.33341099319E+02 -0.25073475209E+03  0.25799929535E+03  0.00000000000E+00 0. -1.
         11    1    1    2    0    0  0.58596416539E+01 -0.51406239255E+02 -0.20714941537E+03  0.21351303736E+03  0.00000000000E+00 0.  1.
</event>
<event>
 7    1  0.2644565E-009  0.9030382E+02  0.7561462E-02  0.1302118E+00
          3   -1    0    0  501    0  0.00000000000E+00  0.00000000000E+00  0.16101312371E+03  0.16101312371E+03  0.00000000000E+00 0. -1.
         -3   -1    0    0    0  501 -0.00000000000E+00 -0.00000000000E+00 -0.93442949013E+02  0.93442949013E+02  0.00000000000E+00 0.  1.
         25    2    1    2    0    0  0.64348062330E+02 -0.29730176022E+02  0.20520485151E+02  0.14519524780E+03  0.12504404496E+03 0.  0.
          5    1    3    3  502    0  0.31715611053E+02 -0.39491469742E+02 -0.47146911850E+02  0.69323588077E+02  0.41800000000E+01 0. -1.
         -5    1    3    3    0  502  0.32632451277E+02  0.97612937205E+01  0.67667397001E+02  0.75871659718E+02  0.41800000000E+01 0. -1.
        -11    1    1    2    0    0 -0.36342141129E+02 -0.17672171471E+02  0.66109814618E+01  0.40948283752E+02  0.00000000000E+00 0.  1.
         11    1    1    2    0    0 -0.28005921201E+02  0.47402347493E+02  0.40438708081E+02  0.68312541172E+02  0.00000000000E+00 0. -1.
</event>
<event>
 7    1  0.2644565E-009  0.1092156E+03  0.7561462E-02  0.1262029E+00
         -2   -1    0    0    0  501 -0.00000000000E+00  0.00000000000E+00  0.58084893701E+03  0.58084893701E+03  0.00000000000E+00 0. -1.
          2   -1    0    0  501    0  0.00000000000E+00 -0.00000000000E+00 -0.23257042636E+02  0.23257042636E+02  0.00000000000E+00 0.  1.
         25    2    1    2    0    0 -0.21421856376E+02 -0.26308005961E+01  0.23829516658E+03  0.26999558864E+03  0.12508882615E+03 0.  0.
          5    1    3    3  502    0  0.49397274577E+02 -0.18629445389E+02  0.11947983121E+03  0.13069066316E+03  0.41800000000E+01 0.  1.
         -5    1    3    3    0  502 -0.70819130953E+02  0.15998644793E+02  0.11881533538E+03  0.13930492549E+03  0.41800000000E+01 0.  1.
        -11    1    1    2    0    0  0.34364821864E+02  0.40273811439E+02  0.12451777721E+03  0.13530557162E+03  0.00000000000E+00 0.  1.
         11    1    1    2    0    0 -0.12942965488E+02 -0.37643010843E+02  0.19477895059E+03  0.19880481939E+03  0.00000000000E+00 0. -1.
</event>
<event>
 7    1  0.2644565E-009  0.1710687E+03  0.7561462E-02  0.1176738E+00
         -2   -1    0    0    0  501 -0.00000000000E+00  0.00000000000E+00  0.25510186933E+02  0.25510186933E+02  0.00000000000E+00 0.  1.
          2   -1    0    0  501    0  0.00000000000E+00 -0.00000000000E+00 -0.15025388163E+04  0.15025388163E+04  0.00000000000E+00 0. -1.
         25    2    1    2    0    0 -0.15429476325E+03  0.29061340742E+02 -0.94408572482E+03  0.96519250674E+03  0.12508910327E+03 0.  0.
          5    1    3    3  502    0 -0.14693908778E+03  0.46725015678E+02 -0.56722184372E+03  0.58782005325E+03  0.41800000000E+01 0. -1.
         -5    1    3    3    0  502 -0.73556754728E+01 -0.17663674936E+02 -0.37686388110E+03  0.37737245348E+03  0.41800000000E+01 0. -1.
        -11    1    1    2    0    0  0.95016370038E+02  0.12605648403E+02 -0.19562576181E+03  0.21784501746E+03  0.00000000000E+00 0.  1.
         11    1    1    2    0    0  0.59278393211E+02 -0.41666989145E+02 -0.33731714275E+03  0.34501147905E+03  0.00000000000E+00 0. -1.
</event>
<event>
 7    1  0.2644565E-009  0.1712219E+03  0.7561462E-02  0.1176580E+00
         -2   -1    0    0    0  501 -0.00000000000E+00  0.00000000000E+00  0.76553474054E+02  0.76553474054E+02  0.00000000000E+00 0.  1.
          2   -1    0    0  501    0  0.00000000000E+00 -0.00000000000E+00 -0.52912541756E+03  0.52912541756E+03  0.00000000000E+00 0. -1.
         25    2    1    2    0    0 -0.15353687691E+02  0.15665426851E+03 -0.14472617497E+03  0.24772865034E+03  0.12509005921E+03 0.  0.
          5    1    3    3  502    0 -0.37202076392E+02  0.14333265802E+03 -0.61224463745E+02  0.16029395716E+03  0.41800000000E+01 0. -1.
         -5    1    3    3    0  502  0.21848388701E+02  0.13321610491E+02 -0.83501711221E+02  0.87434693181E+02  0.41800000000E+01 0. -1.
        -11    1    1    2    0    0 -0.21895749167E+02 -0.82960914375E+02 -0.22577591480E+03  0.24152991709E+03  0.00000000000E+00 0.  1.
         11    1    1    2    0    0  0.37249436858E+02 -0.73693354132E+02 -0.82069853737E+02  0.11642032418E+03  0.00000000000E+00 0. -1.
</event>
<event>
 7    1  0.2720030E-009  0.2307412E+03  0.7561462E-02  0.1126119E+00
          1   -1    0    0  501    0  0.00000000000E+00  0.00000000000E+00  0.10934034809E+04  0.10934034809E+04  0.00000000000E+00 0. -1.
         -1   -1    0    0    0  501 -0.00000000000E+00 -0.00000000000E+00 -0.53196215821E+02  0.53196215821E+02  0.00000000000E+00 0.  1.
         25    2    1    2    0    0 -0.21072044313E+03  0.42576584306E+02  0.51479397228E+03  0.57173081915E+03  0.12508966782E+03 0.  0.
          5    1    3    3  502    0 -0.11419093495E+03  0.82190116069E+02  0.34201532457E+03  0.36984691353E+03  0.41800000000E+01 0. -1.
         -5    1    3    3    0  502 -0.96529508179E+02 -0.39613531764E+02  0.17277864771E+03  0.20188390563E+03  0.41800000000E+01 0. -1.
        -11    1    1    2    0    0  0.10758254404E+03 -0.95560841778E+01  0.37002980518E+03  0.38547033511E+03  0.00000000000E+00 0. -1.
         11    1    1    2    0    0  0.10313789908E+03 -0.33020500128E+02  0.15538348758E+03  0.18939854241E+03  0.00000000000E+00 0.  1.
</event>
<event>
 7    1  0.2644565E-009  0.1054627E+03  0.7561462E-02  0.1269211E+00
          1   -1    0    0  501    0  0.00000000000E+00  0.00000000000E+00  0.24568468639E+03  0.24568468639E+03  0.00000000000E+00 0.  1.
         -1   -1    0    0    0  501 -0.00000000000E+00 -0.00000000000E+00 -0.56064176979E+02  0.56064176979E+02  0.00000000000E+00 0. -1.
         25    2    1    2    0    0  0.12174724177E+02  0.35480614160E+02  0.68597533539E+02  0.14752113970E+03  0.12509902941E+03 0.  0.
          5    1    3    3  502    0 -0.63250856333E-01  0.74357274238E+02  0.75411063241E+02  0.10598730628E+03  0.41800000000E+01 0.  1.
         -5    1    3    3    0  502  0.12237975033E+02 -0.38876660078E+02 -0.68135297022E+01  0.41533833422E+02  0.41800000000E+01 0.  1.
        -11    1    1    2    0    0 -0.46612588149E+02 -0.39115769104E+02  0.80829004042E+02  0.10117363620E+03  0.00000000000E+00 0. -1.
         11    1    1    2    0    0  0.34437863972E+02  0.36351549444E+01  0.40193971834E+02  0.53054087479E+02  0.00000000000E+00 0.  1.
</event>
<event>
 7    1  0.2644565E-009  0.9811718E+02  0.7561462E-02  0.1284306E+00
         -2   -1    0    0    0  501 -0.00000000000E+00  0.00000000000E+00  0.10745825783E+02  0.10745825783E+02  0.00000000000E+00 0.  1.
          2   -1    0    0  501    0  0.00000000000E+00 -0.00000000000E+00 -0.17091498770E+04  0.17091498770E+04  0.00000000000E+00 0. -1.
         25    2    1    2    0    0 -0.15643608126E+02  0.38758370179E+02 -0.13837939311E+04  0.13900658008E+04  0.12510137050E+03 0.  0.
          5    1    3    3  502    0  0.33571935229E+02  0.40389861331E+02 -0.11450058738E+04  0.11462174049E+04  0.41800000000E+01 0.  1.
         -5    1    3    3    0  502 -0.49215543356E+02 -0.16314911517E+01 -0.23878805732E+03  0.24384839591E+03  0.41800000000E+01 0.  1.
        -11    1    1    2    0    0 -0.34887236324E+02 -0.20094487619E+02 -0.85974883907E+02  0.94934653072E+02  0.00000000000E+00 0. -1.
         11    1    1    2    0    0  0.50530844451E+02 -0.18663882560E+02 -0.22863523621E+03  0.23489524898E+03  0.00000000000E+00 0.  1.
</event>
<event>
 7    1  0.2644565E-009  0.1058731E+03  0.7561462E-02  0.1268409E+00
         -1   -1    0    0    0  501 -0.00000000000E+00  0.00000000000E+00  0.20985316564E+03  0.20985316564E+03  0.00000000000E+00 0.  1.
          1   -1    0    0  501    0  0.00000000000E+00 -0.00000000000E+00 -0.57587484946E+02  0.57587484946E+02  0.00000000000E+00 0. -1.
         25    2    1    2    0    0  0.75325965828E+01 -0.12993895414E+02  0.98330672398E+02  0.15981859688E+03  0.12508989346E+03 0.  0.
          5    1    3    3  502    0  0.66262985583E+02 -0.85301931345E+01  0.52282904592E+02  0.84938342142E+02  0.41800000000E+01 0. -1.
         -5    1    3    3    0  502 -0.58730389000E+02 -0.44637022799E+01  0.46047767806E+02  0.74880254741E+02  0.41800000000E+01 0. -1.
        -11    1    1    2    0    0  0.35047064062E+02  0.23125876243E+02  0.55116677683E+01  0.42349513964E+02  0.00000000000E+00 0. -1.
         11    1    1    2    0    0 -0.42579660645E+02 -0.10131980829E+02  0.48423340526E+02  0.65272539738E+02  0.00000000000E+00 0.  1.
</event>
<event>
 7    1  0.2644565E-009  0.1341455E+03  0.7561462E-02  0.1221431E+00
         -1   -1    0    0    0  501 -0.00000000000E+00  0.00000000000E+00  0.44635162588E+02  0.44635162588E+02  0.00000000000E+00 0.  1.
          1   -1    0    0  501    0  0.00000000000E+00 -0.00000000000E+00 -0.55014648612E+03  0.55014648612E+03  0.00000000000E+00 0. -1.
         25    2    1    2    0    0 -0.91138673452E+02  0.24623246506E+02 -0.39019713233E+03  0.42050109851E+03  0.12511918202E+03 0.  0.
          5    1    3    3  502    0 -0.36176400343E+02 -0.41074421823E+02 -0.69656881393E+02  0.88687054271E+02  0.41800000000E+01 0.  1.
         -5    1    3    3    0  502 -0.54962273109E+02  0.65697668329E+02 -0.32054025093E+03  0.33181404424E+03  0.41800000000E+01 0.  1.
        -11    1    1    2    0    0  0.10602219361E+03 -0.32378414173E+02 -0.85234120603E+02  0.13983534087E+03  0.00000000000E+00 0.  1.
         11    1    1    2    0    0 -0.14883520155E+02  0.77551676676E+01 -0.30080070599E+02  0.34445209318E+02  0.00000000000E+00 0. -1.
</event>
<event>
 7    1  0.2644565E-009  0.1862623E+03  0.7561462E-02  0.1161876E+00
         -2   -1    0    0    0  501 -0.00000000000E+00  0.00000000000E+00  0.46990740862E+02  0.46990740862E+02  0.00000000000E+00 0. -1.
          2   -1    0    0  501    0  0.00000000000E+00 -0.00000000000E+00 -0.85672389145E+03  0.85672389145E+03  0.00000000000E+00 0.  1.
         25    2    1    2    0    0  0.15300898345E+03  0.59837547438E+02 -0.52156493949E+03  0.56095151371E+03  0.12507731020E+03 0.  0.
          5    1    3    3  502    0  0.16623207237E+02  0.59128715960E+02 -0.24418302859E+03  0.25182406541E+03  0.41800000000E+01 0. -1.
         -5    1    3    3    0  502  0.13638577621E+03  0.70883147830E+00 -0.27738191090E+03  0.30912744830E+03  0.41800000000E+01 0. -1.
        -11    1    1    2    0    0 -0.48131782905E+02 -0.49631451308E+02 -0.17485394089E+03  0.18802619533E+03  0.00000000000E+00 0.  1.
         11    1    1    2    0    0 -0.10487720054E+03 -0.10206096130E+02 -0.11331427020E+03  0.15473692327E+03  0.00000000000E+00 0. -1.
</event>
<event>
 7    1  0.2644565E-009  0.1081571E+03  0.7561462E-02  0.1264021E+00
         -1   -1    0    0    0  501 -0.00000000000E+00  0.00000000000E+00  0.12084677044E+03  0.12084677044E+03  0.00000000000E+00 0.  1.
          1   -1    0    0  501    0  0.00000000000E+00 -0.00000000000E+00 -0.45051845326E+03  0.45051845326E+03  0.00000000000E+00 0. -1.
         25    2    1    2    0    0 -0.83949768651E+02 -0.34067017055E+02  0.56690721008E+02  0.16450894081E+03  0.12506489696E+03 0.  0.
          5    1    3    3  502    0 -0.17630777918E+02 -0.20032464146E+02 -0.38832195775E+02  0.47302809414E+02  0.41800000000E+01 0.  1.
         -5    1    3    3    0  502 -0.66318990733E+02 -0.14034552908E+02  0.95522916783E+02  0.11720613140E+03  0.41800000000E+01 0.  1.
        -11    1    1    2    0    0  0.85480682735E+02 -0.17873095113E+01 -0.32207757902E+03  0.33323281427E+03  0.00000000000E+00 0. -1.
         11    1    1    2    0    0 -0.15309140844E+01  0.35854326566E+02 -0.64284824801E+02  0.73623468616E+02  0.00000000000E+00 0.  1.
</event>
<event>
 7    1  0.2644565E-009  0.1055674E+03  0.7561462E-02  0.1269006E+00
          1   -1    0    0  501    0  0.00000000000E+00  0.00000000000E+00  0.18320975161E+03  0.18320975161E+03  0.00000000000E+00 0. -1.
         -1   -1    0    0    0  501 -0.00000000000E+00 -0.00000000000E+00 -0.70482627152E+02  0.70482627152E+02  0.00000000000E+00 0.  1.
         25    2    1    2    0    0 -0.29966023809E+02 -0.14767236729E+01  0.81590899701E+02  0.15232983462E+03  0.12508860982E+03 0.  0.
          5    1    3    3  502    0 -0.74801261462E+02 -0.20874095990E+02  0.62274713807E+02  0.99632168397E+02  0.41800000000E+01 0. -1.
         -5    1    3    3    0  502  0.44835237653E+02  0.19397372317E+02  0.19316185894E+02  0.52697666226E+02  0.41800000000E+01 0. -1.
        -11    1    1    2    0    0  0.45428133284E+02  0.28192744299E+02  0.42675206855E+02  0.68408474657E+02  0.00000000000E+00 0. -1.
         11    1    1    2    0    0 -0.15462109475E+02 -0.26716020626E+02 -0.11538982099E+02  0.32954069482E+02  0.00000000000E+00 0.  1.
</event>
<event>
 7    1  0.2644565E-009  0.1090287E+03  0.7561462E-02  0.1262379E+00
         -2   -1    0    0    0  501 -0.00000000000E+00  0.00000000000E+00  0.78535257520E+02  0.78535257520E+02  0.00000000000E+00 0.  1.
          2   -1    0    0  501    0  0.00000000000E+00 -0.00000000000E+00 -0.21417675216E+03  0.21417675216E+03  0.00000000000E+00 0. -1.
         25    2    1    2    0    0 -0.70940180625E+02 -0.11453733127E+02 -0.85608870482E+02  0.16775546583E+03  0.12509724369E+03 0.  0.
          5    1    3    3  502    0  0.15361171727E+02  0.43202085568E+01  0.22857252606E+02  0.28187873199E+02  0.41800000000E+01 0.  1.
         -5    1    3    3    0  502 -0.86301352353E+02 -0.15773941684E+02 -0.10846612309E+03  0.13956759263E+03  0.41800000000E+01 0.  1.
        -11    1    1    2    0    0  0.71170310094E+02  0.42360989819E+02 -0.42735771947E+02  0.93198780578E+02  0.00000000000E+00 0. -1.
         11    1    1    2    0    0 -0.23012946854E+00 -0.30907256692E+02 -0.72968522072E+01  0.31757763270E+02  0.00000000000E+00 0.  1.
</event>
<event>
 7    1  0.2644565E-009  0.6458040E+02  0.7561462E-02  0.1379557E+00
         -1   -1    0    0    0  501 -0.00000000000E+00  0.00000000000E+00  0.26389347477E+03  0.26389347477E+03  0.00000000000E+00 0.  1.
          1   -1    0    0  501    0  0.00000000000E+00 -0.00000000000E+00 -0.57169707040E+02  0.57169707040E+02  0.00000000000E+00 0. -1.
         25    2    1    2    0    0  0.67773770559E+01  0.44171509669E+02  0.66867660027E+02  0.14871511210E+03  0.12509134863E+03 0.  0.
          5    1    3    3  502    0  0.21915746986E+02  0.19315836321E+02  0.10009072170E+03  0.10435049817E+03  0.41800000000E+01 0. -1.
         -5    1    3    3    0  502 -0.15138369930E+02  0.24855673348E+02 -0.33223061672E+02  0.44364613923E+02  0.41800000000E+01 0. -1.
        -11    1    1    2    0    0 -0.27106158958E+02 -0.71825979817E+01  0.19293997013E+01  0.28107937498E+02  0.00000000000E+00 0. -1.
         11    1    1    2    0    0  0.20328781902E+02 -0.36988911687E+02  0.13792670800E+03  0.14424013221E+03  0.00000000000E+00 0.  1.
</event>
<event>
 7    1  0.2644565E-009  0.1165997E+03  0.7561462E-02  0.1248814E+00
         -2   -1    0    0    0  501 -0.00000000000E+00  0.00000000000E+00  0.25283576694E+03  0.25283576694E+03  0.00000000000E+00 0.  1.
          2   -1    0    0  501    0  0.00000000000E+00 -0.00000000000E+00 -0.67467463266E+02  0.67467463266E+02  0.00000000000E+00 0. -1.
         25    2    1    2    0    0  0.10916173354E+02  0.66490048028E+02  0.74215358057E+02  0.16029151553E+03  0.12508141849E+03 0.  0.
          5    1    3    3  502    0 -0.52676873763E+02  0.27025310892E+02  0.59225810602E+02  0.83847417967E+02  0.41800000000E+01 0. -1.
         -5    1    3    3    0  502  0.63593047116E+02  0.39464737136E+02  0.14989547455E+02  0.76444097559E+02  0.41800000000E+01 0. -1.
        -11    1    1    2    0    0 -0.28954120944E+02  0.10566831543E+01  0.76861664915E+02  0.82141178665E+02  0.00000000000E+00 0.  1.
         11    1    1    2    0    0  0.18037947591E+02 -0.67546731182E+02  0.34291280697E+02  0.77870536010E+02  0.00000000000E+00 0. -1.
</event>
<event>
 7    1  0.2644565E-009  0.1186747E+03  0.7561462E-02  0.1245299E+00
          1   -1    0    0  501    0  0.00000000000E+00  0.00000000000E+00  0.23167981906E+03  0.23167981906E+03  0.00000000000E+00 0. -1.
         -1   -1    0    0    0  501 -0.00000000000E+00 -0.00000000000E+00 -0.11303984725E+03  0.11303984725E+03  0.00000000000E+00 0.  1.
         25    2    1    2    0    0 -0.44914244571E+02 -0.39194648914E+01 -0.53237207758E+02  0.14322707396E+03  0.12508854006E+03 0.  0.
          5    1    3    3  502    0  0.43607363422E+02  0.38875296080E+00 -0.23081948749E+02  0.49517694126E+02  0.41800000000E+01 0.  1.
         -5    1    3    3    0  502 -0.88521607994E+02 -0.43082178522E+01 -0.30155259009E+02  0.93709379833E+02  0.41800000000E+01 0.  1.
        -11    1    1    2    0    0  0.46411706126E+02  0.44446179219E+02  0.11312604252E+03  0.13010384625E+03  0.00000000000E+00 0. -1.
         11    1    1    2    0    0 -0.14974615550E+01 -0.40526714328E+02  0.58751137043E+02  0.71388746096E+02  0.00000000000E+00 0.  1.
</event>
<event>
 7    1  0.2644565E-009  0.2727605E+03  0.7561462E-02  0.1099710E+00
         -2   -1    0    0    0  501 -0.00000000000E+00  0.00000000000E+00  0.22252649622E+03  0.22252649622E+03  0.00000000000E+00 0.  1.
          2   -1    0    0  501    0  0.00000000000E+00 -0.00000000000E+00 -0.40117827616E+03  0.40117827616E+03  0.00000000000E+00 0. -1.
         25    2    1    2    0    0  0.20688091933E+03 -0.17253909948E+03 -0.18543831404E+02  0.29759082478E+03  0.12508784784E+03 0.  0.
          5    1    3    3  502    0  0.17666260228E+03 -0.12214215977E+03 -0.62914821570E+02  0.22383951709E+03  0.41800000000E+01 0. -1.
         -5    1    3    3    0  502  0.30218317044E+02 -0.50396939713E+02  0.44370990166E+02  0.73751307688E+02  0.41800000000E+01 0. -1.
        -11    1    1    2    0    0 -0.13789105701E+02  0.25868259275E+02 -0.53979263083E+02  0.61425297043E+02  0.00000000000E+00 0. -1.
         11    1    1    2    0    0 -0.19309181363E+03  0.14667084021E+03 -0.10612868546E+03  0.26468865056E+03  0.00000000000E+00 0.  1.
</event>
<event>
 7    1  0.2644565E-009  0.1993948E+03  0.7561462E-02  0.1150251E+00
          2   -1    0    0  501    0  0.00000000000E+00  0.00000000000E+00  0.87950094029E+03  0.87950094029E+03  0.00000000000E+00 0. -1.
         -2   -1    0    0    0  501 -0.00000000000E+00 -0.00000000000E+00 -0.48115309712E+02  0.48115309712E+02  0.00000000000E+00 0.  1.
         25    2    1    2    0    0 -0.48011437510E+02 -0.16734615030E+03  0.44677029282E+03  0.49554077887E+03  0.12508851597E+03 0.  0.
          5    1    3    3  502    0 -0.75662122354E+02 -0.44039560171E+02  0.17029302676E+03  0.19152395929E+03  0.41800000000E+01 0.  1.
         -5    1    3    3    0  502  0.27650684845E+02 -0.12330659013E+03  0.27647726606E+03  0.30401681958E+03  0.41800000000E+01 0.  1.
        -11    1    1    2    0    0  0.35222323872E+02  0.28598910086E+02  0.40485504848E+02  0.60807777955E+02  0.00000000000E+00 0.  1.
         11    1    1    2    0    0  0.12789113638E+02  0.13874724022E+03  0.34412983291E+03  0.37126769317E+03  0.00000000000E+00 0. -1.
</event>
<event>
 7    1  0.2644565E-009  0.8282515E+02  0.7561462E-02  0.1321220E+00
          2   -1    0    0  501    0  0.00000000000E+00  0.00000000000E+00  0.50118166375E+03  0.50118166375E+03  0.00000000000E+00 0. -1.
         -2   -1    0    0    0  501 -0.00000000000E+00 -0.00000000000E+00 -0.27699691294E+02  0.27699691294E+02  0.00000000000E+00 0.  1.
         25    2    1    2    0    0 -0.39556119016E+02  0.21517292563E+02  0.22813165999E+03  0.26404408801E+03  0.12509015026E+03 0.  0.
          5    1    3    3  502    0  0.13701093002E+02  0.10684028828E+02  0.20340677099E+03  0.20419024293E+03  0.41800000000E+01 0.  1.
         -5    1    3    3    0  502 -0.53257212018E+02  0.10833263735E+02  0.24724888994E+02  0.59853845080E+02  0.41800000000E+01 0.  1.
        -11    1    1    2    0    0  0.27861857200E+02  0.29707811829E+02  0.62598231663E+02  0.74681830305E+02  0.00000000000E+00 0.  1.
         11    1    1    2    0    0  0.11694261816E+02 -0.51225104392E+02  0.18275208081E+03  0.19015543674E+03  0.00000000000E+00 0. -1.
</event>
<event>
 7    1  0.2644565E-009  0.1050541E+03  0.7561462E-02  0.1270013E+00
         -2   -1    0    0    0  501 -0.00000000000E+00  0.00000000000E+00  0.33333930707E+02  0.33333930707E+02  0.00000000000E+00 0.  1.
          2   -1    0    0  501    0  0.00000000000E+00 -0.00000000000E+00 -0.49842524940E+03  0.49842524940E+03  0.00000000000E+00 0. -1.
         25    2    1    2    0    0 -0.49530353424E+01 -0.69702935163E+02 -0.23886613759E+03  0.27854454781E+03  0.12508797584E+03 0.  0.
          5    1    3    3  502    0 -0.76424254362E+01 -0.83985741484E+02 -0.71918274360E+02  0.11091312829E+03  0.41800000000E+01 0. -1.
         -5    1    3    3    0  502  0.26893900938E+01  0.14282806321E+02 -0.16694786323E+03  0.16763141952E+03  0.41800000000E+01 0. -1.
        -11    1    1    2    0    0 -0.40015580703E+02  0.40475445714E+02 -0.86460115453E+02  0.10351260778E+03  0.00000000000E+00 0.  1.
         11    1    1    2    0    0  0.44968616045E+02  0.29227489449E+02 -0.13976506565E+03  0.14970202452E+03  0.00000000000E+00 0. -1.
</event>
<event>
 7    1  0.2644565E-009  0.1012669E+03  0.7561462E-02  0.1277654E+00
          2   -1    0    0  501    0  0.00000000000E+00  0.00000000000E+00  0.50834672141E+03  0.50834672141E+03  0.00000000000E+00 0. -1.
         -2   -1    0    0    0  501 -0.00000000000E+00 -0.00000000000E+00 -0.22147369223E+02  0.22147369223E+02  0.00000000000E+00 0.  1.
         25    2    1    2    0    0  0.18890900900E+02  0.44013602967E+02  0.26464562336E+03  0.29661312003E+03  0.12509186075E+03 0.  0.
          5    1    3    3  502    0  0.69772156459E+02  0.32452362741E+02  0.11829047147E+03  0.14117867298E+03  0.41800000000E+01 0.  1.
         -5    1    3    3    0  502 -0.50881255559E+02  0.11561240226E+02  0.14635515190E+03  0.15543444705E+03  0.41800000000E+01 0.  1.
        -11    1    1    2    0    0 -0.15215024824E+02 -0.57327871240E+02  0.19668847325E+03  0.20543694242E+03  0.00000000000E+00 0. -1.
         11    1    1    2    0    0 -0.36758760760E+01  0.13314268273E+02  0.24865255577E+02  0.28444028187E+02  0.00000000000E+00 0.  1.
</event>
<event>
 7    1  0.2644565E-009  0.9377270E+02  0.7561462E-02  0.1293964E+00
          1   -1    0    0  501    0  0.00000000000E+00  0.00000000000E+00  0.48613902348E+03  0.48613902348E+03  0.00000000000E+00 0. -1.
         -1   -1    0    0    0  501 -0.00000000000E+00 -0.00000000000E+00 -0.26602051594E+02  0.26602051594E+02  0.00000000000E+00 0.  1.
         25    2    1    2    0    0  0.23748719343E+02  0.45280196770E+02  0.22315144247E+03  0.26087683935E+03  0.12508341674E+03 0.  0.
          5    1    3    3  502    0  0.57179646629E+01  0.77143825706E+02  0.73614035311E+02  0.10686610108E+03  0.41800000000E+01 0. -1.
         -5    1    3    3    0  502  0.18030754680E+02 -0.31863628936E+02  0.14953740716E+03  0.15401073828E+03  0.41800000000E+01 0. -1.
        -11    1    1    2    0    0  0.15867962490E+02 -0.47779271244E+01  0.12062008483E+02  0.20496655089E+02  0.00000000000E+00 0.  1.
         11    1    1    2    0    0 -0.39616681833E+02 -0.40502269646E+02  0.22432352093E+03  0.23136758063E+03  0.00000000000E+00 0. -1.
</event>
<event>
 7    1  0.2644565E-009  0.9310975E+02  0.7561462E-02  0.1295491E+00
         -1   -1    0    0    0  501 -0.00000000000E+00  0.00000000000E+00  0.10069666625E+03  0.10069666625E+03  0.00000000000E+00 0.  1.
          1   -1    0    0  501    0  0.00000000000E+00 -0.00000000000E+00 -0.14292499482E+03  0.14292499482E+03  0.00000000000E+00 0. -1.
         25    2    1    2    0    0  0.37426432259E+02  0.32716865159E+02 -0.43050011968E+02  0.14132215452E+03  0.12509003449E+03 0.  0.
          5    1    3    3  502    0 -0.24771617615E+02  0.29379286137E+01 -0.64256093281E+02  0.69054922979E+02  0.41800000000E+01 0.  1.
         -5    1    3    3    0  502  0.62198049873E+02  0.29778936546E+02  0.21206081313E+02  0.72267231540E+02  0.41800000000E+01 0.  1.
        -11    1    1    2    0    0 -0.58685593334E+01  0.25205292663E+02  0.20992509831E+02  0.33323148649E+02  0.00000000000E+00 0.  1.
         11    1    1    2    0    0 -0.31557872925E+02 -0.57922157822E+02 -0.20170826439E+02  0.68976357903E+02  0.00000000000E+00 0. -1.
</event>
<event>
 7    1  0.2644565E-009  0.1082004E+03  0.7561462E-02  0.1263939E+00
         -1   -1    0    0    0  501 -0.00000000000E+00  0.00000000000E+00  0.25480305066E+02  0.25480305066E+02  0.00000000000E+00 0.  1.
          1   -1    0    0  501    0  0.00000000000E+00 -0.00000000000E+00 -0.65002712476E+03  0.65002712476E+03  0.00000000000E+00 0. -1.
         25    2    1    2    0    0  0.54793638558E+02 -0.40062005777E+02 -0.29875447635E+03  0.33092097524E+03  0.12508855894E+03 0.  0.
          5    1    3    3  502    0 -0.33031245548E+02 -0.95370161997E+01 -0.16092551675E+03  0.16461018256E+03  0.41800000000E+01 0.  1.
         -5    1    3    3    0  502  0.87824884106E+02 -0.30524989577E+02 -0.13782895960E+03  0.16631079268E+03  0.41800000000E+01 0.  1.
        -11    1    1    2    0    0 -0.59003248463E+02  0.50358107844E+02 -0.32419822614E+03  0.33334938456E+03  0.00000000000E+00 0. -1.
         11    1    1    2    0    0  0.42096099055E+01 -0.10296102067E+02 -0.15941172118E+01  0.11237070037E+02  0.00000000000E+00 0.  1.
</event>
<event>
 7    1  0.2644565E-009  0.9547282E+02  0.7561462E-02  0.1290115E+00
          1   -1    0    0  501    0  0.00000000000E+00  0.00000000000E+00  0.18615916082E+03  0.18615916082E+03  0.00000000000E+00 0. -1.
         -1   -1    0    0    0  501 -0.00000000000E+00 -0.00000000000E+00 -0.80977375440E+02  0.80977375440E+02  0.00000000000E+00 0.  1.
         25    2    1    2    0    0 -0.57292295353E+02 -0.14893634895E+02  0.39699785407E+02  0.14396983278E+03  0.12508801830E+03 0.  0.
          5    1    3    3  502    0 -0.91297328375E+01 -0.47283064593E+02 -0.27070050885E+02  0.55401265995E+02  0.41800000000E+01 0.  1.
         -5    1    3    3    0  502 -0.48162562515E+02  0.32389429697E+02  0.66769836293E+02  0.88568566787E+02  0.41800000000E+01 0.  1.
        -11    1    1    2    0    0  0.24306010490E+02 -0.23493572626E+02  0.64178494751E+02  0.72536951199E+02  0.00000000000E+00 0. -1.
         11    1    1    2    0    0  0.32986284863E+02  0.38387207521E+02  0.13035052253E+01  0.50629752283E+02  0.00000000000E+00 0.  1.
</event>
<event>
 7    1  0.2644565E-009  0.1150077E+03  0.7561462E-02  0.1251568E+00
         -2   -1    0    0    0  501 -0.00000000000E+00  0.00000000000E+00  0.26057272951E+02  0.26057272951E+02  0.00000000000E+00 0.  1.
          2   -1    0    0  501    0  0.00000000000E+00 -0.00000000000E+00 -0.67599714546E+03  0.67599714546E+03  0.00000000000E+00 0. -1.
         25    2    1    2    0    0 -0.66203462132E+02 -0.19784016664E+02 -0.26719514499E+03  0.30300815993E+03  0.12508554579E+03 0.  0.
          5    1    3    3  502    0 -0.55622728149E+02 -0.60852066987E+02 -0.23649137678E+03  0.25048454171E+03  0.41800000000E+01 0.  1.
         -5    1    3    3    0  502 -0.10580733983E+02  0.41068050323E+02 -0.30703768207E+02  0.52523618221E+02  0.41800000000E+01 0.  1.
        -11    1    1    2    0    0  0.39100378722E+02  0.50512936799E+02 -0.15502615985E+03  0.16767082823E+03  0.00000000000E+00 0.  1.
         11    1    1    2    0    0  0.27103083410E+02 -0.30728920135E+02 -0.22771856767E+03  0.23137543025E+03  0.00000000000E+00 0. -1.
</event>
<event>
 7    1  0.2644565E-009  0.1986947E+03  0.7561462E-02  0.1150845E+00
          1   -1    0    0  501    0  0.00000000000E+00  0.00000000000E+00  0.45694543010E+03  0.45694543010E+03  0.00000000000E+00 0. -1.
         -1   -1    0    0    0  501 -0.00000000000E+00 -0.00000000000E+00 -0.12475929264E+03  0.12475929264E+03  0.00000000000E+00 0.  1.
         25    2    1    2    0    0  0.34058385390E+02 -0.17298904478E+03  0.25682846188E+02  0.21769771019E+03  0.12508997244E+03 0.  0.
          5    1    3    3  502    0 -0.44673977440E+02 -0.34168925055E+02  0.33716559444E+01  0.56498850993E+02  0.41800000000E+01 0.  1.
         -5    1    3    3    0  502  0.78732362831E+02 -0.13882011972E+03  0.22311190244E+02  0.16119885920E+03  0.41800000000E+01 0.  1.
        -11    1    1    2    0    0 -0.42350548620E+02  0.11103658205E+03  0.26072415089E+03  0.28653058193E+03  0.00000000000E+00 0. -1.
         11    1    1    2    0    0  0.82921632298E+01  0.61952462729E+02  0.45779140374E+02  0.77476430626E+02  0.00000000000E+00 0.  1.
</event>
<event>
 7    1  0.2644565E-009  0.8235279E+02  0.7561462E-02  0.1322504E+00
          1   -1    0    0  501    0  0.00000000000E+00  0.00000000000E+00  0.89093087575E+02  0.89093087575E+02  0.00000000000E+00 0. -1.
         -1   -1    0    0    0  501 -0.00000000000E+00 -0.00000000000E+00 -0.15308061800E+03  0.15308061800E+03  0.00000000000E+00 0.  1.
         25    2    1    2    0    0  0.45645047490E+02 -0.44178419211E+01 -0.37424684671E+02  0.13838928552E+03  0.12509196472E+03 0.  0.
          5    1    3    3  502    0  0.54161698516E+01 -0.43260153068E+02 -0.63022354578E+02  0.76746760947E+02  0.41800000000E+01 0.  1.
         -5    1    3    3    0  502  0.40228877639E+02  0.38842311147E+02  0.25597669907E+02  0.61642524575E+02  0.41800000000E+01 0.  1.
        -11    1    1    2    0    0 -0.38784743844E+02 -0.16996161518E+02  0.23838740450E+02  0.48594355718E+02  0.00000000000E+00 0. -1.
         11    1    1    2    0    0 -0.68603036467E+01  0.21414003439E+02 -0.50401586207E+02  0.55190064338E+02  0.00000000000E+00 0.  1.
</event>
<event>
 7    1  0.2644565E-009  0.1143331E+03  0.7561462E-02  0.1252750E+00
          1   -1    0    0  501    0  0.00000000000E+00  0.00000000000E+00  0.44587537848E+03  0.44587537848E+03  0.00000000000E+00 0. -1.
         -1   -1    0    0    0  501 -0.00000000000E+00 -0.00000000000E+00 -0.32928446462E+02  0.32928446462E+02  0.00000000000E+00 0.  1.
         25    2    1    2    0    0 -0.50302738285E+02 -0.16521521051E+02  0.23529424639E+03  0.27168941158E+03  0.12509367627E+03 0.  0.
          5    1    3    3  502    0 -0.86629294426E+02 -0.45710104254E+01  0.10733065052E+03  0.13806835166E+03  0.41800000000E+01 0. -1.
         -5    1    3    3    0  502  0.36326556141E+02 -0.11950510626E+02  0.12796359587E+03  0.13362105992E+03  0.41800000000E+01 0. -1.
        -11    1    1    2    0    0 -0.58348588803E+01  0.41495838122E+02  0.48525805597E+02  0.64114771843E+02  0.00000000000E+00 0.  1.
         11    1    1    2    0    0  0.56137597166E+02 -0.24974317071E+02  0.12912688002E+03  0.14299964152E+03  0.00000000000E+00 0. -1.
</event>
<event>
 7    1  0.2644565E-009  0.7139317E+02  0.7561462E-02  0.1355419E+00
         -1   -1    0    0    0  501 -0.00000000000E+00  0.00000000000E+00  0.49311632657E+03  0.49311632657E+03  0.00000000000E+00 0.  1.
          1   -1    0    0  501    0  0.00000000000E+00 -0.00000000000E+00 -0.25731687435E+02  0.25731687435E+02  0.00000000000E+00 0. -1.
         25    2    1    2    0    0  0.14555519924E+02  0.26300127222E+02  0.28572032892E+03  0.31335040189E+03  0.12509519637E+03 0.  0.
          5    1    3    3  502    0  0.33010617863E+02 -0.63369921049E+01  0.27059270440E+03  0.27270449654E+03  0.41800000000E+01 0.  1.
         -5    1    3    3    0  502 -0.18455097939E+02  0.32637119326E+02  0.15127624518E+02  0.40645905346E+02  0.41800000000E+01 0.  1.
        -11    1    1    2    0    0 -0.38930762979E+02 -0.58445385761E+01  0.27346762703E+02  0.47933374257E+02  0.00000000000E+00 0. -1.
         11    1    1    2    0    0  0.24375243055E+02 -0.20455588645E+02  0.15431754752E+03  0.15756423786E+03  0.00000000000E+00 0.  1.
</event>
<event>
 7    1  0.2644565E-009  0.8497938E+02  0.7561462E-02  0.1315486E+00
          2   -1    0    0  501    0  0.00000000000E+00  0.00000000000E+00  0.93626729924E+02  0.93626729924E+02  0.00000000000E+00 0.  1.
         -2   -1    0    0    0  501 -0.00000000000E+00 -0.00000000000E+00 -0.27893817483E+03  0.27893817483E+03  0.00000000000E+00 0. -1.
         25    2    1    2    0    0  0.16853691741E+02  0.55265481424E+02  0.21204556413E+02  0.13941650026E+03  0.12509599102E+03 0.  0.
          5    1    3    3  502    0  0.10364049414E+01 -0.16179364401E+01  0.65391201622E+02  0.65552829863E+02  0.41800000000E+01 0.  1.
         -5    1    3    3    0  502  0.15817286800E+02  0.56883417864E+02 -0.44186645209E+02  0.73863670396E+02  0.41800000000E+01 0.  1.
        -11    1    1    2    0    0 -0.52713686626E+02 -0.43754084266E+02 -0.15373381682E+03  0.16830697871E+03  0.00000000000E+00 0.  1.
         11    1    1    2    0    0  0.35859994885E+02 -0.11511397158E+02 -0.52782184506E+02  0.64841425793E+02  0.00000000000E+00 0. -1.
</event>
<event>
 7    1  0.2644565E-009  0.1265371E+03  0.7561462E-02  0.1232686E+00
         -1   -1    0    0    0  501 -0.00000000000E+00  0.00000000000E+00  0.15577740070E+03  0.15577740070E+03  0.00000000000E+00 0.  1.
          1   -1    0    0  501    0  0.00000000000E+00 -0.00000000000E+00 -0.15478789433E+03  0.15478789433E+03  0.00000000000E+00 0. -1.
         25    2    1    2    0    0 -0.48052859715E+01 -0.11047861111E+03 -0.14420529055E+01  0.16696370565E+03  0.12508471210E+03 0.  0.
          5    1    3    3  502    0 -0.12218454284E+01 -0.90477789838E+02  0.55587226901E+02  0.10627857524E+03  0.41800000000E+01 0.  1.
         -5    1    3    3    0  502 -0.35834405431E+01 -0.20000821271E+02 -0.57029279806E+02  0.60685130410E+02  0.41800000000E+01 0.  1.
        -11    1    1    2    0    0  0.31169760354E+02  0.11108524924E+03 -0.70169410844E+01  0.11558859814E+03  0.00000000000E+00 0. -1.
         11    1    1    2    0    0 -0.26364474382E+02 -0.60663812663E+00  0.94485003570E+01  0.28012991241E+02  0.00000000000E+00 0.  1.
</event>
<event>
 7    1  0.2644565E-009  0.1075308E+03  0.7561462E-02  0.1265212E+00
          1   -1    0    0  501    0  0.00000000000E+00  0.00000000000E+00  0.85117254824E+02  0.85117254824E+02  0.00000000000E+00 0. -1.
         -1   -1    0    0    0  501 -0.00000000000E+00 -0.00000000000E+00 -0.25802559516E+03  0.25802559516E+03  0.00000000000E+00 0.  1.
         25    2    1    2    0    0 -0.25670435787E+01  0.96243947126E+02 -0.54670210699E+02  0.16706023357E+03  0.12510316795E+03 0.  0.
          5    1    3    3  502    0  0.68635046898E+01  0.77104732928E+02  0.27351340268E+02  0.82205935011E+02  0.41800000000E+01 0. -1.
         -5    1    3    3    0  502 -0.94305482684E+01  0.19139214198E+02 -0.82021550967E+02  0.84854298558E+02  0.41800000000E+01 0. -1.
        -11    1    1    2    0    0  0.25292474205E+02 -0.11008699286E+02  0.11880991676E+01  0.27610003458E+02  0.00000000000E+00 0. -1.
         11    1    1    2    0    0 -0.22725430626E+02 -0.85235247841E+02 -0.11942622881E+03  0.14847261296E+03  0.00000000000E+00 0.  1.
</event>
<event>
 7    1  0.2644565E-009  0.1313651E+03  0.7561462E-02  0.1225444E+00
          2   -1    0    0  501    0  0.00000000000E+00  0.00000000000E+00  0.33565468751E+03  0.33565468751E+03  0.00000000000E+00 0. -1.
         -2   -1    0    0    0  501 -0.00000000000E+00 -0.00000000000E+00 -0.67208866748E+02  0.67208866748E+02  0.00000000000E+00 0.  1.
         25    2    1    2    0    0  0.10059150037E+03  0.74659699037E+01  0.14703720287E+03  0.21781575855E+03  0.12509746198E+03 0.  0.
          5    1    3    3  502    0  0.11126068963E+03  0.42561225443E+01  0.53633569948E+02  0.12365713834E+03  0.41800000000E+01 0. -1.
         -5    1    3    3    0  502 -0.10669189255E+02  0.32098473594E+01  0.93403632917E+02  0.94158620219E+02  0.41800000000E+01 0. -1.
        -11    1    1    2    0    0  0.19288761725E+02 -0.22033805335E+01  0.13282519986E+02  0.23523106764E+02  0.00000000000E+00 0. -1.
         11    1    1    2    0    0 -0.11988026210E+03 -0.52625893701E+01  0.10812609791E+03  0.16152468894E+03  0.00000000000E+00 0.  1.
</event>
<event>
 6    1  0.2644565E-009  0.2624700E+03  0.7561462E-02  0.1105668E+00
         -1   -1    0    0    0  501 -0.00000000000E+00  0.00000000000E+00  0.18832418889E+03  0.18832418889E+03  0.00000000000E+00 0.  1.
          1   -1    0    0  501    0  0.00000000000E+00 -0.00000000000E+00 -0.42561826975E+03  0.42561826975E+03  0.00000000000E+00 0. -1.
          5    1    1    2  502    0  0.93343927740E+01  0.74021243124E+02 -0.61320367625E+02  0.96664032648E+02  0.41800000000E+01 0.  1.
         -5    1    1    2    0  502  0.12214932473E+03  0.13929476405E+03  0.20363644436E+02  0.18642864383E+03  0.41800000000E+01 0.  1.
        -11    1    1    2    0    0 -0.14348228564E+03 -0.20530880457E+03 -0.17691141879E+03  0.30665374875E+03  0.00000000000E+00 0.  1.
         11    1    1    2    0    0  0.11998568143E+02 -0.80072026063E+01 -0.19425938887E+02  0.24196033409E+02  0.00000000000E+00 0. -1.
</event>
<event>
 7    1  0.2644565E-009  0.1381157E+03  0.7561462E-02  0.1215887E+00
          2   -1    0    0  501    0  0.00000000000E+00  0.00000000000E+00  0.70241435059E+03  0.70241435059E+03  0.00000000000E+00 0. -1.
         -2   -1    0    0    0  501 -0.00000000000E+00 -0.00000000000E+00 -0.41981640232E+02  0.41981640232E+02  0.00000000000E+00 0.  1.
         25    2    1    2    0    0  0.12997409997E+03  0.30834966272E+02  0.35941809914E+03  0.40332661246E+03  0.12508766735E+03 0.  0.
          5    1    3    3  502    0  0.76985064233E+02  0.17129092233E+02  0.60707163137E+02  0.99613944666E+02  0.41800000000E+01 0. -1.
         -5    1    3    3    0  502  0.52989035734E+02  0.13705874039E+02  0.29871093601E+03  0.30371266780E+03  0.41800000000E+01 0. -1.
        -11    1    1    2    0    0 -0.55531092085E+02  0.11518048000E+02  0.20363015433E+03  0.21138024357E+03  0.00000000000E+00 0. -1.
         11    1    1    2    0    0 -0.74443007882E+02 -0.42353014272E+02  0.97384456888E+02  0.12968913479E+03  0.00000000000E+00 0.  1.
</event>
<event>
 7    1  0.2644565E-009  0.2818795E+03  0.7561462E-02  0.1094667E+00
         -2   -1    0    0    0  501 -0.00000000000E+00  0.00000000000E+00  0.37259832312E+02  0.37259832312E+02  0.00000000000E+00 0.  1.
          2   -1    0    0  501    0  0.00000000000E+00 -0.00000000000E+00 -0.24712999514E+04  0.24712999514E+04  0.00000000000E+00 0. -1.
         25    2    1    2    0    0 -0.43533865373E+02  0.26496613945E+03 -0.16146998035E+04  0.16416472443E+04  0.12509183331E+03 0.  0.
          5    1    3    3  502    0 -0.82139809907E+02  0.18772649818E+03 -0.98987273988E+03  0.10108677955E+04  0.41800000000E+01 0. -1.
         -5    1    3    3    0  502  0.38605944534E+02  0.77239641273E+02 -0.62482706359E+03  0.63077944872E+03  0.41800000000E+01 0. -1.
        -11    1    1    2    0    0  0.52098601099E+02 -0.19400613690E+03 -0.69547234084E+03  0.72390221872E+03  0.00000000000E+00 0. -1.
         11    1    1    2    0    0 -0.85647357255E+01 -0.70960002554E+02 -0.12386797474E+03  0.14301032070E+03  0.00000000000E+00 0.  1.
</event>
<event>
 6    1  0.2644565E-009  0.1168957E+03  0.7561462E-02  0.1248308E+00
         -2   -1    0    0    0  501 -0.00000000000E+00  0.00000000000E+00  0.14427035207E+03  0.14427035207E+03  0.00000000000E+00 0.  1.
          2   -1    0    0  501    0  0.00000000000E+00 -0.00000000000E+00 -0.12954951461E+03  0.12954951461E+03  0.00000000000E+00 0. -1.
          5    1    1    2  502    0 -0.72799405102E+02 -0.45028709055E+02  0.24062575523E+02  0.89015829846E+02  0.41800000000E+01 0. -1.
         -5    1    1    2    0  502  0.42326197658E+02  0.19350878007E+01  0.48298408719E+02  0.64385248759E+02  0.41800000000E+01 0. -1.
        -11    1    1    2    0    0  0.35922537862E+02 -0.20718453884E+02 -0.18937501839E+02  0.45588507693E+02  0.00000000000E+00 0.  1.
         11    1    1    2    0    0 -0.54493304176E+01  0.63812075138E+02 -0.38702644948E+02  0.74830280377E+02  0.00000000000E+00 0. -1.
</event>
<event>
 7    1  0.2644565E-009  0.1097735E+03  0.7561462E-02  0.1260990E+00
          1   -1    0    0  501    0  0.00000000000E+00  0.00000000000E+00  0.87836806057E+03  0.87836806057E+03  0.00000000000E+00 0. -1.
         -1   -1    0    0    0  501 -0.00000000000E+00 -0.00000000000E+00 -0.18507274022E+02  0.18507274022E+02  0.00000000000E+00 0.  1.
         25    2    1    2    0    0  0.58917441325E+01 -0.55598524609E+02  0.60423348958E+03  0.61957346047E+03  0.12508898594E+03 0.  0.
          5    1    3    3  502    0  0.55758939030E+02  0.39912816477E+01  0.19011122873E+03  0.19820378730E+03  0.41800000000E+01 0.  1.
         -5    1    3    3    0  502 -0.49867194898E+02 -0.59589806257E+02  0.41412226084E+03  0.42136967316E+03  0.41800000000E+01 0.  1.
        -11    1    1    2    0    0  0.26661752591E+02  0.76830841070E+01  0.18856097870E+02  0.33547447884E+02  0.00000000000E+00 0.  1.
         11    1    1    2    0    0 -0.32553496724E+02  0.47915440502E+02  0.23677119910E+03  0.24375442624E+03  0.00000000000E+00 0. -1.
</event>
<event>
 7    1  0.2644565E-009  0.1208039E+03  0.7561462E-02  0.1241777E+00
          1   -1    0    0  501    0  0.00000000000E+00  0.00000000000E+00  0.54912051445E+03  0.54912051445E+03  0.00000000000E+00 0. -1.
         -1   -1    0    0    0  501 -0.00000000000E+00 -0.00000000000E+00 -0.32352335071E+02  0.32352335071E+02  0.00000000000E+00 0.  1.
         25    2    1    2    0    0  0.29358887358E+02 -0.69822546795E+02  0.33822417101E+03  0.36848319062E+03  0.12508852706E+03 0.  0.
          5    1    3    3  502    0 -0.29423123522E+02  0.20337102239E+02  0.57983609130E+02  0.68256056530E+02  0.41800000000E+01 0.  1.
         -5    1    3    3    0  502  0.58782010881E+02 -0.90159649034E+02  0.28024056188E+03  0.30022713409E+03  0.41800000000E+01 0.  1.
        -11    1    1    2    0    0 -0.48642475015E+02  0.43499256893E+02  0.16540666668E+03  0.17781350091E+03  0.00000000000E+00 0.  1.
         11    1    1    2    0    0  0.19283587656E+02  0.26323289902E+02  0.13137341686E+02  0.35176157987E+02  0.00000000000E+00 0. -1.
</event>
<event>
 7    1  0.2644565E-009  0.1052669E+03  0.7561462E-02  0.1269595E+00
         -1   -1    0    0    0  501 -0.00000000000E+00  0.00000000000E+00  0.22219969528E+02  0.22219969528E+02  0.00000000000E+00 0.  1.
          1   -1    0    0  501    0  0.00000000000E+00 -0.00000000000E+00 -0.81077061731E+03  0.81077061731E+03  0.00000000000E+00 0. -1.
         25    2    1    2    0    0  0.66356643676E+02 -0.32843007952E+02 -0.51177836093E+03  0.53202186220E+03  0.12509318050E+03 0.  0.
          5    1    3    3  502    0 -0.13559171349E+02 -0.23284032778E+02 -0.20336459665E+02  0.34015309814E+02  0.41800000000E+01 0. -1.
         -5    1    3    3    0  502  0.79915815025E+02 -0.95589751742E+01 -0.49144190126E+03  0.49800655238E+03  0.41800000000E+01 0. -1.
        -11    1    1    2    0    0 -0.73132759011E+02  0.42149130868E+01 -0.25224445994E+03  0.26266601132E+03  0.00000000000E+00 0. -1.
         11    1    1    2    0    0  0.67761153351E+01  0.28628094865E+02 -0.24527826916E+02  0.38302713322E+02  0.00000000000E+00 0.  1.
</event>
<event>
 6    1  0.2644565E-009  0.2251013E+03  0.7561462E-02  0.1130136E+00
          2   -1    0    0  501    0  0.00000000000E+00  0.00000000000E+00  0.23494903871E+03  0.23494903871E+03  0.00000000000E+00 0. -1.
         -2   -1    0    0    0  501 -0.00000000000E+00 -0.00000000000E+00 -0.24550198549E+03  0.24550198549E+03  0.00000000000E+00 0.  1.
          5    1    1    2  502    0 -0.92028417749E+01 -0.64379207335E+01 -0.25568238772E+02  0.28237322004E+02  0.41800000000E+01 0. -1.
         -5    1    1    2    0  502  0.14387194596E+03 -0.15801238095E+03  0.50165051283E+02  0.21954738472E+03  0.41800000000E+01 0. -1.
        -11    1    1    2    0    0 -0.12617586841E+03  0.10421799022E+03 -0.47897773075E+02  0.17051667344E+03  0.00000000000E+00 0.  1.
         11    1    1    2    0    0 -0.84932357776E+01  0.60232311466E+02  0.12748013782E+02  0.62149644037E+02  0.00000000000E+00 0. -1.
</event>
<event>
 7    1  0.4012331E-009  0.2236577E+03  0.7561462E-02  0.1131185E+00
         -1   -1    0    0    0  501 -0.00000000000E+00  0.00000000000E+00  0.45483108294E+02  0.45483108294E+02  0.00000000000E+00 0.  1.
          1   -1    0    0  501    0  0.00000000000E+00 -0.00000000000E+00 -0.11458904953E+04  0.11458904953E+04  0.00000000000E+00 0. -1.
         25    2    1    2    0    0 -0.14298866935E+03  0.13433819169E+03 -0.46185121611E+03  0.51715436961E+03  0.12509830884E+03 0.  0.
          5    1    3    3  502    0 -0.29816098523E+02  0.11168548189E+03 -0.26060043825E+03  0.28511876019E+03  0.41800000000E+01 0. -1.
         -5    1    3    3    0  502 -0.11317257083E+03  0.22652709797E+02 -0.20125077786E+03  0.23203560942E+03  0.41800000000E+01 0. -1.
        -11    1    1    2    0    0  0.79178522178E+02 -0.12997206953E+03 -0.46333224216E+03  0.48768713727E+03  0.00000000000E+00 0. -1.
         11    1    1    2    0    0  0.63810147170E+02 -0.43661221599E+01 -0.17522392876E+03  0.18653209674E+03  0.00000000000E+00 0.  1.
</event>
<event>
 7    1  0.2644565E-009  0.1246321E+03  0.7561462E-02  0.1235645E+00
         -2   -1    0    0    0  501 -0.00000000000E+00  0.00000000000E+00  0.15865426343E+03  0.15865426343E+03  0.00000000000E+00 0.  1.
          2   -1    0    0  501    0  0.00000000000E+00 -0.00000000000E+00 -0.24070909205E+03  0.24070909205E+03  0.00000000000E+00 0. -1.
         25    2    1    2    0    0 -0.51242462374E+02 -0.44197343855E+02 -0.19170008346E+03  0.23869571784E+03  0.12509008179E+03 0.  0.
          5    1    3    3  502    0 -0.23951568676E+01 -0.76804502267E+02 -0.72410597889E+02  0.10566662402E+03  0.41800000000E+01 0. -1.
         -5    1    3    3    0  502 -0.48847305506E+02  0.32607158412E+02 -0.11928948558E+03  0.13302909382E+03  0.41800000000E+01 0. -1.
        -11    1    1    2    0    0  0.71875360648E+02  0.54657445713E+02  0.10217833279E+03  0.13635950840E+03  0.00000000000E+00 0. -1.
         11    1    1    2    0    0 -0.20632898274E+02 -0.10460101858E+02  0.74669220589E+01  0.24308129239E+02  0.00000000000E+00 0.  1.
</event>
<event>
 7    1  0.2644565E-009  0.1135042E+03  0.7561462E-02  0.1254215E+00
          2   -1    0    0  501    0  0.00000000000E+00  0.00000000000E+00  0.68721743789E+03  0.68721743789E+03  0.00000000000E+00 0. -1.
         -2   -1    0    0    0  501 -0.00000000000E+00 -0.00000000000E+00 -0.33793478655E+02  0.33793478655E+02  0.00000000000E+00 0.  1.
         25    2    1    2    0    0 -0.67765434313E+02  0.31021328823E+02  0.53545964628E+03  0.55490427872E+03  0.12508896364E+03 0.  0.
          5    1    3    3  502    0  0.27657966660E+02  0.35506187861E+02  0.11187901100E+03  0.12066498248E+03  0.41800000000E+01 0. -1.
         -5    1    3    3    0  502 -0.95423400973E+02 -0.44848590378E+01  0.42358063528E+03  0.43423929624E+03  0.41800000000E+01 0. -1.
        -11    1    1    2    0    0  0.18206340050E+02  0.10948180289E+02  0.94808055435E+02  0.97159152142E+02  0.00000000000E+00 0. -1.
         11    1    1    2    0    0  0.49559094262E+02 -0.41969509112E+02  0.23156257524E+02  0.68947485681E+02  0.00000000000E+00 0.  1.
</event>
<event>
 7    1  0.2644565E-009  0.9348920E+02  0.7561462E-02  0.1294615E+00
          1   -1    0    0  501    0  0.00000000000E+00  0.00000000000E+00  0.12484637067E+03  0.12484637067E+03  0.00000000000E+00 0. -1.
         -1   -1    0    0    0  501 -0.00000000000E+00 -0.00000000000E+00 -0.94501042318E+02  0.94501042318E+02  0.00000000000E+00 0.  1.
         25    2    1    2    0    0 -0.50204387057E+01  0.12137401048E+02  0.23762536830E+02  0.12800357706E+03  0.12509091204E+03 0.  0.
          5    1    3    3  502    0  0.53500087555E+02  0.33590642895E+02  0.11795229119E+02  0.64398683903E+02  0.41800000000E+01 0.  1.
         -5    1    3    3    0  502 -0.58520526261E+02 -0.21453241847E+02  0.11967307711E+02  0.63604893156E+02  0.41800000000E+01 0.  1.
        -11    1    1    2    0    0  0.21295608681E+02  0.17383770909E+02  0.36894451471E+02  0.46009770587E+02  0.00000000000E+00 0. -1.
         11    1    1    2    0    0 -0.16275169975E+02 -0.29521171958E+02 -0.30311659949E+02  0.45334065341E+02  0.00000000000E+00 0.  1.
</event>
<event>
 7    1  0.2644565E-009  0.1023792E+03  0.7561462E-02  0.1275371E+00
          1   -1    0    0  501    0  0.00000000000E+00  0.00000000000E+00  0.58037662373E+03  0.58037662373E+03  0.00000000000E+00 0. -1.
         -1   -1    0    0    0  501 -0.00000000000E+00 -0.00000000000E+00 -0.20959798959E+02  0.20959798959E+02  0.00000000000E+00 0.  1.
         25    2    1    2    0    0 -0.47895266709E+01 -0.51829271122E+01  0.39161666664E+03  0.41116975239E+03  0.12508856618E+03 0.  0.
          5    1    3    3  502    0 -0.51147345766E+02 -0.41290558263E+02  0.22516910509E+03  0.23460511390E+03  0.41800000000E+01 0.  1.
         -5    1    3    3    0  502  0.46357819095E+02  0.36107631151E+02  0.16644756155E+03  0.17656463849E+03  0.41800000000E+01 0.  1.
        -11    1    1    2    0    0  0.23981749542E+02 -0.30899230029E+02  0.12504892353E+03  0.13102335671E+03  0.00000000000E+00 0. -1.
         11    1    1    2    0    0 -0.19192222871E+02  0.36082157142E+02  0.42751234603E+02  0.59143313593E+02  0.00000000000E+00 0.  1.
</event>
<event>
 7    1  0.2644565E-009  0.9621785E+02  0.7561462E-02  0.1288456E+00
          1   -1    0    0  501    0  0.00000000000E+00  0.00000000000E+00  0.54819938288E+02  0.54819938288E+02  0.00000000000E+00 0. -1.
         -1   -1    0    0    0  501 -0.00000000000E+00 -0.00000000000E+00 -0.32420666813E+03  0.32420666813E+03  0.00000000000E+00 0.  1.
         25    2    1    2    0    0  0.73596164989E+02  0.15028813764E+02 -0.17409729478E+03  0.22715637424E+03  0.12509152476E+03 0.  0.
          5    1    3    3  502    0  0.21473098865E+02  0.11380300415E+02  0.16376399735E+02  0.29601758068E+02  0.41800000000E+01 0. -1.
         -5    1    3    3    0  502  0.52123066124E+02  0.36485133486E+01 -0.19047369451E+03  0.19755461618E+03  0.41800000000E+01 0. -1.
        -11    1    1    2    0    0  0.35086681473E+00  0.29194816277E+02 -0.39895326562E+02  0.49437814337E+02  0.00000000000E+00 0.  1.
         11    1    1    2    0    0 -0.73947031804E+02 -0.44223630041E+02 -0.55394108503E+02  0.10243241783E+03  0.00000000000E+00 0. -1.
</event>
<event>
 7    1  0.2644565E-009  0.1193202E+03  0.7561462E-02  0.1244223E+00
         -1   -1    0    0    0  501 -0.00000000000E+00  0.00000000000E+00  0.26394917692E+02  0.26394917692E+02  0.00000000000E+00 0.  1.
          1   -1    0    0  501    0  0.00000000000E+00 -0.00000000000E+00 -0.72797781346E+03  0.72797781346E+03  0.00000000000E+00 0. -1.
         25    2    1    2    0    0 -0.26078124110E+02  0.74791318142E+02 -0.46993890605E+03  0.49271145584E+03  0.12509273947E+03 0.  0.
          5    1    3    3  502    0 -0.61675766475E+02  0.78235703158E+02 -0.23874413298E+03  0.25872950904E+03  0.41800000000E+01 0.  1.
         -5    1    3    3    0  502  0.35597642365E+02 -0.34443850162E+01 -0.23119477307E+03  0.23398194679E+03  0.41800000000E+01 0.  1.
        -11    1    1    2    0    0  0.14775082634E+02  0.97024740804E+01 -0.33766313517E+01  0.17995630287E+02  0.00000000000E+00 0.  1.
         11    1    1    2    0    0  0.11303041476E+02 -0.84493792222E+02 -0.22826735837E+03  0.24366564503E+03  0.00000000000E+00 0. -1.
</event>
<event>
 7    1  0.2989607E-009  0.1177388E+03  0.7561462E-02  0.1246875E+00
         -2   -1    0    0    0  501 -0.00000000000E+00  0.00000000000E+00  0.74383953955E+02  0.74383953955E+02  0.00000000000E+00 0.  1.
          2   -1    0    0  501    0  0.00000000000E+00 -0.00000000000E+00 -0.23320984312E+03  0.23320984312E+03  0.00000000000E+00 0. -1.
         25    2    1    2    0    0  0.64605175117E+02 -0.23429357097E+02 -0.11951184077E+03  0.18615477059E+03  0.12509098730E+03 0.  0.
          5    1    3    3  502    0  0.99117688279E+02 -0.16925003564E+02 -0.60700753170E+02  0.11752797842E+03  0.41800000000E+01 0. -1.
         -5    1    3    3    0  502 -0.34512513162E+02 -0.65043535338E+01 -0.58811087598E+02  0.68626792174E+02  0.41800000000E+01 0. -1.
        -11    1    1    2    0    0 -0.61818034281E+02 -0.12804039428E+02  0.59294670589E+01  0.63407975584E+02  0.00000000000E+00 0.  1.
         11    1    1    2    0    0 -0.27871408355E+01  0.36233396525E+02 -0.45243515459E+02  0.58031050902E+02  0.00000000000E+00 0. -1.
</event>
<event>
 7    1  0.2644565E-009  0.1553369E+03  0.7561462E-02  0.1194064E+00
          4   -1    0    0  501    0  0.00000000000E+00  0.00000000000E+00  0.27679259299E+03  0.27679259299E+03  0.00000000000E+00 0. -1.
         -4   -1    0    0    0  501 -0.00000000000E+00 -0.00000000000E+00 -0.15555132101E+03  0.15555132101E+03  0.00000000000E+00 0.  1.
         25    2    1    2    0    0  0.14145776862E+03  0.14621632789E+02  0.17146229838E+03  0.25548129902E+03  0.12508909597E+03 0.  0.
          5    1    3    3  502    0  0.36200481021E+02  0.32554116020E+02  0.13336876993E+03  0.14203853874E+03  0.41800000000E+01 0. -1.
         -5    1    3    3    0  502  0.10525728760E+03 -0.17932483231E+02  0.38093528453E+02  0.11344276027E+03  0.41800000000E+01 0. -1.
        -11    1    1    2    0    0 -0.43550658753E+02 -0.33872029345E+02  0.15589812323E+02  0.57332508213E+02  0.00000000000E+00 0. -1.
         11    1    1    2    0    0 -0.97907109872E+02  0.19250396556E+02 -0.65810838725E+02  0.11953010677E+03  0.00000000000E+00 0.  1.
</event>
<event>
 7    1  0.2778987E-009  0.1000155E+03  0.7561462E-02  0.1280263E+00
          2   -1    0    0  501    0  0.00000000000E+00  0.00000000000E+00  0.29728053089E+03  0.29728053089E+03  0.00000000000E+00 0. -1.
         -2   -1    0    0    0  501 -0.00000000000E+00 -0.00000000000E+00 -0.56274428374E+02  0.56274428374E+02  0.00000000000E+00 0.  1.
         25    2    1    2    0    0  0.59353483148E+02 -0.10163438023E+02  0.18209692569E+03  0.22898657447E+03  0.12509767986E+03 0.  0.
          5    1    3    3  502    0 -0.16898511465E+01 -0.59376887402E+02  0.90575512909E+02  0.10839680020E+03  0.41800000000E+01 0.  1.
         -5    1    3    3    0  502  0.61043334294E+02  0.49213449379E+02  0.91521412785E+02  0.12058977428E+03  0.41800000000E+01 0.  1.
        -11    1    1    2    0    0 -0.24733174211E+02  0.11584135814E+02 -0.22952613203E+02  0.35675545713E+02  0.00000000000E+00 0.  1.
         11    1    1    2    0    0 -0.34620308937E+02 -0.14206977910E+01  0.81861790026E+02  0.88892839078E+02  0.00000000000E+00 0. -1.
</event>
<event>
 7    1  0.2644565E-009  0.1515815E+03  0.7561462E-02  0.1198543E+00
          2   -1    0    0  501    0  0.00000000000E+00  0.00000000000E+00  0.61837777691E+03  0.61837777691E+03  0.00000000000E+00 0. -1.
         -2   -1    0    0    0  501 -0.00000000000E+00 -0.00000000000E+00 -0.55752040454E+02  0.55752040454E+02  0.00000000000E+00 0.  1.
         25    2    1    2    0    0 -0.82251708313E+02  0.11139828581E+03  0.19165723273E+03  0.26749754553E+03  0.12509004919E+03 0.  0.
          5    1    3    3  502    0 -0.31628860324E+02  0.95631733423E+02  0.42978371581E+02  0.10959208943E+03  0.41800000000E+01 0.  1.
         -5    1    3    3    0  502 -0.50622847989E+02  0.15766552385E+02  0.14867886115E+03  0.15790545609E+03  0.41800000000E+01 0.  1.
        -11    1    1    2    0    0  0.67965049912E+02 -0.45629356572E+02  0.10995712754E+03  0.13708339100E+03  0.00000000000E+00 0.  1.
         11    1    1    2    0    0  0.14286658401E+02 -0.65768929235E+02  0.26101137618E+03  0.26954888083E+03  0.00000000000E+00 0. -1.
</event>
<event>
 7    1  0.2644565E-009  0.1215492E+03  0.7561462E-02  0.1240563E+00
         -1   -1    0    0    0  501 -0.00000000000E+00  0.00000000000E+00  0.25649792528E+03  0.25649792528E+03  0.00000000000E+00 0.  1.
          1   -1    0    0  501    0  0.00000000000E+00 -0.00000000000E+00 -0.59318794735E+02  0.59318794735E+02  0.00000000000E+00 0. -1.
         25    2    1    2    0    0 -0.57750093937E+02  0.17309435052E+02  0.12582954828E+03  0.18737280194E+03  0.12506319120E+03 0.  0.
          5    1    3    3  502    0 -0.91793671063E+02 -0.10307158325E+02  0.68453968057E+02  0.11504665881E+03  0.41800000000E+01 0.  1.
         -5    1    3    3    0  502  0.34043577126E+02  0.27616593378E+02  0.57375580228E+02  0.72326143128E+02  0.41800000000E+01 0.  1.
        -11    1    1    2    0    0 -0.15230970631E+02  0.19593757502E+02  0.20056455956E+02  0.31908607380E+02  0.00000000000E+00 0. -1.
         11    1    1    2    0    0  0.72981064568E+02 -0.36903192555E+02  0.51293126308E+02  0.96535310704E+02  0.00000000000E+00 0.  1.
</event>
<event>
 7    1  0.2644565E-009  0.1639530E+03  0.7561462E-02  0.1184305E+00
         -1   -1    0    0    0  501 -0.00000000000E+00  0.00000000000E+00  0.55328402556E+02  0.55328402556E+02  0.00000000000E+00 0.  1.
          1   -1    0    0  501    0  0.00000000000E+00 -0.00000000000E+00 -0.66989731849E+03  0.66989731849E+03  0.00000000000E+00 0. -1.
         25    2    1    2    0    0 -0.98536056054E+02  0.11555465767E+03 -0.24982041556E+03  0.31799405522E+03  0.12509095041E+03 0.  0.
          5    1    3    3  502    0 -0.40865180476E+02  0.88532762488E+02 -0.52951383941E+02  0.11103753631E+03  0.41800000000E+01 0.  1.
         -5    1    3    3    0  502 -0.57670875578E+02  0.27021895183E+02 -0.19686903162E+03  0.20695651891E+03  0.41800000000E+01 0.  1.
        -11    1    1    2    0    0  0.76838887495E+02 -0.37562231840E+02 -0.10650071437E+03  0.13659259882E+03  0.00000000000E+00 0.  1.
         11    1    1    2    0    0  0.21697168559E+02 -0.77992425831E+02 -0.25824778601E+03  0.27063906700E+03  0.00000000000E+00 0. -1.
</event>
<event>
 7    1  0.2644565E-009  0.9770770E+02  0.7561462E-02  0.1285192E+00
          1   -1    0    0  501    0  0.00000000000E+00  0.00000000000E+00  0.14760166243E+02  0.14760166243E+02  0.00000000000E+00 0. -1.
         -1   -1    0    0    0  501 -0.00000000000E+00 -0.00000000000E+00 -0.10453449694E+04  0.10453449694E+04  0.00000000000E+00 0.  1.
         25    2    1    2    0    0  0.31112322874E+02 -0.29972114044E+02 -0.78330583259E+03  0.79440670298E+03  0.12509067955E+03 0.  0.
          5    1    3    3  502    0 -0.40166671246E+01 -0.66304348720E+02 -0.25043766472E+03  0.25913104134E+03  0.41800000000E+01 0.  1.
         -5    1    3    3    0  502  0.35128989998E+02  0.36332234675E+02 -0.53286816787E+03  0.53527566164E+03  0.41800000000E+01 0.  1.
        -11    1    1    2    0    0 -0.37965092922E+02 -0.86369590408E+01 -0.20236077764E+03  0.20607238939E+03  0.00000000000E+00 0.  1.
         11    1    1    2    0    0  0.68527700480E+01  0.38609073085E+02 -0.44918192962E+02  0.59626043310E+02  0.00000000000E+00 0. -1.
</event>
<event>
 7    1  0.2644565E-009  0.1505355E+03  0.7561462E-02  0.1199817E+00
         -2   -1    0    0    0  501 -0.00000000000E+00  0.00000000000E+00  0.10727170195E+03  0.10727170195E+03  0.00000000000E+00 0.  1.
          2   -1    0    0  501    0  0.00000000000E+00 -0.00000000000E+00 -0.26156535123E+03  0.26156535123E+03  0.00000000000E+00 0. -1.
         25    2    1    2    0    0  0.12071354414E+03  0.34052231956E+02 -0.61661038931E+02  0.18756915091E+03  0.12509511745E+03 0.  0.
          5    1    3    3  502    0 -0.13053797504E+02  0.27539166100E+01 -0.47363560497E+02  0.49383853120E+02  0.41800000000E+01 0.  1.
         -5    1    3    3    0  502  0.13376734165E+03  0.31298315346E+02 -0.14297478434E+02  0.13818529779E+03  0.41800000000E+01 0.  1.
        -11    1    1    2    0    0 -0.11619556264E+03 -0.91122521402E+00 -0.91329728969E+02  0.14779498808E+03  0.00000000000E+00 0. -1.
         11    1    1    2    0    0 -0.45179815071E+01 -0.33141006742E+02 -0.13028813772E+01  0.33472914194E+02  0.00000000000E+00 0.  1.
</event>
<event>
 7    1  0.2644565E-009  0.1441410E+03  0.7561462E-02  0.1207863E+00
         -2   -1    0    0    0  501 -0.00000000000E+00  0.00000000000E+00  0.68870105792E+02  0.68870105792E+02  0.00000000000E+00 0.  1.
          2   -1    0    0  501    0  0.00000000000E+00 -0.00000000000E+00 -0.32887913767E+03  0.32887913767E+03  0.00000000000E+00 0. -1.
         25    2    1    2    0    0  0.18458333436E+02  0.10231178306E+03 -0.12794672443E+03  0.20694680735E+03  0.12509278857E+03 0.  0.
          5    1    3    3  502    0  0.66469370339E+02  0.26472062291E+02 -0.44772715227E+02  0.84504530671E+02  0.41800000000E+01 0.  1.
         -5    1    3    3    0  502 -0.48011036903E+02  0.75839720770E+02 -0.83174009204E+02  0.12244227668E+03  0.41800000000E+01 0.  1.
        -11    1    1    2    0    0  0.22078852865E+02 -0.69667154966E+01 -0.25839804583E+00  0.23153350474E+02  0.00000000000E+00 0.  1.
         11    1    1    2    0    0 -0.40537186301E+02 -0.95345067564E+02 -0.13180390940E+03  0.16764908563E+03  0.00000000000E+00 0. -1.
</event>
<event>
 7    1  0.2644565E-009  0.1416696E+03  0.7561462E-02  0.1211100E+00
         -1   -1    0    0    0  501 -0.00000000000E+00  0.00000000000E+00  0.34841030392E+03  0.34841030392E+03  0.00000000000E+00 0.  1.
          1   -1    0    0  501    0  0.00000000000E+00 -0.00000000000E+00 -0.67426398147E+02  0.67426398147E+02  0.00000000000E+00 0. -1.
         25    2    1    2    0    0  0.22062861884E+02  0.10062058891E+03  0.10901467867E+03  0.19530812622E+03  0.12509912556E+03 0.  0.
          5    1    3    3  502    0 -0.20751163472E+02  0.11459057588E+03  0.73164151695E+02  0.13759388199E+03  0.41800000000E+01 0. -1.
         -5    1    3    3    0  502  0.42814025356E+02 -0.13969986976E+02  0.35850526978E+02  0.57714244238E+02  0.41800000000E+01 0. -1.
        -11    1    1    2    0    0  0.22760644093E+02 -0.42188100926E+02  0.12320710376E+03  0.13220390765E+03  0.00000000000E+00 0.  1.
         11    1    1    2    0    0 -0.44823505977E+02 -0.58432487982E+02  0.48762123337E+02  0.88324668197E+02  0.00000000000E+00 0. -1.
</event>
<event>
 6    1  0.2644565E-009  0.3544349E+03  0.7561462E-02  0.1060809E+00
         -1   -1    0    0    0  501 -0.00000000000E+00  0.00000000000E+00  0.22166596562E+03  0.22166596562E+03  0.00000000000E+00 0.  1.
          1   -1    0    0  501    0  0.00000000000E+00 -0.00000000000E+00 -0.59387450201E+03  0.59387450201E+03  0.00000000000E+00 0. -1.
          5    1    1    2  502    0  0.13129769319E+03 -0.94989350572E+02 -0.12046908279E+03  0.20197111988E+03  0.41800000000E+01 0. -1.
         -5    1    1    2    0  502  0.51930282667E+02 -0.19571066074E+03 -0.11412707138E+03  0.23246909000E+03  0.41800000000E+01 0. -1.
        -11    1    1    2    0    0 -0.13031314922E+03  0.22331651504E+03 -0.59845068395E+02  0.26539256764E+03  0.00000000000E+00 0.  1.
         11    1    1    2    0    0 -0.52914826636E+02  0.67383496275E+02 -0.77767313829E+02  0.11570769010E+03  0.00000000000E+00 0. -1.
</event>
<event>
 7    1  0.2644565E-009  0.9315204E+02  0.7561462E-02  0.1295393E+00
          3   -1    0    0  501    0  0.00000000000E+00  0.00000000000E+00  0.11126654223E+03  0.11126654223E+03  0.00000000000E+00 0. -1.
         -3   -1    0    0    0  501 -0.00000000000E+00 -0.00000000000E+00 -0.11523360161E+03  0.11523360161E+03  0.00000000000E+00 0.  1.
         25    2    1    2    0    0  0.19275687307E+02 -0.26898937927E+02 -0.11091784534E+02  0.12989173351E+03  0.12511486629E+03 0.  0.
          5    1    3    3  502    0  0.57294595111E+02 -0.11626630259E+02  0.34852143920E+02  0.68190860795E+02  0.41800000000E+01 0. -1.
         -5    1    3    3    0  502 -0.38018907804E+02 -0.15272307669E+02 -0.45943928454E+02  0.61700872716E+02  0.41800000000E+01 0. -1.
        -11    1    1    2    0    0  0.10344503082E+02  0.48663877500E+02 -0.17075833611E+02  0.52600055237E+02  0.00000000000E+00 0.  1.
         11    1    1    2    0    0 -0.29620190388E+02 -0.21764939573E+02  0.24200558765E+02  0.44008355091E+02  0.00000000000E+00 0. -1.
</event>
<event>
 7    1  0.2644565E-009  0.2617408E+03  0.7561462E-02  0.1106102E+00
         -2   -1    0    0    0  501 -0.00000000000E+00  0.00000000000E+00  0.31757721190E+02  0.31757721190E+02  0.00000000000E+00 0. -1.
          2   -1    0    0  501    0  0.00000000000E+00 -0.00000000000E+00 -0.23303533527E+04  0.23303533527E+04  0.00000000000E+00 0.  1.
         25    2    1    2    0    0 -0.12725690280E+03 -0.21377492506E+03 -0.11996277819E+04  0.12315227194E+04  0.12508938979E+03 0.  0.
          5    1    3    3  502    0 -0.93294609080E+02 -0.71332818342E+02 -0.34589262200E+03  0.36531005107E+03  0.41800000000E+01 0. -1.
         -5    1    3    3    0  502 -0.33962293718E+02 -0.14244210672E+03 -0.85373515986E+03  0.86621266832E+03  0.41800000000E+01 0. -1.
        -11    1    1    2    0    0  0.11243513102E+03  0.11965300066E+03 -0.57300894619E+03  0.59606857967E+03  0.00000000000E+00 0. -1.
         11    1    1    2    0    0  0.14821771778E+02  0.94121924397E+02 -0.52595890345E+03  0.53451977484E+03  0.00000000000E+00 0.  1.
</event>
<event>
 7    1  0.2644565E-009  0.1270778E+03  0.7561462E-02  0.1231857E+00
         -2   -1    0    0    0  501 -0.00000000000E+00  0.00000000000E+00  0.50016656224E+02  0.50016656224E+02  0.00000000000E+00 0. -1.
          2   -1    0    0  501    0  0.00000000000E+00 -0.00000000000E+00 -0.61444702472E+03  0.61444702472E+03  0.00000000000E+00 0.  1.
         25    2    1    2    0    0  0.36592451613E+02 -0.11683783280E+03 -0.18255727062E+03  0.25291368402E+03  0.12509231719E+03 0.  0.
          5    1    3    3  502    0  0.20744730724E+02 -0.11076911925E+02 -0.13272578862E+03  0.13485788518E+03  0.41800000000E+01 0.  1.
         -5    1    3    3    0  502  0.15847720889E+02 -0.10576092087E+03 -0.49831482001E+02  0.11805579884E+03  0.41800000000E+01 0.  1.
        -11    1    1    2    0    0 -0.32443486445E+02  0.82351879224E+02 -0.35949435563E+03  0.37023047357E+03  0.00000000000E+00 0.  1.
         11    1    1    2    0    0 -0.41489651681E+01  0.34485953575E+02 -0.22378742235E+02  0.41319523351E+02  0.00000000000E+00 0. -1.
</event>
<event>
 7    1  0.2644565E-009  0.1715252E+03  0.7561462E-02  0.1176267E+00
          2   -1    0    0  501    0  0.00000000000E+00  0.00000000000E+00  0.16208107841E+03  0.16208107841E+03  0.00000000000E+00 0. -1.
         -2   -1    0    0    0  501 -0.00000000000E+00 -0.00000000000E+00 -0.22232505122E+03  0.22232505122E+03  0.00000000000E+00 0.  1.
         25    2    1    2    0    0 -0.15520875661E+03  0.95686111717E+01 -0.30150852094E+02  0.20183583988E+03  0.12508923186E+03 0.  0.
          5    1    3    3  502    0 -0.26190785186E+02 -0.25352475841E+02 -0.54709724084E+02  0.65873602978E+02  0.41800000000E+01 0.  1.
         -5    1    3    3    0  502 -0.12901797142E+03  0.34921087013E+02  0.24558871991E+02  0.13596223690E+03  0.41800000000E+01 0.  1.
        -11    1    1    2    0    0  0.90338336944E+02 -0.42554085282E+02  0.84546895064E+01  0.10021650099E+03  0.00000000000E+00 0. -1.
         11    1    1    2    0    0  0.64870419666E+02  0.32985474111E+02 -0.38547810225E+02  0.82353788760E+02  0.00000000000E+00 0.  1.
</event>
<event>
 7    1  0.2644565E-009  0.1385554E+03  0.7561462E-02  0.1215286E+00
         -1   -1    0    0    0  501 -0.00000000000E+00  0.00000000000E+00  0.32656410974E+02  0.32656410974E+02  0.00000000000E+00 0.  1.
          1   -1    0    0  501    0  0.00000000000E+00 -0.00000000000E+00 -0.65318344834E+03  0.65318344834E+03  0.00000000000E+00 0. -1.
         25    2    1    2    0    0 -0.77363206239E+02 -0.47707183495E+02 -0.24508881095E+03  0.28978941839E+03  0.12509332804E+03 0.  0.
          5    1    3    3  502    0 -0.94149302797E+02  0.81526444716E+01 -0.13094627383E+03  0.16153933223E+03  0.41800000000E+01 0.  1.
         -5    1    3    3    0  502  0.16786096557E+02 -0.55859827966E+02 -0.11414253713E+03  0.12825008616E+03  0.41800000000E+01 0.  1.
        -11    1    1    2    0    0  0.71794696070E+02 -0.41213587566E+01 -0.18145330160E+03  0.19518392516E+03  0.00000000000E+00 0. -1.
         11    1    1    2    0    0  0.55685101696E+01  0.51828542251E+02 -0.19398492481E+03  0.20086651575E+03  0.00000000000E+00 0.  1.
</event>
<event>
 7    1  0.2644565E-009  0.1091691E+03  0.7561462E-02  0.1262116E+00
          2   -1    0    0  501    0  0.00000000000E+00  0.00000000000E+00  0.12987746534E+03  0.12987746534E+03  0.00000000000E+00 0. -1.
         -2   -1    0    0    0  501 -0.00000000000E+00 -0.00000000000E+00 -0.94192229429E+02  0.94192229429E+02  0.00000000000E+00 0.  1.
         25    2    1    2    0    0  0.23423576947E+02 -0.10216964783E+02  0.13309553273E+02  0.12836293583E+03  0.12508736451E+03 0.  0.
          5    1    3    3  502    0 -0.36777644292E+01  0.55854884377E+02  0.54111105888E+01  0.56391901704E+02  0.41800000000E+01 0.  1.
         -5    1    3    3    0  502  0.27101341376E+02 -0.66071849160E+02  0.78984426843E+01  0.71971034122E+02  0.41800000000E+01 0.  1.
        -11    1    1    2    0    0 -0.46031741041E+02  0.34474817933E+02  0.36524550656E+01  0.57626163179E+02  0.00000000000E+00 0.  1.
         11    1    1    2    0    0  0.22608164094E+02 -0.24257853150E+02  0.18723227575E+02  0.38080595767E+02  0.00000000000E+00 0. -1.
</event>
<event>
 7    1  0.2644565E-009  0.9880431E+02  0.7561462E-02  0.1282831E+00
         -1   -1    0    0    0  501 -0.00000000000E+00  0.00000000000E+00  0.74155460947E+03  0.74155460947E+03  0.00000000000E+00 0.  1.
          1   -1    0    0  501    0  0.00000000000E+00 -0.00000000000E+00 -0.23830418476E+02  0.23830418476E+02  0.00000000000E+00 0. -1.
         25    2    1    2    0    0  0.63308143886E+02 -0.30109356190E+02  0.48463593115E+03  0.50540464954E+03  0.12508948640E+03 0.  0.
          5    1    3    3  502    0  0.41902921354E+02 -0.40638371711E+02  0.75368264553E+02  0.95421065677E+02  0.41800000000E+01 0. -1.
         -5    1    3    3    0  502  0.21405222532E+02  0.10529015521E+02  0.40926766659E+03  0.40998358386E+03  0.41800000000E+01 0. -1.
        -11    1    1    2    0    0 -0.86168438184E+02  0.14994413758E+02  0.16942410591E+03  0.19066819306E+03  0.00000000000E+00 0. -1.
         11    1    1    2    0    0  0.22860294298E+02  0.15114942432E+02  0.63664153942E+02  0.69312185345E+02  0.00000000000E+00 0.  1.
</event>
<event>
 7    1  0.3099601E-009  0.1318450E+03  0.7561462E-02  0.1224744E+00
          4   -1    0    0  501    0  0.00000000000E+00  0.00000000000E+00  0.22598267567E+03  0.22598267567E+03  0.00000000000E+00 0. -1.
         -4   -1    0    0    0  501 -0.00000000000E+00 -0.00000000000E+00 -0.92734427060E+02  0.92734427060E+02  0.00000000000E+00 0.  1.
         25    2    1    2    0    0  0.92756975276E+02 -0.21042793083E+02  0.66717672456E+02  0.17072120180E+03  0.12509126798E+03 0.  0.
          5    1    3    3  502    0  0.21051803484E+02  0.50895901190E+02  0.28126374054E+02  0.61984969995E+02  0.41800000000E+01 0. -1.
         -5    1    3    3    0  502  0.71705171792E+02 -0.71938694273E+02  0.38591298401E+02  0.10873623181E+03  0.41800000000E+01 0. -1.
        -11    1    1    2    0    0 -0.60153568391E+02  0.36870123711E+02  0.82359540629E+02  0.10844792181E+03  0.00000000000E+00 0. -1.
         11    1    1    2    0    0 -0.32603406885E+02 -0.15827330629E+02 -0.15828964478E+02  0.39547979111E+02  0.00000000000E+00 0.  1.
</event>
<event>
 7    1  0.2644565E-009  0.7556537E+02  0.7561462E-02  0.1342129E+00
          2   -1    0    0  501    0  0.00000000000E+00  0.00000000000E+00  0.73907274507E+03  0.73907274507E+03  0.00000000000E+00 0. -1.
         -2   -1    0    0    0  501 -0.00000000000E+00 -0.00000000000E+00 -0.19674111501E+02  0.19674111501E+02  0.00000000000E+00 0.  1.
         25    2    1    2    0    0 -0.59831575973E+01  0.49613978050E+02  0.43526974330E+03  0.45563443952E+03  0.12508256495E+03 0.  0.
          5    1    3    3  502    0 -0.17298893379E+02  0.52165836317E+02  0.43923707493E+03  0.44268183449E+03  0.41800000000E+01 0.  1.
         -5    1    3    3    0  502  0.11315735781E+02 -0.25518582667E+01 -0.39673316333E+01  0.12952605034E+02  0.41800000000E+01 0.  1.
        -11    1    1    2    0    0 -0.19866567083E+02 -0.53932038348E+02  0.26367853057E+03  0.26986980700E+03  0.00000000000E+00 0. -1.
         11    1    1    2    0    0  0.25849724681E+02  0.43180602981E+01  0.20450359703E+02  0.33242610048E+02  0.00000000000E+00 0.  1.
</event>
<event>
 7    1  0.2644565E-009  0.1856439E+03  0.7561462E-02  0.1162450E+00
         -2   -1    0    0    0  501 -0.00000000000E+00  0.00000000000E+00  0.50729942608E+02  0.50729942608E+02  0.00000000000E+00 0.  1.
          2   -1    0    0  501    0  0.00000000000E+00 -0.00000000000E+00 -0.83780705506E+03  0.83780705506E+03  0.00000000000E+00 0. -1.
         25    2    1    2    0    0 -0.15055360903E+03  0.83279673787E+02 -0.31640344275E+03  0.38126169643E+03  0.12508976504E+03 0.  0.
          5    1    3    3  502    0 -0.30501537069E+02 -0.82975710593E+01 -0.14017694484E+01  0.31915996093E+02  0.41800000000E+01 0. -1.
         -5    1    3    3    0  502 -0.12005207197E+03  0.91577244847E+02 -0.31500167331E+03  0.34934570033E+03  0.41800000000E+01 0. -1.
        -11    1    1    2    0    0  0.11773057589E+03 -0.23352308851E+02 -0.27635254677E+03  0.30129146840E+03  0.00000000000E+00 0.  1.
         11    1    1    2    0    0  0.32823033148E+02 -0.59927364936E+02 -0.19432112293E+03  0.20598383284E+03  0.00000000000E+00 0. -1.
</event>
<event>
 7    1  0.2644565E-009  0.3816909E+03  0.7561462E-02  0.1050311E+00
          1   -1    0    0  501    0  0.00000000000E+00  0.00000000000E+00  0.90386716040E+03  0.90386716040E+03  0.00000000000E+00 0. -1.
         -1   -1    0    0    0  501 -0.00000000000E+00 -0.00000000000E+00 -0.17131321661E+03  0.17131321661E+03  0.00000000000E+00 0.  1.
         25    2    1    2    0    0  0.21484842889E+03 -0.30989342202E+03  0.40721146751E+03  0.56892067367E+03  0.12512303243E+03 0.  0.
          5    1    3    3  502    0  0.89074781335E+02 -0.63005414331E+02  0.18019582552E+03  0.21069410727E+03  0.41800000000E+01 0. -1.
         -5    1    3    3    0  502  0.12577364756E+03 -0.24688800769E+03  0.22701564199E+03  0.35822656639E+03  0.41800000000E+01 0. -1.
        -11    1    1    2    0    0 -0.13957885408E+03  0.20143032950E+03  0.15203286111E+03  0.28839283106E+03  0.00000000000E+00 0. -1.
         11    1    1    2    0    0 -0.75269574819E+02  0.10846309252E+03  0.17330961517E+03  0.21786687229E+03  0.00000000000E+00 0.  1.
</event>
<event>
 7    1  0.2644565E-009  0.1070043E+03  0.7561462E-02  0.1266220E+00
         -1   -1    0    0    0  501 -0.00000000000E+00  0.00000000000E+00  0.37556375581E+03  0.37556375581E+03  0.00000000000E+00 0.  1.
          1   -1    0    0  501    0  0.00000000000E+00 -0.00000000000E+00 -0.57331630991E+02  0.57331630991E+02  0.00000000000E+00 0. -1.
         25    2    1    2    0    0 -0.72565128719E+02 -0.24283323755E+02  0.21522578744E+03  0.26043406981E+03  0.12509351470E+03 0.  0.
          5    1    3    3  502    0 -0.32049823943E+02  0.41687805206E+01 -0.64820997780E+01  0.33227397782E+02  0.41800000000E+01 0.  1.
         -5    1    3    3    0  502 -0.40515304776E+02 -0.28452104275E+02  0.22170788722E+03  0.22720667203E+03  0.41800000000E+01 0.  1.
        -11    1    1    2    0    0  0.34039804739E+02  0.66424488554E+02  0.31646763213E+02  0.81070577944E+02  0.00000000000E+00 0.  1.
         11    1    1    2    0    0  0.38525323980E+02 -0.42141164800E+02  0.71359574163E+02  0.91390739045E+02  0.00000000000E+00 0. -1.
</event>
<event>
 7    1  0.2644565E-009  0.1250866E+03  0.7561462E-02  0.1234934E+00
         -2   -1    0    0    0  501 -0.00000000000E+00  0.00000000000E+00  0.43471215317E+02  0.43471215317E+02  0.00000000000E+00 0.  1.
          2   -1    0    0  501    0  0.00000000000E+00 -0.00000000000E+00 -0.38465161644E+03  0.38465161644E+03  0.00000000000E+00 0. -1.
         25    2    1    2    0    0  0.49684646748E+02  0.42219378423E+02 -0.22291493993E+03  0.26379996669E+03  0.12509321303E+03 0.  0.
          5    1    3    3  502    0  0.69011035425E+02  0.75293298218E+02 -0.15386351258E+03  0.18472427202E+03  0.41800000000E+01 0. -1.
         -5    1    3    3    0  502 -0.19326388677E+02 -0.33073919795E+02 -0.69051427343E+02  0.79075694673E+02  0.41800000000E+01 0. -1.
        -11    1    1    2    0    0 -0.11230642195E+01 -0.58264150175E+02 -0.39466250687E+02  0.70381513284E+02  0.00000000000E+00 0. -1.
         11    1    1    2    0    0 -0.48561582529E+02  0.16044771753E+02 -0.78799210511E+02  0.93941351786E+02  0.00000000000E+00 0.  1.
</event>
<event>
 7    1  0.2742553E-009  0.9116646E+02  0.7561462E-02  0.1300051E+00
         -2   -1    0    0    0  501 -0.00000000000E+00  0.00000000000E+00  0.83121989691E+02  0.83121989691E+02  0.00000000000E+00 0.  1.
          2   -1    0    0  501    0  0.00000000000E+00 -0.00000000000E+00 -0.24295280666E+03  0.24295280666E+03  0.00000000000E+00 0. -1.
         25    2    1    2    0    0  0.31148291077E+02  0.27276307931E+02  0.67203777562E+01  0.13193423182E+03  0.12508902844E+03 0.  0.
          5    1    3    3  502    0  0.69183103539E+02 -0.39851901023E+01  0.31986876952E+02  0.76438316652E+02  0.41800000000E+01 0.  1.
         -5    1    3    3    0  502 -0.38034812462E+02  0.31261498033E+02 -0.25266499196E+02  0.55495915164E+02  0.41800000000E+01 0.  1.
        -11    1    1    2    0    0 -0.21201976552E+02 -0.41230497066E+02 -0.17038557418E+03  0.17658063763E+03  0.00000000000E+00 0. -1.
         11    1    1    2    0    0 -0.99463145249E+01  0.13954189135E+02  0.38343794537E+01  0.17559926903E+02  0.00000000000E+00 0.  1.
</event>
<event>
 7    1  0.2644565E-009  0.2211387E+03  0.7561462E-02  0.1133037E+00
         -1   -1    0    0    0  501 -0.00000000000E+00  0.00000000000E+00  0.35661088303E+02  0.35661088303E+02  0.00000000000E+00 0.  1.
          1   -1    0    0  501    0  0.00000000000E+00 -0.00000000000E+00 -0.16982041966E+04  0.16982041966E+04  0.00000000000E+00 0. -1.
         25    2    1    2    0    0  0.20000184021E+03 -0.14473975583E+02 -0.11761289735E+04  0.11996403444E+04  0.12508941398E+03 0.  0.
          5    1    3    3  502    0  0.19301184606E+03  0.12801665006E+02 -0.11212205369E+04  0.11377919055E+04  0.41800000000E+01 0. -1.
         -5    1    3    3    0  502  0.69899941547E+01 -0.27275640589E+02 -0.54908436635E+02  0.61848438958E+02  0.41800000000E+01 0. -1.
        -11    1    1    2    0    0 -0.13128839757E+03 -0.34745112094E+02 -0.28085619603E+03  0.31196805766E+03  0.00000000000E+00 0.  1.
         11    1    1    2    0    0 -0.68713442642E+02  0.49219087678E+02 -0.20555793875E+03  0.22225688285E+03  0.00000000000E+00 0. -1.
</event>
<event>
 7    1  0.2644565E-009  0.1344386E+03  0.7561462E-02  0.1221014E+00
          1   -1    0    0  501    0  0.00000000000E+00  0.00000000000E+00  0.44793563972E+02  0.44793563972E+02  0.00000000000E+00 0. -1.
         -1   -1    0    0    0  501 -0.00000000000E+00 -0.00000000000E+00 -0.89747833296E+03  0.89747833296E+03  0.00000000000E+00 0.  1.
         25    2    1    2    0    0  0.10346819969E+03  0.38636984915E+02 -0.74506079037E+03  0.76352132504E+03  0.12510294756E+03 0.  0.
          5    1    3    3  502    0  0.99133354355E+02 -0.65108178470E+01 -0.29811717318E+03  0.31426284228E+03  0.41800000000E+01 0. -1.
         -5    1    3    3    0  502  0.43348453315E+01  0.45147802762E+02 -0.44694361719E+03  0.44925848275E+03  0.41800000000E+01 0. -1.
        -11    1    1    2    0    0 -0.23188289295E+02 -0.36918275993E+02  0.10738936760E+01  0.43609736417E+02  0.00000000000E+00 0.  1.
         11    1    1    2    0    0 -0.80279910391E+02 -0.17187089228E+01 -0.10869787229E+03  0.13514083547E+03  0.00000000000E+00 0. -1.
</event>
<event>
 7    1  0.2644565E-009  0.1176768E+03  0.7561462E-02  0.1246980E+00
         -1   -1    0    0    0  501 -0.00000000000E+00  0.00000000000E+00  0.58104427754E+02  0.58104427754E+02  0.00000000000E+00 0. -1.
          1   -1    0    0  501    0  0.00000000000E+00 -0.00000000000E+00 -0.29548741083E+03  0.29548741083E+03  0.00000000000E+00 0.  1.
         25    2    1    2    0    0 -0.85589119103E+01  0.47207575357E+02 -0.75115615561E+02  0.15359555164E+03  0.12508967838E+03 0.  0.
          5    1    3    3  502    0  0.51486885716E+02  0.50729607450E+02 -0.30372228725E+02  0.78513292827E+02  0.41800000000E+01 0.  1.
         -5    1    3    3    0  502 -0.60045797627E+02 -0.35220320929E+01 -0.44743386836E+02  0.75082258811E+02  0.41800000000E+01 0.  1.
        -11    1    1    2    0    0  0.35704275511E+02 -0.62147584804E+02 -0.61074425168E+02  0.94165827115E+02  0.00000000000E+00 0. -1.
         11    1    1    2    0    0 -0.27145363601E+02  0.14940009447E+02 -0.10119294234E+03  0.10583045983E+03  0.00000000000E+00 0.  1.
</event>
<event>
 7    1  0.2644565E-009  0.8343517E+02  0.7561462E-02  0.1319576E+00
         -1   -1    0    0    0  501 -0.00000000000E+00  0.00000000000E+00  0.10938489186E+03  0.10938489186E+03  0.00000000000E+00 0.  1.
          1   -1    0    0  501    0  0.00000000000E+00 -0.00000000000E+00 -0.12599642985E+03  0.12599642985E+03  0.00000000000E+00 0. -1.
         25    2    1    2    0    0 -0.25908457460E+01 -0.36989549626E+02  0.18949124037E+02  0.13183861487E+03  0.12508961510E+03 0.  0.
          5    1    3    3  502    0 -0.28637813421E+02 -0.62882669429E+02  0.48492737934E+02  0.84518474338E+02  0.41800000000E+01 0.  1.
         -5    1    3    3    0  502  0.26046967675E+02  0.25893119803E+02 -0.29543613897E+02  0.47320140536E+02  0.41800000000E+01 0.  1.
        -11    1    1    2    0    0  0.12243100066E+02 -0.80291410380E+01  0.24089785282E+02  0.28190040084E+02  0.00000000000E+00 0.  1.
         11    1    1    2    0    0 -0.96522543197E+01  0.45018690664E+02 -0.59650447305E+02  0.75352666749E+02  0.00000000000E+00 0. -1.
</event>
<event>
 6    1  0.2644565E-009  0.8718270E+02  0.7561462E-02  0.1309821E+00
          2   -1    0    0  501    0  0.00000000000E+00  0.00000000000E+00  0.38131209352E+03  0.38131209352E+03  0.00000000000E+00 0. -1.
         -2   -1    0    0    0  501 -0.00000000000E+00 -0.00000000000E+00 -0.36067040468E+02  0.36067040468E+02  0.00000000000E+00 0.  1.
          5    1    1    2  502    0  0.21881610698E+02 -0.49470674649E+02  0.72017733098E+01  0.54731074133E+02  0.41800000000E+01 0. -1.
         -5    1    1    2    0  502 -0.27282379429E+02  0.19215085173E+02  0.12591254749E+03  0.13032647368E+03  0.41800000000E+01 0. -1.
        -11    1    1    2    0    0  0.42493400586E+02  0.24184024721E+02  0.70546975468E+02  0.85833745653E+02  0.00000000000E+00 0. -1.
         11    1    1    2    0    0 -0.37092631855E+02  0.60715647552E+01  0.14158375678E+03  0.14648784052E+03  0.00000000000E+00 0.  1.
</event>
<event>
 7    1  0.2644565E-009  0.1214589E+03  0.7561462E-02  0.1240710E+00
          1   -1    0    0  501    0  0.00000000000E+00  0.00000000000E+00  0.23286635202E+02  0.23286635202E+02  0.00000000000E+00 0. -1.
         -1   -1    0    0    0  501 -0.00000000000E+00 -0.00000000000E+00 -0.75175362979E+03  0.75175362979E+03  0.00000000000E+00 0.  1.
         25    2    1    2    0    0 -0.63052263942E+02 -0.17188653071E+02 -0.48978170291E+03  0.50971154958E+03  0.12509480198E+03 0.  0.
          5    1    3    3  502    0 -0.10116543871E+03 -0.10852514527E+02 -0.37188372515E+03  0.38557385867E+03  0.41800000000E+01 0. -1.
         -5    1    3    3    0  502  0.38113174767E+02 -0.63361385434E+01 -0.11789797776E+03  0.12413769090E+03  0.41800000000E+01 0. -1.
        -11    1    1    2    0    0  0.42070511708E+02 -0.29267616224E+02 -0.57109475916E+02  0.76733392693E+02  0.00000000000E+00 0.  1.
         11    1    1    2    0    0  0.20981752234E+02  0.46456269294E+02 -0.18157581576E+03  0.18859532272E+03  0.00000000000E+00 0. -1.
</event>
<event>
 7    1  0.2644565E-009  0.9423248E+02  0.7561462E-02  0.1292914E+00
          1   -1    0    0  501    0  0.00000000000E+00  0.00000000000E+00  0.56297764213E+02  0.56297764213E+02  0.00000000000E+00 0. -1.
         -1   -1    0    0    0  501 -0.00000000000E+00 -0.00000000000E+00 -0.28560117206E+03  0.28560117206E+03  0.00000000000E+00 0.  1.
         25    2    1    2    0    0  0.82770324106E+01 -0.35673112982E+02 -0.19417337761E+03  0.23385951722E+03  0.12508354395E+03 0.  0.
          5    1    3    3  502    0  0.59056903459E+02  0.48218286707E+01 -0.58438902987E+02  0.83327940454E+02  0.41800000000E+01 0.  1.
         -5    1    3    3    0  502 -0.50779871049E+02 -0.40494941653E+02 -0.13573447462E+03  0.15053157676E+03  0.41800000000E+01 0.  1.
        -11    1    1    2    0    0  0.20407989750E+02  0.27325899815E+02 -0.60100444164E+02  0.69103214361E+02  0.00000000000E+00 0.  1.
         11    1    1    2    0    0 -0.28685022160E+02  0.83472131669E+01  0.24970413926E+02  0.38936204690E+02  0.00000000000E+00 0. -1.
</event>
<event>
 7    1  0.2644565E-009  0.1793676E+03  0.7561462E-02  0.1168416E+00
          2   -1    0    0  501    0  0.00000000000E+00  0.00000000000E+00  0.26086437384E+03  0.26086437384E+03  0.00000000000E+00 0. -1.
         -2   -1    0    0    0  501 -0.00000000000E+00 -0.00000000000E+00 -0.12876177305E+03  0.12876177305E+03  0.00000000000E+00 0.  1.
         25    2    1    2    0    0  0.34347933824E+02  0.14116796766E+03  0.96988014142E+02  0.21485626325E+03  0.12509341836E+03 0.  0.
          5    1    3    3  502    0 -0.54822144666E+01 -0.21397076037E+02  0.25277977703E+01  0.22621929625E+02  0.41800000000E+01 0. -1.
         -5    1    3    3    0  502  0.39830148291E+02  0.16256504370E+03  0.94460216372E+02  0.19223433362E+03  0.41800000000E+01 0. -1.
        -11    1    1    2    0    0  0.26075992957E+02 -0.74112779821E+02  0.18991137187E+01  0.78589237014E+02  0.00000000000E+00 0.  1.
         11    1    1    2    0    0 -0.60423926782E+02 -0.67055187843E+02  0.33215472926E+02  0.96180646629E+02  0.00000000000E+00 0. -1.
</event>
<event>
 7    1  0.2644565E-009  0.2577027E+03  0.7561462E-02  0.1108531E+00
          2   -1    0    0  501    0  0.00000000000E+00  0.00000000000E+00  0.80597760764E+03  0.80597760764E+03  0.00000000000E+00 0. -1.
         -2   -1    0    0    0  501 -0.00000000000E+00 -0.00000000000E+00 -0.10395539476E+03  0.10395539476E+03  0.00000000000E+00 0.  1.
         25    2    1    2    0    0 -0.22952788180E+03 -0.46240636547E+02  0.56441138314E+03  0.62372579258E+03  0.12510959163E+03 0.  0.
          5    1    3    3  502    0 -0.21516914467E+03 -0.79161538056E+02  0.48857076155E+03  0.53970656043E+03  0.41800000000E+01 0. -1.
         -5    1    3    3    0  502 -0.14358737124E+02  0.32920901509E+02  0.75840621592E+02  0.84019232152E+02  0.41800000000E+01 0. -1.
        -11    1    1    2    0    0  0.13346107188E+03  0.70387282889E+02  0.95532865235E+02  0.17858542953E+03  0.00000000000E+00 0. -1.
         11    1    1    2    0    0  0.96066809918E+02 -0.24146646342E+02  0.42077964501E+02  0.10762178030E+03  0.00000000000E+00 0.  1.
</event>
<event>
 7    1  0.2644565E-009  0.1451970E+03  0.7561462E-02  0.1206502E+00
         -1   -1    0    0    0  501 -0.00000000000E+00  0.00000000000E+00  0.11417437619E+03  0.11417437619E+03  0.00000000000E+00 0.  1.
          1   -1    0    0  501    0  0.00000000000E+00 -0.00000000000E+00 -0.23220715327E+03  0.23220715327E+03  0.00000000000E+00 0. -1.
         25    2    1    2    0    0  0.51422561612E+02  0.10859500445E+03 -0.78530616466E+02  0.19040689431E+03  0.12510224956E+03 0.  0.
          5    1    3    3  502    0 -0.31923242558E+02  0.57997890970E+02 -0.19630857217E+01  0.66363957672E+02  0.41800000000E+01 0.  1.
         -5    1    3    3    0  502  0.83345804171E+02  0.50597113478E+02 -0.76567530745E+02  0.12404293664E+03  0.41800000000E+01 0.  1.
        -11    1    1    2    0    0  0.27893706670E+01 -0.34740048112E+02 -0.52936184175E+02  0.63378948608E+02  0.00000000000E+00 0. -1.
         11    1    1    2    0    0 -0.54211932279E+02 -0.73854956335E+02  0.13434023565E+02  0.92595686540E+02  0.00000000000E+00 0.  1.
</event>
<event>
 7    1  0.2644565E-009  0.1268074E+03  0.7561462E-02  0.1232271E+00
         -4   -1    0    0    0  501 -0.00000000000E+00  0.00000000000E+00  0.10132470184E+03  0.10132470184E+03  0.00000000000E+00 0.  1.
          4   -1    0    0  501    0  0.00000000000E+00 -0.00000000000E+00 -0.19320359788E+03  0.19320359788E+03  0.00000000000E+00 0. -1.
         25    2    1    2    0    0 -0.63414804274E+02  0.54084755462E+02 -0.80015686995E+02  0.17028775579E+03  0.12509520947E+03 0.  0.
          5    1    3    3  502    0 -0.63414916761E+02 -0.25977080130E+02 -0.48897779674E+02  0.84289534445E+02  0.41800000000E+01 0.  1.
         -5    1    3    3    0  502  0.11248630278E-03  0.80061835592E+02 -0.31117907321E+02  0.85998221345E+02  0.41800000000E+01 0.  1.
        -11    1    1    2    0    0  0.73120898862E+02 -0.30395495888E+02 -0.37844768059E+02  0.87765474362E+02  0.00000000000E+00 0. -1.
         11    1    1    2    0    0 -0.97060945871E+01 -0.23689259575E+02  0.25981559015E+02  0.36475069570E+02  0.00000000000E+00 0.  1.
</event>
<event>
 7    1  0.2644565E-009  0.1279350E+03  0.7561462E-02  0.1230552E+00
          1   -1    0    0  501    0  0.00000000000E+00  0.00000000000E+00  0.12191876029E+04  0.12191876029E+04  0.00000000000E+00 0. -1.
         -1   -1    0    0    0  501 -0.00000000000E+00 -0.00000000000E+00 -0.15437852444E+02  0.15437852444E+02  0.00000000000E+00 0.  1.
         25    2    1    2    0    0 -0.47898212377E+02  0.52619328337E+02  0.86718492411E+03  0.87904776802E+03  0.12510896609E+03 0.  0.
          5    1    3    3  502    0 -0.35273520155E+02 -0.36789153183E+02  0.24044647144E+03  0.24582441100E+03  0.41800000000E+01 0. -1.
         -5    1    3    3    0  502 -0.12624692223E+02  0.89408481520E+02  0.62673845267E+03  0.63322335702E+03  0.41800000000E+01 0. -1.
        -11    1    1    2    0    0  0.66806652996E+02 -0.97877211331E+01  0.18440440526E+03  0.19637696669E+03  0.00000000000E+00 0.  1.
         11    1    1    2    0    0 -0.18908440619E+02 -0.42831607203E+02  0.15216042104E+03  0.15920072058E+03  0.00000000000E+00 0. -1.
</event>
<event>
 7    1  0.2644565E-009  0.1012135E+03  0.7561462E-02  0.1277765E+00
          2   -1    0    0  501    0  0.00000000000E+00  0.00000000000E+00  0.42919923762E+02  0.42919923762E+02  0.00000000000E+00 0. -1.
         -2   -1    0    0    0  501 -0.00000000000E+00 -0.00000000000E+00 -0.41368464533E+03  0.41368464533E+03  0.00000000000E+00 0.  1.
         25    2    1    2    0    0 -0.32997820086E+02  0.67573655278E+02 -0.17185678569E+03  0.22547132106E+03  0.12508999486E+03 0.  0.
          5    1    3    3  502    0  0.13502801613E+02  0.37953555724E+02  0.44066433431E+01  0.40739280174E+02  0.41800000000E+01 0. -1.
         -5    1    3    3    0  502 -0.46500621699E+02  0.29620099554E+02 -0.17626342903E+03  0.18473204089E+03  0.41800000000E+01 0. -1.
        -11    1    1    2    0    0 -0.15970327206E+01 -0.71769328156E+02 -0.17420770177E+03  0.18841897552E+03  0.00000000000E+00 0.  1.
         11    1    1    2    0    0  0.34594852806E+02  0.41956728778E+01 -0.24700234102E+02  0.42714272513E+02  0.00000000000E+00 0. -1.
</event>
<event>
 7    1  0.2644565E-009  0.9183102E+02  0.7561462E-02  0.1298477E+00
         -1   -1    0    0    0  501 -0.00000000000E+00  0.00000000000E+00  0.11004321940E+03  0.11004321940E+03  0.00000000000E+00 0.  1.
          1   -1    0    0  501    0  0.00000000000E+00 -0.00000000000E+00 -0.11025455026E+03  0.11025455026E+03  0.00000000000E+00 0. -1.
         25    2    1    2    0    0 -0.13370386177E+02  0.11214515165E+02 -0.10814948606E+02  0.12675803536E+03  0.12508438687E+03 0.  0.
          5    1    3    3  502    0  0.11909279893E+02 -0.54143803637E+02  0.80564127219E+00  0.55601293850E+02  0.41800000000E+01 0.  1.
         -5    1    3    3    0  502 -0.25279666071E+02  0.65358318802E+02 -0.11620589879E+02  0.71156741511E+02  0.41800000000E+01 0.  1.
        -11    1    1    2    0    0  0.17717612903E+02  0.19787115545E+02  0.41683775314E+02  0.49426519937E+02  0.00000000000E+00 0.  1.
         11    1    1    2    0    0 -0.43472267254E+01 -0.31001630710E+02 -0.31080157566E+02  0.44113214360E+02  0.00000000000E+00 0. -1.
</event>
<event>
 7    1  0.2644565E-009  0.1650693E+03  0.7561462E-02  0.1183090E+00
          1   -1    0    0  501    0  0.00000000000E+00  0.00000000000E+00  0.15014137929E+03  0.15014137929E+03  0.00000000000E+00 0. -1.
         -1   -1    0    0    0  501 -0.00000000000E+00 -0.00000000000E+00 -0.30960849101E+03  0.30960849101E+03  0.00000000000E+00 0.  1.
         25    2    1    2    0    0  0.60115730639E+02 -0.14079281210E+03 -0.19481593813E+03  0.27755540283E+03  0.12508890791E+03 0.  0.
          5    1    3    3  502    0 -0.32112073122E+01 -0.19469900414E+02  0.16295359817E+02  0.25930677316E+02  0.41800000000E+01 0.  1.
         -5    1    3    3    0  502  0.63326937951E+02 -0.12132291169E+03 -0.21111129794E+03  0.25162472551E+03  0.41800000000E+01 0.  1.
        -11    1    1    2    0    0 -0.65552150234E+02  0.14924033724E+03  0.20527905846E+02  0.16428985842E+03  0.00000000000E+00 0.  1.
         11    1    1    2    0    0  0.54364195945E+01 -0.84475251436E+01  0.14820920561E+02  0.17904609052E+02  0.00000000000E+00 0. -1.
</event>
<event>
 7    1  0.2644565E-009  0.2601640E+03  0.7561462E-02  0.1107045E+00
          1   -1    0    0  501    0  0.00000000000E+00  0.00000000000E+00  0.38090661862E+03  0.38090661862E+03  0.00000000000E+00 0. -1.
         -1   -1    0    0    0  501 -0.00000000000E+00 -0.00000000000E+00 -0.20068386597E+03  0.20068386597E+03  0.00000000000E+00 0.  1.
         25    2    1    2    0    0 -0.21196902447E+03  0.14122622707E+03  0.96566982439E+02  0.29974735088E+03  0.12509027827E+03 0.  0.
          5    1    3    3  502    0 -0.54993601090E+01 -0.48971472353E+01 -0.19614292813E+02  0.21363939131E+02  0.41800000000E+01 0. -1.
         -5    1    3    3    0  502 -0.20646966436E+03  0.14612337431E+03  0.11618127525E+03  0.27838341175E+03  0.41800000000E+01 0. -1.
        -11    1    1    2    0    0  0.15659959171E+03 -0.12722823292E+03  0.95954039169E+02  0.22342254364E+03  0.00000000000E+00 0. -1.
         11    1    1    2    0    0  0.55369432765E+02 -0.13997994155E+02 -0.12298268954E+02  0.58420590072E+02  0.00000000000E+00 0.  1.
</event>
<event>
 7    1  0.2644565E-009  0.9544749E+02  0.7561462E-02  0.1290171E+00
          1   -1    0    0  501    0  0.00000000000E+00  0.00000000000E+00  0.12357931485E+03  0.12357931485E+03  0.00000000000E+00 0. -1.
         -1   -1    0    0    0  501 -0.00000000000E+00 -0.00000000000E+00 -0.11329857327E+03  0.11329857327E+03  0.00000000000E+00 0.  1.
         25    2    1    2    0    0  0.33450118376E+02  0.25649714647E+02  0.30928080099E+02  0.13557770875E+03  0.12509176908E+03 0.  0.
          5    1    3    3  502    0  0.37324244270E+02  0.66179893357E+02 -0.11115596318E+02  0.76901927001E+02  0.41800000000E+01 0. -1.
         -5    1    3    3    0  502 -0.38741258944E+01 -0.40530178709E+02  0.42043676417E+02  0.58675781753E+02  0.41800000000E+01 0. -1.
        -11    1    1    2    0    0 -0.67728337964E+01 -0.42026489132E+02 -0.44772551238E+02  0.61779271691E+02  0.00000000000E+00 0.  1.
         11    1    1    2    0    0 -0.26677284579E+02  0.16376774485E+02  0.24125212720E+02  0.39520907680E+02  0.00000000000E+00 0. -1.
</event>
<event>
 7    1  0.2644565E-009  0.1305410E+03  0.7561462E-02  0.1226655E+00
          2   -1    0    0  501    0  0.00000000000E+00  0.00000000000E+00  0.52772086113E+03  0.52772086113E+03  0.00000000000E+00 0. -1.
         -2   -1    0    0    0  501 -0.00000000000E+00 -0.00000000000E+00 -0.49749750989E+02  0.49749750989E+02  0.00000000000E+00 0.  1.
         25    2    1    2    0    0 -0.34181977236E+02  0.83075729964E+02  0.11739189616E+03  0.19364622075E+03  0.12509203432E+03 0.  0.
          5    1    3    3  502    0 -0.36630905834E+02  0.11369089222E+03  0.10844337897E+03  0.16138426528E+03  0.41800000000E+01 0.  1.
         -5    1    3    3    0  502  0.24489285978E+01 -0.30615162254E+02  0.89485171917E+01  0.32261955475E+02  0.41800000000E+01 0.  1.
        -11    1    1    2    0    0 -0.19364230047E+02 -0.23912750260E+02  0.27330381370E+02  0.41155106319E+02  0.00000000000E+00 0. -1.
         11    1    1    2    0    0  0.53546207283E+02 -0.59162979704E+02  0.33324883261E+03  0.34266928505E+03  0.00000000000E+00 0.  1.
</event>
<event>
 7    1  0.2644565E-009  0.1623181E+03  0.7561462E-02  0.1186104E+00
          2   -1    0    0  501    0  0.00000000000E+00  0.00000000000E+00  0.10384279125E+04  0.10384279125E+04  0.00000000000E+00 0. -1.
         -2   -1    0    0    0  501 -0.00000000000E+00 -0.00000000000E+00 -0.26624514994E+02  0.26624514994E+02  0.00000000000E+00 0.  1.
         25    2    1    2    0    0 -0.10413273990E+03 -0.62651526330E+02  0.65113512993E+03  0.67408705412E+03  0.12509019874E+03 0.  0.
          5    1    3    3  502    0 -0.12746598866E+02 -0.80087419324E+02  0.31293744890E+03  0.32330139165E+03  0.41800000000E+01 0.  1.
         -5    1    3    3    0  502 -0.91386141029E+02  0.17435892994E+02  0.33819768103E+03  0.35078566247E+03  0.41800000000E+01 0.  1.
        -11    1    1    2    0    0  0.60554515513E+02  0.82566272332E+02  0.26142342793E+03  0.28076012421E+03  0.00000000000E+00 0. -1.
         11    1    1    2    0    0  0.43578224382E+02 -0.19914746001E+02  0.99244839639E+02  0.11020524917E+03  0.00000000000E+00 0.  1.
</event>
<event>
 7    1  0.2644565E-009  0.1997033E+03  0.7561462E-02  0.1149990E+00
          2   -1    0    0  501    0  0.00000000000E+00  0.00000000000E+00  0.12718413648E+04  0.12718413648E+04  0.00000000000E+00 0. -1.
         -2   -1    0    0    0  501 -0.00000000000E+00 -0.00000000000E+00 -0.40048418232E+02  0.40048418232E+02  0.00000000000E+00 0.  1.
         25    2    1    2    0    0  0.32981364227E+02  0.18596666987E+03  0.47501454353E+03  0.52626915588E+03  0.12509610379E+03 0.  0.
          5    1    3    3  502    0  0.40935226932E+02  0.14009690675E+03  0.20180140919E+03  0.24908656575E+03  0.41800000000E+01 0. -1.
         -5    1    3    3    0  502 -0.79538627053E+01  0.45869763121E+02  0.27321313434E+03  0.27718259014E+03  0.41800000000E+01 0. -1.
        -11    1    1    2    0    0 -0.60575608986E+02 -0.14615110301E+03  0.63845510176E+03  0.65776474995E+03  0.00000000000E+00 0.  1.
         11    1    1    2    0    0  0.27594244759E+02 -0.39815566860E+02  0.11832330125E+03  0.12785587717E+03  0.00000000000E+00 0. -1.
</event>
<event>
 7    1  0.3232837E-009  0.1175658E+03  0.7561462E-02  0.1247168E+00
          2   -1    0    0  501    0  0.00000000000E+00  0.00000000000E+00  0.19851120151E+04  0.19851120151E+04  0.00000000000E+00 0.  1.
         -2   -1    0    0    0  501 -0.00000000000E+00 -0.00000000000E+00 -0.89148605885E+01  0.89148605885E+01  0.00000000000E+00 0. -1.
         25    2    1    2    0    0  0.50341412268E+02 -0.73357656405E+01  0.15157222309E+04  0.15217252414E+04  0.12508300439E+03 0.  0.
          5    1    3    3  502    0 -0.39732800617E+02 -0.90808706134E+01  0.32107068759E+03  0.32367424440E+03  0.41800000000E+01 0.  1.
         -5    1    3    3    0  502  0.90074212885E+02  0.17451049729E+01  0.11946515433E+04  0.11980509970E+04  0.41800000000E+01 0.  1.
        -11    1    1    2    0    0  0.79736408866E+01 -0.32425799750E+02  0.18082725508E+03  0.18388449532E+03  0.00000000000E+00 0.  1.
         11    1    1    2    0    0 -0.58315053154E+02  0.39761565390E+02  0.27964766858E+03  0.28841713896E+03  0.00000000000E+00 0. -1.
</event>
<event>
 7    1  0.2644565E-009  0.7413845E+02  0.7561462E-02  0.1346560E+00
         -2   -1    0    0    0  501 -0.00000000000E+00  0.00000000000E+00  0.23284916645E+02  0.23284916645E+02  0.00000000000E+00 0.  1.
          2   -1    0    0  501    0  0.00000000000E+00 -0.00000000000E+00 -0.55486039971E+03  0.55486039971E+03  0.00000000000E+00 0. -1.
         25    2    1    2    0    0 -0.12491938743E+02 -0.17713624943E+02 -0.37709558577E+03  0.39789239367E+03  0.12508978812E+03 0.  0.
          5    1    3    3  502    0 -0.49746430945E+02  0.68958090410E+01 -0.32615441603E+03  0.33002490068E+03  0.41800000000E+01 0.  1.
         -5    1    3    3    0  502  0.37254492202E+02 -0.24609433984E+02 -0.50941169737E+02  0.67867492988E+02  0.41800000000E+01 0.  1.
        -11    1    1    2    0    0 -0.18631632556E+02  0.91480332853E+01  0.16491013115E+01  0.20821714143E+02  0.00000000000E+00 0.  1.
         11    1    1    2    0    0  0.31123571299E+02  0.85655916579E+01 -0.15612899861E+03  0.15943120855E+03  0.00000000000E+00 0. -1.
</event>
<event>
 7    1  0.2644565E-009  0.7423926E+02  0.7561462E-02  0.1346243E+00
         -1   -1    0    0    0  501 -0.00000000000E+00  0.00000000000E+00  0.26954288002E+02  0.26954288002E+02  0.00000000000E+00 0.  1.
          1   -1    0    0  501    0  0.00000000000E+00 -0.00000000000E+00 -0.43703620494E+03  0.43703620494E+03  0.00000000000E+00 0. -1.
         25    2    1    2    0    0  0.10654206616E+02  0.32716568389E+01 -0.23959697575E+03  0.27051393792E+03  0.12508742529E+03 0.  0.
          5    1    3    3  502    0  0.37429331889E+01  0.29716944383E+02 -0.93601848491E+00  0.30256484642E+02  0.41800000000E+01 0.  1.
         -5    1    3    3    0  502  0.69112734276E+01 -0.26445287544E+02 -0.23866095727E+03  0.24025745328E+03  0.41800000000E+01 0.  1.
        -11    1    1    2    0    0 -0.22256243782E+02 -0.43421292958E+02 -0.78266484286E+02  0.92230101550E+02  0.00000000000E+00 0.  1.
         11    1    1    2    0    0  0.11602037166E+02  0.40149636119E+02 -0.92218456905E+02  0.10124645347E+03  0.00000000000E+00 0. -1.
</event>
<event>
 7    1  0.2644565E-009  0.1165897E+03  0.7561462E-02  0.1248831E+00
          1   -1    0    0  501    0  0.00000000000E+00  0.00000000000E+00  0.94550831884E+02  0.94550831884E+02  0.00000000000E+00 0. -1.
         -1   -1    0    0    0  501 -0.00000000000E+00 -0.00000000000E+00 -0.15914357630E+03  0.15914357630E+03  0.00000000000E+00 0.  1.
         25    2    1    2    0    0  0.50722463224E+02 -0.17858578427E+02 -0.53629832448E+02  0.14633551544E+03  0.12508487939E+03 0.  0.
          5    1    3    3  502    0  0.71921979885E+02  0.26783616999E+02 -0.58370662028E+02  0.96512900255E+02  0.41800000000E+01 0.  1.
         -5    1    3    3    0  502 -0.21199516662E+02 -0.44642195425E+02  0.47408295797E+01  0.49822615188E+02  0.41800000000E+01 0.  1.
        -11    1    1    2    0    0 -0.33207350875E+02  0.55799514452E+02 -0.46937156250E+01  0.65102572389E+02  0.00000000000E+00 0.  1.
         11    1    1    2    0    0 -0.17515112349E+02 -0.37940936026E+02 -0.62691963447E+01  0.42256320354E+02  0.00000000000E+00 0. -1.
</event>
<event>
 7    1  0.3016033E-009  0.1370506E+03  0.7561462E-02  0.1217354E+00
         -2   -1    0    0    0  501 -0.00000000000E+00  0.00000000000E+00  0.75127023537E+02  0.75127023537E+02  0.00000000000E+00 0.  1.
          2   -1    0    0  501    0  0.00000000000E+00 -0.00000000000E+00 -0.40867203166E+03  0.40867203166E+03  0.00000000000E+00 0. -1.
         25    2    1    2    0    0 -0.11721182653E+03  0.66781646474E+02 -0.14044399140E+03  0.23145715937E+03  0.12509796689E+03 0.  0.
          5    1    3    3  502    0 -0.43430742090E+02  0.16157379192E+02 -0.13377232757E+03  0.14163261731E+03  0.41800000000E+01 0. -1.
         -5    1    3    3    0  502 -0.73781084442E+02  0.50624267281E+02 -0.66716638311E+01  0.89824542067E+02  0.41800000000E+01 0. -1.
        -11    1    1    2    0    0  0.39906521338E+02 -0.75621583450E+01 -0.55203392500E+01  0.40990130880E+02  0.00000000000E+00 0.  1.
         11    1    1    2    0    0  0.77305305195E+02 -0.59219488129E+02 -0.18758067747E+03  0.21135176495E+03  0.00000000000E+00 0. -1.
</event>
<event>
 7    1  0.2644565E-009  0.9440470E+02  0.7561462E-02  0.1292523E+00
          2   -1    0    0  501    0  0.00000000000E+00  0.00000000000E+00  0.54551255724E+03  0.54551255724E+03  0.00000000000E+00 0. -1.
         -2   -1    0    0    0  501 -0.00000000000E+00 -0.00000000000E+00 -0.27074353096E+02  0.27074353096E+02  0.00000000000E+00 0.  1.
         25    2    1    2    0    0 -0.20553872377E+02  0.13935798804E+02  0.17613931506E+03  0.21746191098E+03  0.12509179133E+03 0.  0.
          5    1    3    3  502    0  0.73872918761E+00  0.53356858439E+02  0.16150490318E+03  0.17014348714E+03  0.41800000000E+01 0.  1.
         -5    1    3    3    0  502 -0.21292601564E+02 -0.39421059635E+02  0.14634411881E+02  0.47318423846E+02  0.41800000000E+01 0.  1.
        -11    1    1    2    0    0  0.52031804744E+02 -0.23913528456E+02  0.16190020036E+03  0.17172897375E+03  0.00000000000E+00 0.  1.
         11    1    1    2    0    0 -0.31477932367E+02  0.99777296525E+01  0.18039868872E+03  0.18339602560E+03  0.00000000000E+00 0. -1.
</event>
<event>
 7    1  0.3246460E-009  0.2101911E+03  0.7561462E-02  0.1141415E+00
          3   -1    0    0  501    0  0.00000000000E+00  0.00000000000E+00  0.69517090174E+03  0.69517090174E+03  0.00000000000E+00 0. -1.
         -3   -1    0    0    0  501 -0.00000000000E+00 -0.00000000000E+00 -0.73696549445E+02  0.73696549445E+02  0.00000000000E+00 0.  1.
         25    2    1    2    0    0  0.16495575105E+03  0.90005199459E+02  0.42869323520E+03  0.48449620277E+03  0.12508934749E+03 0.  0.
          5    1    3    3  502    0  0.16619848628E+02  0.60929752425E+02  0.65518131422E+02  0.91097486486E+02  0.41800000000E+01 0.  1.
         -5    1    3    3    0  502  0.14833590242E+03  0.29075447034E+02  0.36317510378E+03  0.39339871628E+03  0.41800000000E+01 0.  1.
        -11    1    1    2    0    0 -0.86539695409E+02 -0.54772188702E-01  0.57102448396E+02  0.10368129771E+03  0.00000000000E+00 0. -1.
         11    1    1    2    0    0 -0.78416055638E+02 -0.89950427270E+02  0.13567866869E+03  0.18068995071E+03  0.00000000000E+00 0.  1.
</event>
<event>
 7    1  0.2644565E-009  0.1090653E+03  0.7561462E-02  0.1262311E+00
         -2   -1    0    0    0  501 -0.00000000000E+00  0.00000000000E+00  0.18701325901E+03  0.18701325901E+03  0.00000000000E+00 0. -1.
          2   -1    0    0  501    0  0.00000000000E+00 -0.00000000000E+00 -0.11853113026E+03  0.11853113026E+03  0.00000000000E+00 0.  1.
         25    2    1    2    0    0 -0.51893966260E+02  0.97828031617E+01  0.12559120956E+03  0.18495961041E+03  0.12509283989E+03 0.  0.
          5    1    3    3  502    0 -0.87036405226E+02  0.32983873131E+01  0.12032123677E+03  0.14859639165E+03  0.41800000000E+01 0. -1.
         -5    1    3    3    0  502  0.35142438966E+02  0.64844158486E+01  0.52699727933E+01  0.36363218761E+02  0.41800000000E+01 0. -1.
        -11    1    1    2    0    0  0.41803065823E+02  0.31570725987E+02 -0.57807347499E+02  0.78012155953E+02  0.00000000000E+00 0.  1.
         11    1    1    2    0    0  0.10090900437E+02 -0.41353529148E+02  0.69826668540E+00  0.42572622905E+02  0.00000000000E+00 0. -1.
</event>
<event>
 7    1  0.2644565E-009  0.8568137E+02  0.7561462E-02  0.1313660E+00
          1   -1    0    0  501    0  0.00000000000E+00  0.00000000000E+00  0.90695937334E+02  0.90695937334E+02  0.00000000000E+00 0. -1.
         -1   -1    0    0    0  501 -0.00000000000E+00 -0.00000000000E+00 -0.18323575142E+03  0.18323575142E+03  0.00000000000E+00 0.  1.
         25    2    1    2    0    0 -0.34363788837E+02 -0.16078031042E+02 -0.10988712173E+03  0.17077058993E+03  0.12509213324E+03 0.  0.
          5    1    3    3  502    0  0.51528362837E+01 -0.52012756531E+02 -0.45992259395E+01  0.52635575830E+02  0.41800000000E+01 0.  1.
         -5    1    3    3    0  502 -0.39516625121E+02  0.35934725489E+02 -0.10528789579E+03  0.11813501410E+03  0.41800000000E+01 0.  1.
        -11    1    1    2    0    0  0.40388074671E+02 -0.74469113145E+01  0.48570407865E+02  0.63606112788E+02  0.00000000000E+00 0. -1.
         11    1    1    2    0    0 -0.60242858336E+01  0.23524942357E+02 -0.31223100217E+02  0.39554986030E+02  0.00000000000E+00 0.  1.
</event>
<event>
 7    1  0.2644565E-009  0.1695052E+03  0.7561462E-02  0.1178365E+00
         -2   -1    0    0    0  501 -0.00000000000E+00  0.00000000000E+00  0.62322202975E+02  0.62322202975E+02  0.00000000000E+00 0.  1.
          2   -1    0    0  501    0  0.00000000000E+00 -0.00000000000E+00 -0.59863024410E+03  0.59863024410E+03  0.00000000000E+00 0. -1.
         25    2    1    2    0    0 -0.14356313737E+03  0.51186512405E+02 -0.35692561783E+03  0.40777112338E+03  0.12510379266E+03 0.  0.
          5    1    3    3  502    0  0.15618479681E+02  0.12141555278E+02 -0.10681896744E+03  0.10871576922E+03  0.41800000000E+01 0.  1.
         -5    1    3    3    0  502 -0.15918161705E+03  0.39044957127E+02 -0.25010665039E+03  0.29905535416E+03  0.41800000000E+01 0.  1.
        -11    1    1    2    0    0  0.71488503239E+02 -0.11039954852E+02 -0.22205154832E+02  0.75667401169E+02  0.00000000000E+00 0.  1.
         11    1    1    2    0    0  0.72074634129E+02 -0.40146557553E+02 -0.15717726846E+03  0.17751392253E+03  0.00000000000E+00 0. -1.
</event>
<event>
 6    1  0.2644565E-009  0.1010222E+03  0.7561462E-02  0.1278161E+00
         -1   -1    0    0    0  501 -0.00000000000E+00  0.00000000000E+00  0.28320960916E+02  0.28320960916E+02  0.00000000000E+00 0.  1.
          1   -1    0    0  501    0  0.00000000000E+00 -0.00000000000E+00 -0.52717889360E+03  0.52717889360E+03  0.00000000000E+00 0. -1.
          5    1    1    2  502    0 -0.24898589630E+02  0.43463225518E+02 -0.69960122939E+02  0.86144546778E+02  0.41800000000E+01 0. -1.
         -5    1    1    2    0  502 -0.25972007721E+01 -0.83225240878E+02 -0.14482342166E+03  0.16710619987E+03  0.41800000000E+01 0. -1.
        -11    1    1    2    0    0  0.41464599704E+02  0.32384910453E+02 -0.28133983013E+03  0.28621704259E+03  0.00000000000E+00 0. -1.
         11    1    1    2    0    0 -0.13968809301E+02  0.73771049072E+01 -0.27345579579E+01  0.16032065286E+02  0.00000000000E+00 0.  1.
</event>
<event>
 7    1  0.2644565E-009  0.8880450E+02  0.7561462E-02  0.1305773E+00
          2   -1    0    0  501    0  0.00000000000E+00  0.00000000000E+00  0.44759179586E+02  0.44759179586E+02  0.00000000000E+00 0. -1.
         -2   -1    0    0    0  501 -0.00000000000E+00 -0.00000000000E+00 -0.30544325262E+03  0.30544325262E+03  0.00000000000E+00 0.  1.
         25    2    1    2    0    0 -0.35475922114E+02  0.17772341461E+02 -0.17355734299E+03  0.21761828404E+03  0.12514459266E+03 0.  0.
          5    1    3    3  502    0  0.19244057547E+02  0.29010141869E+02 -0.15452833254E+03  0.15845630325E+03  0.41800000000E+01 0. -1.
         -5    1    3    3    0  502 -0.54719979661E+02 -0.11237800408E+02 -0.19029010451E+02  0.59161980789E+02  0.41800000000E+01 0. -1.
        -11    1    1    2    0    0  0.62008016531E+01 -0.45670041066E+02 -0.78812043978E+02  0.91299183283E+02  0.00000000000E+00 0.  1.
         11    1    1    2    0    0  0.29275120461E+02  0.27897699605E+02 -0.83146860686E+01  0.41284964886E+02  0.00000000000E+00 0. -1.
</event>
<event>
 7    1  0.2644565E-009  0.1355757E+03  0.7561462E-02  0.1219409E+00
          2   -1    0    0  501    0  0.00000000000E+00  0.00000000000E+00  0.23678621053E+03  0.23678621053E+03  0.00000000000E+00 0. -1.
         -2   -1    0    0    0  501 -0.00000000000E+00 -0.00000000000E+00 -0.81992692098E+02  0.81992692098E+02  0.00000000000E+00 0.  1.
         25    2    1    2    0    0 -0.58126417175E+02  0.58387498478E+02  0.11814849572E+03  0.19077105561E+03  0.12508696281E+03 0.  0.
          5    1    3    3  502    0 -0.59773483787E+02 -0.25180852694E+02  0.63188898852E+02  0.90649070842E+02  0.41800000000E+01 0. -1.
         -5    1    3    3    0  502  0.16470666115E+01  0.83568351172E+02  0.54959596870E+02  0.10012198477E+03  0.41800000000E+01 0. -1.
        -11    1    1    2    0    0  0.69025720500E+01 -0.69673308971E+02  0.24408251141E+02  0.74147004037E+02  0.00000000000E+00 0. -1.
         11    1    1    2    0    0  0.51223845125E+02  0.11285810493E+02  0.12236771569E+02  0.53860842978E+02  0.00000000000E+00 0.  1.
</event>
<event>
 7    1  0.2644565E-009  0.8693405E+02  0.7561462E-02  0.1310451E+00
         -3   -1    0    0    0  501 -0.00000000000E+00  0.00000000000E+00  0.47854083825E+03  0.47854083825E+03  0.00000000000E+00 0.  1.
          3   -1    0    0  501    0  0.00000000000E+00 -0.00000000000E+00 -0.25010955294E+02  0.25010955294E+02  0.00000000000E+00 0. -1.
         25    2    1    2    0    0 -0.16032769975E+02 -0.14417336465E+02  0.30310236566E+03  0.32860847048E+03  0.12509026142E+03 0.  0.
          5    1    3    3  502    0 -0.49773761855E+02  0.18191308931E+02  0.25789676440E+03  0.26331837114E+03  0.41800000000E+01 0. -1.
         -5    1    3    3    0  502  0.33740991881E+02 -0.32608645396E+02  0.45205601256E+02  0.65290099346E+02  0.41800000000E+01 0. -1.
        -11    1    1    2    0    0  0.31452655500E+02 -0.19035973211E+02  0.12471447616E+03  0.13002053060E+03  0.00000000000E+00 0.  1.
         11    1    1    2    0    0 -0.15419885525E+02  0.33453309676E+02  0.25713041144E+02  0.44922792464E+02  0.00000000000E+00 0. -1.
</event>
<event>
 7    1  0.2644565E-009  0.1265129E+03  0.7561462E-02  0.1232724E+00
          2   -1    0    0  501    0  0.00000000000E+00  0.00000000000E+00  0.83802192233E+03  0.83802192233E+03  0.00000000000E+00 0. -1.
         -2   -1    0    0    0  501 -0.00000000000E+00 -0.00000000000E+00 -0.21897375834E+02  0.21897375834E+02  0.00000000000E+00 0.  1.
         25    2    1    2    0    0  0.32176486149E+02 -0.65985637891E+02  0.58974187689E+03  0.60731671391E+03  0.12509468003E+03 0.  0.
          5    1    3    3  502    0  0.25626465611E+02  0.35063886996E+02  0.18601541212E+03  0.19106385806E+03  0.41800000000E+01 0.  1.
         -5    1    3    3    0  502  0.65500205371E+01 -0.10104952489E+03  0.40372646477E+03  0.41625285585E+03  0.41800000000E+01 0.  1.
        -11    1    1    2    0    0  0.23148057338E+02  0.41557157157E+02  0.67320046599E+02  0.82430689331E+02  0.00000000000E+00 0.  1.
         11    1    1    2    0    0 -0.55324543487E+02  0.24428480734E+02  0.15906262300E+03  0.17017189491E+03  0.00000000000E+00 0. -1.
</event>
<event>
 7    1  0.2644565E-009  0.1260450E+03  0.7561462E-02  0.1233445E+00
         -4   -1    0    0    0  501 -0.00000000000E+00  0.00000000000E+00  0.47801203383E+03  0.47801203383E+03  0.00000000000E+00 0.  1.
          4   -1    0    0  501    0  0.00000000000E+00 -0.00000000000E+00 -0.45007960804E+02  0.45007960804E+02  0.00000000000E+00 0. -1.
         25    2    1    2    0    0  0.25870301501E+02  0.70017929745E+02  0.35317862551E+03  0.38203997491E+03  0.12509043897E+03 0.  0.
          5    1    3    3  502    0 -0.34152589352E+02  0.76838879350E+02  0.18386112958E+03  0.20222017731E+03  0.41800000000E+01 0. -1.
         -5    1    3    3    0  502  0.60022890853E+02 -0.68209496050E+01  0.16931749593E+03  0.17981979760E+03  0.41800000000E+01 0. -1.
        -11    1    1    2    0    0  0.27574030778E+02 -0.28630626227E+02  0.48702922121E+01  0.40046968396E+02  0.00000000000E+00 0.  1.
         11    1    1    2    0    0 -0.53444332279E+02 -0.41387303518E+02  0.74955155305E+02  0.10093305134E+03  0.00000000000E+00 0. -1.
</event>
<event>
 7    1  0.2644565E-009  0.8575324E+02  0.7561462E-02  0.1313474E+00
          2   -1    0    0  501    0  0.00000000000E+00  0.00000000000E+00  0.86488404196E+03  0.86488404196E+03  0.00000000000E+00 0.  1.
         -2   -1    0    0    0  501 -0.00000000000E+00 -0.00000000000E+00 -0.19063587141E+02  0.19063587141E+02  0.00000000000E+00 0. -1.
         25    2    1    2    0    0  0.86850409538E+01 -0.35389172645E+02  0.67674700188E+03  0.68917585969E+03  0.12509611321E+03 0.  0.
          5    1    3    3  502    0  0.24823865747E+02 -0.62250538850E+02  0.19207561564E+03  0.20347449084E+03  0.41800000000E+01 0.  1.
         -5    1    3    3    0  502 -0.16138824793E+02  0.26861366204E+02  0.48467138624E+03  0.48570136885E+03  0.41800000000E+01 0.  1.
        -11    1    1    2    0    0 -0.26598863248E+02 -0.63300532622E+01  0.13568940477E+03  0.13841670299E+03  0.00000000000E+00 0.  1.
         11    1    1    2    0    0  0.17913822294E+02  0.41719225908E+02  0.33384048165E+02  0.56355066422E+02  0.00000000000E+00 0. -1.
</event>
<event>
 7    1  0.2644565E-009  0.1115782E+03  0.7561462E-02  0.1257675E+00
          1   -1    0    0  501    0  0.00000000000E+00  0.00000000000E+00  0.67884243894E+02  0.67884243894E+02  0.00000000000E+00 0. -1.
         -1   -1    0    0    0  501 -0.00000000000E+00 -0.00000000000E+00 -0.28615866744E+03  0.28615866744E+03  0.00000000000E+00 0.  1.
         25    2    1    2    0    0  0.63197348065E+02 -0.17699280877E+02 -0.21481072461E+03  0.25709746348E+03  0.12509312121E+03 0.  0.
          5    1    3    3  502    0 -0.23332024480E+02  0.30364268739E+02 -0.36253838024E+02  0.52897876648E+02  0.41800000000E+01 0.  1.
         -5    1    3    3    0  502  0.86529372545E+02 -0.48063549616E+02 -0.17855688658E+03  0.20419958683E+03  0.41800000000E+01 0.  1.
        -11    1    1    2    0    0 -0.28199343206E+02 -0.19658256704E+02 -0.23856872854E+02  0.41842566798E+02  0.00000000000E+00 0.  1.
         11    1    1    2    0    0 -0.34998004859E+02  0.37357537581E+02  0.20393173918E+02  0.55102881056E+02  0.00000000000E+00 0. -1.
</event>
<event>
 7    1  0.2644565E-009  0.1087296E+03  0.7561462E-02  0.1262941E+00
         -3   -1    0    0    0  501 -0.00000000000E+00  0.00000000000E+00  0.26311579015E+03  0.26311579015E+03  0.00000000000E+00 0.  1.
          3   -1    0    0  501    0  0.00000000000E+00 -0.00000000000E+00 -0.59133144177E+02  0.59133144177E+02  0.00000000000E+00 0. -1.
         25    2    1    2    0    0 -0.44469362999E+02 -0.44236237119E+02  0.10864605986E+03  0.17719142503E+03  0.12513379184E+03 0.  0.
          5    1    3    3  502    0  0.21225434434E+02  0.14744942707E+02 -0.11035132342E+02  0.28410894884E+02  0.41800000000E+01 0.  1.
         -5    1    3    3    0  502 -0.65694797433E+02 -0.58981179825E+02  0.11968119220E+03  0.14878053014E+03  0.41800000000E+01 0.  1.
        -11    1    1    2    0    0  0.68098874702E+02  0.25425318507E+02  0.87691615694E+02  0.11390225204E+03  0.00000000000E+00 0. -1.
         11    1    1    2    0    0 -0.23629511702E+02  0.18810918612E+02  0.76449704262E+01  0.31155257263E+02  0.00000000000E+00 0.  1.
</event>
<event>
 7    1  0.2644565E-009  0.9252869E+02  0.7561462E-02  0.1296841E+00
          4   -1    0    0  501    0  0.00000000000E+00  0.00000000000E+00  0.56291568743E+03  0.56291568743E+03  0.00000000000E+00 0. -1.
         -4   -1    0    0    0  501 -0.00000000000E+00 -0.00000000000E+00 -0.29317110345E+02  0.29317110345E+02  0.00000000000E+00 0.  1.
         25    2    1    2    0    0  0.43666152166E+02  0.48305056794E+02  0.35518198671E+03  0.38215416100E+03  0.12508975869E+03 0.  0.
          5    1    3    3  502    0  0.13082583896E+02  0.66065152798E+02  0.33393665187E+03  0.34068595257E+03  0.41800000000E+01 0. -1.
         -5    1    3    3    0  502  0.30583568270E+02 -0.17760096003E+02  0.21245334841E+02  0.41468208433E+02  0.41800000000E+01 0. -1.
        -11    1    1    2    0    0 -0.20120482370E+02 -0.54098801702E+02  0.17656523676E+03  0.18576005218E+03  0.00000000000E+00 0. -1.
         11    1    1    2    0    0 -0.23545669796E+02  0.57937449080E+01  0.18513536170E+01  0.24318584589E+02  0.00000000000E+00 0.  1.
</event>
<event>
 7    1  0.2644565E-009  0.9627531E+02  0.7561462E-02  0.1288329E+00
         -2   -1    0    0    0  501 -0.00000000000E+00  0.00000000000E+00  0.20452250269E+03  0.20452250269E+03  0.00000000000E+00 0.  1.
          2   -1    0    0  501    0  0.00000000000E+00 -0.00000000000E+00 -0.10059347537E+03  0.10059347537E+03  0.00000000000E+00 0. -1.
         25    2    1    2    0    0 -0.19757367865E+02  0.27361119310E+01  0.15397475742E+03  0.19938446790E+03  0.12509236676E+03 0.  0.
          5    1    3    3  502    0 -0.21456388880E+02  0.62249518689E+02  0.68218630020E+02  0.94903282781E+02  0.41800000000E+01 0. -1.
         -5    1    3    3    0  502  0.16990210149E+01 -0.59513406758E+02  0.85756127403E+02  0.10448118512E+03  0.41800000000E+01 0. -1.
        -11    1    1    2    0    0 -0.15444641944E+02  0.19785804800E+02  0.14388601030E+02  0.28931762407E+02  0.00000000000E+00 0.  1.
         11    1    1    2    0    0  0.35202009809E+02 -0.22521916731E+02 -0.64434331128E+02  0.76799747758E+02  0.00000000000E+00 0. -1.
</event>
<event>
 7    1  0.2644565E-009  0.1303762E+03  0.7561462E-02  0.1226899E+00
         -1   -1    0    0    0  501 -0.00000000000E+00  0.00000000000E+00  0.30207960024E+03  0.30207960024E+03  0.00000000000E+00 0.  1.
          1   -1    0    0  501    0  0.00000000000E+00 -0.00000000000E+00 -0.62369199331E+02  0.62369199331E+02  0.00000000000E+00 0. -1.
         25    2    1    2    0    0  0.41761010311E+02  0.66311998114E+02  0.17418893520E+03  0.22832005896E+03  0.12508797345E+03 0.  0.
          5    1    3    3  502    0 -0.42641321997E+02  0.22696906228E+02  0.85464810427E+02  0.98260562360E+02  0.41800000000E+01 0.  1.
         -5    1    3    3    0  502  0.84402332308E+02  0.43615091886E+02  0.88724124771E+02  0.13005949660E+03  0.41800000000E+01 0.  1.
        -11    1    1    2    0    0 -0.66912545192E+02 -0.30821861654E+02  0.28438586086E+02  0.78968531951E+02  0.00000000000E+00 0.  1.
         11    1    1    2    0    0  0.25151534882E+02 -0.35490136459E+02  0.37082879625E+02  0.57160208660E+02  0.00000000000E+00 0. -1.
</event>
<event>
 7    1  0.2644565E-009  0.1098055E+03  0.7561462E-02  0.1260931E+00
         -1   -1    0    0    0  501 -0.00000000000E+00  0.00000000000E+00  0.40466967087E+03  0.40466967087E+03  0.00000000000E+00 0.  1.
          1   -1    0    0  501    0  0.00000000000E+00 -0.00000000000E+00 -0.42423562242E+02  0.42423562242E+02  0.00000000000E+00 0. -1.
         25    2    1    2    0    0 -0.12281646886E+02  0.36145456599E+02  0.30987799649E+03  0.33634840862E+03  0.12509415009E+03 0.  0.
          5    1    3    3  502    0 -0.67518180512E+02  0.27652020614E+02  0.20140207105E+03  0.21425126737E+03  0.41800000000E+01 0.  1.
         -5    1    3    3    0  502  0.55236533626E+02  0.84934359845E+01  0.10847592543E+03  0.12209714125E+03  0.41800000000E+01 0.  1.
        -11    1    1    2    0    0 -0.15739917421E+02 -0.54674218775E+02  0.11857027744E+02  0.58117160168E+02  0.00000000000E+00 0. -1.
         11    1    1    2    0    0  0.28021564307E+02  0.18528762176E+02  0.40511084398E+02  0.52627664333E+02  0.00000000000E+00 0.  1.
</event>
<event>
 7    1  0.2644565E-009  0.8631248E+02  0.7561462E-02  0.1312036E+00
          3   -1    0    0  501    0  0.00000000000E+00  0.00000000000E+00  0.42582516021E+02  0.42582516021E+02  0.00000000000E+00 0. -1.
         -3   -1    0    0    0  501 -0.00000000000E+00 -0.00000000000E+00 -0.28563790546E+03  0.28563790546E+03  0.00000000000E+00 0.  1.
         25    2    1    2    0    0  0.77546329931E+01  0.27943786739E+01 -0.12667889402E+03  0.17821730476E+03  0.12508366256E+03 0.  0.
          5    1    3    3  502    0  0.75394406885E+01  0.47548067282E+02 -0.12412061451E+03  0.13319557505E+03  0.41800000000E+01 0. -1.
         -5    1    3    3    0  502  0.21519230453E+00 -0.44753688608E+02 -0.25582795148E+01  0.45021729707E+02  0.41800000000E+01 0. -1.
        -11    1    1    2    0    0  0.28936199490E+02 -0.23451818855E+02 -0.14861050681E+02  0.40101649291E+02  0.00000000000E+00 0. -1.
         11    1    1    2    0    0 -0.36690832484E+02  0.20657440181E+02 -0.10151544473E+03  0.10990146743E+03  0.00000000000E+00 0.  1.
</event>
<event>
 7    1  0.2644565E-009  0.1219761E+03  0.7561462E-02  0.1239872E+00
          2   -1    0    0  501    0  0.00000000000E+00  0.00000000000E+00  0.43171079764E+03  0.43171079764E+03  0.00000000000E+00 0. -1.
         -2   -1    0    0    0  501 -0.00000000000E+00 -0.00000000000E+00 -0.40087746439E+02  0.40087746439E+02  0.00000000000E+00 0.  1.
         25    2    1    2    0    0 -0.20363817768E+02 -0.58754456001E+02  0.29739752841E+03  0.32857105934E+03  0.12508748920E+03 0.  0.
          5    1    3    3  502    0  0.33151696760E+02  0.22995505524E+02  0.10899148264E+03  0.11629464287E+03  0.41800000000E+01 0.  1.
         -5    1    3    3    0  502 -0.53515514528E+02 -0.81749961524E+02  0.18840604577E+03  0.21227641646E+03  0.41800000000E+01 0.  1.
        -11    1    1    2    0    0 -0.24180753330E+02  0.55958689818E+02  0.68560851386E+02  0.91742433696E+02  0.00000000000E+00 0.  1.
         11    1    1    2    0    0  0.44544571098E+02  0.27957661829E+01  0.25664671404E+02  0.51485051045E+02  0.00000000000E+00 0. -1.
</event>
<event>
 7    1  0.2644565E-009  0.1189278E+03  0.7561462E-02  0.1244876E+00
          1   -1    0    0  501    0  0.00000000000E+00  0.00000000000E+00  0.22882024421E+03  0.22882024421E+03  0.00000000000E+00 0. -1.
         -1   -1    0    0    0  501 -0.00000000000E+00 -0.00000000000E+00 -0.93818610854E+02  0.93818610854E+02  0.00000000000E+00 0.  1.
         25    2    1    2    0    0  0.85972526251E+02 -0.32113065494E+02  0.59516928779E+02  0.16616884974E+03  0.12508915847E+03 0.  0.
          5    1    3    3  502    0  0.86441772324E+02 -0.52083303430E+02 -0.23385131118E+01  0.10103361590E+03  0.41800000000E+01 0. -1.
         -5    1    3    3    0  502 -0.46924607383E+00  0.19970237936E+02  0.61855441891E+02  0.65135233834E+02  0.41800000000E+01 0. -1.
        -11    1    1    2    0    0 -0.91126678167E+02  0.76574010999E+01  0.17198081513E+02  0.93050960624E+02  0.00000000000E+00 0.  1.
         11    1    1    2    0    0  0.51541519160E+01  0.24455664394E+02  0.58286623060E+02  0.63419044700E+02  0.00000000000E+00 0. -1.
</event>
<event>
 7    1  0.2644565E-009  0.1328321E+03  0.7561462E-02  0.1223313E+00
          1   -1    0    0  501    0  0.00000000000E+00  0.00000000000E+00  0.20535421285E+03  0.20535421285E+03  0.00000000000E+00 0. -1.
         -1   -1    0    0    0  501 -0.00000000000E+00 -0.00000000000E+00 -0.13310238297E+03  0.13310238297E+03  0.00000000000E+00 0.  1.
         25    2    1    2    0    0 -0.35006099648E+02  0.80504313045E+02  0.12852914045E+03  0.19968264106E+03  0.12508815197E+03 0.  0.
          5    1    3    3  502    0 -0.74944823240E+02  0.77610916297E+02  0.70119486318E+02  0.12874158466E+03  0.41800000000E+01 0. -1.
         -5    1    3    3    0  502  0.39938723592E+02  0.28933967474E+01  0.58409654131E+02  0.70941056396E+02  0.41800000000E+01 0. -1.
        -11    1    1    2    0    0  0.49107044671E+02 -0.16365957291E+02 -0.51361396944E+02  0.72920089759E+02  0.00000000000E+00 0. -1.
         11    1    1    2    0    0 -0.14100945023E+02 -0.64138355753E+02 -0.49159136283E+01  0.65853865005E+02  0.00000000000E+00 0.  1.
</event>
<event>
 7    1  0.2644565E-009  0.1252694E+03  0.7561462E-02  0.1234649E+00
          1   -1    0    0  501    0  0.00000000000E+00  0.00000000000E+00  0.20494775472E+03  0.20494775472E+03  0.00000000000E+00 0. -1.
         -1   -1    0    0    0  501 -0.00000000000E+00 -0.00000000000E+00 -0.92926174079E+02  0.92926174079E+02  0.00000000000E+00 0.  1.
         25    2    1    2    0    0  0.66967722401E+02 -0.38829755073E+02  0.10347680831E+03  0.17985215144E+03  0.12508765245E+03 0.  0.
          5    1    3    3  502    0 -0.36461434287E+02 -0.10760873977E+01  0.21836374302E+02  0.42718775696E+02  0.41800000000E+01 0. -1.
         -5    1    3    3    0  502  0.10342915669E+03 -0.37753667676E+02  0.81640434010E+02  0.13713337574E+03  0.41800000000E+01 0. -1.
        -11    1    1    2    0    0 -0.29720298861E+02 -0.18692966663E+02 -0.23623944924E+02  0.42318009651E+02  0.00000000000E+00 0.  1.
         11    1    1    2    0    0 -0.37247423540E+02  0.57522721736E+02  0.32168717255E+02  0.75703767714E+02  0.00000000000E+00 0. -1.
</event>
<event>
 7    1  0.2644565E-009  0.1868566E+03  0.7561462E-02  0.1161327E+00
         -1   -1    0    0    0  501 -0.00000000000E+00  0.00000000000E+00  0.47797661662E+02  0.47797661662E+02  0.00000000000E+00 0.  1.
          1   -1    0    0  501    0  0.00000000000E+00 -0.00000000000E+00 -0.75855897185E+03  0.75855897185E+03  0.00000000000E+00 0. -1.
         25    2    1    2    0    0 -0.12166275768E+03  0.92260906499E+02 -0.40968536438E+03  0.45475802719E+03  0.12509541971E+03 0.  0.
          5    1    3    3  502    0  0.23935506991E+02  0.14151595815E+02 -0.98098687730E+02  0.10204901319E+03  0.41800000000E+01 0. -1.
         -5    1    3    3    0  502 -0.14559826467E+03  0.78109310684E+02 -0.31158667665E+03  0.35270901400E+03  0.41800000000E+01 0. -1.
        -11    1    1    2    0    0 -0.62827040328E+01  0.13127681746E+02 -0.14551766344E+02  0.20580629284E+02  0.00000000000E+00 0.  1.
         11    1    1    2    0    0  0.12794546171E+03 -0.10538858824E+03 -0.28652417946E+03  0.33101797704E+03  0.00000000000E+00 0. -1.
</event>
<event>
 7    1  0.2644565E-009  0.1413749E+03  0.7561462E-02  0.1211491E+00
          2   -1    0    0  501    0  0.00000000000E+00  0.00000000000E+00  0.32031496390E+02  0.32031496390E+02  0.00000000000E+00 0. -1.
         -2   -1    0    0    0  501 -0.00000000000E+00 -0.00000000000E+00 -0.73682000927E+03  0.73682000927E+03  0.00000000000E+00 0.  1.
         25    2    1    2    0    0 -0.85360381975E+02 -0.51542404869E+02 -0.27089630970E+03  0.31460299792E+03  0.12508885394E+03 0.  0.
          5    1    3    3  502    0 -0.10023637396E+03 -0.77400226876E+02 -0.24033302086E+03  0.27169018956E+03  0.41800000000E+01 0. -1.
         -5    1    3    3    0  502  0.14875991990E+02  0.25857822007E+02 -0.30563288839E+02  0.42912808360E+02  0.41800000000E+01 0. -1.
        -11    1    1    2    0    0  0.19080587290E+01  0.41860617767E+02 -0.22898228363E+03  0.23278496133E+03  0.00000000000E+00 0.  1.
         11    1    1    2    0    0  0.83452323246E+02  0.96817871017E+01 -0.20490991955E+03  0.22146354641E+03  0.00000000000E+00 0. -1.
</event>
<event>
 7    1  0.2644565E-009  0.1002953E+03  0.7561462E-02  0.1279676E+00
         -1   -1    0    0    0  501 -0.00000000000E+00  0.00000000000E+00  0.67173248211E+02  0.67173248211E+02  0.00000000000E+00 0.  1.
          1   -1    0    0  501    0  0.00000000000E+00 -0.00000000000E+00 -0.18425331306E+03  0.18425331306E+03  0.00000000000E+00 0. -1.
         25    2    1    2    0    0 -0.20864902869E+01  0.16060631239E+02 -0.89367530838E+02  0.15458398645E+03  0.12508939197E+03 0.  0.
          5    1    3    3  502    0 -0.33763548349E+02  0.56708178184E+02 -0.22064462089E+02  0.69714471649E+02  0.41800000000E+01 0. -1.
         -5    1    3    3    0  502  0.31677058062E+02 -0.40647546945E+02 -0.67303068748E+02  0.84869514804E+02  0.41800000000E+01 0. -1.
        -11    1    1    2    0    0  0.11284302301E+02  0.31944580063E+02  0.97554507868E+01  0.35255644851E+02  0.00000000000E+00 0.  1.
         11    1    1    2    0    0 -0.91978120145E+01 -0.48005211302E+02 -0.37467984801E+02  0.61586929969E+02  0.00000000000E+00 0. -1.
</event>
<event>
 7    1  0.2644565E-009  0.9241042E+02  0.7561462E-02  0.1297117E+00
          3   -1    0    0  501    0  0.00000000000E+00  0.00000000000E+00  0.51675214923E+02  0.51675214923E+02  0.00000000000E+00 0. -1.
         -3   -1    0    0    0  501 -0.00000000000E+00 -0.00000000000E+00 -0.23050937150E+03  0.23050937150E+03  0.00000000000E+00 0.  1.
         25    2    1    2    0    0  0.30923017804E+01 -0.36259063206E+01 -0.11960327308E+03  0.17313196363E+03  0.12508806646E+03 0.  0.
          5    1    3    3  502    0  0.41195136643E+02  0.27096493334E+02 -0.66125137724E+01  0.49924512741E+02  0.41800000000E+01 0.  1.
         -5    1    3    3    0  502 -0.38102834862E+02 -0.30722399655E+02 -0.11299075931E+03  0.12320745089E+03  0.41800000000E+01 0.  1.
        -11    1    1    2    0    0  0.13420402550E+02  0.42183855172E+02 -0.48686735664E+02  0.65802606874E+02  0.00000000000E+00 0.  1.
         11    1    1    2    0    0 -0.16512704331E+02 -0.38557948851E+02 -0.10544147836E+02  0.43250015925E+02  0.00000000000E+00 0. -1.
</event>
<event>
 7    1  0.2644565E-009  0.1228972E+03  0.7561462E-02  0.1238393E+00
          2   -1    0    0  501    0  0.00000000000E+00  0.00000000000E+00  0.32579358190E+03  0.32579358190E+03  0.00000000000E+00 0.  1.
         -2   -1    0    0    0  501 -0.00000000000E+00 -0.00000000000E+00 -0.70557224670E+02  0.70557224670E+02  0.00000000000E+00 0. -1.
         25    2    1    2    0    0 -0.64625807170E+02  0.50347441890E+02  0.22601357348E+03  0.27099960839E+03  0.12508913818E+03 0.  0.
          5    1    3    3  502    0 -0.70404154554E+02 -0.23448636063E+02  0.97007543463E+02  0.12220687133E+03  0.41800000000E+01 0.  1.
         -5    1    3    3    0  502  0.57783473844E+01  0.73796077953E+02  0.12900603002E+03  0.14879273706E+03  0.41800000000E+01 0.  1.
        -11    1    1    2    0    0  0.23266969548E+02  0.90392671961E+01  0.44836686278E+02  0.51316553468E+02  0.00000000000E+00 0.  1.
         11    1    1    2    0    0  0.41358837622E+02 -0.59386709087E+02 -0.15613902532E+02  0.74034644714E+02  0.00000000000E+00 0. -1.
</event>
<event>
 7    1  0.2644565E-009  0.1569968E+03  0.7561462E-02  0.1192130E+00
          2   -1    0    0  501    0  0.00000000000E+00  0.00000000000E+00  0.19584499050E+03  0.19584499050E+03  0.00000000000E+00 0. -1.
         -2   -1    0    0    0  501 -0.00000000000E+00 -0.00000000000E+00 -0.23881360383E+03  0.23881360383E+03  0.00000000000E+00 0.  1.
         25    2    1    2    0    0 -0.14570672444E+03 -0.11384217515E+02 -0.13914170876E+03  0.23741890743E+03  0.12508905841E+03 0.  0.
          5    1    3    3  502    0 -0.82488309763E+02 -0.78572273070E-01 -0.15087283064E+03  0.17200119431E+03  0.41800000000E+01 0.  1.
         -5    1    3    3    0  502 -0.63218414673E+02 -0.11305645242E+02  0.11731121881E+02  0.65417713111E+02  0.41800000000E+01 0.  1.
        -11    1    1    2    0    0  0.69812251968E+02 -0.35001301414E+02  0.21229470798E+02  0.80929179262E+02  0.00000000000E+00 0.  1.
         11    1    1    2    0    0  0.75894472467E+02  0.46385518929E+02  0.74943624628E+02  0.11631050765E+03  0.00000000000E+00 0. -1.
</event>
<event>
 7    1  0.2644565E-009  0.1348567E+03  0.7561462E-02  0.1220422E+00
         -3   -1    0    0    0  501 -0.00000000000E+00  0.00000000000E+00  0.44694036888E+03  0.44694036888E+03  0.00000000000E+00 0.  1.
          3   -1    0    0  501    0  0.00000000000E+00 -0.00000000000E+00 -0.89238806775E+02  0.89238806775E+02  0.00000000000E+00 0. -1.
         25    2    1    2    0    0 -0.12707334447E+03  0.41372258395E+02  0.51511740543E+02  0.19017571132E+03  0.12511611856E+03 0.  0.
          5    1    3    3  502    0 -0.87169792214E+02  0.39033955197E+02 -0.29241807893E+02  0.99973886900E+02  0.41800000000E+01 0. -1.
         -5    1    3    3    0  502 -0.39903552254E+02  0.23383031978E+01  0.80753548435E+02  0.90201824423E+02  0.41800000000E+01 0. -1.
        -11    1    1    2    0    0  0.40821164143E+02 -0.90515324669E+01  0.20478796240E+03  0.20901293555E+03  0.00000000000E+00 0.  1.
         11    1    1    2    0    0  0.86252180325E+02 -0.32320725928E+02  0.10140185916E+03  0.13699052879E+03  0.00000000000E+00 0. -1.
</event>
<event>
 7    1  0.2644565E-009  0.7492852E+02  0.7561462E-02  0.1344093E+00
         -2   -1    0    0    0  501 -0.00000000000E+00  0.00000000000E+00  0.18163744963E+03  0.18163744963E+03  0.00000000000E+00 0.  1.
          2   -1    0    0  501    0  0.00000000000E+00 -0.00000000000E+00 -0.72450851005E+02  0.72450851005E+02  0.00000000000E+00 0. -1.
         25    2    1    2    0    0  0.37554318179E+02  0.44995316458E+01  0.52338741999E+02  0.14077459530E+03  0.12509024810E+03 0.  0.
          5    1    3    3  502    0  0.58843803044E+01  0.48384981604E+02  0.68467221522E+02  0.84148471164E+02  0.41800000000E+01 0. -1.
         -5    1    3    3    0  502  0.31669937875E+02 -0.43885449958E+02 -0.16128479523E+02  0.56626124137E+02  0.41800000000E+01 0. -1.
        -11    1    1    2    0    0 -0.14849643044E+02  0.11582622308E+02  0.76800374417E+02  0.79075701380E+02  0.00000000000E+00 0.  1.
         11    1    1    2    0    0 -0.22704675135E+02 -0.16082153953E+02 -0.19952517789E+02  0.34238003956E+02  0.00000000000E+00 0. -1.
</event>
<event>
 7    1  0.2644565E-009  0.1059129E+03  0.7561462E-02  0.1268331E+00
         -1   -1    0    0    0  501 -0.00000000000E+00  0.00000000000E+00  0.49080854128E+02  0.49080854128E+02  0.00000000000E+00 0.  1.
          1   -1    0    0  501    0  0.00000000000E+00 -0.00000000000E+00 -0.35374902043E+03  0.35374902043E+03  0.00000000000E+00 0. -1.
         25    2    1    2    0    0  0.43341484655E+02  0.53706095729E+02 -0.12510394022E+03  0.18989752278E+03  0.12508894551E+03 0.  0.
          5    1    3    3  502    0 -0.24331127300E+01  0.52152310153E+02  0.43111107973E+01  0.52553226049E+02  0.41800000000E+01 0.  1.
         -5    1    3    3    0  502  0.45774597385E+02  0.15537855762E+01 -0.12941505102E+03  0.13734429673E+03  0.41800000000E+01 0.  1.
        -11    1    1    2    0    0 -0.62474777679E+02 -0.65870576583E+02 -0.13156891765E+03  0.15985121456E+03  0.00000000000E+00 0.  1.
         11    1    1    2    0    0  0.19133293024E+02  0.12164480854E+02 -0.47995308443E+02  0.53081137223E+02  0.00000000000E+00 0. -1.
</event>
<event>
 7    1  0.2644565E-009  0.4193246E+02  0.7561462E-02  0.1494454E+00
         -3   -1    0    0    0  501 -0.00000000000E+00  0.00000000000E+00  0.46514399884E+02  0.46514399884E+02  0.00000000000E+00 0.  1.
          3   -1    0    0  501    0  0.00000000000E+00 -0.00000000000E+00 -0.29795915363E+03  0.29795915363E+03  0.00000000000E+00 0. -1.
         25    2    1    2    0    0  0.21647834774E+02  0.70543591941E+00 -0.85740562325E+02  0.15319215926E+03  0.12508903725E+03 0.  0.
          5    1    3    3  502    0  0.22494862201E+02 -0.63466220413E+00  0.29794102994E+02  0.37571033986E+02  0.41800000000E+01 0. -1.
         -5    1    3    3    0  502 -0.84702742708E+00  0.13400981235E+01 -0.11553466532E+03  0.11562112527E+03  0.41800000000E+01 0. -1.
        -11    1    1    2    0    0  0.15757269266E+02  0.86125995956E+01  0.30200823086E+01  0.18209593726E+02  0.00000000000E+00 0.  1.
         11    1    1    2    0    0 -0.37405104040E+02 -0.93180355150E+01 -0.16872427373E+03  0.17307180053E+03  0.00000000000E+00 0. -1.
</event>
<event>
 7    1  0.2644565E-009  0.1312404E+03  0.7561462E-02  0.1225627E+00
         -1   -1    0    0    0  501 -0.00000000000E+00  0.00000000000E+00  0.19875790990E+03  0.19875790990E+03  0.00000000000E+00 0.  1.
          1   -1    0    0  501    0  0.00000000000E+00 -0.00000000000E+00 -0.10409685079E+03  0.10409685079E+03  0.00000000000E+00 0. -1.
         25    2    1    2    0    0 -0.32968504368E+01 -0.84497195039E+02  0.95493449230E+02  0.17865399166E+03  0.12509038612E+03 0.  0.
          5    1    3    3  502    0  0.40252193396E+02 -0.87816183506E+02  0.93849397528E+02  0.13474829489E+03  0.41800000000E+01 0. -1.
         -5    1    3    3    0  502 -0.43549043833E+02  0.33189884669E+01  0.16440517022E+01  0.43905696774E+02  0.41800000000E+01 0. -1.
        -11    1    1    2    0    0  0.40444575548E+02  0.15047296051E+02 -0.11656887532E+02  0.44699752087E+02  0.00000000000E+00 0. -1.
         11    1    1    2    0    0 -0.37147725112E+02  0.69449898988E+02  0.10824497420E+02  0.79501016942E+02  0.00000000000E+00 0.  1.
</event>
<event>
 7    1  0.2644565E-009  0.2139459E+03  0.7561462E-02  0.1138479E+00
         -2   -1    0    0    0  501 -0.00000000000E+00  0.00000000000E+00  0.43129959380E+02  0.43129959380E+02  0.00000000000E+00 0.  1.
          2   -1    0    0  501    0  0.00000000000E+00 -0.00000000000E+00 -0.13558564807E+04  0.13558564807E+04  0.00000000000E+00 0. -1.
         25    2    1    2    0    0  0.40094789215E+02 -0.20636651162E+03 -0.81263739159E+03  0.84865906577E+03  0.12509176817E+03 0.  0.
          5    1    3    3  502    0  0.44038866834E+02 -0.17304043346E+03 -0.78477197390E+03  0.80483969635E+03  0.41800000000E+01 0. -1.
         -5    1    3    3    0  502 -0.39440776190E+01 -0.33326078152E+02 -0.27865417697E+02  0.43819369423E+02  0.41800000000E+01 0. -1.
        -11    1    1    2    0    0 -0.32736485336E+02  0.55594326957E+02 -0.25019672288E+03  0.25838112703E+03  0.00000000000E+00 0. -1.
         11    1    1    2    0    0 -0.73583038791E+01  0.15077218466E+03 -0.24989240684E+03  0.29194624728E+03  0.00000000000E+00 0.  1.
</event>
<event>
 7    1  0.2644565E-009  0.1209938E+03  0.7561462E-02  0.1241467E+00
         -1   -1    0    0    0  501 -0.00000000000E+00  0.00000000000E+00  0.23761691871E+02  0.23761691871E+02  0.00000000000E+00 0.  1.
          1   -1    0    0  501    0  0.00000000000E+00 -0.00000000000E+00 -0.13235605706E+04  0.13235605706E+04  0.00000000000E+00 0. -1.
         25    2    1    2    0    0  0.31752625401E+02 -0.71028153896E+02 -0.11454298561E+04  0.11548635659E+04  0.12508825943E+03 0.  0.
          5    1    3    3  502    0  0.27484183783E+02 -0.97388614164E+02 -0.10691551906E+04  0.10739414400E+04  0.41800000000E+01 0. -1.
         -5    1    3    3    0  502  0.42684416179E+01  0.26360460268E+02 -0.76274665461E+02  0.80922125841E+02  0.41800000000E+01 0. -1.
        -11    1    1    2    0    0  0.15565440830E+02  0.63972042250E+02 -0.75117974581E+02  0.99887012384E+02  0.00000000000E+00 0.  1.
         11    1    1    2    0    0 -0.47318066231E+02  0.70561116460E+01 -0.79251048055E+02  0.92571684230E+02  0.00000000000E+00 0. -1.
</event>
<event>
 7    1  0.2644565E-009  0.9057958E+02  0.7561462E-02  0.1301454E+00
         -4   -1    0    0    0  501 -0.00000000000E+00  0.00000000000E+00  0.62820676664E+03  0.62820676664E+03  0.00000000000E+00 0. -1.
          4   -1    0    0  501    0  0.00000000000E+00 -0.00000000000E+00 -0.30147103992E+02  0.30147103992E+02  0.00000000000E+00 0.  1.
         25    2    1    2    0    0  0.45067271073E+02  0.20159300506E+00  0.50323808564E+03  0.52050807647E+03  0.12509591229E+03 0.  0.
          5    1    3    3  502    0  0.98739872248E+01 -0.48963765974E+02  0.91468035024E+02  0.10430158116E+03  0.41800000000E+01 0.  1.
         -5    1    3    3    0  502  0.35193283848E+02  0.49165358979E+02  0.41177005062E+03  0.41620649531E+03  0.41800000000E+01 0.  1.
        -11    1    1    2    0    0  0.11313921480E+01  0.19980846479E+02  0.83910212264E+02  0.86263769894E+02  0.00000000000E+00 0. -1.
         11    1    1    2    0    0 -0.46198663221E+02 -0.20182439484E+02  0.10911364743E+02  0.51582024267E+02  0.00000000000E+00 0.  1.
</event>
<event>
 7    1  0.2644565E-009  0.1149610E+03  0.7561462E-02  0.1251649E+00
         -1   -1    0    0    0  501 -0.00000000000E+00  0.00000000000E+00  0.20952702324E+03  0.20952702324E+03  0.00000000000E+00 0.  1.
          1   -1    0    0  501    0  0.00000000000E+00 -0.00000000000E+00 -0.69189355361E+02  0.69189355361E+02  0.00000000000E+00 0. -1.
         25    2    1    2    0    0  0.49311381275E+02 -0.20580715454E+02  0.70170608138E+02  0.15306045239E+03  0.12509360363E+03 0.  0.
          5    1    3    3  502    0 -0.42150396351E+02 -0.10663514317E+01  0.20078932471E+02  0.46887407127E+02  0.41800000000E+01 0.  1.
         -5    1    3    3    0  502  0.91461777626E+02 -0.19514364022E+02  0.50091675667E+02  0.10617304526E+03  0.41800000000E+01 0.  1.
        -11    1    1    2    0    0 -0.35465363606E+02  0.50070969858E+02  0.69988141345E+02  0.93076495245E+02  0.00000000000E+00 0.  1.
         11    1    1    2    0    0 -0.13846017670E+02 -0.29490254404E+02  0.17891839538E+00  0.32579430963E+02  0.00000000000E+00 0. -1.
</event>
<event>
 7    1  0.2644565E-009  0.9323342E+02  0.7561462E-02  0.1295205E+00
          2   -1    0    0  501    0  0.00000000000E+00  0.00000000000E+00  0.45674016147E+03  0.45674016147E+03  0.00000000000E+00 0. -1.
         -2   -1    0    0    0  501 -0.00000000000E+00 -0.00000000000E+00 -0.39329181022E+02  0.39329181022E+02  0.00000000000E+00 0.  1.
         25    2    1    2    0    0  0.62831249953E+02 -0.22506084277E+02  0.15542819334E+03  0.21038320863E+03  0.12509548908E+03 0.  0.
          5    1    3    3  502    0 -0.57531833254E+01  0.41024095323E+01 -0.19180714512E+02  0.20863870483E+02  0.41800000000E+01 0. -1.
         -5    1    3    3    0  502  0.68584433278E+02 -0.26608493809E+02  0.17460890785E+03  0.18951933815E+03  0.41800000000E+01 0. -1.
        -11    1    1    2    0    0 -0.77731654038E+02  0.34885734667E+02  0.15416825643E+03  0.17614504198E+03  0.00000000000E+00 0.  1.
         11    1    1    2    0    0  0.14900404085E+02 -0.12379650390E+02  0.10781453067E+03  0.10954109187E+03  0.00000000000E+00 0. -1.
</event>
<event>
 7    1  0.2644565E-009  0.8918148E+02  0.7561462E-02  0.1304846E+00
          1   -1    0    0  501    0  0.00000000000E+00  0.00000000000E+00  0.11249065421E+03  0.11249065421E+03  0.00000000000E+00 0. -1.
         -1   -1    0    0    0  501 -0.00000000000E+00 -0.00000000000E+00 -0.15034920177E+03  0.15034920177E+03  0.00000000000E+00 0.  1.
         25    2    1    2    0    0 -0.32378044725E+02 -0.54243968157E+02  0.71973283919E+01  0.14032350375E+03  0.12509251899E+03 0.  0.
          5    1    3    3  502    0 -0.26590265420E+02 -0.66203663358E+02  0.55224643145E+02  0.90317223538E+02  0.41800000000E+01 0.  1.
         -5    1    3    3    0  502 -0.57877793045E+01  0.11959695201E+02 -0.48027314753E+02  0.50006280216E+02  0.41800000000E+01 0.  1.
        -11    1    1    2    0    0  0.18536506494E+02  0.69756851175E+02  0.78420833145E+00  0.72181959946E+02  0.00000000000E+00 0. -1.
         11    1    1    2    0    0  0.13841538231E+02 -0.15512883018E+02 -0.45840084280E+02  0.50334392288E+02  0.00000000000E+00 0.  1.
</event>
<event>
 7    1  0.2644565E-009  0.9927866E+02  0.7561462E-02  0.1281820E+00
         -2   -1    0    0    0  501 -0.00000000000E+00  0.00000000000E+00  0.28338026613E+02  0.28338026613E+02  0.00000000000E+00 0.  1.
          2   -1    0    0  501    0  0.00000000000E+00 -0.00000000000E+00 -0.49425963165E+03  0.49425963165E+03  0.00000000000E+00 0. -1.
         25    2    1    2    0    0 -0.36933626915E+02  0.26853503438E+02 -0.25797952528E+03  0.29032096107E+03  0.12509045337E+03 0.  0.
          5    1    3    3  502    0  0.10327810083E+02  0.64043930150E+02 -0.84147456702E+02  0.10633228823E+03  0.41800000000E+01 0. -1.
         -5    1    3    3    0  502 -0.47261436998E+02 -0.37190426712E+02 -0.17383206858E+03  0.18398867284E+03  0.41800000000E+01 0. -1.
        -11    1    1    2    0    0  0.15206400114E+01  0.16905378111E+02 -0.12899105873E+00  0.16974121297E+02  0.00000000000E+00 0.  1.
         11    1    1    2    0    0  0.35412986904E+02 -0.43758881549E+02 -0.20781308870E+03  0.21530257590E+03  0.00000000000E+00 0. -1.
</event>
<event>
 7    1  0.2644565E-009  0.1229769E+03  0.7561462E-02  0.1238265E+00
         -2   -1    0    0    0  501 -0.00000000000E+00  0.00000000000E+00  0.33312020500E+02  0.33312020500E+02  0.00000000000E+00 0. -1.
          2   -1    0    0  501    0  0.00000000000E+00 -0.00000000000E+00 -0.10285661970E+04  0.10285661970E+04  0.00000000000E+00 0.  1.
         25    2    1    2    0    0  0.11913444165E+03 -0.23644519728E+02 -0.77061694015E+03  0.79009485575E+03  0.12508930463E+03 0.  0.
          5    1    3    3  502    0  0.11812307742E+02 -0.86429659654E+01 -0.47450791371E+03  0.47475200268E+03  0.41800000000E+01 0. -1.
         -5    1    3    3    0  502  0.10732213391E+03 -0.15001553763E+02 -0.29610902644E+03  0.31534285307E+03  0.41800000000E+01 0. -1.
        -11    1    1    2    0    0 -0.22957574985E+02  0.10392924862E+02 -0.14221188057E+03  0.14442742853E+03  0.00000000000E+00 0.  1.
         11    1    1    2    0    0 -0.96176866662E+02  0.13251594867E+02 -0.82425355732E+02  0.12735593318E+03  0.00000000000E+00 0. -1.
</event>
<event>
 7    1  0.2644565E-009  0.1221488E+03  0.7561462E-02  0.1239594E+00
         -1   -1    0    0    0  501 -0.00000000000E+00  0.00000000000E+00  0.86901568252E+02  0.86901568252E+02  0.00000000000E+00 0.  1.
          1   -1    0    0  501    0  0.00000000000E+00 -0.00000000000E+00 -0.25793527369E+03  0.25793527369E+03  0.00000000000E+00 0. -1.
         25    2    1    2    0    0  0.66439929025E+02  0.80818210788E+02 -0.12171849439E+03  0.20350450810E+03  0.12511133273E+03 0.  0.
          5    1    3    3  502    0  0.49761751034E+02  0.30123536392E+02  0.11936263991E+02  0.59528195914E+02  0.41800000000E+01 0.  1.
         -5    1    3    3    0  502  0.16678177991E+02  0.50694674396E+02 -0.13365475838E+03  0.14397631219E+03  0.41800000000E+01 0.  1.
        -11    1    1    2    0    0  0.19194333173E+02 -0.12575549012E+02 -0.82388257665E+01  0.24381245024E+02  0.00000000000E+00 0.  1.
         11    1    1    2    0    0 -0.85634262198E+02 -0.68242661776E+02 -0.41076385287E+02  0.11695108882E+03  0.00000000000E+00 0. -1.
</event>
<event>
 7    1  0.2644565E-009  0.9534130E+02  0.7561462E-02  0.1290409E+00
          2   -1    0    0  501    0  0.00000000000E+00  0.00000000000E+00  0.14664558605E+03  0.14664558605E+03  0.00000000000E+00 0. -1.
         -2   -1    0    0    0  501 -0.00000000000E+00 -0.00000000000E+00 -0.79583904857E+02  0.79583904857E+02  0.00000000000E+00 0.  1.
         25    2    1    2    0    0 -0.85369926132E+01  0.25045014282E+02  0.75400968307E+02  0.14843799748E+03  0.12509356535E+03 0.  0.
          5    1    3    3  502    0 -0.61377357046E+02  0.27577820535E+02  0.66377095099E+02  0.94610291709E+02  0.41800000000E+01 0. -1.
         -5    1    3    3    0  502  0.52840364433E+02 -0.25328062532E+01  0.90238732081E+01  0.53827705771E+02  0.41800000000E+01 0. -1.
        -11    1    1    2    0    0  0.37057732529E+02 -0.14018870195E+02  0.11603598187E+02  0.41284957946E+02  0.00000000000E+00 0.  1.
         11    1    1    2    0    0 -0.28520739916E+02 -0.11026144087E+02 -0.19942885300E+02  0.36506535481E+02  0.00000000000E+00 0. -1.
</event>
<event>
 7    1  0.3988816E-009  0.1083548E+03  0.7561462E-02  0.1263647E+00
         -1   -1    0    0    0  501 -0.00000000000E+00  0.00000000000E+00  0.33095369591E+02  0.33095369591E+02  0.00000000000E+00 0.  1.
          1   -1    0    0  501    0  0.00000000000E+00 -0.00000000000E+00 -0.42235775258E+03  0.42235775258E+03  0.00000000000E+00 0. -1.
         25    2    1    2    0    0  0.12547183667E+02  0.12887410545E+02 -0.13707917602E+03  0.18644644104E+03  0.12509219683E+03 0.  0.
          5    1    3    3  502    0  0.65994508921E+02 -0.57494909158E+01 -0.94550498080E+02  0.11552316192E+03  0.41800000000E+01 0. -1.
         -5    1    3    3    0  502 -0.53447325254E+02  0.18636901461E+02 -0.42528677944E+02  0.70923279116E+02  0.41800000000E+01 0. -1.
        -11    1    1    2    0    0  0.36618196810E+02 -0.23188534053E+02 -0.11189859160E+03  0.11999956354E+03  0.00000000000E+00 0.  1.
         11    1    1    2    0    0 -0.49165380478E+02  0.10301123508E+02 -0.14028461537E+03  0.14900711759E+03  0.00000000000E+00 0. -1.
</event>
<event>
 7    1  0.2644565E-009  0.1288204E+03  0.7561462E-02  0.1229217E+00
         -2   -1    0    0    0  501 -0.00000000000E+00  0.00000000000E+00  0.62756513950E+02  0.62756513950E+02  0.00000000000E+00 0.  1.
          2   -1    0    0  501    0  0.00000000000E+00 -0.00000000000E+00 -0.40453972327E+03  0.40453972327E+03  0.00000000000E+00 0. -1.
         25    2    1    2    0    0  0.61484048814E+02  0.90114722160E+02 -0.12461281639E+03  0.20755038089E+03  0.12509138735E+03 0.  0.
          5    1    3    3  502    0 -0.22021827353E+02  0.48188165284E+02 -0.96015084951E+02  0.10974255825E+03  0.41800000000E+01 0. -1.
         -5    1    3    3    0  502  0.83505876167E+02  0.41926556876E+02 -0.28597731442E+02  0.97807822640E+02  0.41800000000E+01 0. -1.
        -11    1    1    2    0    0 -0.45372889420E+01 -0.20623686102E+02  0.35749960310E+01  0.21417376496E+02  0.00000000000E+00 0.  1.
         11    1    1    2    0    0 -0.56946759872E+02 -0.69491036059E+02 -0.22074538896E+03  0.23832847983E+03  0.00000000000E+00 0. -1.
</event>
<event>
 7    1  0.2644565E-009  0.1018198E+03  0.7561462E-02  0.1276515E+00
         -3   -1    0    0    0  501 -0.00000000000E+00  0.00000000000E+00  0.15437594993E+03  0.15437594993E+03  0.00000000000E+00 0.  1.
          3   -1    0    0  501    0  0.00000000000E+00 -0.00000000000E+00 -0.10473705831E+03  0.10473705831E+03  0.00000000000E+00 0. -1.
         25    2    1    2    0    0  0.45037183430E+02  0.13211764086E+02 -0.17922794203E+02  0.13480711671E+03  0.12509529793E+03 0.  0.
          5    1    3    3  502    0  0.55147514972E+02 -0.43037489544E+02 -0.30025621061E+02  0.76239650012E+02  0.41800000000E+01 0.  1.
         -5    1    3    3    0  502 -0.10110331542E+02  0.56249253630E+02  0.12102826858E+02  0.58567466701E+02  0.41800000000E+01 0.  1.
        -11    1    1    2    0    0 -0.47345073605E+02 -0.32118250842E+02  0.82293608660E+02  0.10022662350E+03  0.00000000000E+00 0.  1.
         11    1    1    2    0    0  0.23078901756E+01  0.18906486755E+02 -0.14731922834E+02  0.24079268030E+02  0.00000000000E+00 0. -1.
</event>
<event>
 7    1  0.2644565E-009  0.1075958E+03  0.7561462E-02  0.1265088E+00
         -1   -1    0    0    0  501 -0.00000000000E+00  0.00000000000E+00  0.44889717668E+02  0.44889717668E+02  0.00000000000E+00 0.  1.
          1   -1    0    0  501    0  0.00000000000E+00 -0.00000000000E+00 -0.41058813772E+03  0.41058813772E+03  0.00000000000E+00 0. -1.
         25    2    1    2    0    0 -0.52699707130E+02  0.61444923048E+02 -0.18613752888E+03  0.23842885062E+03  0.12509356278E+03 0.  0.
          5    1    3    3  502    0 -0.50766912933E+02 -0.91134440192E+01 -0.15970481480E+02  0.54155913706E+02  0.41800000000E+01 0.  1.
         -5    1    3    3    0  502 -0.19327941961E+01  0.70558367067E+02 -0.17016704740E+03  0.18427293691E+03  0.41800000000E+01 0.  1.
        -11    1    1    2    0    0  0.55183185123E+02 -0.33239317951E+02 -0.42694067244E+02  0.77284018762E+02  0.00000000000E+00 0.  1.
         11    1    1    2    0    0 -0.24834779937E+01 -0.28205605097E+02 -0.13686682393E+03  0.13976498601E+03  0.00000000000E+00 0. -1.
</event>
<event>
 7    1  0.2644565E-009  0.1547069E+03  0.7561462E-02  0.1194806E+00
          1   -1    0    0  501    0  0.00000000000E+00  0.00000000000E+00  0.29871612651E+03  0.29871612651E+03  0.00000000000E+00 0. -1.
         -1   -1    0    0    0  501 -0.00000000000E+00 -0.00000000000E+00 -0.11851084922E+03  0.11851084922E+03  0.00000000000E+00 0.  1.
         25    2    1    2    0    0 -0.12279095039E+03 -0.66309050691E+02  0.23305289241E+02  0.18886938582E+03  0.12511594900E+03 0.  0.
          5    1    3    3  502    0 -0.32541984671E+02 -0.50984868895E+02 -0.44219275806E+02  0.75041684252E+02  0.41800000000E+01 0. -1.
         -5    1    3    3    0  502 -0.90248965714E+02 -0.15324181796E+02  0.67524565047E+02  0.11382770157E+03  0.41800000000E+01 0. -1.
        -11    1    1    2    0    0  0.45767244559E+02  0.65764830552E+02  0.11646448551E+03  0.14136346769E+03  0.00000000000E+00 0. -1.
         11    1    1    2    0    0  0.77023705826E+02  0.54422013881E+00  0.40435502535E+02  0.86994122215E+02  0.00000000000E+00 0.  1.
</event>
<event>
 7    1  0.2644565E-009  0.1068959E+03  0.7561462E-02  0.1266429E+00
         -2   -1    0    0    0  501 -0.00000000000E+00  0.00000000000E+00  0.40462920686E+02  0.40462920686E+02  0.00000000000E+00 0.  1.
          2   -1    0    0  501    0  0.00000000000E+00 -0.00000000000E+00 -0.87770814053E+03  0.87770814053E+03  0.00000000000E+00 0. -1.
         25    2    1    2    0    0 -0.75833105136E+02 -0.27601301863E+02 -0.76044310240E+03  0.77487656456E+03  0.12508991409E+03 0.  0.
          5    1    3    3  502    0  0.17033675024E+02  0.19130457059E+02 -0.45331102890E+02  0.52235062566E+02  0.41800000000E+01 0.  1.
         -5    1    3    3    0  502 -0.92866780159E+02 -0.46731758922E+02 -0.71511199951E+03  0.72264150199E+03  0.41800000000E+01 0.  1.
        -11    1    1    2    0    0  0.39500352172E+02  0.26263754016E+02  0.10623862064E+02  0.48609968544E+02  0.00000000000E+00 0.  1.
         11    1    1    2    0    0  0.36332752964E+02  0.13375478471E+01 -0.87425979506E+02  0.94684528117E+02  0.00000000000E+00 0. -1.
</event>
<event>
 7    1  0.2644565E-009  0.8765540E+02  0.7561462E-02  0.1308631E+00
         -1   -1    0    0    0  501 -0.00000000000E+00  0.00000000000E+00  0.34678316365E+02  0.34678316365E+02  0.00000000000E+00 0.  1.
          1   -1    0    0  501    0  0.00000000000E+00 -0.00000000000E+00 -0.66625453707E+03  0.66625453707E+03  0.00000000000E+00 0. -1.
         25    2    1    2    0    0  0.91746115296E+01 -0.42500150984E+02 -0.55533178483E+03  0.57090332413E+03  0.12508708136E+03 0.  0.
          5    1    3    3  502    0 -0.21537571136E+02 -0.52258389190E+02 -0.51929701043E+03  0.52238076501E+03  0.41800000000E+01 0.  1.
         -5    1    3    3    0  502  0.30712182666E+02  0.97582382054E+01 -0.36034774399E+02  0.48522559114E+02  0.41800000000E+01 0.  1.
        -11    1    1    2    0    0 -0.31292919020E+02  0.53082042302E+02 -0.84121966130E+02  0.10427586097E+03  0.00000000000E+00 0. -1.
         11    1    1    2    0    0  0.22118307490E+02 -0.10581891318E+02  0.78775302535E+01  0.25753668341E+02  0.00000000000E+00 0.  1.
</event>
<event>
 7    1  0.2644565E-009  0.6276963E+02  0.7561462E-02  0.1386563E+00
         -4   -1    0    0    0  501 -0.00000000000E+00  0.00000000000E+00  0.14547510322E+02  0.14547510322E+02  0.00000000000E+00 0.  1.
          4   -1    0    0  501    0  0.00000000000E+00 -0.00000000000E+00 -0.79066394324E+03  0.79066394324E+03  0.00000000000E+00 0. -1.
         25    2    1    2    0    0 -0.87186033531E+00  0.12019050258E+01 -0.51769051002E+03  0.53259069304E+03  0.12508867827E+03 0.  0.
          5    1    3    3  502    0  0.18205550744E+02 -0.17978852688E+02 -0.16669595287E+02  0.30822540922E+02  0.41800000000E+01 0. -1.
         -5    1    3    3    0  502 -0.19077411079E+02  0.19180757714E+02 -0.50102091473E+03  0.50176815212E+03  0.41800000000E+01 0. -1.
        -11    1    1    2    0    0 -0.29380813949E+02  0.19783824162E+02 -0.20308568052E+03  0.20615146267E+03  0.00000000000E+00 0. -1.
         11    1    1    2    0    0  0.30252674284E+02 -0.20985729188E+02 -0.55340242376E+02  0.66469297853E+02  0.00000000000E+00 0.  1.
</event>
<event>
 7    1  0.2644565E-009  0.1598585E+03  0.7561462E-02  0.1188857E+00
          1   -1    0    0  501    0  0.00000000000E+00  0.00000000000E+00  0.14888099874E+03  0.14888099874E+03  0.00000000000E+00 0. -1.
         -1   -1    0    0    0  501 -0.00000000000E+00 -0.00000000000E+00 -0.19280261841E+03  0.19280261841E+03  0.00000000000E+00 0.  1.
         25    2    1    2    0    0 -0.94800152259E+02  0.87079082533E+02 -0.51234359872E+02  0.18666085338E+03  0.12508988396E+03 0.  0.
          5    1    3    3  502    0 -0.10066554935E+03  0.11636913083E+02 -0.14538517627E+02  0.10245882815E+03  0.41800000000E+01 0. -1.
         -5    1    3    3    0  502  0.58653970888E+01  0.75442169451E+02 -0.36695842245E+02  0.84202025228E+02  0.41800000000E+01 0. -1.
        -11    1    1    2    0    0  0.77103539666E+02 -0.29973138203E+02 -0.25832907451E+02  0.86664202242E+02  0.00000000000E+00 0.  1.
         11    1    1    2    0    0  0.17696612593E+02 -0.57105944330E+02  0.33145647663E+02  0.68358561528E+02  0.00000000000E+00 0. -1.
</event>
<event>
 7    1  0.2644565E-009  0.1027863E+03  0.7561462E-02  0.1274543E+00
         -2   -1    0    0    0  501 -0.00000000000E+00  0.00000000000E+00  0.30473096538E+02  0.30473096538E+02  0.00000000000E+00 0. -1.
          2   -1    0    0  501    0  0.00000000000E+00 -0.00000000000E+00 -0.44148870846E+03  0.44148870846E+03  0.00000000000E+00 0.  1.
         25    2    1    2    0    0  0.30954898531E+01 -0.11982221528E+01 -0.20476606329E+03  0.23997397759E+03  0.12508937386E+03 0.  0.
          5    1    3    3  502    0  0.42462593485E+02  0.30083870529E+02 -0.34962931779E+02  0.62833033590E+02  0.41800000000E+01 0.  1.
         -5    1    3    3    0  502 -0.39367103632E+02 -0.31282092682E+02 -0.16980313151E+03  0.17714094400E+03  0.41800000000E+01 0.  1.
        -11    1    1    2    0    0 -0.51010993571E+02 -0.13542103729E+02 -0.76953014463E+02  0.93312788370E+02  0.00000000000E+00 0.  1.
         11    1    1    2    0    0  0.47915503718E+02  0.14740325882E+02 -0.12929653417E+03  0.13867503904E+03  0.00000000000E+00 0. -1.
</event>
<event>
 7    1  0.2644565E-009  0.1426310E+03  0.7561462E-02  0.1209832E+00
         -1   -1    0    0    0  501 -0.00000000000E+00  0.00000000000E+00  0.29228612495E+03  0.29228612495E+03  0.00000000000E+00 0.  1.
          1   -1    0    0  501    0  0.00000000000E+00 -0.00000000000E+00 -0.10372003550E+03  0.10372003550E+03  0.00000000000E+00 0. -1.
         25    2    1    2    0    0  0.11589573053E+03 -0.59111780998E+02  0.55978774609E+02  0.18896311125E+03  0.12508961267E+03 0.  0.
          5    1    3    3  502    0 -0.11186383517E+02 -0.82962037174E+01  0.49816749545E+02  0.51895501804E+02  0.41800000000E+01 0.  1.
         -5    1    3    3    0  502  0.12708211405E+03 -0.50815577280E+02  0.61620250644E+01  0.13706760944E+03  0.41800000000E+01 0.  1.
        -11    1    1    2    0    0 -0.49305049356E+02  0.42661531066E+02  0.12104281332E+03  0.13748584211E+03  0.00000000000E+00 0.  1.
         11    1    1    2    0    0 -0.66590681178E+02  0.16450249932E+02  0.11544501527E+02  0.69557207089E+02  0.00000000000E+00 0. -1.
</event>
<event>
 7    1  0.2644565E-009  0.1209406E+03  0.7561462E-02  0.1241553E+00
          2   -1    0    0  501    0  0.00000000000E+00  0.00000000000E+00  0.22617386310E+03  0.22617386310E+03  0.00000000000E+00 0. -1.
         -2   -1    0    0    0  501 -0.00000000000E+00 -0.00000000000E+00 -0.73801882478E+02  0.73801882478E+02  0.00000000000E+00 0.  1.
         25    2    1    2    0    0 -0.66710042514E+02  0.22510090238E+02  0.76920065903E+02  0.16285325414E+03  0.12509017512E+03 0.  0.
          5    1    3    3  502    0 -0.71097019253E+02  0.67328113045E+02  0.47597297257E+02  0.10895336644E+03  0.41800000000E+01 0.  1.
         -5    1    3    3    0  502  0.43869767382E+01 -0.44818022807E+02  0.29322768646E+02  0.53899887702E+02  0.41800000000E+01 0.  1.
        -11    1    1    2    0    0  0.53788292690E+02 -0.46694341295E+02  0.82317267084E+02  0.10885620974E+03  0.00000000000E+00 0. -1.
         11    1    1    2    0    0  0.12921749824E+02  0.24184251057E+02 -0.68653523619E+01  0.28266281693E+02  0.00000000000E+00 0.  1.
</event>
<event>
 7    1  0.2644565E-009  0.1172669E+03  0.7561462E-02  0.1247675E+00
          2   -1    0    0  501    0  0.00000000000E+00  0.00000000000E+00  0.29789366460E+03  0.29789366460E+03  0.00000000000E+00 0. -1.
         -2   -1    0    0    0  501 -0.00000000000E+00 -0.00000000000E+00 -0.66350326918E+02  0.66350326918E+02  0.00000000000E+00 0.  1.
         25    2    1    2    0    0 -0.41129165281E+02  0.70965622445E+02  0.17743472144E+03  0.23207423456E+03  0.12509053588E+03 0.  0.
          5    1    3    3  502    0 -0.66351124895E+02  0.78512736939E+02  0.17779531981E+03  0.20541511576E+03  0.41800000000E+01 0. -1.
         -5    1    3    3    0  502  0.25221959614E+02 -0.75471144944E+01 -0.36059836535E+00  0.26659118799E+02  0.41800000000E+01 0. -1.
        -11    1    1    2    0    0  0.58151590662E+02 -0.43249759066E+02  0.65521561492E+02  0.97699663133E+02  0.00000000000E+00 0. -1.
         11    1    1    2    0    0 -0.17022425381E+02 -0.27715863379E+02 -0.11412945258E+02  0.34470093823E+02  0.00000000000E+00 0.  1.
</event>
<event>
 7    1  0.2644565E-009  0.7510343E+02  0.7561462E-02  0.1343551E+00
          2   -1    0    0  501    0  0.00000000000E+00  0.00000000000E+00  0.12954195063E+03  0.12954195063E+03  0.00000000000E+00 0. -1.
         -2   -1    0    0    0  501 -0.00000000000E+00 -0.00000000000E+00 -0.10467407774E+03  0.10467407774E+03  0.00000000000E+00 0.  1.
         25    2    1    2    0    0 -0.27573007626E+02  0.84515878942E+01 -0.15272208897E+02  0.12931930535E+03  0.12513409721E+03 0.  0.
          5    1    3    3  502    0 -0.29557087304E+01  0.24667190820E+02 -0.65919299722E+02  0.70569348820E+02  0.41800000000E+01 0. -1.
         -5    1    3    3    0  502 -0.24617298895E+02 -0.16215602926E+02  0.50647090825E+02  0.58749956529E+02  0.41800000000E+01 0. -1.
        -11    1    1    2    0    0  0.45011911450E+02 -0.39333013996E+02  0.15628137694E+02  0.61785085985E+02  0.00000000000E+00 0. -1.
         11    1    1    2    0    0 -0.17438903825E+02  0.30881426102E+02  0.24511944094E+02  0.43111637036E+02  0.00000000000E+00 0.  1.
</event>
<event>
 7    1  0.2644565E-009  0.1213673E+03  0.7561462E-02  0.1240858E+00
         -2   -1    0    0    0  501 -0.00000000000E+00  0.00000000000E+00  0.17480417199E+02  0.17480417199E+02  0.00000000000E+00 0.  1.
          2   -1    0    0  501    0  0.00000000000E+00 -0.00000000000E+00 -0.13367780488E+04  0.13367780488E+04  0.00000000000E+00 0. -1.
         25    2    1    2    0    0 -0.94376087922E+02 -0.52314449709E+01 -0.93547025759E+03  0.94851805318E+03  0.12509068862E+03 0.  0.
          5    1    3    3  502    0  0.84810643275E+01  0.10808300339E+02 -0.10727169491E+02  0.17924630362E+02  0.41800000000E+01 0. -1.
         -5    1    3    3    0  502 -0.10285715225E+03 -0.16039745310E+02 -0.92474308810E+03  0.93059342282E+03  0.41800000000E+01 0. -1.
        -11    1    1    2    0    0  0.42071810016E+02  0.42627168720E+02 -0.25265719276E+03  0.25965894894E+03  0.00000000000E+00 0. -1.
         11    1    1    2    0    0  0.52304277907E+02 -0.37395723749E+02 -0.13117018129E+03  0.14608146392E+03  0.00000000000E+00 0.  1.
</event>
<event>
 7    1  0.2644565E-009  0.1521300E+03  0.7561462E-02  0.1197880E+00
          2   -1    0    0  501    0  0.00000000000E+00  0.00000000000E+00  0.31930456510E+03  0.31930456510E+03  0.00000000000E+00 0.  1.
         -2   -1    0    0    0  501 -0.00000000000E+00 -0.00000000000E+00 -0.10666986976E+03  0.10666986976E+03  0.00000000000E+00 0. -1.
         25    2    1    2    0    0  0.60780150076E+02  0.11120575721E+03  0.19373659238E+02  0.17913260286E+03  0.12510876730E+03 0.  0.
          5    1    3    3  502    0 -0.24222417308E+02  0.50574845137E+02  0.44442001599E+02  0.71673596024E+02  0.41800000000E+01 0.  1.
         -5    1    3    3    0  502  0.85002567385E+02  0.60630912070E+02 -0.25068342361E+02  0.10745900683E+03  0.41800000000E+01 0.  1.
        -11    1    1    2    0    0  0.96190627773E+01 -0.47903798800E+02  0.11155362145E+03  0.12178469020E+03  0.00000000000E+00 0.  1.
         11    1    1    2    0    0 -0.70399212853E+02 -0.63301958407E+02  0.81707414654E+02  0.12505714181E+03  0.00000000000E+00 0. -1.
</event>
<event>
 7    1  0.2644565E-009  0.1563302E+03  0.7561462E-02  0.1192903E+00
          1   -1    0    0  501    0  0.00000000000E+00  0.00000000000E+00  0.48913718360E+02  0.48913718360E+02  0.00000000000E+00 0. -1.
         -1   -1    0    0    0  501 -0.00000000000E+00 -0.00000000000E+00 -0.70150153537E+03  0.70150153537E+03  0.00000000000E+00 0.  1.
         25    2    1    2    0    0  0.11379279533E+03  0.68102271722E+02 -0.20299735250E+03  0.27283571832E+03  0.12507871276E+03 0.  0.
          5    1    3    3  502    0 -0.12697822362E+02  0.34694233283E+02 -0.80839682335E+01  0.38049276711E+02  0.41800000000E+01 0. -1.
         -5    1    3    3    0  502  0.12649061769E+03  0.33408038439E+02 -0.19491338426E+03  0.23478644160E+03  0.41800000000E+01 0. -1.
        -11    1    1    2    0    0 -0.89543606974E+02 -0.21557270708E+02 -0.17235538473E+03  0.19542044959E+03  0.00000000000E+00 0. -1.
         11    1    1    2    0    0 -0.24249188352E+02 -0.46545001014E+02 -0.27723507978E+03  0.28215908583E+03  0.00000000000E+00 0.  1.
</event>
<event>
 7    1  0.2644565E-009  0.1032568E+03  0.7561462E-02  0.1273593E+00
         -1   -1    0    0    0  501 -0.00000000000E+00  0.00000000000E+00  0.28930357972E+03  0.28930357972E+03  0.00000000000E+00 0.  1.
          1   -1    0    0  501    0  0.00000000000E+00 -0.00000000000E+00 -0.63010514807E+02  0.63010514807E+02  0.00000000000E+00 0. -1.
         25    2    1    2    0    0  0.44253790966E+00 -0.30095468455E+02  0.48762293679E+02  0.13759160034E+03  0.12509098344E+03 0.  0.
          5    1    3    3  502    0  0.46503749657E+02 -0.50978730385E+02  0.28981935318E+01  0.69190328874E+02  0.41800000000E+01 0. -1.
         -5    1    3    3    0  502 -0.46061211748E+02  0.20883261930E+02  0.45864100147E+02  0.68401271471E+02  0.41800000000E+01 0. -1.
        -11    1    1    2    0    0 -0.33259326984E+02 -0.10088693063E+02  0.56874259042E+01  0.35218054639E+02  0.00000000000E+00 0. -1.
         11    1    1    2    0    0  0.32816789074E+02  0.40184161518E+02  0.17184334533E+03  0.17950443955E+03  0.00000000000E+00 0.  1.
</event>
<event>
 7    1  0.2644565E-009  0.1434211E+03  0.7561462E-02  0.1208798E+00
          1   -1    0    0  501    0  0.00000000000E+00  0.00000000000E+00  0.12175792757E+03  0.12175792757E+03  0.00000000000E+00 0. -1.
         -1   -1    0    0    0  501 -0.00000000000E+00 -0.00000000000E+00 -0.29446294567E+03  0.29446294567E+03  0.00000000000E+00 0.  1.
         25    2    1    2    0    0  0.39860905561E+02  0.10962006493E+03  0.21176702800E+02  0.17234078567E+03  0.12508974072E+03 0.  0.
          5    1    3    3  502    0  0.46473036123E+01  0.12708966110E+03  0.32292842252E+02  0.13127710939E+03  0.41800000000E+01 0. -1.
         -5    1    3    3    0  502  0.35213601949E+02 -0.17469596171E+02 -0.11116139452E+02  0.41063676271E+02  0.41800000000E+01 0. -1.
        -11    1    1    2    0    0 -0.14888739145E+01 -0.44201314318E+02 -0.10531475318E+02  0.45463005899E+02  0.00000000000E+00 0. -1.
         11    1    1    2    0    0 -0.38372031647E+02 -0.65418750614E+02 -0.18335024559E+03  0.19841708168E+03  0.00000000000E+00 0.  1.
</event>
<event>
 7    1  0.2644565E-009  0.7821313E+02  0.7561462E-02  0.1334200E+00
          2   -1    0    0  501    0  0.00000000000E+00  0.00000000000E+00  0.16016747334E+03  0.16016747334E+03  0.00000000000E+00 0. -1.
         -2   -1    0    0    0  501 -0.00000000000E+00 -0.00000000000E+00 -0.98510303908E+02  0.98510303908E+02  0.00000000000E+00 0.  1.
         25    2    1    2    0    0  0.45487539538E+02  0.38252264386E+02  0.50748036538E+02  0.14749300815E+03  0.12508585954E+03 0.  0.
          5    1    3    3  502    0  0.25729510413E+02  0.24159038325E+02  0.92459043830E+02  0.99054601230E+02  0.41800000000E+01 0. -1.
         -5    1    3    3    0  502  0.19758029125E+02  0.14093226061E+02 -0.41711007292E+02  0.48438406921E+02  0.41800000000E+01 0. -1.
        -11    1    1    2    0    0 -0.44008415688E+02  0.12292186792E+02  0.32633371846E+02  0.56149581170E+02  0.00000000000E+00 0.  1.
         11    1    1    2    0    0 -0.14791238503E+01 -0.50544451178E+02 -0.21724238951E+02  0.55035187928E+02  0.00000000000E+00 0. -1.
</event>
<event>
 6    1  0.2644565E-009  0.1078943E+03  0.7561462E-02  0.1264520E+00
         -2   -1    0    0    0  501 -0.00000000000E+00  0.00000000000E+00  0.15833311630E+02  0.15833311630E+02  0.00000000000E+00 0. -1.
          2   -1    0    0  501    0  0.00000000000E+00 -0.00000000000E+00 -0.82304278923E+03  0.82304278923E+03  0.00000000000E+00 0.  1.
          5    1    1    2  502    0 -0.44899772393E+02 -0.40049190414E+02 -0.19410243725E+03  0.20325637938E+03  0.41800000000E+01 0. -1.
         -5    1    1    2    0  502  0.53583945160E+02  0.33786176362E+02 -0.14103546330E+03  0.15466486091E+03  0.41800000000E+01 0. -1.
        -11    1    1    2    0    0  0.41169125291E+02 -0.30345601884E+01 -0.20721927501E+03  0.21129111048E+03  0.00000000000E+00 0.  1.
         11    1    1    2    0    0 -0.49853298058E+02  0.92975742398E+01 -0.26485230204E+03  0.26966375009E+03  0.00000000000E+00 0. -1.
</event>
<event>
 7    1  0.2663989E-009  0.1068762E+03  0.7561462E-02  0.1266467E+00
         -1   -1    0    0    0  501 -0.00000000000E+00  0.00000000000E+00  0.27251707038E+03  0.27251707038E+03  0.00000000000E+00 0.  1.
          1   -1    0    0  501    0  0.00000000000E+00 -0.00000000000E+00 -0.69953820933E+02  0.69953820933E+02  0.00000000000E+00 0. -1.
         25    2    1    2    0    0  0.51028352248E+02  0.39714992766E+02  0.18086188308E+03  0.22921361745E+03  0.12508672308E+03 0.  0.
          5    1    3    3  502    0  0.50995736375E+02 -0.36614864516E+02  0.98157628423E+02  0.11659161998E+03  0.41800000000E+01 0. -1.
         -5    1    3    3    0  502  0.32615873561E-01  0.76329857282E+02  0.82704254657E+02  0.11262199747E+03  0.41800000000E+01 0. -1.
        -11    1    1    2    0    0 -0.13381033635E+02 -0.33707532241E+02  0.52802041968E+02  0.64057048222E+02  0.00000000000E+00 0.  1.
         11    1    1    2    0    0 -0.37647318613E+02 -0.60074605243E+01 -0.31100675597E+02  0.49200225643E+02  0.00000000000E+00 0. -1.
</event>
<event>
 7    1  0.2644565E-009  0.2050654E+03  0.7561462E-02  0.1145534E+00
          2   -1    0    0  501    0  0.00000000000E+00  0.00000000000E+00  0.42924058180E+03  0.42924058180E+03  0.00000000000E+00 0. -1.
         -2   -1    0    0    0  501 -0.00000000000E+00 -0.00000000000E+00 -0.11598960611E+03  0.11598960611E+03  0.00000000000E+00 0.  1.
         25    2    1    2    0    0 -0.72430668084E+02 -0.17399005241E+03  0.11613156933E+03  0.25426751222E+03  0.12508671536E+03 0.  0.
          5    1    3    3  502    0 -0.30787190367E+02 -0.13968214106E+03  0.20735665899E+02  0.14459042798E+03  0.41800000000E+01 0. -1.
         -5    1    3    3    0  502 -0.41643477717E+02 -0.34307911350E+02  0.95395903426E+02  0.10967708424E+03  0.41800000000E+01 0. -1.
        -11    1    1    2    0    0  0.97192255311E+02  0.12839834445E+03  0.16123619708E+03  0.22788062795E+03  0.00000000000E+00 0.  1.
         11    1    1    2    0    0 -0.24761587227E+02  0.45591707965E+02  0.35883209299E+02  0.63082047737E+02  0.00000000000E+00 0. -1.
</event>
<event>
 6    1  0.2644565E-009  0.2180769E+03  0.7561462E-02  0.1135325E+00
         -2   -1    0    0    0  501 -0.00000000000E+00  0.00000000000E+00  0.64008956919E+02  0.64008956919E+02  0.00000000000E+00 0.  1.
          2   -1    0    0  501    0  0.00000000000E+00 -0.00000000000E+00 -0.78341106137E+03  0.78341106137E+03  0.00000000000E+00 0. -1.
          5    1    1    2  502    0  0.85832285871E+02 -0.26857128604E+02 -0.23255121010E+03  0.24937125812E+03  0.41800000000E+01 0.  1.
         -5    1    1    2    0  502  0.92375017727E+02  0.96315380724E+02 -0.21246409293E+03  0.25093477170E+03  0.41800000000E+01 0.  1.
        -11    1    1    2    0    0 -0.17219697739E+03 -0.32598653700E+02 -0.22576612643E+03  0.28580555468E+03  0.00000000000E+00 0.  1.
         11    1    1    2    0    0 -0.60103262054E+01 -0.36859598420E+02 -0.48620674992E+02  0.61308433787E+02  0.00000000000E+00 0. -1.
</event>
<event>
 6    1  0.2644565E-009  0.1038574E+03  0.7561462E-02  0.1272387E+00
         -2   -1    0    0    0  501 -0.00000000000E+00  0.00000000000E+00  0.12581469796E+03  0.12581469796E+03  0.00000000000E+00 0.  1.
          2   -1    0    0  501    0  0.00000000000E+00 -0.00000000000E+00 -0.14160295988E+03  0.14160295988E+03  0.00000000000E+00 0. -1.
          5    1    1    2  502    0  0.18956265456E+02  0.86010161686E+02 -0.60036776560E+02  0.10667227781E+03  0.41800000000E+01 0.  1.
         -5    1    1    2    0  502  0.72919497436E+01 -0.43092181737E+02 -0.94081352053E+01  0.44900936136E+02  0.41800000000E+01 0.  1.
        -11    1    1    2    0    0 -0.41972724620E+02 -0.42751687972E+02 -0.19967837988E-01  0.59911742048E+02  0.00000000000E+00 0. -1.
         11    1    1    2    0    0  0.15724509420E+02 -0.16629197649E+00  0.53676617681E+02  0.55932701840E+02  0.00000000000E+00 0.  1.
</event>
<event>
 6    1  0.2644565E-009  0.1565148E+03  0.7561462E-02  0.1192689E+00
          2   -1    0    0  501    0  0.00000000000E+00  0.00000000000E+00  0.20619444732E+04  0.20619444732E+04  0.00000000000E+00 0. -1.
         -2   -1    0    0    0  501 -0.00000000000E+00 -0.00000000000E+00 -0.14567235841E+02  0.14567235841E+02  0.00000000000E+00 0.  1.
          5    1    1    2  502    0 -0.51057167225E+02 -0.10113627770E+03  0.11480062012E+04  0.11535905215E+04  0.41800000000E+01 0. -1.
         -5    1    1    2    0  502  0.30098897690E+02 -0.29254526527E+02  0.11573805492E+03  0.12318498577E+03  0.41800000000E+01 0. -1.
        -11    1    1    2    0    0  0.54044196478E+02  0.68032285246E+02  0.36543327322E+03  0.37562034581E+03  0.00000000000E+00 0.  1.
         11    1    1    2    0    0 -0.33085926942E+02  0.62358518980E+02  0.41819970803E+03  0.42411585593E+03  0.00000000000E+00 0. -1.
</event>
<event>
 7    1  0.2644565E-009  0.1010214E+03  0.7561462E-02  0.1278163E+00
          2   -1    0    0  501    0  0.00000000000E+00  0.00000000000E+00  0.83024942268E+02  0.83024942268E+02  0.00000000000E+00 0. -1.
         -2   -1    0    0    0  501 -0.00000000000E+00 -0.00000000000E+00 -0.18412674178E+03  0.18412674178E+03  0.00000000000E+00 0.  1.
         25    2    1    2    0    0 -0.11597074083E+02  0.46725863304E+02 -0.20763777587E+02  0.13563502954E+03  0.12509167978E+03 0.  0.
          5    1    3    3  502    0 -0.31990250732E+02  0.63566220366E+02  0.30706151184E+02  0.77616883693E+02  0.41800000000E+01 0. -1.
         -5    1    3    3    0  502  0.20393176649E+02 -0.16840357062E+02 -0.51469928771E+02  0.58018145847E+02  0.41800000000E+01 0. -1.
        -11    1    1    2    0    0 -0.19951265210E+02  0.21185085667E+02 -0.25647960206E+02  0.38790188205E+02  0.00000000000E+00 0.  1.
         11    1    1    2    0    0  0.31548339293E+02 -0.67910948971E+02 -0.54690061719E+02  0.92726466303E+02  0.00000000000E+00 0. -1.
</event>
<event>
 7    1  0.2644565E-009  0.1033017E+03  0.7561462E-02  0.1273502E+00
         -2   -1    0    0    0  501 -0.00000000000E+00  0.00000000000E+00  0.32617045113E+03  0.32617045113E+03  0.00000000000E+00 0.  1.
          2   -1    0    0  501    0  0.00000000000E+00 -0.00000000000E+00 -0.42212437794E+02  0.42212437794E+02  0.00000000000E+00 0. -1.
         25    2    1    2    0    0 -0.22500468203E+02 -0.27780367632E+02  0.12367352870E+03  0.17950022689E+03  0.12508864799E+03 0.  0.
          5    1    3    3  502    0 -0.46168363935E+01  0.49070814793E+02  0.34226943894E+02  0.60151609546E+02  0.41800000000E+01 0. -1.
         -5    1    3    3    0  502 -0.17883631810E+02 -0.76851182425E+02  0.89446584811E+02  0.11934861734E+03  0.41800000000E+01 0. -1.
        -11    1    1    2    0    0 -0.24919865786E+02  0.45993714281E+01  0.11955826941E+03  0.12221429422E+03  0.00000000000E+00 0.  1.
         11    1    1    2    0    0  0.47420333989E+02  0.23180996204E+02  0.40726215221E+02  0.66668367813E+02  0.00000000000E+00 0. -1.
</event>
<event>
 7    1  0.2644565E-009  0.1177082E+03  0.7561462E-02  0.1246926E+00
         -3   -1    0    0    0  501 -0.00000000000E+00  0.00000000000E+00  0.29123049623E+02  0.29123049623E+02  0.00000000000E+00 0. -1.
          3   -1    0    0  501    0  0.00000000000E+00 -0.00000000000E+00 -0.59498827212E+03  0.59498827212E+03  0.00000000000E+00 0.  1.
         25    2    1    2    0    0 -0.14665807548E+02  0.71995704986E+02 -0.27150179755E+03  0.30781798762E+03  0.12506086512E+03 0.  0.
          5    1    3    3  502    0 -0.58026138392E+02  0.58237144760E+02 -0.95959862711E+02  0.12642929019E+03  0.41800000000E+01 0. -1.
         -5    1    3    3    0  502  0.43360330844E+02  0.13758560227E+02 -0.17554193484E+03  0.18138869743E+03  0.41800000000E+01 0. -1.
        -11    1    1    2    0    0 -0.32526187756E+02 -0.29534075545E+02 -0.66117530772E+02  0.79383514559E+02  0.00000000000E+00 0. -1.
         11    1    1    2    0    0  0.47191995304E+02 -0.42461629442E+02 -0.22824589418E+03  0.23690981956E+03  0.00000000000E+00 0.  1.
</event>
<event>
 7    1  0.2644565E-009  0.9997422E+02  0.7561462E-02  0.1280350E+00
         -2   -1    0    0    0  501 -0.00000000000E+00  0.00000000000E+00  0.45094838455E+02  0.45094838455E+02  0.00000000000E+00 0.  1.
          2   -1    0    0  501    0  0.00000000000E+00 -0.00000000000E+00 -0.29942974608E+03  0.29942974608E+03  0.00000000000E+00 0. -1.
         25    2    1    2    0    0  0.14662931901E+02 -0.33255562182E+02 -0.11414984703E+03  0.17319862569E+03  0.12508653955E+03 0.  0.
          5    1    3    3  502    0  0.68243300285E+02 -0.26742568692E+01 -0.59566966770E+02  0.90719323266E+02  0.41800000000E+01 0. -1.
         -5    1    3    3    0  502 -0.53580368384E+02 -0.30581305313E+02 -0.54582880256E+02  0.82479302421E+02  0.41800000000E+01 0. -1.
        -11    1    1    2    0    0 -0.33177496417E+02  0.38131175916E+02 -0.14327801186E+03  0.15193196349E+03  0.00000000000E+00 0. -1.
         11    1    1    2    0    0  0.18514564516E+02 -0.48756137343E+01  0.30929512668E+01  0.19393995360E+02  0.00000000000E+00 0.  1.
</event>
<event>
 7    1  0.2644565E-009  0.2041198E+03  0.7561462E-02  0.1146309E+00
          2   -1    0    0  501    0  0.00000000000E+00  0.00000000000E+00  0.14938359099E+04  0.14938359099E+04  0.00000000000E+00 0. -1.
         -2   -1    0    0    0  501 -0.00000000000E+00 -0.00000000000E+00 -0.34474187413E+02  0.34474187413E+02  0.00000000000E+00 0.  1.
         25    2    1    2    0    0 -0.16363291722E+03 -0.86276608029E+02  0.51186905972E+03  0.55845983420E+03  0.12509223567E+03 0.  0.
          5    1    3    3  502    0  0.61901666289E+01  0.51435332387E+01  0.13296258060E+03  0.13327150610E+03  0.41800000000E+01 0.  1.
         -5    1    3    3    0  502 -0.16982308385E+03 -0.91420141267E+02  0.37890647911E+03  0.42518832810E+03  0.41800000000E+01 0.  1.
        -11    1    1    2    0    0  0.69105391936E+02  0.87781680724E+02  0.55495457917E+03  0.56608812354E+03  0.00000000000E+00 0.  1.
         11    1    1    2    0    0  0.94527525287E+02 -0.15050726950E+01  0.39253808359E+03  0.40376213957E+03  0.00000000000E+00 0. -1.
</event>
<event>
 7    1  0.2644565E-009  0.1242314E+03  0.7561462E-02  0.1236275E+00
         -3   -1    0    0    0  501 -0.00000000000E+00  0.00000000000E+00  0.47906856526E+02  0.47906856526E+02  0.00000000000E+00 0.  1.
          3   -1    0    0  501    0  0.00000000000E+00 -0.00000000000E+00 -0.44978699762E+03  0.44978699762E+03  0.00000000000E+00 0. -1.
         25    2    1    2    0    0  0.24307193462E+02  0.64889676635E+02 -0.10345832381E+03  0.17650218301E+03  0.12509151072E+03 0.  0.
          5    1    3    3  502    0  0.63721421945E+02 -0.92360580155E+00 -0.31384153161E+02  0.71159750786E+02  0.41800000000E+01 0.  1.
         -5    1    3    3    0  502 -0.39414228483E+02  0.65813282436E+02 -0.72074170653E+02  0.10534243223E+03  0.41800000000E+01 0.  1.
        -11    1    1    2    0    0  0.30163976292E+02 -0.32751939192E+02 -0.61198451222E+02  0.75682266209E+02  0.00000000000E+00 0.  1.
         11    1    1    2    0    0 -0.54471169753E+02 -0.32137737443E+02 -0.23722336605E+03  0.24550940492E+03  0.00000000000E+00 0. -1.
</event>
<event>
 7    1  0.2644565E-009  0.1124775E+03  0.7561462E-02  0.1256049E+00
          1   -1    0    0  501    0  0.00000000000E+00  0.00000000000E+00  0.47106180613E+02  0.47106180613E+02  0.00000000000E+00 0. -1.
         -1   -1    0    0    0  501 -0.00000000000E+00 -0.00000000000E+00 -0.30982790546E+03  0.30982790546E+03  0.00000000000E+00 0.  1.
         25    2    1    2    0    0  0.41227720624E+02  0.42855516211E+01 -0.19368410211E+03  0.23426323929E+03  0.12509053910E+03 0.  0.
          5    1    3    3  502    0  0.11051821134E+02  0.62754992483E+02 -0.11562725705E+03  0.13208885950E+03  0.41800000000E+01 0.  1.
         -5    1    3    3    0  502  0.30175899490E+02 -0.58469440862E+02 -0.78056845055E+02  0.10217437979E+03  0.41800000000E+01 0.  1.
        -11    1    1    2    0    0 -0.64009851844E+02  0.14508962236E+02 -0.65837029437E+02  0.92963893869E+02  0.00000000000E+00 0.  1.
         11    1    1    2    0    0  0.22782131220E+02 -0.18794513857E+02 -0.32005933044E+01  0.29706952916E+02  0.00000000000E+00 0. -1.
</event>
<event>
 7    1  0.2644565E-009  0.1199653E+03  0.7561462E-02  0.1243154E+00
         -1   -1    0    0    0  501 -0.00000000000E+00  0.00000000000E+00  0.23453998782E+03  0.23453998782E+03  0.00000000000E+00 0.  1.
          1   -1    0    0  501    0  0.00000000000E+00 -0.00000000000E+00 -0.90220690201E+02  0.90220690201E+02  0.00000000000E+00 0. -1.
         25    2    1    2    0    0  0.38151449194E+02 -0.88070499404E+02  0.64613875598E+02  0.17039432402E+03  0.12508927531E+03 0.  0.
          5    1    3    3  502    0  0.45371500388E+02 -0.14145095920E+02  0.81195153105E+02  0.94174211299E+02  0.41800000000E+01 0. -1.
         -5    1    3    3    0  502 -0.72200511941E+01 -0.73925403484E+02 -0.16581277507E+02  0.76220112722E+02  0.41800000000E+01 0. -1.
        -11    1    1    2    0    0 -0.80951777641E+01  0.87388981403E+02  0.86842792401E+02  0.12346674275E+03  0.00000000000E+00 0.  1.
         11    1    1    2    0    0 -0.30056271430E+02  0.68151800129E+00 -0.71373703840E+01  0.30899611245E+02  0.00000000000E+00 0. -1.
</event>
<event>
 6    1  0.2644565E-009  0.1004272E+03  0.7561462E-02  0.1279400E+00
          2   -1    0    0  501    0  0.00000000000E+00  0.00000000000E+00  0.24528758845E+03  0.24528758845E+03  0.00000000000E+00 0. -1.
         -2   -1    0    0    0  501 -0.00000000000E+00 -0.00000000000E+00 -0.61589739089E+02  0.61589739089E+02  0.00000000000E+00 0.  1.
          5    1    1    2  502    0 -0.17623651206E+02  0.39964070426E+02 -0.41801060719E+01  0.44075681431E+02  0.41800000000E+01 0.  1.
         -5    1    1    2    0  502  0.21719580552E+02 -0.76378303050E+02  0.48311930654E+02  0.93042465572E+02  0.41800000000E+01 0.  1.
        -11    1    1    2    0    0  0.28923190862E+02  0.85546597284E+00  0.87449867823E+01  0.30228423470E+02  0.00000000000E+00 0.  1.
         11    1    1    2    0    0 -0.33019120208E+02  0.35558766651E+02  0.13082103799E+03  0.13953075706E+03  0.00000000000E+00 0. -1.
</event>
<event>
 7    1  0.2644565E-009  0.2183233E+03  0.7561462E-02  0.1135139E+00
         -2   -1    0    0    0  501 -0.00000000000E+00  0.00000000000E+00  0.18870745553E+03  0.18870745553E+03  0.00000000000E+00 0.  1.
          2   -1    0    0  501    0  0.00000000000E+00 -0.00000000000E+00 -0.26155589642E+03  0.26155589642E+03  0.00000000000E+00 0. -1.
         25    2    1    2    0    0 -0.17594330008E+03  0.70812617548E+02 -0.78188552195E+02  0.24027461644E+03  0.12509184612E+03 0.  0.
          5    1    3    3  502    0 -0.13553402255E+03 -0.10338556984E+02 -0.39431903518E+02  0.14159344774E+03  0.41800000000E+01 0.  1.
         -5    1    3    3    0  502 -0.40409277527E+02  0.81151174532E+02 -0.38756648677E+02  0.98681168694E+02  0.41800000000E+01 0.  1.
        -11    1    1    2    0    0  0.12853966755E+03 -0.47952401127E+01  0.19276440655E+01  0.12864352402E+03  0.00000000000E+00 0.  1.
         11    1    1    2    0    0  0.47403632526E+02 -0.66017377436E+02  0.34124672412E+01  0.81345211493E+02  0.00000000000E+00 0. -1.
</event>
<event>
 7    1  0.2644565E-009  0.1050419E+03  0.7561462E-02  0.1270037E+00
         -3   -1    0    0    0  501 -0.00000000000E+00  0.00000000000E+00  0.83307837041E+02  0.83307837041E+02  0.00000000000E+00 0.  1.
          3   -1    0    0  501    0  0.00000000000E+00 -0.00000000000E+00 -0.20762657471E+03  0.20762657471E+03  0.00000000000E+00 0. -1.
         25    2    1    2    0    0  0.40029301519E+02  0.38093632614E+02 -0.11435520435E+03  0.17826563774E+03  0.12509218605E+03 0.  0.
          5    1    3    3  502    0 -0.37837939732E+02 -0.54406983764E+01 -0.78085836901E+01  0.39239740840E+02  0.41800000000E+01 0.  1.
         -5    1    3    3    0  502  0.77867241251E+02  0.43534330990E+02 -0.10654662066E+03  0.13902589690E+03  0.41800000000E+01 0.  1.
        -11    1    1    2    0    0 -0.35819843800E+02 -0.54591535681E+02 -0.41120237004E+02  0.77163274095E+02  0.00000000000E+00 0. -1.
         11    1    1    2    0    0 -0.42094577196E+01  0.16497903067E+02  0.31156703684E+02  0.35505499917E+02  0.00000000000E+00 0.  1.
</event>
<event>
 7    1  0.2644565E-009  0.1072347E+03  0.7561462E-02  0.1265778E+00
          3   -1    0    0  501    0  0.00000000000E+00  0.00000000000E+00  0.29581057134E+03  0.29581057134E+03  0.00000000000E+00 0. -1.
         -3   -1    0    0    0  501 -0.00000000000E+00 -0.00000000000E+00 -0.47382951188E+02  0.47382951188E+02  0.00000000000E+00 0.  1.
         25    2    1    2    0    0  0.25146779710E+02 -0.26279706053E+02  0.93216787368E+02  0.16018651551E+03  0.12508943530E+03 0.  0.
          5    1    3    3  502    0  0.33577944834E+02 -0.68428402423E+02  0.26684715481E+02  0.80866996221E+02  0.41800000000E+01 0. -1.
         -5    1    3    3    0  502 -0.84311651239E+01  0.42148696371E+02  0.66532071887E+02  0.79319519291E+02  0.41800000000E+01 0. -1.
        -11    1    1    2    0    0 -0.35879657598E+01  0.57166501216E+02  0.74807342494E+02  0.94217943358E+02  0.00000000000E+00 0.  1.
         11    1    1    2    0    0 -0.21558813951E+02 -0.30886795163E+02  0.80403490288E+02  0.88789063656E+02  0.00000000000E+00 0. -1.
</event>
<event>
 7    1  0.2644565E-009  0.1039905E+03  0.7561462E-02  0.1272121E+00
         -1   -1    0    0    0  501 -0.00000000000E+00  0.00000000000E+00  0.24028026156E+02  0.24028026156E+02  0.00000000000E+00 0.  1.
          1   -1    0    0  501    0  0.00000000000E+00 -0.00000000000E+00 -0.64034518387E+03  0.64034518387E+03  0.00000000000E+00 0. -1.
         25    2    1    2    0    0  0.80183030061E+01  0.71570168165E+02 -0.31302975521E+03  0.34470391862E+03  0.12508629705E+03 0.  0.
          5    1    3    3  502    0  0.54022531127E+02  0.17125345683E+02 -0.22119613925E+03  0.22837888640E+03  0.41800000000E+01 0.  1.
         -5    1    3    3    0  502 -0.46004228121E+02  0.54444822481E+02 -0.91833615961E+02  0.11632503222E+03  0.41800000000E+01 0.  1.
        -11    1    1    2    0    0  0.11089454175E+02 -0.48726752708E+02 -0.27169543212E+03  0.27625292805E+03  0.00000000000E+00 0. -1.
         11    1    1    2    0    0 -0.19107757181E+02 -0.22843415457E+02 -0.31591970384E+02  0.43416363355E+02  0.00000000000E+00 0.  1.
</event>
<event>
 7    1  0.2644565E-009  0.2087386E+03  0.7561462E-02  0.1142569E+00
         -4   -1    0    0    0  501 -0.00000000000E+00  0.00000000000E+00  0.36647457514E+03  0.36647457514E+03  0.00000000000E+00 0.  1.
          4   -1    0    0  501    0  0.00000000000E+00 -0.00000000000E+00 -0.13900873607E+03  0.13900873607E+03  0.00000000000E+00 0. -1.
         25    2    1    2    0    0  0.18872676569E+03  0.52313475411E+02  0.14221197272E+03  0.27244504170E+03  0.12509022251E+03 0.  0.
          5    1    3    3  502    0  0.16345065156E+03  0.62988131530E+02  0.16178293219E+03  0.23848440150E+03  0.41800000000E+01 0.  1.
         -5    1    3    3    0  502  0.25276114131E+02 -0.10674656118E+02 -0.19570959471E+02  0.33960640210E+02  0.41800000000E+01 0.  1.
        -11    1    1    2    0    0 -0.18453857516E+03 -0.69215827709E+02  0.87191617943E+02  0.21551727255E+03  0.00000000000E+00 0.  1.
         11    1    1    2    0    0 -0.41881905309E+01  0.16902352298E+02 -0.19377515949E+01  0.17520996957E+02  0.00000000000E+00 0. -1.
</event>
<event>
 7    1  0.2644565E-009  0.1521804E+03  0.7561462E-02  0.1197819E+00
         -1   -1    0    0    0  501 -0.00000000000E+00  0.00000000000E+00  0.19103384256E+03  0.19103384256E+03  0.00000000000E+00 0.  1.
          1   -1    0    0  501    0  0.00000000000E+00 -0.00000000000E+00 -0.16911610259E+03  0.16911610259E+03  0.00000000000E+00 0. -1.
         25    2    1    2    0    0  0.58228277496E+02 -0.96176444896E+02  0.98822877246E+02  0.19507384328E+03  0.12508957755E+03 0.  0.
          5    1    3    3  502    0  0.64317625644E+02 -0.12348924184E+03  0.75730412201E+02  0.15855257031E+03  0.41800000000E+01 0. -1.
         -5    1    3    3    0  502 -0.60893481477E+01  0.27312796943E+02  0.23092465045E+02  0.36521272973E+02  0.41800000000E+01 0. -1.
        -11    1    1    2    0    0 -0.67207892786E+02  0.10468292323E+03 -0.84661881817E+02  0.15047607617E+03  0.00000000000E+00 0. -1.
         11    1    1    2    0    0  0.89796152895E+01 -0.85064783307E+01  0.77567445447E+01  0.14600025694E+02  0.00000000000E+00 0.  1.
</event>
<event>
 7    1  0.2644565E-009  0.1598831E+03  0.7561462E-02  0.1188829E+00
          2   -1    0    0  501    0  0.00000000000E+00  0.00000000000E+00  0.10605504622E+04  0.10605504622E+04  0.00000000000E+00 0. -1.
         -2   -1    0    0    0  501 -0.00000000000E+00 -0.00000000000E+00 -0.26305488430E+02  0.26305488430E+02  0.00000000000E+00 0.  1.
         25    2    1    2    0    0  0.57072439234E+01 -0.74242893261E+02  0.45799407592E+03  0.48057357212E+03  0.12509118596E+03 0.  0.
          5    1    3    3  502    0  0.59835645496E+02 -0.58381283783E+02  0.33333806300E+03  0.34368650746E+03  0.41800000000E+01 0. -1.
         -5    1    3    3    0  502 -0.54128401572E+02 -0.15861609478E+02  0.12465601292E+03  0.13688706466E+03  0.41800000000E+01 0. -1.
        -11    1    1    2    0    0  0.55806483639E+01  0.12620594195E+03  0.30961330866E+03  0.33439420497E+03  0.00000000000E+00 0.  1.
         11    1    1    2    0    0 -0.11287892287E+02 -0.51963048691E+02  0.26663758916E+03  0.27188817351E+03  0.00000000000E+00 0. -1.
</event>
<event>
 7    1  0.2644565E-009  0.1134829E+03  0.7561462E-02  0.1254253E+00
          2   -1    0    0  501    0  0.00000000000E+00  0.00000000000E+00  0.14703113337E+04  0.14703113337E+04  0.00000000000E+00 0. -1.
         -2   -1    0    0    0  501 -0.00000000000E+00 -0.00000000000E+00 -0.11379961934E+02  0.11379961934E+02  0.00000000000E+00 0.  1.
         25    2    1    2    0    0 -0.54679453281E+02 -0.17203876378E+02  0.10441338732E+04  0.10531617480E+04  0.12509318998E+03 0.  0.
          5    1    3    3  502    0 -0.52014228322E+02  0.37638943208E+02  0.81369579707E+03  0.81623556193E+03  0.41800000000E+01 0.  1.
         -5    1    3    3    0  502 -0.26652249589E+01 -0.54842819586E+02  0.23043807618E+03  0.23692618605E+03  0.41800000000E+01 0.  1.
        -11    1    1    2    0    0 -0.25488825202E+02  0.87393726045E+01  0.10989440143E+03  0.11314961913E+03  0.00000000000E+00 0.  1.
         11    1    1    2    0    0  0.80168278483E+02  0.84645037735E+01  0.30490309706E+03  0.31537992849E+03  0.00000000000E+00 0. -1.
</event>
<event>
 7    1  0.2644565E-009  0.1019582E+03  0.7561462E-02  0.1276231E+00
         -2   -1    0    0    0  501 -0.00000000000E+00  0.00000000000E+00  0.13112204524E+02  0.13112204524E+02  0.00000000000E+00 0.  1.
          2   -1    0    0  501    0  0.00000000000E+00 -0.00000000000E+00 -0.11165193929E+04  0.11165193929E+04  0.00000000000E+00 0. -1.
         25    2    1    2    0    0 -0.34686472470E+01 -0.19742782729E+02 -0.84554528857E+03  0.85498297173E+03  0.12508892014E+03 0.  0.
          5    1    3    3  502    0  0.74804330671E+01  0.47477199831E+02 -0.19543479225E+03  0.20130144511E+03  0.41800000000E+01 0. -1.
         -5    1    3    3    0  502 -0.10949080314E+02 -0.67219982560E+02 -0.65011049633E+03  0.65368152662E+03  0.41800000000E+01 0. -1.
        -11    1    1    2    0    0  0.15225842920E+02  0.51431824753E+02 -0.10287127875E+03  0.11601533900E+03  0.00000000000E+00 0.  1.
         11    1    1    2    0    0 -0.11757195673E+02 -0.31689042024E+02 -0.15499062104E+03  0.15863328669E+03  0.00000000000E+00 0. -1.
</event>
<event>
 7    1  0.2644565E-009  0.1751793E+03  0.7561462E-02  0.1172552E+00
         -2   -1    0    0    0  501 -0.00000000000E+00  0.00000000000E+00  0.40455195263E+02  0.40455195263E+02  0.00000000000E+00 0.  1.
          2   -1    0    0  501    0  0.00000000000E+00 -0.00000000000E+00 -0.87447874347E+03  0.87447874347E+03  0.00000000000E+00 0. -1.
         25    2    1    2    0    0  0.11793804005E+03  0.79900298958E+02 -0.30066877224E+03  0.35544734876E+03  0.12509063942E+03 0.  0.
          5    1    3    3  502    0  0.13573165053E+03  0.37968070793E+02 -0.19827281159E+03  0.24329865510E+03  0.41800000000E+01 0. -1.
         -5    1    3    3    0  502 -0.17793610472E+02  0.41932228166E+02 -0.10239596065E+03  0.11214869366E+03  0.41800000000E+01 0. -1.
        -11    1    1    2    0    0 -0.45899463515E+02  0.11419142830E+02 -0.22514732060E+03  0.23006189068E+03  0.00000000000E+00 0.  1.
         11    1    1    2    0    0 -0.72038576539E+02 -0.91319441788E+02 -0.30820745537E+03  0.32942469929E+03  0.00000000000E+00 0. -1.
</event>
<event>
 7    1  0.2644565E-009  0.1072663E+03  0.7561462E-02  0.1265718E+00
          1   -1    0    0  501    0  0.00000000000E+00  0.00000000000E+00  0.97169795483E+03  0.97169795483E+03  0.00000000000E+00 0. -1.
         -1   -1    0    0    0  501 -0.00000000000E+00 -0.00000000000E+00 -0.23770107334E+02  0.23770107334E+02  0.00000000000E+00 0.  1.
         25    2    1    2    0    0  0.18999156013E+02  0.10246590138E+03  0.59564737294E+03  0.61749817270E+03  0.12509185237E+03 0.  0.
          5    1    3    3  502    0 -0.11262543399E+01  0.64713057999E+02  0.95114812165E+02  0.11512318714E+03  0.41800000000E+01 0.  1.
         -5    1    3    3    0  502  0.20125410353E+02  0.37752843381E+02  0.50053256077E+03  0.50237498556E+03  0.41800000000E+01 0.  1.
        -11    1    1    2    0    0  0.53445765865E+01 -0.20429743808E+02  0.70054415093E+01  0.22248935743E+02  0.00000000000E+00 0.  1.
         11    1    1    2    0    0 -0.24343732600E+02 -0.82036157571E+02  0.34527503305E+03  0.35572095372E+03  0.00000000000E+00 0. -1.
</event>
<event>
 7    1  0.2644565E-009  0.1020835E+03  0.7561462E-02  0.1275975E+00
          2   -1    0    0  501    0  0.00000000000E+00  0.00000000000E+00  0.24310290975E+02  0.24310290975E+02  0.00000000000E+00 0. -1.
         -2   -1    0    0    0  501 -0.00000000000E+00 -0.00000000000E+00 -0.72353680893E+03  0.72353680893E+03  0.00000000000E+00 0.  1.
         25    2    1    2    0    0 -0.13926791523E+02  0.60178008254E+02 -0.26279799521E+03  0.29753085345E+03  0.12508586757E+03 0.  0.
          5    1    3    3  502    0 -0.35388532292E+02 -0.18737014915E-01 -0.10381253278E+02  0.37115918263E+02  0.41800000000E+01 0.  1.
         -5    1    3    3    0  502  0.21461740770E+02  0.60196745268E+02 -0.25241674193E+03  0.26041493518E+03  0.41800000000E+01 0.  1.
        -11    1    1    2    0    0 -0.44449202492E+01 -0.78450479247E+02 -0.38247762498E+03  0.39046557930E+03  0.00000000000E+00 0. -1.
         11    1    1    2    0    0  0.18371711772E+02  0.18272470993E+02 -0.53950897763E+02  0.59850667156E+02  0.00000000000E+00 0.  1.
</event>
<event>
 7    1  0.2644565E-009  0.1019319E+03  0.7561462E-02  0.1276285E+00
         -1   -1    0    0    0  501 -0.00000000000E+00  0.00000000000E+00  0.20427140101E+02  0.20427140101E+02  0.00000000000E+00 0.  1.
          1   -1    0    0  501    0  0.00000000000E+00 -0.00000000000E+00 -0.66695890506E+03  0.66695890506E+03  0.00000000000E+00 0. -1.
         25    2    1    2    0    0  0.88105817217E+01 -0.28450124168E+02 -0.44636460301E+03  0.46451650672E+03  0.12508872962E+03 0.  0.
          5    1    3    3  502    0 -0.16104112224E+02 -0.63776602337E+02 -0.37670238914E+03  0.38242510354E+03  0.41800000000E+01 0.  1.
         -5    1    3    3    0  502  0.24914693946E+02  0.35326478169E+02 -0.69662213873E+02  0.82091403179E+02  0.41800000000E+01 0.  1.
        -11    1    1    2    0    0 -0.26469892836E+02  0.55918673800E+02 -0.15694087001E+03  0.16869496135E+03  0.00000000000E+00 0. -1.
         11    1    1    2    0    0  0.17659311114E+02 -0.27468549632E+02 -0.43226291934E+02  0.54174577084E+02  0.00000000000E+00 0.  1.
</event>
<event>
 7    1  0.2644565E-009  0.1244069E+03  0.7561462E-02  0.1235999E+00
         -1   -1    0    0    0  501 -0.00000000000E+00  0.00000000000E+00  0.26587935904E+03  0.26587935904E+03  0.00000000000E+00 0.  1.
          1   -1    0    0  501    0  0.00000000000E+00 -0.00000000000E+00 -0.96988193902E+02  0.96988193902E+02  0.00000000000E+00 0. -1.
         25    2    1    2    0    0 -0.82324741074E+01  0.10604754847E+03  0.13700727136E+03  0.21385710714E+03  0.12510001480E+03 0.  0.
          5    1    3    3  502    0 -0.20544963174E+02 -0.40728094432E+01 -0.14713168053E+02  0.25935169225E+02  0.41800000000E+01 0. -1.
         -5    1    3    3    0  502  0.12312489066E+02  0.11012035791E+03  0.15172043942E+03  0.18792193792E+03  0.41800000000E+01 0. -1.
        -11    1    1    2    0    0 -0.19997875330E+02 -0.39190453617E+02 -0.30315095046E+02  0.53430437581E+02  0.00000000000E+00 0. -1.
         11    1    1    2    0    0  0.28230349438E+02 -0.66857094850E+02  0.62198988820E+02  0.95580008220E+02  0.00000000000E+00 0.  1.
</event>
<event>
 7    1  0.2644565E-009  0.1090896E+03  0.7561462E-02  0.1262265E+00
          1   -1    0    0  501    0  0.00000000000E+00  0.00000000000E+00  0.77804451370E+02  0.77804451370E+02  0.00000000000E+00 0. -1.
         -1   -1    0    0    0  501 -0.00000000000E+00 -0.00000000000E+00 -0.16415711103E+03  0.16415711103E+03  0.00000000000E+00 0.  1.
         25    2    1    2    0    0 -0.23291480521E+02  0.10765794191E+02 -0.30513528157E+02  0.13128769109E+03  0.12508791725E+03 0.  0.
          5    1    3    3  502    0 -0.72487393909E+02  0.12235972569E+01 -0.29292229848E+00  0.72618714320E+02  0.41800000000E+01 0. -1.
         -5    1    3    3    0  502  0.49195913388E+02  0.95421969339E+01 -0.30220605858E+02  0.58668976767E+02  0.41800000000E+01 0. -1.
        -11    1    1    2    0    0 -0.33931405430E+02 -0.16563734898E+02 -0.18019014955E+02  0.41837572685E+02  0.00000000000E+00 0. -1.
         11    1    1    2    0    0  0.57222885951E+02  0.57979407068E+01 -0.37820116549E+02  0.68836298628E+02  0.00000000000E+00 0.  1.
</event>
<event>
 7    1  0.2644565E-009  0.9895461E+02  0.7561462E-02  0.1282510E+00
          2   -1    0    0  501    0  0.00000000000E+00  0.00000000000E+00  0.21461071136E+03  0.21461071136E+03  0.00000000000E+00 0. -1.
         -2   -1    0    0    0  501 -0.00000000000E+00 -0.00000000000E+00 -0.67621820240E+02  0.67621820240E+02  0.00000000000E+00 0.  1.
         25    2    1    2    0    0 -0.38488649134E+02  0.14191220269E+02  0.36266887061E+02  0.13651586887E+03  0.12505410233E+03 0.  0.
          5    1    3    3  502    0  0.48459983899E+01  0.47963354155E+02  0.59522797740E+02  0.76709861771E+02  0.41800000000E+01 0. -1.
         -5    1    3    3    0  502 -0.43334647524E+02 -0.33772133886E+02 -0.23255910679E+02  0.59806007096E+02  0.41800000000E+01 0. -1.
        -11    1    1    2    0    0  0.65361977901E+02 -0.16610535914E+02  0.73606085266E+02  0.99829624093E+02  0.00000000000E+00 0. -1.
         11    1    1    2    0    0 -0.26873328766E+02  0.24193156454E+01  0.37115918794E+02  0.45887038640E+02  0.00000000000E+00 0.  1.
</event>
<event>
 7    1  0.2644565E-009  0.1013572E+03  0.7561462E-02  0.1277468E+00
          2   -1    0    0  501    0  0.00000000000E+00  0.00000000000E+00  0.30145100193E+02  0.30145100193E+02  0.00000000000E+00 0. -1.
         -2   -1    0    0    0  501 -0.00000000000E+00 -0.00000000000E+00 -0.39994350671E+03  0.39994350671E+03  0.00000000000E+00 0.  1.
         25    2    1    2    0    0  0.14407657970E+02 -0.31872237218E+01 -0.23748316552E+03  0.26881702246E+03  0.12508636479E+03 0.  0.
          5    1    3    3  502    0 -0.41256767265E+01  0.51935052631E+02 -0.49449381312E+02  0.71951265537E+02  0.41800000000E+01 0. -1.
         -5    1    3    3    0  502  0.18533334696E+02 -0.55122276353E+02 -0.18803378420E+03  0.19686575692E+03  0.41800000000E+01 0. -1.
        -11    1    1    2    0    0 -0.18481949240E+02 -0.42463695062E+02 -0.63637451386E+02  0.78704974842E+02  0.00000000000E+00 0.  1.
         11    1    1    2    0    0  0.40742912699E+01  0.45650918784E+02 -0.68677789616E+02  0.82566609605E+02  0.00000000000E+00 0. -1.
</event>
<event>
 7    1  0.2644565E-009  0.1084752E+03  0.7561462E-02  0.1263420E+00
         -2   -1    0    0    0  501 -0.00000000000E+00  0.00000000000E+00  0.44305243302E+02  0.44305243302E+02  0.00000000000E+00 0.  1.
          2   -1    0    0  501    0  0.00000000000E+00 -0.00000000000E+00 -0.29934287148E+03  0.29934287148E+03  0.00000000000E+00 0. -1.
         25    2    1    2    0    0 -0.17040110203E+02 -0.95008461558E+01 -0.92712937403E+02  0.15691400525E+03  0.12508271203E+03 0.  0.
          5    1    3    3  502    0 -0.64460946583E+02  0.23343692329E+02 -0.47646115772E+02  0.83592860664E+02  0.41800000000E+01 0. -1.
         -5    1    3    3    0  502  0.47420836380E+02 -0.32844538485E+02 -0.45066821631E+02  0.73321144585E+02  0.41800000000E+01 0. -1.
        -11    1    1    2    0    0  0.52166060046E+01 -0.39591492695E+02 -0.90668066239E+02  0.99072688000E+02  0.00000000000E+00 0. -1.
         11    1    1    2    0    0  0.11823504198E+02  0.49092338851E+02 -0.71656624539E+02  0.87661421536E+02  0.00000000000E+00 0.  1.
</event>
<event>
 7    1  0.2644565E-009  0.9002507E+02  0.7561462E-02  0.1302791E+00
          2   -1    0    0  501    0  0.00000000000E+00  0.00000000000E+00  0.73905991713E+02  0.73905991713E+02  0.00000000000E+00 0. -1.
         -2   -1    0    0    0  501 -0.00000000000E+00 -0.00000000000E+00 -0.16869535447E+03  0.16869535447E+03  0.00000000000E+00 0.  1.
         25    2    1    2    0    0 -0.13227615972E+02 -0.25020159012E+02 -0.40369868108E+02  0.13445406246E+03  0.12508873043E+03 0.  0.
          5    1    3    3  502    0  0.22795925496E+02 -0.40916240018E+02 -0.70468030775E+02  0.84717227750E+02  0.41800000000E+01 0. -1.
         -5    1    3    3    0  502 -0.36023541468E+02  0.15896081006E+02  0.30098162667E+02  0.49736834712E+02  0.41800000000E+01 0. -1.
        -11    1    1    2    0    0  0.51545084673E+02  0.17054765135E+02 -0.30318747202E+02  0.62185104323E+02  0.00000000000E+00 0.  1.
         11    1    1    2    0    0 -0.38317468701E+02  0.79653938772E+01 -0.24100747444E+02  0.45962179394E+02  0.00000000000E+00 0. -1.
</event>
<event>
 7    1  0.2644565E-009  0.1967569E+03  0.7561462E-02  0.1152504E+00
         -1   -1    0    0    0  501 -0.00000000000E+00  0.00000000000E+00  0.86519254244E+02  0.86519254244E+02  0.00000000000E+00 0.  1.
          1   -1    0    0  501    0  0.00000000000E+00 -0.00000000000E+00 -0.44937760977E+03  0.44937760977E+03  0.00000000000E+00 0. -1.
         25    2    1    2    0    0  0.56034307315E+02  0.15359329832E+03 -0.20010852755E+03  0.28709252088E+03  0.12509175777E+03 0.  0.
          5    1    3    3  502    0 -0.39187780660E+02  0.30525108587E+02 -0.41534422810E+02  0.64884860218E+02  0.41800000000E+01 0.  1.
         -5    1    3    3    0  502  0.95222087975E+02  0.12306818973E+03 -0.15857410474E+03  0.22220766066E+03  0.41800000000E+01 0.  1.
        -11    1    1    2    0    0  0.26141156409E+02 -0.33674682625E+02 -0.32330248007E+02  0.53503170416E+02  0.00000000000E+00 0. -1.
         11    1    1    2    0    0 -0.82175463724E+02 -0.11991861569E+03 -0.13041957997E+03  0.19530117272E+03  0.00000000000E+00 0.  1.
</event>
<event>
 7    1  0.2644565E-009  0.8836346E+02  0.7561462E-02  0.1306864E+00
         -1   -1    0    0    0  501 -0.00000000000E+00  0.00000000000E+00  0.36159282581E+02  0.36159282581E+02  0.00000000000E+00 0.  1.
          1   -1    0    0  501    0  0.00000000000E+00 -0.00000000000E+00 -0.38401026161E+03  0.38401026161E+03  0.00000000000E+00 0. -1.
         25    2    1    2    0    0  0.37847852663E+02  0.58557842948E+01 -0.15667840709E+03  0.20410847336E+03  0.12508155535E+03 0.  0.
          5    1    3    3  502    0  0.24275333511E+02 -0.46632424837E+02 -0.18958300351E+02  0.56042523279E+02  0.41800000000E+01 0. -1.
         -5    1    3    3    0  502  0.13572519151E+02  0.52488209132E+02 -0.13772010674E+03  0.14806595009E+03  0.41800000000E+01 0. -1.
        -11    1    1    2    0    0  0.48486355062E+01 -0.23072096690E+02 -0.47649660809E+01  0.24052771435E+02  0.00000000000E+00 0.  1.
         11    1    1    2    0    0 -0.42696488169E+02  0.17216312395E+02 -0.18640760586E+03  0.19200829939E+03  0.00000000000E+00 0. -1.
</event>
<event>
 7    1  0.3880178E-009  0.2353491E+03  0.7561462E-02  0.1122931E+00
         -2   -1    0    0    0  501 -0.00000000000E+00  0.00000000000E+00  0.87450601770E+02  0.87450601770E+02  0.00000000000E+00 0.  1.
          2   -1    0    0  501    0  0.00000000000E+00 -0.00000000000E+00 -0.87421177494E+03  0.87421177494E+03  0.00000000000E+00 0. -1.
         25    2    1    2    0    0  0.22918161842E+03  0.40529505826E+02 -0.22599732534E+03  0.34769425604E+03  0.12509855939E+03 0.  0.
          5    1    3    3  502    0  0.17029695680E+03  0.50935195763E+02 -0.90451038797E+02  0.19948511344E+03  0.41800000000E+01 0. -1.
         -5    1    3    3    0  502  0.58884661617E+02 -0.10405689937E+02 -0.13554628654E+03  0.14820914261E+03  0.41800000000E+01 0. -1.
        -11    1    1    2    0    0 -0.12066642289E+03 -0.16237562119E+02 -0.40272661812E+03  0.42072885922E+03  0.00000000000E+00 0. -1.
         11    1    1    2    0    0 -0.10851519553E+03 -0.24291943708E+02 -0.15803722971E+03  0.19323926145E+03  0.00000000000E+00 0.  1.
</event>
<event>
 7    1  0.2644565E-009  0.1433359E+03  0.7561462E-02  0.1208909E+00
         -2   -1    0    0    0  501 -0.00000000000E+00  0.00000000000E+00  0.12864897695E+03  0.12864897695E+03  0.00000000000E+00 0.  1.
          2   -1    0    0  501    0  0.00000000000E+00 -0.00000000000E+00 -0.34512980208E+03  0.34512980208E+03  0.00000000000E+00 0. -1.
         25    2    1    2    0    0  0.23599052671E+02  0.11929199775E+03 -0.26223967614E+03  0.31496417293E+03  0.12508111958E+03 0.  0.
          5    1    3    3  502    0  0.44811874361E+02  0.39600809752E+02 -0.20727762056E+03  0.21577259465E+03  0.41800000000E+01 0. -1.
         -5    1    3    3    0  502 -0.21212821690E+02  0.79691187994E+02 -0.54962055571E+02  0.99191578274E+02  0.41800000000E+01 0. -1.
        -11    1    1    2    0    0 -0.45828261726E+02 -0.36970898502E+02  0.44036766990E+02  0.73527639400E+02  0.00000000000E+00 0.  1.
         11    1    1    2    0    0  0.22229209054E+02 -0.82321099243E+02  0.17220840091E+01  0.85286966701E+02  0.00000000000E+00 0. -1.
</event>
<event>
 7    1  0.2644565E-009  0.9973352E+02  0.7561462E-02  0.1280857E+00
         -3   -1    0    0    0  501 -0.00000000000E+00  0.00000000000E+00  0.93768041324E+02  0.93768041324E+02  0.00000000000E+00 0.  1.
          3   -1    0    0  501    0  0.00000000000E+00 -0.00000000000E+00 -0.20071550482E+03  0.20071550482E+03  0.00000000000E+00 0. -1.
         25    2    1    2    0    0  0.22475030874E+02 -0.76956866935E+02 -0.94569545409E+02  0.17611912811E+03  0.12508821681E+03 0.  0.
          5    1    3    3  502    0 -0.15442183298E+02 -0.76106057530E+01 -0.95337337567E+02  0.96969390425E+02  0.41800000000E+01 0. -1.
         -5    1    3    3    0  502  0.37917214172E+02 -0.69346261182E+02  0.76779215810E+00  0.79149737684E+02  0.41800000000E+01 0. -1.
        -11    1    1    2    0    0  0.20254722035E+02  0.86284796879E+01 -0.28667040355E+02  0.36145589345E+02  0.00000000000E+00 0. -1.
         11    1    1    2    0    0 -0.42729752909E+02  0.68328387248E+02  0.16289122266E+02  0.82218828693E+02  0.00000000000E+00 0.  1.
</event>
<event>
 7    1  0.2644565E-009  0.9297602E+02  0.7561462E-02  0.1295801E+00
         -1   -1    0    0    0  501 -0.00000000000E+00  0.00000000000E+00  0.28002544928E+03  0.28002544928E+03  0.00000000000E+00 0.  1.
          1   -1    0    0  501    0  0.00000000000E+00 -0.00000000000E+00 -0.47185650453E+02  0.47185650453E+02  0.00000000000E+00 0. -1.
         25    2    1    2    0    0 -0.17907471296E+02  0.77496140824E+01  0.97997373368E+02  0.16008725372E+03  0.12507481589E+03 0.  0.
          5    1    3    3  502    0 -0.32256828128E+02 -0.53978549653E+02  0.51164648071E+02  0.81175614539E+02  0.41800000000E+01 0.  1.
         -5    1    3    3    0  502  0.14349356832E+02  0.61728163735E+02  0.46832725297E+02  0.78911639181E+02  0.41800000000E+01 0.  1.
        -11    1    1    2    0    0  0.31538498505E+02  0.13392165017E+02  0.13761492069E+03  0.14181640726E+03  0.00000000000E+00 0.  1.
         11    1    1    2    0    0 -0.13631027209E+02 -0.21141779100E+02 -0.27724952329E+01  0.25307438750E+02  0.00000000000E+00 0. -1.
</event>
<event>
 7    1  0.2644565E-009  0.1115150E+03  0.7561462E-02  0.1257790E+00
         -2   -1    0    0    0  501 -0.00000000000E+00  0.00000000000E+00  0.14470406358E+03  0.14470406358E+03  0.00000000000E+00 0.  1.
          2   -1    0    0  501    0  0.00000000000E+00 -0.00000000000E+00 -0.11834894287E+03  0.11834894287E+03  0.00000000000E+00 0. -1.
         25    2    1    2    0    0  0.30108752642E+02  0.74778380241E+02  0.13916158407E+02  0.14946495263E+03  0.12509104470E+03 0.  0.
          5    1    3    3  502    0  0.47026659945E+02  0.79165303217E+02  0.53086813439E+02  0.10636885888E+03  0.41800000000E+01 0.  1.
         -5    1    3    3    0  502 -0.16917907303E+02 -0.43869229760E+01 -0.39170655031E+02  0.43096093748E+02  0.41800000000E+01 0.  1.
        -11    1    1    2    0    0 -0.14634111210E+02  0.15484456348E+02  0.15194604188E+01  0.21359643238E+02  0.00000000000E+00 0.  1.
         11    1    1    2    0    0 -0.15474641432E+02 -0.90262836589E+02  0.10919501887E+02  0.92228410580E+02  0.00000000000E+00 0. -1.
</event>
<event>
 7    1  0.2644565E-009  0.7137078E+02  0.7561462E-02  0.1355493E+00
          2   -1    0    0  501    0  0.00000000000E+00  0.00000000000E+00  0.10515822124E+03  0.10515822124E+03  0.00000000000E+00 0. -1.
         -2   -1    0    0    0  501 -0.00000000000E+00 -0.00000000000E+00 -0.12715964620E+03  0.12715964620E+03  0.00000000000E+00 0.  1.
         25    2    1    2    0    0  0.73516527235E+01  0.34999240001E+02 -0.33182389534E+02  0.13426888250E+03  0.12509223890E+03 0.  0.
          5    1    3    3  502    0 -0.10803730228E+02  0.25434192757E+02 -0.79050770762E+02  0.83845784069E+02  0.41800000000E+01 0.  1.
         -5    1    3    3    0  502  0.18155382952E+02  0.95650472440E+01  0.45868381228E+02  0.50423098431E+02  0.41800000000E+01 0.  1.
        -11    1    1    2    0    0 -0.46374725549E+02 -0.28097446800E+02 -0.65835468112E+01  0.54620735761E+02  0.00000000000E+00 0.  1.
         11    1    1    2    0    0  0.39023072826E+02 -0.69017932005E+01  0.17764511391E+02  0.43428249183E+02  0.00000000000E+00 0. -1.
</event>
<event>
 7    1  0.2644565E-009  0.1932171E+03  0.7561462E-02  0.1155591E+00
         -1   -1    0    0    0  501 -0.00000000000E+00  0.00000000000E+00  0.49730315432E+02  0.49730315432E+02  0.00000000000E+00 0.  1.
          1   -1    0    0  501    0  0.00000000000E+00 -0.00000000000E+00 -0.93629095275E+03  0.93629095275E+03  0.00000000000E+00 0. -1.
         25    2    1    2    0    0  0.10234983302E+03  0.13302171629E+03 -0.63898264216E+03  0.67239178189E+03  0.12506648649E+03 0.  0.
          5    1    3    3  502    0  0.94799698513E+02  0.23391828248E+02 -0.34252277606E+03  0.35619304456E+03  0.41800000000E+01 0. -1.
         -5    1    3    3    0  502  0.75501345024E+01  0.10962988805E+03 -0.29645986610E+03  0.31619873733E+03  0.41800000000E+01 0. -1.
        -11    1    1    2    0    0 -0.93525075523E+01 -0.59371557234E+02 -0.14439640273E+03  0.15640579378E+03  0.00000000000E+00 0. -1.
         11    1    1    2    0    0 -0.92997325463E+02 -0.73650159061E+02 -0.10318159243E+03  0.15722369252E+03  0.00000000000E+00 0.  1.
</event>
<event>
 7    1  0.2644565E-009  0.1072259E+03  0.7561462E-02  0.1265795E+00
          1   -1    0    0  501    0  0.00000000000E+00  0.00000000000E+00  0.61285370729E+03  0.61285370729E+03  0.00000000000E+00 0. -1.
         -1   -1    0    0    0  501 -0.00000000000E+00 -0.00000000000E+00 -0.25942868916E+02  0.25942868916E+02  0.00000000000E+00 0.  1.
         25    2    1    2    0    0  0.48088222206E+02 -0.44715149817E+02  0.31827720572E+03  0.34822316100E+03  0.12508824258E+03 0.  0.
          5    1    3    3  502    0  0.51365482085E+02 -0.69437577106E+02  0.11765814585E+03  0.14601678516E+03  0.41800000000E+01 0. -1.
         -5    1    3    3    0  502 -0.32772598789E+01  0.24722427289E+02  0.20061905987E+03  0.20220637583E+03  0.41800000000E+01 0. -1.
        -11    1    1    2    0    0 -0.16967012754E+02 -0.22758975028E+02  0.33145269904E+02  0.43640112089E+02  0.00000000000E+00 0. -1.
         11    1    1    2    0    0 -0.31121209452E+02  0.67474124845E+02  0.23548836274E+03  0.24693330312E+03  0.00000000000E+00 0.  1.
</event>
<event>
 7    1  0.2644565E-009  0.1167378E+03  0.7561462E-02  0.1248578E+00
          2   -1    0    0  501    0  0.00000000000E+00  0.00000000000E+00  0.33887070360E+03  0.33887070360E+03  0.00000000000E+00 0. -1.
         -2   -1    0    0    0  501 -0.00000000000E+00 -0.00000000000E+00 -0.46847417729E+02  0.46847417729E+02  0.00000000000E+00 0.  1.
         25    2    1    2    0    0 -0.48421812452E+02  0.94271221576E+01  0.10003452624E+03  0.16759503830E+03  0.12509055868E+03 0.  0.
          5    1    3    3  502    0 -0.82153108541E+02 -0.21067496880E+02  0.83328999560E+02  0.11897128744E+03  0.41800000000E+01 0. -1.
         -5    1    3    3    0  502  0.33731296089E+02  0.30494619038E+02  0.16705526678E+02  0.48623750860E+02  0.41800000000E+01 0. -1.
        -11    1    1    2    0    0 -0.30205563423E+01  0.34876273535E+02  0.77085208128E+02  0.84661724105E+02  0.00000000000E+00 0. -1.
         11    1    1    2    0    0  0.51442368794E+02 -0.44303395692E+02  0.11490355150E+03  0.13346135892E+03  0.00000000000E+00 0.  1.
</event>
<event>
 7    1  0.2644565E-009  0.8710032E+02  0.7561462E-02  0.1310030E+00
          2   -1    0    0  501    0  0.00000000000E+00  0.00000000000E+00  0.43424399164E+03  0.43424399164E+03  0.00000000000E+00 0. -1.
         -2   -1    0    0    0  501 -0.00000000000E+00 -0.00000000000E+00 -0.32086519963E+02  0.32086519963E+02  0.00000000000E+00 0.  1.
         25    2    1    2    0    0 -0.44871227136E+02  0.81420709199E+01  0.24236037111E+03  0.27652687149E+03  0.12509532696E+03 0.  0.
          5    1    3    3  502    0 -0.50297359757E+02  0.41714381530E+02  0.23150168745E+03  0.24058349427E+03  0.41800000000E+01 0. -1.
         -5    1    3    3    0  502  0.54261326203E+01 -0.33572310611E+02  0.10858683667E+02  0.35943377219E+02  0.41800000000E+01 0. -1.
        -11    1    1    2    0    0  0.94944550915E+01 -0.30945508486E+02  0.95148959790E+01  0.33738737653E+02  0.00000000000E+00 0.  1.
         11    1    1    2    0    0  0.35376772045E+02  0.22803437566E+02  0.15028220458E+03  0.15606490246E+03  0.00000000000E+00 0. -1.
</event>
<event>
 7    1  0.2644565E-009  0.1050015E+03  0.7561462E-02  0.1270117E+00
         -2   -1    0    0    0  501 -0.00000000000E+00  0.00000000000E+00  0.27085420175E+02  0.27085420175E+02  0.00000000000E+00 0.  1.
          2   -1    0    0  501    0  0.00000000000E+00 -0.00000000000E+00 -0.50627523503E+03  0.50627523503E+03  0.00000000000E+00 0. -1.
         25    2    1    2    0    0 -0.19941362695E+02 -0.39124445517E+02 -0.27753459948E+03  0.30757329557E+03  0.12508995984E+03 0.  0.
          5    1    3    3  502    0  0.37850154545E+02  0.75639804425E+01 -0.18399202825E+03  0.18804357702E+03  0.41800000000E+01 0. -1.
         -5    1    3    3    0  502 -0.57791517240E+02 -0.46688425960E+02 -0.93542571234E+02  0.11952971855E+03  0.41800000000E+01 0. -1.
        -11    1    1    2    0    0  0.30653964477E+02 -0.20051138048E+02 -0.45239296439E+02  0.58209171249E+02  0.00000000000E+00 0. -1.
         11    1    1    2    0    0 -0.10712601782E+02  0.59175583565E+02 -0.15641591894E+03  0.16757818839E+03  0.00000000000E+00 0.  1.
</event>
<event>
 7    1  0.2644565E-009  0.1556113E+03  0.7561462E-02  0.1193743E+00
         -2   -1    0    0    0  501 -0.00000000000E+00  0.00000000000E+00  0.10441113301E+03  0.10441113301E+03  0.00000000000E+00 0.  1.
          2   -1    0    0  501    0  0.00000000000E+00 -0.00000000000E+00 -0.26406782199E+03  0.26406782199E+03  0.00000000000E+00 0. -1.
         25    2    1    2    0    0  0.72166880787E+02  0.68871344387E+02 -0.11165992389E+03  0.19510697415E+03  0.12508985570E+03 0.  0.
          5    1    3    3  502    0 -0.32077714666E+02  0.36329863152E+02 -0.49402790072E+02  0.69332148399E+02  0.41800000000E+01 0. -1.
         -5    1    3    3    0  502  0.10424459545E+03  0.32541481235E+02 -0.62257133817E+02  0.12577482575E+03  0.41800000000E+01 0. -1.
        -11    1    1    2    0    0 -0.26569187128E+02 -0.96423324150E+02 -0.62774851658E+02  0.11808497426E+03  0.00000000000E+00 0. -1.
         11    1    1    2    0    0 -0.45597693659E+02  0.27551979764E+02  0.14778086565E+02  0.55287006597E+02  0.00000000000E+00 0.  1.
</event>
<event>
 6    1  0.2644565E-009  0.1314279E+03  0.7561462E-02  0.1225352E+00
          2   -1    0    0  501    0  0.00000000000E+00  0.00000000000E+00  0.67917432446E+03  0.67917432446E+03  0.00000000000E+00 0. -1.
         -2   -1    0    0    0  501 -0.00000000000E+00 -0.00000000000E+00 -0.53346062005E+02  0.53346062005E+02  0.00000000000E+00 0.  1.
          5    1    1    2  502    0  0.34734837253E+01  0.38960800065E+02  0.77425615184E+02  0.86845882559E+02  0.41800000000E+01 0. -1.
         -5    1    1    2    0  502 -0.94365219984E+02 -0.78517215029E+01  0.14859710457E+02  0.95941271974E+02  0.41800000000E+01 0. -1.
        -11    1    1    2    0    0  0.50358295024E+01 -0.41901234457E+02  0.24075850239E+03  0.24442939574E+03  0.00000000000E+00 0. -1.
         11    1    1    2    0    0  0.85855906756E+02  0.10792155895E+02  0.29278443442E+03  0.30530383619E+03  0.00000000000E+00 0.  1.
</event>
<event>
 7    1  0.2644565E-009  0.3594673E+03  0.7561462E-02  0.1058795E+00
         -2   -1    0    0    0  501 -0.00000000000E+00  0.00000000000E+00  0.10639576106E+03  0.10639576106E+03  0.00000000000E+00 0.  1.
          2   -1    0    0  501    0  0.00000000000E+00 -0.00000000000E+00 -0.12746285635E+04  0.12746285635E+04  0.00000000000E+00 0. -1.
         25    2    1    2    0    0 -0.30988230939E+03 -0.16564905652E+03 -0.55984021778E+03  0.67270782421E+03  0.12509233276E+03 0.  0.
          5    1    3    3  502    0 -0.87593064282E+01  0.11341938200E+02 -0.27769914260E+01  0.15183843144E+02  0.41800000000E+01 0. -1.
         -5    1    3    3    0  502 -0.30112300296E+03 -0.17699099472E+03 -0.55706322635E+03  0.65752398107E+03  0.41800000000E+01 0. -1.
        -11    1    1    2    0    0  0.14790108777E+03  0.10648955102E+03 -0.38632145782E+03  0.42715222698E+03  0.00000000000E+00 0. -1.
         11    1    1    2    0    0  0.16198122161E+03  0.59159505496E+02 -0.22207112687E+03  0.28116427340E+03  0.00000000000E+00 0.  1.
</event>
<event>
 6    1  0.2944273E-009  0.1232754E+03  0.7561462E-02  0.1237789E+00
          2   -1    0    0  501    0  0.00000000000E+00  0.00000000000E+00  0.38836953585E+03  0.38836953585E+03  0.00000000000E+00 0. -1.
         -2   -1    0    0    0  501 -0.00000000000E+00 -0.00000000000E+00 -0.43384515064E+02  0.43384515064E+02  0.00000000000E+00 0.  1.
          5    1    1    2  502    0 -0.69465073148E+02  0.68885609398E+02  0.15891843447E+03  0.18666323897E+03  0.41800000000E+01 0. -1.
         -5    1    1    2    0  502  0.83430764318E+01 -0.42775862990E+02  0.73800427447E+02  0.85810004488E+02  0.41800000000E+01 0. -1.
        -11    1    1    2    0    0 -0.15691419482E+02 -0.23166198636E+02  0.68365210710E+01  0.28803323158E+02  0.00000000000E+00 0.  1.
         11    1    1    2    0    0  0.76813416199E+02 -0.29435477720E+01  0.10542963780E+03  0.13047748430E+03  0.00000000000E+00 0. -1.
</event>
<event>
 7    1  0.2644565E-009  0.8237164E+02  0.7561462E-02  0.1322453E+00
         -1   -1    0    0    0  501 -0.00000000000E+00  0.00000000000E+00  0.13134675376E+03  0.13134675376E+03  0.00000000000E+00 0.  1.
          1   -1    0    0  501    0  0.00000000000E+00 -0.00000000000E+00 -0.13152773073E+03  0.13152773073E+03  0.00000000000E+00 0. -1.
         25    2    1    2    0    0  0.64681859192E+02  0.11939691812E+02  0.34023920263E+02  0.14537008045E+03  0.12509410054E+03 0.  0.
          5    1    3    3  502    0  0.93035022433E+01  0.18294105482E+02 -0.44383294911E+02  0.49077272913E+02  0.41800000000E+01 0.  1.
         -5    1    3    3    0  502  0.55378356949E+02 -0.63544136696E+01  0.78407215174E+02  0.96292807534E+02  0.41800000000E+01 0.  1.
        -11    1    1    2    0    0 -0.25109989209E+02  0.23785726897E+02 -0.50988323760E+02  0.61612348778E+02  0.00000000000E+00 0. -1.
         11    1    1    2    0    0 -0.39571869984E+02 -0.35725418710E+02  0.16783426526E+02  0.55892055267E+02  0.00000000000E+00 0.  1.
</event>
<event>
 7    1  0.2644565E-009  0.3050822E+03  0.7561462E-02  0.1082727E+00
          2   -1    0    0  501    0  0.00000000000E+00  0.00000000000E+00  0.50134161421E+03  0.50134161421E+03  0.00000000000E+00 0. -1.
         -2   -1    0    0    0  501 -0.00000000000E+00 -0.00000000000E+00 -0.23178150092E+03  0.23178150092E+03  0.00000000000E+00 0.  1.
         25    2    1    2    0    0  0.27104645118E+03 -0.12793355728E+03  0.26622497517E+03  0.41994831466E+03  0.12509067032E+03 0.  0.
          5    1    3    3  502    0  0.48754644783E+02 -0.55916746028E+02  0.13128618193E+02  0.75455489462E+02  0.41800000000E+01 0.  1.
         -5    1    3    3    0  502  0.22229180640E+03 -0.72016811256E+02  0.25309635698E+03  0.34449282520E+03  0.41800000000E+01 0.  1.
        -11    1    1    2    0    0 -0.19358351267E+03  0.71705374054E+02  0.40719042221E+02  0.21041453715E+03  0.00000000000E+00 0. -1.
         11    1    1    2    0    0 -0.77462938517E+02  0.56228183231E+02 -0.37383904099E+02  0.10276026333E+03  0.00000000000E+00 0.  1.
</event>
<event>
 7    1  0.2644565E-009  0.1764699E+03  0.7561462E-02  0.1171264E+00
         -1   -1    0    0    0  501 -0.00000000000E+00  0.00000000000E+00  0.75710937694E+02  0.75710937694E+02  0.00000000000E+00 0.  1.
          1   -1    0    0  501    0  0.00000000000E+00 -0.00000000000E+00 -0.53609189821E+03  0.53609189821E+03  0.00000000000E+00 0. -1.
         25    2    1    2    0    0 -0.49985184604E+02 -0.16200760751E+03 -0.23370473875E+03  0.31465883107E+03  0.12508913416E+03 0.  0.
          5    1    3    3  502    0 -0.26174209420E+02 -0.14513052272E+02  0.72835813824E+01  0.31084415433E+02  0.41800000000E+01 0. -1.
         -5    1    3    3    0  502 -0.23810975184E+02 -0.14749455523E+03 -0.24098832014E+03  0.28357441564E+03  0.41800000000E+01 0. -1.
        -11    1    1    2    0    0  0.53959806810E+02  0.12648881823E+03 -0.22194027584E+03  0.26109111040E+03  0.00000000000E+00 0. -1.
         11    1    1    2    0    0 -0.39746222064E+01  0.35518789274E+02 -0.47359459210E+01  0.36052894432E+02  0.00000000000E+00 0.  1.
</event>
<event>
 7    1  0.2644565E-009  0.1445846E+03  0.7561462E-02  0.1207290E+00
          4   -1    0    0  501    0  0.00000000000E+00  0.00000000000E+00  0.19867800371E+03  0.19867800371E+03  0.00000000000E+00 0. -1.
         -4   -1    0    0    0  501 -0.00000000000E+00 -0.00000000000E+00 -0.11755198751E+03  0.11755198751E+03  0.00000000000E+00 0.  1.
         25    2    1    2    0    0  0.92437322007E+02 -0.33881060585E+02 -0.19147443675E+01  0.15919560429E+03  0.12508792672E+03 0.  0.
          5    1    3    3  502    0  0.77051148023E+02 -0.77577277811E+02 -0.16029113691E+02  0.11058715264E+03  0.41800000000E+01 0.  1.
         -5    1    3    3    0  502  0.15386173984E+02  0.43696217225E+02  0.14114369323E+02  0.48608451642E+02  0.41800000000E+01 0.  1.
        -11    1    1    2    0    0 -0.60117532720E+02 -0.25757157912E+02  0.38700899184E+02  0.75995450665E+02  0.00000000000E+00 0.  1.
         11    1    1    2    0    0 -0.32319789286E+02  0.59638218498E+02  0.44339861376E+02  0.81038936271E+02  0.00000000000E+00 0. -1.
</event>
<event>
 7    1  0.2644565E-009  0.1196586E+03  0.7561462E-02  0.1243661E+00
          2   -1    0    0  501    0  0.00000000000E+00  0.00000000000E+00  0.11389283065E+04  0.11389283065E+04  0.00000000000E+00 0.  1.
         -2   -1    0    0    0  501 -0.00000000000E+00 -0.00000000000E+00 -0.24175679599E+02  0.24175679599E+02  0.00000000000E+00 0. -1.
         25    2    1    2    0    0 -0.15813221792E+02  0.66513627804E+02  0.95702393218E+03  0.96758129060E+03  0.12507848130E+03 0.  0.
          5    1    3    3  502    0  0.43169250300E+02  0.45969746756E+02  0.70780977311E+03  0.71062574475E+03  0.41800000000E+01 0.  1.
         -5    1    3    3    0  502 -0.58982472091E+02  0.20543881048E+02  0.24921415907E+03  0.25695554585E+03  0.41800000000E+01 0.  1.
        -11    1    1    2    0    0  0.30719379676E+01  0.22949195197E+02  0.48620627909E+02  0.53852277773E+02  0.00000000000E+00 0.  1.
         11    1    1    2    0    0  0.12741283824E+02 -0.89462823001E+02  0.10910806677E+03  0.14167041768E+03  0.00000000000E+00 0. -1.
</event>
<event>
 7    1  0.2644565E-009  0.3098838E+03  0.7561462E-02  0.1080402E+00
          2   -1    0    0  501    0  0.00000000000E+00  0.00000000000E+00  0.49776843528E+03  0.49776843528E+03  0.00000000000E+00 0. -1.
         -2   -1    0    0    0  501 -0.00000000000E+00 -0.00000000000E+00 -0.23174132174E+03  0.23174132174E+03  0.00000000000E+00 0.  1.
         25    2    1    2    0    0 -0.28292837864E+03 -0.11027584909E+03  0.21836062139E+02  0.32914027130E+03  0.12508906527E+03 0.  0.
          5    1    3    3  502    0 -0.17741103948E+03 -0.84648171233E+02  0.72093522028E+02  0.20941570653E+03  0.41800000000E+01 0.  1.
         -5    1    3    3    0  502 -0.10551733916E+03 -0.25627677854E+02 -0.50257459889E+02  0.11972456477E+03  0.41800000000E+01 0.  1.
        -11    1    1    2    0    0  0.16326515592E+03  0.19782347613E+02  0.10112583740E+03  0.19306291048E+03  0.00000000000E+00 0.  1.
         11    1    1    2    0    0  0.11966322272E+03  0.90493501474E+02  0.14306521399E+03  0.20730657524E+03  0.00000000000E+00 0. -1.
</event>
<event>
 7    1  0.2644565E-009  0.1293491E+03  0.7561462E-02  0.1228425E+00
          1   -1    0    0  501    0  0.00000000000E+00  0.00000000000E+00  0.51956029281E+03  0.51956029281E+03  0.00000000000E+00 0. -1.
         -1   -1    0    0    0  501 -0.00000000000E+00 -0.00000000000E+00 -0.37054734264E+02  0.37054734264E+02  0.00000000000E+00 0.  1.
         25    2    1    2    0    0 -0.23349307419E+02 -0.79645959082E+02  0.19537284040E+03  0.24638703480E+03  0.12508938883E+03 0.  0.
          5    1    3    3  502    0 -0.61604224949E+02 -0.54603534273E+01  0.54245562242E+02  0.82370804380E+02  0.41800000000E+01 0. -1.
         -5    1    3    3    0  502  0.38254917531E+02 -0.74185605655E+02  0.14112727816E+03  0.16401623042E+03  0.41800000000E+01 0. -1.
        -11    1    1    2    0    0  0.50705324125E+02  0.38225720448E+02  0.20126996147E+03  0.21104936149E+03  0.00000000000E+00 0. -1.
         11    1    1    2    0    0 -0.27356016707E+02  0.41420238635E+02  0.85862756685E+02  0.99178630784E+02  0.00000000000E+00 0.  1.
</event>
<event>
 7    1  0.2644565E-009  0.9011365E+02  0.7561462E-02  0.1302577E+00
         -2   -1    0    0    0  501 -0.00000000000E+00  0.00000000000E+00  0.10379250154E+03  0.10379250154E+03  0.00000000000E+00 0. -1.
          2   -1    0    0  501    0  0.00000000000E+00 -0.00000000000E+00 -0.12377279403E+03  0.12377279403E+03  0.00000000000E+00 0.  1.
         25    2    1    2    0    0 -0.82124204467E+00  0.10022623789E+02  0.22142839288E+02  0.12743445176E+03  0.12509239281E+03 0.  0.
          5    1    3    3  502    0  0.41092319487E+02 -0.41237437587E+02  0.17468029095E+02  0.60923800112E+02  0.41800000000E+01 0.  1.
         -5    1    3    3    0  502 -0.41913561532E+02  0.51260061376E+02  0.46748101933E+01  0.66510651650E+02  0.41800000000E+01 0.  1.
        -11    1    1    2    0    0  0.26757478117E+02 -0.12359286370E+02  0.18051838286E+02  0.34562746712E+02  0.00000000000E+00 0. -1.
         11    1    1    2    0    0 -0.25936236072E+02  0.23366625814E+01 -0.60174970065E+02  0.65568097089E+02  0.00000000000E+00 0.  1.
</event>
<event>
 7    1  0.3048460E-009  0.1532759E+03  0.7561462E-02  0.1196504E+00
         -2   -1    0    0    0  501 -0.00000000000E+00  0.00000000000E+00  0.31709662537E+02  0.31709662537E+02  0.00000000000E+00 0.  1.
          2   -1    0    0  501    0  0.00000000000E+00 -0.00000000000E+00 -0.86462958689E+03  0.86462958689E+03  0.00000000000E+00 0. -1.
         25    2    1    2    0    0 -0.12447260272E+03 -0.78381855099E+01 -0.42909608271E+03  0.46403238249E+03  0.12509091824E+03 0.  0.
          5    1    3    3  502    0  0.14615937544E+02  0.27727485228E+02 -0.10210270162E+03  0.10688719823E+03  0.41800000000E+01 0.  1.
         -5    1    3    3    0  502 -0.13908854026E+03 -0.35565670738E+02 -0.32699338108E+03  0.35714518426E+03  0.41800000000E+01 0.  1.
        -11    1    1    2    0    0  0.38409922681E+02 -0.16595902354E+02 -0.40871952345E+02  0.58491560278E+02  0.00000000000E+00 0.  1.
         11    1    1    2    0    0  0.86062680035E+02  0.24434087863E+02 -0.36295188930E+03  0.37381530666E+03  0.00000000000E+00 0. -1.
</event>
<event>
 7    1  0.2644565E-009  0.9911259E+02  0.7561462E-02  0.1282173E+00
          2   -1    0    0  501    0  0.00000000000E+00  0.00000000000E+00  0.88378132689E+03  0.88378132689E+03  0.00000000000E+00 0. -1.
         -2   -1    0    0    0  501 -0.00000000000E+00 -0.00000000000E+00 -0.14862883693E+02  0.14862883693E+02  0.00000000000E+00 0.  1.
         25    2    1    2    0    0  0.24655421638E+02 -0.14241925845E+01  0.61446916359E+03  0.62756206659E+03  0.12510745892E+03 0.  0.
          5    1    3    3  502    0 -0.44428060960E+02 -0.60231799409E+01  0.39077569806E+03  0.39336147484E+03  0.41800000000E+01 0.  1.
         -5    1    3    3    0  502  0.69083482599E+02  0.45989873565E+01  0.22369346554E+03  0.23420059175E+03  0.41800000000E+01 0.  1.
        -11    1    1    2    0    0 -0.30126190740E+01  0.39726055062E+02  0.18209921900E+03  0.18640644003E+03  0.00000000000E+00 0.  1.
         11    1    1    2    0    0 -0.21642802564E+02 -0.38301862478E+02  0.72350060606E+02  0.84675703964E+02  0.00000000000E+00 0. -1.
</event>
<event>
 7    1  0.2644565E-009  0.1394272E+03  0.7561462E-02  0.1214102E+00
         -2   -1    0    0    0  501 -0.00000000000E+00  0.00000000000E+00  0.42828438532E+03  0.42828438532E+03  0.00000000000E+00 0.  1.
          2   -1    0    0  501    0  0.00000000000E+00 -0.00000000000E+00 -0.75566341744E+02  0.75566341744E+02  0.00000000000E+00 0. -1.
         25    2    1    2    0    0 -0.10580017848E+03  0.11010867262E+02  0.29379363749E+03  0.33656659540E+03  0.12508978673E+03 0.  0.
          5    1    3    3  502    0 -0.55174675099E+02  0.68119435268E+02  0.15521155642E+03  0.17830480050E+03  0.41800000000E+01 0. -1.
         -5    1    3    3    0  502 -0.50625503381E+02 -0.57108568006E+02  0.13858208107E+03  0.15826179490E+03  0.41800000000E+01 0. -1.
        -11    1    1    2    0    0  0.83670028036E+02 -0.26366359210E+02  0.90324291988E+02  0.12591400324E+03  0.00000000000E+00 0.  1.
         11    1    1    2    0    0  0.22130150444E+02  0.15355491948E+02 -0.31399885898E+02  0.41370128427E+02  0.00000000000E+00 0. -1.
</event>
<event>
 7    1  0.2644565E-009  0.1657473E+03  0.7561462E-02  0.1182357E+00
          2   -1    0    0  501    0  0.00000000000E+00  0.00000000000E+00  0.54351661152E+02  0.54351661152E+02  0.00000000000E+00 0. -1.
         -2   -1    0    0    0  501 -0.00000000000E+00 -0.00000000000E+00 -0.68869961978E+03  0.68869961978E+03  0.00000000000E+00 0.  1.
         25    2    1    2    0    0 -0.11621486787E+03 -0.10291314127E+03 -0.26034221682E+03  0.32790653553E+03  0.12509043140E+03 0.  0.
          5    1    3    3  502    0 -0.10501909730E+01 -0.26192788364E+02  0.64638493975E+01  0.27320666398E+02  0.41800000000E+01 0. -1.
         -5    1    3    3    0  502 -0.11516467689E+03 -0.76720352908E+02 -0.26680606621E+03  0.30058586913E+03  0.41800000000E+01 0. -1.
        -11    1    1    2    0    0  0.61326590599E+02  0.15442456597E+02 -0.22595013484E+03  0.23463350915E+03  0.00000000000E+00 0. -1.
         11    1    1    2    0    0  0.54888277266E+02  0.87470684675E+02 -0.14805560697E+03  0.18051123625E+03  0.00000000000E+00 0.  1.
</event>
<event>
 7    1  0.3191113E-009  0.5190658E+02  0.7561462E-02  0.1435321E+00
          3   -1    0    0  501    0  0.00000000000E+00  0.00000000000E+00  0.81615262712E+02  0.81615262712E+02  0.00000000000E+00 0. -1.
         -3   -1    0    0    0  501 -0.00000000000E+00 -0.00000000000E+00 -0.16631656361E+03  0.16631656361E+03  0.00000000000E+00 0.  1.
         25    2    1    2    0    0  0.20140480118E+02 -0.19730382440E+02 -0.81186888355E+02  0.15176945073E+03  0.12509088058E+03 0.  0.
          5    1    3    3  502    0  0.26358816806E+02 -0.30917007538E+02  0.22893848247E+02  0.46821461597E+02  0.41800000000E+01 0.  1.
         -5    1    3    3    0  502 -0.62183366874E+01  0.11186625098E+02 -0.10408073660E+03  0.10494798914E+03  0.41800000000E+01 0.  1.
        -11    1    1    2    0    0 -0.28121779863E+02 -0.10885299217E+00  0.39287846263E+02  0.48315434548E+02  0.00000000000E+00 0. -1.
         11    1    1    2    0    0  0.79812997444E+01  0.19839235432E+02 -0.42802258804E+02  0.47846941039E+02  0.00000000000E+00 0.  1.
</event>
<event>
 7    1  0.2644565E-009  0.1526243E+03  0.7561462E-02  0.1197285E+00
          1   -1    0    0  501    0  0.00000000000E+00  0.00000000000E+00  0.29553316888E+03  0.29553316888E+03  0.00000000000E+00 0. -1.
         -1   -1    0    0    0  501 -0.00000000000E+00 -0.00000000000E+00 -0.94097749092E+02  0.94097749092E+02  0.00000000000E+00 0.  1.
         25    2    1    2    0    0  0.11064797082E+03 -0.36409193599E+02  0.48341504853E+02  0.17763303043E+03  0.12509192453E+03 0.  0.
          5    1    3    3  502    0  0.30532359799E+02 -0.75176622164E+02  0.15759910584E+02  0.82762290305E+02  0.41800000000E+01 0.  1.
         -5    1    3    3    0  502  0.80115611021E+02  0.38767428565E+02  0.32581594269E+02  0.94870740126E+02  0.41800000000E+01 0.  1.
        -11    1    1    2    0    0 -0.46298928428E+02  0.51038072144E+02  0.36387778782E+02  0.77926542503E+02  0.00000000000E+00 0. -1.
         11    1    1    2    0    0 -0.64349042392E+02 -0.14628878545E+02  0.11670613615E+03  0.13407134504E+03  0.00000000000E+00 0.  1.
</event>
<event>
 7    1  0.2644565E-009  0.1020917E+03  0.7561462E-02  0.1275958E+00
          2   -1    0    0  501    0  0.00000000000E+00  0.00000000000E+00  0.44327576754E+03  0.44327576754E+03  0.00000000000E+00 0. -1.
         -2   -1    0    0    0  501 -0.00000000000E+00 -0.00000000000E+00 -0.32281025336E+02  0.32281025336E+02  0.00000000000E+00 0.  1.
         25    2    1    2    0    0  0.34421138079E+02 -0.41442279261E+02  0.24367122089E+03  0.27915138845E+03  0.12509019358E+03 0.  0.
          5    1    3    3  502    0  0.30680582085E+02  0.31216450470E+02  0.29568620245E+02  0.52986230289E+02  0.41800000000E+01 0.  1.
         -5    1    3    3    0  502  0.37405559945E+01 -0.72658729732E+02  0.21410260064E+03  0.22616515816E+03  0.41800000000E+01 0.  1.
        -11    1    1    2    0    0 -0.40527573096E+02 -0.46964932230E+01  0.13147145205E+03  0.13765639809E+03  0.00000000000E+00 0. -1.
         11    1    1    2    0    0  0.61064350172E+01  0.46138772484E+02  0.35852069265E+02  0.58749006337E+02  0.00000000000E+00 0.  1.
</event>
<event>
 7    1  0.2644565E-009  0.1697153E+03  0.7561462E-02  0.1178145E+00
          2   -1    0    0  501    0  0.00000000000E+00  0.00000000000E+00  0.13198212520E+04  0.13198212520E+04  0.00000000000E+00 0.  1.
         -2   -1    0    0    0  501 -0.00000000000E+00 -0.00000000000E+00 -0.24299764807E+02  0.24299764807E+02  0.00000000000E+00 0. -1.
         25    2    1    2    0    0  0.33939800879E+02 -0.12571347794E+03  0.89011743670E+03  0.90824673516E+03  0.12508913704E+03 0.  0.
          5    1    3    3  502    0 -0.46550783557E+02 -0.37305754727E+02  0.34634000294E+03  0.35146488420E+03  0.41800000000E+01 0. -1.
         -5    1    3    3    0  502  0.80490584435E+02 -0.88407723214E+02  0.54377743375E+03  0.55678185097E+03  0.41800000000E+01 0. -1.
        -11    1    1    2    0    0  0.11877179526E+02  0.11134827951E+03  0.27622589051E+03  0.29806081482E+03  0.00000000000E+00 0.  1.
         11    1    1    2    0    0 -0.45816980405E+02  0.14365198431E+02  0.12917815997E+03  0.13781346680E+03  0.00000000000E+00 0. -1.
</event>
<event>
 7    1  0.2644565E-009  0.1340336E+03  0.7561462E-02  0.1221590E+00
         -1   -1    0    0    0  501 -0.00000000000E+00  0.00000000000E+00  0.30174242936E+02  0.30174242936E+02  0.00000000000E+00 0.  1.
          1   -1    0    0  501    0  0.00000000000E+00 -0.00000000000E+00 -0.71119133582E+03  0.71119133582E+03  0.00000000000E+00 0. -1.
         25    2    1    2    0    0 -0.47453919133E+02 -0.85698342223E+02 -0.39716191708E+03  0.42776305078E+03  0.12509020318E+03 0.  0.
          5    1    3    3  502    0 -0.71102822297E+02 -0.34732931880E+02 -0.33334678696E+03  0.34263616370E+03  0.41800000000E+01 0. -1.
         -5    1    3    3    0  502  0.23648903164E+02 -0.50965410343E+02 -0.63815130118E+02  0.85126887082E+02  0.41800000000E+01 0. -1.
        -11    1    1    2    0    0  0.73716120951E+02  0.71195155691E+02 -0.20394479973E+03  0.22824613473E+03  0.00000000000E+00 0.  1.
         11    1    1    2    0    0 -0.26262201819E+02  0.14503186532E+02 -0.79910376075E+02  0.85356393248E+02  0.00000000000E+00 0. -1.
</event>
<event>
 7    1  0.2644565E-009  0.1138502E+03  0.7561462E-02  0.1253602E+00
         -3   -1    0    0    0  501 -0.00000000000E+00  0.00000000000E+00  0.82257951094E+02  0.82257951094E+02  0.00000000000E+00 0.  1.
          3   -1    0    0  501    0  0.00000000000E+00 -0.00000000000E+00 -0.20972388676E+03  0.20972388676E+03  0.00000000000E+00 0. -1.
         25    2    1    2    0    0  0.56499756413E+02 -0.30752507571E+01 -0.12495516118E+03  0.18564050198E+03  0.12508766537E+03 0.  0.
          5    1    3    3  502    0  0.70636071329E+01  0.49911324657E+02 -0.93964775293E+02  0.10671403971E+03  0.41800000000E+01 0. -1.
         -5    1    3    3    0  502  0.49436149280E+02 -0.52986575414E+02 -0.30990385890E+02  0.78926462276E+02  0.41800000000E+01 0. -1.
        -11    1    1    2    0    0 -0.50303462306E+02  0.41744409944E+02 -0.10951783434E+02  0.66279526567E+02  0.00000000000E+00 0.  1.
         11    1    1    2    0    0 -0.61962941071E+01 -0.38669159187E+02  0.84410089483E+01  0.40061809307E+02  0.00000000000E+00 0. -1.
</event>
<event>
 7    1  0.2644565E-009  0.2384919E+03  0.7561462E-02  0.1120802E+00
          2   -1    0    0  501    0  0.00000000000E+00  0.00000000000E+00  0.92321509965E+03  0.92321509965E+03  0.00000000000E+00 0. -1.
         -2   -1    0    0    0  501 -0.00000000000E+00 -0.00000000000E+00 -0.62017588023E+02  0.62017588023E+02  0.00000000000E+00 0.  1.
         25    2    1    2    0    0  0.45148978007E+02 -0.20753504516E+03  0.41741381750E+03  0.48475839240E+03  0.12508868366E+03 0.  0.
          5    1    3    3  502    0  0.23257487445E+02 -0.21919489487E+03  0.36108293821E+03  0.42306698444E+03  0.41800000000E+01 0.  1.
         -5    1    3    3    0  502  0.21891490562E+02  0.11659849710E+02  0.56330879293E+02  0.61691407960E+02  0.41800000000E+01 0.  1.
        -11    1    1    2    0    0 -0.28119474714E+01  0.18179841552E+03  0.34827159887E+03  0.39287616053E+03  0.00000000000E+00 0.  1.
         11    1    1    2    0    0 -0.42337030535E+02  0.25736629639E+02  0.95512095256E+02  0.10759813474E+03  0.00000000000E+00 0. -1.
</event>
<event>
 7    1  0.2644565E-009  0.1111199E+03  0.7561462E-02  0.1258510E+00
          2   -1    0    0  501    0  0.00000000000E+00  0.00000000000E+00  0.13147258222E+03  0.13147258222E+03  0.00000000000E+00 0. -1.
         -2   -1    0    0    0  501 -0.00000000000E+00 -0.00000000000E+00 -0.11344501856E+03  0.11344501856E+03  0.00000000000E+00 0.  1.
         25    2    1    2    0    0  0.34153734271E+02  0.30297372157E+02 -0.13144731700E+02  0.13381988992E+03  0.12510224076E+03 0.  0.
          5    1    3    3  502    0  0.35368670717E+02  0.70981825749E+02 -0.35730708490E+02  0.87083399016E+02  0.41800000000E+01 0.  1.
         -5    1    3    3    0  502 -0.12149364464E+01 -0.40684453592E+02  0.22585976790E+02  0.46736490906E+02  0.41800000000E+01 0.  1.
        -11    1    1    2    0    0 -0.69631673716E+01 -0.60712391776E+02  0.34480325446E+02  0.70166751798E+02  0.00000000000E+00 0. -1.
         11    1    1    2    0    0 -0.27190566899E+02  0.30415019619E+02 -0.33080300776E+01  0.40930959062E+02  0.00000000000E+00 0.  1.
</event>
<event>
 7    1  0.3306846E-009  0.2198604E+03  0.7561462E-02  0.1133987E+00
         -2   -1    0    0    0  501 -0.00000000000E+00  0.00000000000E+00  0.37366545468E+03  0.37366545468E+03  0.00000000000E+00 0.  1.
          2   -1    0    0  501    0  0.00000000000E+00 -0.00000000000E+00 -0.13514720312E+03  0.13514720312E+03  0.00000000000E+00 0. -1.
         25    2    1    2    0    0 -0.14109826930E+03 -0.13321379306E+03  0.88510452377E+02  0.24725663730E+03  0.12508840174E+03 0.  0.
          5    1    3    3  502    0 -0.15909483193E+03 -0.88113908046E+02  0.74168467861E+02  0.19645269243E+03  0.41800000000E+01 0.  1.
         -5    1    3    3    0  502  0.17996562634E+02 -0.45099885011E+02  0.14341984516E+02  0.50803944871E+02  0.41800000000E+01 0.  1.
        -11    1    1    2    0    0  0.66127915850E+02  0.12999590398E+02  0.76479969241E+02  0.10193662885E+03  0.00000000000E+00 0.  1.
         11    1    1    2    0    0  0.74970353449E+02  0.12021420266E+03  0.73527829939E+02  0.15961939166E+03  0.00000000000E+00 0. -1.
</event>
<event>
 7    1  0.2644565E-009  0.2652708E+03  0.7561462E-02  0.1104017E+00
          1   -1    0    0  501    0  0.00000000000E+00  0.00000000000E+00  0.14363167045E+04  0.14363167045E+04  0.00000000000E+00 0. -1.
         -1   -1    0    0    0  501 -0.00000000000E+00 -0.00000000000E+00 -0.53034822015E+02  0.53034822015E+02  0.00000000000E+00 0.  1.
         25    2    1    2    0    0  0.17229688508E+03 -0.18098892652E+03  0.59591136598E+03  0.65818008736E+03  0.12508982038E+03 0.  0.
          5    1    3    3  502    0  0.12304248265E+03 -0.19236765073E+03  0.47477918715E+03  0.52685625604E+03  0.41800000000E+01 0. -1.
         -5    1    3    3    0  502  0.49254402433E+02  0.11378724204E+02  0.12113217884E+03  0.13132383132E+03  0.41800000000E+01 0. -1.
        -11    1    1    2    0    0 -0.14601310581E+03  0.13722045279E+03  0.71540412284E+03  0.74293494918E+03  0.00000000000E+00 0. -1.
         11    1    1    2    0    0 -0.26283779266E+02  0.43768473732E+02  0.71966393643E+02  0.88236489953E+02  0.00000000000E+00 0.  1.
</event>
<event>
 7    1  0.2644565E-009  0.1085295E+03  0.7561462E-02  0.1263318E+00
          2   -1    0    0  501    0  0.00000000000E+00  0.00000000000E+00  0.81916989403E+03  0.81916989403E+03  0.00000000000E+00 0. -1.
         -2   -1    0    0    0  501 -0.00000000000E+00 -0.00000000000E+00 -0.21845340538E+02  0.21845340538E+02  0.00000000000E+00 0.  1.
         25    2    1    2    0    0  0.13591105728E+02  0.30333173706E+01  0.68248052846E+03  0.69398937567E+03  0.12509061771E+03 0.  0.
          5    1    3    3  502    0 -0.40366512890E+02 -0.39490025240E+02  0.28036183687E+03  0.28602298759E+03  0.41800000000E+01 0.  1.
         -5    1    3    3    0  502  0.53957618618E+02  0.42523342611E+02  0.40211869159E+03  0.40796638808E+03  0.41800000000E+01 0.  1.
        -11    1    1    2    0    0  0.34515471544E+02 -0.20830431682E+02  0.45826650939E+02  0.61035289761E+02  0.00000000000E+00 0.  1.
         11    1    1    2    0    0 -0.48106577272E+02  0.17797114311E+02  0.69017374092E+02  0.85990569141E+02  0.00000000000E+00 0. -1.
</event>
<event>
 7    1  0.2644565E-009  0.1338947E+03  0.7561462E-02  0.1221789E+00
          1   -1    0    0  501    0  0.00000000000E+00  0.00000000000E+00  0.50927804013E+03  0.50927804013E+03  0.00000000000E+00 0. -1.
         -1   -1    0    0    0  501 -0.00000000000E+00 -0.00000000000E+00 -0.53771419688E+02  0.53771419688E+02  0.00000000000E+00 0.  1.
         25    2    1    2    0    0 -0.12272068722E+03 -0.96385821591E+01  0.27957884000E+03  0.33009829803E+03  0.12508912522E+03 0.  0.
          5    1    3    3  502    0 -0.11284296792E+03  0.17522934031E+02  0.11204348094E+03  0.16003687902E+03  0.41800000000E+01 0.  1.
         -5    1    3    3    0  502 -0.98777193023E+01 -0.27161516190E+02  0.16753535905E+03  0.17006141900E+03  0.41800000000E+01 0.  1.
        -11    1    1    2    0    0  0.44585161564E+02  0.11902524281E+02  0.68157431335E+01  0.46647197883E+02  0.00000000000E+00 0.  1.
         11    1    1    2    0    0  0.78135525659E+02 -0.22639421216E+01  0.16911203731E+03  0.18630396391E+03  0.00000000000E+00 0. -1.
</event>
<event>
 7    1  0.2644565E-009  0.8140605E+02  0.7561462E-02  0.1325108E+00
         -1   -1    0    0    0  501 -0.00000000000E+00  0.00000000000E+00  0.10311907024E+03  0.10311907024E+03  0.00000000000E+00 0.  1.
          1   -1    0    0  501    0  0.00000000000E+00 -0.00000000000E+00 -0.14884142852E+03  0.14884142852E+03  0.00000000000E+00 0. -1.
         25    2    1    2    0    0 -0.51597859282E+02  0.99614952640E+01 -0.56037178416E+02  0.14679589150E+03  0.12508915991E+03 0.  0.
          5    1    3    3  502    0 -0.21254992077E+02 -0.98690205522E+01 -0.92319431358E+02  0.95338985002E+02  0.41800000000E+01 0. -1.
         -5    1    3    3    0  502 -0.30342867205E+02  0.19830515816E+02  0.36282252942E+02  0.51456906498E+02  0.41800000000E+01 0. -1.
        -11    1    1    2    0    0  0.59267155035E+02  0.26743509077E+02  0.16688501944E+02  0.67129107254E+02  0.00000000000E+00 0.  1.
         11    1    1    2    0    0 -0.76692957528E+01 -0.36705004341E+02 -0.63736818137E+01  0.38035500008E+02  0.00000000000E+00 0. -1.
</event>
<event>
 7    1  0.2644565E-009  0.1622091E+03  0.7561462E-02  0.1186225E+00
         -2   -1    0    0    0  501 -0.00000000000E+00  0.00000000000E+00  0.16983508993E+02  0.16983508993E+02  0.00000000000E+00 0.  1.
          2   -1    0    0  501    0  0.00000000000E+00 -0.00000000000E+00 -0.19482847235E+04  0.19482847235E+04  0.00000000000E+00 0. -1.
         25    2    1    2    0    0 -0.26739642454E+02  0.13940644547E+03 -0.13782114364E+04  0.13911372900E+04  0.12508809198E+03 0.  0.
          5    1    3    3  502    0 -0.53058191435E+02  0.33292990838E+02 -0.25516657186E+03  0.26277565853E+03  0.41800000000E+01 0. -1.
         -5    1    3    3    0  502  0.26318548981E+02  0.10611345463E+03 -0.11230448646E+04  0.11283616315E+04  0.41800000000E+01 0. -1.
        -11    1    1    2    0    0  0.43948917632E+02 -0.99967225243E+02 -0.43323713025E+03  0.44678782941E+03  0.00000000000E+00 0. -1.
         11    1    1    2    0    0 -0.17209275178E+02 -0.39439220227E+02 -0.11985264785E+03  0.12734311305E+03  0.00000000000E+00 0.  1.
</event>
<event>
 7    1  0.2644565E-009  0.1080434E+03  0.7561462E-02  0.1264237E+00
          2   -1    0    0  501    0  0.00000000000E+00  0.00000000000E+00  0.20993637855E+03  0.20993637855E+03  0.00000000000E+00 0. -1.
         -2   -1    0    0    0  501 -0.00000000000E+00 -0.00000000000E+00 -0.88950012952E+02  0.88950012952E+02  0.00000000000E+00 0.  1.
         25    2    1    2    0    0 -0.79739419239E+00  0.48172892818E+02  0.14079784762E+03  0.19440372926E+03  0.12509001804E+03 0.  0.
          5    1    3    3  502    0 -0.54017563691E+02  0.54680525203E+02  0.10336953486E+03  0.12888207851E+03  0.41800000000E+01 0.  1.
         -5    1    3    3    0  502  0.53220169498E+02 -0.65076323849E+01  0.37428312768E+02  0.65521650753E+02  0.41800000000E+01 0.  1.
        -11    1    1    2    0    0  0.10480477927E+02  0.16712877509E+02  0.19716045106E+02  0.27890556230E+02  0.00000000000E+00 0. -1.
         11    1    1    2    0    0 -0.96830837348E+01 -0.64885770327E+02 -0.39527527136E+02  0.76592106010E+02  0.00000000000E+00 0.  1.
</event>
<event>
 7    1  0.2644565E-009  0.9254781E+02  0.7561462E-02  0.1296797E+00
          1   -1    0    0  501    0  0.00000000000E+00  0.00000000000E+00  0.31291546605E+02  0.31291546605E+02  0.00000000000E+00 0. -1.
         -1   -1    0    0    0  501 -0.00000000000E+00 -0.00000000000E+00 -0.55432312037E+03  0.55432312037E+03  0.00000000000E+00 0.  1.
         25    2    1    2    0    0  0.64887992171E+02 -0.22799849202E+02 -0.26216594746E+03  0.29851334151E+03  0.12509574893E+03 0.  0.
          5    1    3    3  502    0  0.55030786768E+02 -0.61154923827E+01 -0.25645100408E+02  0.61163145066E+02  0.41800000000E+01 0.  1.
         -5    1    3    3    0  502  0.98572054024E+01 -0.16684356820E+02 -0.23652084705E+03  0.23735019644E+03  0.41800000000E+01 0.  1.
        -11    1    1    2    0    0 -0.27510663909E+02 -0.32761655964E+02 -0.16298761586E+03  0.16850853288E+03  0.00000000000E+00 0. -1.
         11    1    1    2    0    0 -0.37377328262E+02  0.55561505166E+02 -0.97878010448E+02  0.11859279259E+03  0.00000000000E+00 0.  1.
</event>
<event>
 7    1  0.2644565E-009  0.1036909E+03  0.7561462E-02  0.1272721E+00
          2   -1    0    0  501    0  0.00000000000E+00  0.00000000000E+00  0.14091899527E+03  0.14091899527E+03  0.00000000000E+00 0.  1.
         -2   -1    0    0    0  501 -0.00000000000E+00 -0.00000000000E+00 -0.14408471267E+03  0.14408471267E+03  0.00000000000E+00 0. -1.
         25    2    1    2    0    0  0.37840337019E+02 -0.55351729224E+02 -0.70884042328E+02  0.15863935841E+03  0.12508474546E+03 0.  0.
          5    1    3    3  502    0 -0.25468255776E+02 -0.44445522841E+02  0.12889349070E+02  0.52987208572E+02  0.41800000000E+01 0.  1.
         -5    1    3    3    0  502  0.63308592794E+02 -0.10906206383E+02 -0.83773391398E+02  0.10565214984E+03  0.41800000000E+01 0.  1.
        -11    1    1    2    0    0 -0.44888077351E+02  0.10359107782E+02  0.66384988581E+02  0.80803572391E+02  0.00000000000E+00 0.  1.
         11    1    1    2    0    0  0.70477403318E+01  0.44992621442E+02  0.13333363462E+01  0.45560777142E+02  0.00000000000E+00 0. -1.
</event>
<event>
 7    1  0.2686712E-009  0.1095611E+03  0.7561462E-02  0.1261385E+00
         -1   -1    0    0    0  501 -0.00000000000E+00  0.00000000000E+00  0.93095210400E+02  0.93095210400E+02  0.00000000000E+00 0.  1.
          1   -1    0    0  501    0  0.00000000000E+00 -0.00000000000E+00 -0.48187828460E+03  0.48187828460E+03  0.00000000000E+00 0. -1.
         25    2    1    2    0    0 -0.49827437413E+02  0.80571978991E+02  0.77116475999E+01  0.15709875788E+03  0.12508370358E+03 0.  0.
          5    1    3    3  502    0 -0.42948681662E+02  0.57410756372E+02 -0.54547036371E+02  0.90185563039E+02  0.41800000000E+01 0.  1.
         -5    1    3    3    0  502 -0.68787557511E+01  0.23161222620E+02  0.62258683971E+02  0.66913194841E+02  0.41800000000E+01 0.  1.
        -11    1    1    2    0    0 -0.92125911746E+01 -0.59324684380E+02 -0.11794780674E+03  0.13234793209E+03  0.00000000000E+00 0. -1.
         11    1    1    2    0    0  0.59040028588E+02 -0.21247294611E+02 -0.27854691505E+03  0.28552680503E+03  0.00000000000E+00 0.  1.
</event>
<event>
 7    1  0.2644565E-009  0.1011705E+03  0.7561462E-02  0.1277854E+00
         -2   -1    0    0    0  501 -0.00000000000E+00  0.00000000000E+00  0.52137676759E+02  0.52137676759E+02  0.00000000000E+00 0.  1.
          2   -1    0    0  501    0  0.00000000000E+00 -0.00000000000E+00 -0.30366759601E+03  0.30366759601E+03  0.00000000000E+00 0. -1.
         25    2    1    2    0    0  0.20765069243E+02  0.32107818453E+02 -0.20259398846E+03  0.24114973467E+03  0.12508705074E+03 0.  0.
          5    1    3    3  502    0 -0.32867653581E+02  0.58259853505E+02 -0.77296877920E+02  0.10230724763E+03  0.41800000000E+01 0. -1.
         -5    1    3    3    0  502  0.53632722824E+02 -0.26152035052E+02 -0.12529711054E+03  0.13884248703E+03  0.41800000000E+01 0. -1.
        -11    1    1    2    0    0  0.14851092642E+02 -0.36701437536E+02 -0.64367346425E+02  0.75569211692E+02  0.00000000000E+00 0. -1.
         11    1    1    2    0    0 -0.35616161885E+02  0.45936190829E+01  0.15431415637E+02  0.39086326410E+02  0.00000000000E+00 0.  1.
</event>
<event>
 7    1  0.2644565E-009  0.1060562E+03  0.7561462E-02  0.1268053E+00
          2   -1    0    0  501    0  0.00000000000E+00  0.00000000000E+00  0.47925482622E+02  0.47925482622E+02  0.00000000000E+00 0. -1.
         -2   -1    0    0    0  501 -0.00000000000E+00 -0.00000000000E+00 -0.26606756051E+03  0.26606756051E+03  0.00000000000E+00 0.  1.
         25    2    1    2    0    0 -0.20863891522E+02 -0.22474819912E+02 -0.11183154049E+03  0.17056910845E+03  0.12508839998E+03 0.  0.
          5    1    3    3  502    0 -0.67551682000E+02 -0.19048286051E+02 -0.99753823735E+02  0.12204247085E+03  0.41800000000E+01 0.  1.
         -5    1    3    3    0  502  0.46687790479E+02 -0.34265338609E+01 -0.12077716756E+02  0.48526637593E+02  0.41800000000E+01 0.  1.
        -11    1    1    2    0    0 -0.16492052420E+02 -0.27706524826E+02 -0.48523701711E+02  0.58259668199E+02  0.00000000000E+00 0.  1.
         11    1    1    2    0    0  0.37355943941E+02  0.50181344737E+02 -0.57786835685E+02  0.85164266484E+02  0.00000000000E+00 0. -1.
</event>
<event>
 7    1  0.2644565E-009  0.1006845E+03  0.7561462E-02  0.1278863E+00
          1   -1    0    0  501    0  0.00000000000E+00  0.00000000000E+00  0.35490370822E+02  0.35490370822E+02  0.00000000000E+00 0. -1.
         -1   -1    0    0    0  501 -0.00000000000E+00 -0.00000000000E+00 -0.42337952292E+03  0.42337952292E+03  0.00000000000E+00 0.  1.
         25    2    1    2    0    0 -0.48476207718E+02 -0.12125268622E+02 -0.26752285869E+03  0.29952000773E+03  0.12508713066E+03 0.  0.
          5    1    3    3  502    0  0.32590557975E+02  0.54794129749E+01 -0.20995202222E+02  0.39375618751E+02  0.41800000000E+01 0. -1.
         -5    1    3    3    0  502 -0.81066765693E+02 -0.17604681597E+02 -0.24652765647E+03  0.26014438898E+03  0.41800000000E+01 0. -1.
        -11    1    1    2    0    0  0.43205693234E+02  0.38639489005E+02 -0.30484431581E+02  0.65490782612E+02  0.00000000000E+00 0. -1.
         11    1    1    2    0    0  0.52705144843E+01 -0.26514220383E+02 -0.89881861829E+02  0.93859103401E+02  0.00000000000E+00 0.  1.
</event>
<event>
 7    1  0.3110767E-009  0.2552389E+03  0.7561462E-02  0.1110038E+00
         -2   -1    0    0    0  501 -0.00000000000E+00  0.00000000000E+00  0.55421461868E+02  0.55421461868E+02  0.00000000000E+00 0.  1.
          2   -1    0    0  501    0  0.00000000000E+00 -0.00000000000E+00 -0.12628868257E+04  0.12628868257E+04  0.00000000000E+00 0. -1.
         25    2    1    2    0    0 -0.12417630961E+03  0.20472368592E+03 -0.55208801872E+03  0.61463848957E+03  0.12509096289E+03 0.  0.
          5    1    3    3  502    0 -0.13197995068E+03  0.21589496862E+03 -0.53822756859E+03  0.59475686869E+03  0.41800000000E+01 0.  1.
         -5    1    3    3    0  502  0.78036410681E+01 -0.11171282699E+02 -0.13860450129E+02  0.19881620881E+02  0.41800000000E+01 0.  1.
        -11    1    1    2    0    0  0.91429832042E+02 -0.11063648590E+03 -0.49015755783E+03  0.51073895259E+03  0.00000000000E+00 0. -1.
         11    1    1    2    0    0  0.32746477571E+02 -0.94087200026E+02 -0.16521978732E+03  0.19293084544E+03  0.00000000000E+00 0.  1.
</event>
<event>
 7    1  0.2644565E-009  0.9402855E+02  0.7561462E-02  0.1293379E+00
          2   -1    0    0  501    0  0.00000000000E+00  0.00000000000E+00  0.11571322207E+03  0.11571322207E+03  0.00000000000E+00 0. -1.
         -2   -1    0    0    0  501 -0.00000000000E+00 -0.00000000000E+00 -0.13606181263E+03  0.13606181263E+03  0.00000000000E+00 0.  1.
         25    2    1    2    0    0  0.12445938536E+02  0.47845481586E+02 -0.50282814429E+02  0.14359611554E+03  0.12508953384E+03 0.  0.
          5    1    3    3  502    0  0.27011125894E+02  0.60870088691E+02  0.20693905845E+02  0.69860423406E+02  0.41800000000E+01 0.  1.
         -5    1    3    3    0  502 -0.14565187359E+02 -0.13024607105E+02 -0.70976720274E+02  0.73735692130E+02  0.41800000000E+01 0.  1.
        -11    1    1    2    0    0 -0.39519217781E+02 -0.59862052249E+02  0.98779894436E+01  0.72407240998E+02  0.00000000000E+00 0.  1.
         11    1    1    2    0    0  0.27073279246E+02  0.12016570664E+02  0.20056234418E+02  0.35771678164E+02  0.00000000000E+00 0. -1.
</event>
<event>
 7    1  0.2644565E-009  0.1155557E+03  0.7561462E-02  0.1250614E+00
          3   -1    0    0  501    0  0.00000000000E+00  0.00000000000E+00  0.68692231163E+02  0.68692231163E+02  0.00000000000E+00 0. -1.
         -3   -1    0    0    0  501 -0.00000000000E+00 -0.00000000000E+00 -0.22461357500E+03  0.22461357500E+03  0.00000000000E+00 0.  1.
         25    2    1    2    0    0  0.33332812753E+02  0.36577746405E+02 -0.12850395941E+03  0.18603724426E+03  0.12509029031E+03 0.  0.
          5    1    3    3  502    0 -0.44981788424E+02  0.94892597050E-01 -0.63063564229E+02  0.77574840172E+02  0.41800000000E+01 0.  1.
         -5    1    3    3    0  502  0.78314601177E+02  0.36482853808E+02 -0.65440395183E+02  0.10846240409E+03  0.41800000000E+01 0.  1.
        -11    1    1    2    0    0 -0.19969299996E+02  0.27498400093E+02  0.47877074320E+01  0.34319922676E+02  0.00000000000E+00 0. -1.
         11    1    1    2    0    0 -0.13363512757E+02 -0.64076146498E+02 -0.32205091856E+02  0.72948639224E+02  0.00000000000E+00 0.  1.
</event>
<event>
 7    1  0.2644565E-009  0.1211504E+03  0.7561462E-02  0.1241211E+00
          1   -1    0    0  501    0  0.00000000000E+00  0.00000000000E+00  0.57620105715E+03  0.57620105715E+03  0.00000000000E+00 0. -1.
         -1   -1    0    0    0  501 -0.00000000000E+00 -0.00000000000E+00 -0.30302231367E+02  0.30302231367E+02  0.00000000000E+00 0.  1.
         25    2    1    2    0    0  0.44295891962E+02  0.48002550795E+02  0.21749786851E+03  0.25926740747E+03  0.12509154585E+03 0.  0.
          5    1    3    3  502    0  0.82093575931E+02  0.55461802181E+02  0.17906852449E+03  0.20469092694E+03  0.41800000000E+01 0.  1.
         -5    1    3    3    0  502 -0.37797683970E+02 -0.74592513852E+01  0.38429344022E+02  0.54576480527E+02  0.41800000000E+01 0.  1.
        -11    1    1    2    0    0 -0.66036307165E+02 -0.20124952717E+02  0.14675269121E+03  0.16217940672E+03  0.00000000000E+00 0.  1.
         11    1    1    2    0    0  0.21740415203E+02 -0.27877598079E+02  0.18164826606E+03  0.18505647433E+03  0.00000000000E+00 0. -1.
</event>
<event>
 7    1  0.2644565E-009  0.7300542E+02  0.7561462E-02  0.1350161E+00
          1   -1    0    0  501    0  0.00000000000E+00  0.00000000000E+00  0.54891971968E+02  0.54891971968E+02  0.00000000000E+00 0. -1.
         -1   -1    0    0    0  501 -0.00000000000E+00 -0.00000000000E+00 -0.24779451297E+03  0.24779451297E+03  0.00000000000E+00 0.  1.
         25    2    1    2    0    0 -0.43374186485E+02  0.29010839688E+02 -0.13509689022E+03  0.19136804821E+03  0.12509041232E+03 0.  0.
          5    1    3    3  502    0 -0.26639267784E+02 -0.89530512617E+01  0.17370128490E+02  0.33301673812E+02  0.41800000000E+01 0. -1.
         -5    1    3    3    0  502 -0.16734918702E+02  0.37963890949E+02 -0.15246701871E+03  0.15806637440E+03  0.41800000000E+01 0. -1.
        -11    1    1    2    0    0 -0.54366257216E+01 -0.26469950122E+02 -0.56264529704E+02  0.62417244904E+02  0.00000000000E+00 0.  1.
         11    1    1    2    0    0  0.48810812207E+02 -0.25408895656E+01 -0.15411210803E+01  0.48901191829E+02  0.00000000000E+00 0. -1.
</event>
<event>
 7    1  0.2644565E-009  0.7663602E+02  0.7561462E-02  0.1338878E+00
          2   -1    0    0  501    0  0.00000000000E+00  0.00000000000E+00  0.67855090820E+03  0.67855090820E+03  0.00000000000E+00 0. -1.
         -2   -1    0    0    0  501 -0.00000000000E+00 -0.00000000000E+00 -0.17620856970E+02  0.17620856970E+02  0.00000000000E+00 0.  1.
         25    2    1    2    0    0 -0.55454573204E+02 -0.46040718813E+02  0.44892408735E+03  0.47156543723E+03  0.12508464297E+03 0.  0.
          5    1    3    3  502    0 -0.40517309296E+02 -0.48998652322E+02  0.79864297233E+02  0.10216799232E+03  0.41800000000E+01 0. -1.
         -5    1    3    3    0  502 -0.14937263908E+02  0.29579335082E+01  0.36905979012E+03  0.36939744491E+03  0.41800000000E+01 0. -1.
        -11    1    1    2    0    0  0.28288790513E+02  0.13414889844E+02  0.10179805267E+03  0.10650379555E+03  0.00000000000E+00 0.  1.
         11    1    1    2    0    0  0.27165782691E+02  0.32625828969E+02  0.11020791121E+03  0.11810253240E+03  0.00000000000E+00 0. -1.
</event>
<event>
 7    1  0.2817500E-009  0.1240309E+03  0.7561462E-02  0.1236592E+00
          2   -1    0    0  501    0  0.00000000000E+00  0.00000000000E+00  0.20677729710E+03  0.20677729710E+03  0.00000000000E+00 0. -1.
         -2   -1    0    0    0  501 -0.00000000000E+00 -0.00000000000E+00 -0.11276937592E+03  0.11276937592E+03  0.00000000000E+00 0.  1.
         25    2    1    2    0    0  0.64066496120E+02 -0.65231224235E+02  0.10944097216E+03  0.18969992910E+03  0.12509639552E+03 0.  0.
          5    1    3    3  502    0  0.27464824857E+02 -0.10027942615E+03  0.71409395893E+02  0.12620243316E+03  0.41800000000E+01 0.  1.
         -5    1    3    3    0  502  0.36601671263E+02  0.35048201916E+02  0.38031576272E+02  0.63497495939E+02  0.41800000000E+01 0.  1.
        -11    1    1    2    0    0 -0.53722450545E+02  0.43631940235E+02 -0.51699335722E+02  0.86386742127E+02  0.00000000000E+00 0.  1.
         11    1    1    2    0    0 -0.10344045575E+02  0.21599284000E+02  0.36266284734E+02  0.43460001801E+02  0.00000000000E+00 0. -1.
</event>
<event>
 7    1  0.2644565E-009  0.7685501E+02  0.7561462E-02  0.1338221E+00
         -3   -1    0    0    0  501 -0.00000000000E+00  0.00000000000E+00  0.42615485708E+02  0.42615485708E+02  0.00000000000E+00 0.  1.
          3   -1    0    0  501    0  0.00000000000E+00 -0.00000000000E+00 -0.14916238275E+03  0.14916238275E+03  0.00000000000E+00 0. -1.
         25    2    1    2    0    0  0.96025653165E+01 -0.22420135112E+01 -0.90536624129E+02  0.15472938557E+03  0.12508823512E+03 0.  0.
          5    1    3    3  502    0 -0.55534154872E+02  0.17714677449E+01 -0.21736047714E+02  0.59808934329E+02  0.41800000000E+01 0.  1.
         -5    1    3    3    0  502  0.65136720189E+02 -0.40134812561E+01 -0.68800576415E+02  0.94920451241E+02  0.41800000000E+01 0.  1.
        -11    1    1    2    0    0 -0.18017516198E+02 -0.76805778635E+01 -0.13526636572E+02  0.23803194391E+02  0.00000000000E+00 0. -1.
         11    1    1    2    0    0  0.84149508811E+01  0.99225913747E+01 -0.24836363416E+01  0.13245288498E+02  0.00000000000E+00 0.  1.
</event>
<event>
 7    1  0.2644565E-009  0.1159491E+03  0.7561462E-02  0.1249933E+00
         -2   -1    0    0    0  501 -0.00000000000E+00  0.00000000000E+00  0.10621761935E+02  0.10621761935E+02  0.00000000000E+00 0.  1.
          2   -1    0    0  501    0  0.00000000000E+00 -0.00000000000E+00 -0.15225612061E+04  0.15225612061E+04  0.00000000000E+00 0. -1.
         25    2    1    2    0    0 -0.53644792899E+02  0.19335840418E+02 -0.10220521164E+04  0.10312566877E+04  0.12509272100E+03 0.  0.
          5    1    3    3  502    0 -0.71907275647E+02  0.49302281552E+02 -0.89907784471E+03  0.90330493993E+03  0.41800000000E+01 0. -1.
         -5    1    3    3    0  502  0.18262482747E+02 -0.29966441134E+02 -0.12297427168E+03  0.12795174780E+03  0.41800000000E+01 0. -1.
        -11    1    1    2    0    0 -0.25728768388E+02 -0.14994056506E+02 -0.13262057172E+03  0.13592279903E+03  0.00000000000E+00 0. -1.
         11    1    1    2    0    0  0.79373561287E+02 -0.43417839127E+01 -0.35726675607E+03  0.36600348128E+03  0.00000000000E+00 0.  1.
</event>
<event>
 7    1  0.2644565E-009  0.2746318E+03  0.7561462E-02  0.1098658E+00
         -1   -1    0    0    0  501 -0.00000000000E+00  0.00000000000E+00  0.96187853923E+02  0.96187853923E+02  0.00000000000E+00 0.  1.
          1   -1    0    0  501    0  0.00000000000E+00 -0.00000000000E+00 -0.89198245074E+03  0.89198245074E+03  0.00000000000E+00 0. -1.
         25    2    1    2    0    0  0.24738769559E+03 -0.10425059333E+03 -0.47546101862E+03  0.56016136793E+03  0.12509484305E+03 0.  0.
          5    1    3    3  502    0  0.13881219607E+03 -0.39522079445E+02 -0.36395778799E+03  0.39155276066E+03  0.41800000000E+01 0.  1.
         -5    1    3    3    0  502  0.10857549952E+03 -0.64728513883E+02 -0.11150323063E+03  0.16860860727E+03  0.41800000000E+01 0.  1.
        -11    1    1    2    0    0 -0.15823979133E+03  0.10380693430E+03 -0.25466094386E+03  0.31728206299E+03  0.00000000000E+00 0.  1.
         11    1    1    2    0    0 -0.89147904261E+02  0.44365902859E+00 -0.65672634344E+02  0.11072687374E+03  0.00000000000E+00 0. -1.
</event>
<event>
 7    1  0.2644565E-009  0.1117908E+03  0.7561462E-02  0.1257289E+00
         -2   -1    0    0    0  501 -0.00000000000E+00  0.00000000000E+00  0.11091947267E+03  0.11091947267E+03  0.00000000000E+00 0.  1.
          2   -1    0    0  501    0  0.00000000000E+00 -0.00000000000E+00 -0.12703656013E+03  0.12703656013E+03  0.00000000000E+00 0. -1.
         25    2    1    2    0    0 -0.74868098248E+01 -0.36142582905E+02  0.27077259063E+02  0.13320389265E+03  0.12509100862E+03 0.  0.
          5    1    3    3  502    0  0.47924023190E+01 -0.81617889650E+02  0.26027644307E+02  0.85903187945E+02  0.41800000000E+01 0. -1.
         -5    1    3    3    0  502 -0.12279212144E+02  0.45475306746E+02  0.10496147562E+01  0.47300704706E+02  0.41800000000E+01 0. -1.
        -11    1    1    2    0    0  0.47325818217E+02  0.17711932388E+02 -0.30644468978E+02  0.59097623453E+02  0.00000000000E+00 0.  1.
         11    1    1    2    0    0 -0.39839008392E+02  0.18430650516E+02 -0.12549877548E+02  0.45654516694E+02  0.00000000000E+00 0. -1.
</event>
<event>
 7    1  0.2644565E-009  0.1381348E+03  0.7561462E-02  0.1215861E+00
          2   -1    0    0  501    0  0.00000000000E+00  0.00000000000E+00  0.29228586229E+03  0.29228586229E+03  0.00000000000E+00 0.  1.
         -2   -1    0    0    0  501 -0.00000000000E+00 -0.00000000000E+00 -0.75669566599E+02  0.75669566599E+02  0.00000000000E+00 0. -1.
         25    2    1    2    0    0 -0.84523161775E+02  0.52187949065E+02  0.13482679906E+03  0.20902978029E+03  0.12508971340E+03 0.  0.
          5    1    3    3  502    0 -0.10903360248E+02 -0.36449240439E+02  0.61345058809E+02  0.72305733062E+02  0.41800000000E+01 0. -1.
         -5    1    3    3    0  502 -0.73619801527E+02  0.88637189504E+02  0.73481740246E+02  0.13672404723E+03  0.41800000000E+01 0. -1.
        -11    1    1    2    0    0  0.16527592531E+02 -0.52144095980E+02  0.71703253347E+02  0.90186055469E+02  0.00000000000E+00 0.  1.
         11    1    1    2    0    0  0.67995569244E+02 -0.43853085299E-01  0.10086243285E+02  0.68739593129E+02  0.00000000000E+00 0. -1.
</event>
<event>
 7    1  0.2644565E-009  0.8067154E+02  0.7561462E-02  0.1327156E+00
         -1   -1    0    0    0  501 -0.00000000000E+00  0.00000000000E+00  0.33604669086E+03  0.33604669086E+03  0.00000000000E+00 0.  1.
          1   -1    0    0  501    0  0.00000000000E+00 -0.00000000000E+00 -0.40949895794E+02  0.40949895794E+02  0.00000000000E+00 0. -1.
         25    2    1    2    0    0 -0.55674347198E+02 -0.11160677676E+02  0.16424858935E+03  0.21411080951E+03  0.12506656621E+03 0.  0.
          5    1    3    3  502    0 -0.48228421083E+02  0.12889776011E+02  0.17814271888E+03  0.18505249962E+03  0.41800000000E+01 0. -1.
         -5    1    3    3    0  502 -0.74459261152E+01 -0.24050453687E+02 -0.13894129529E+02  0.29058309889E+02  0.41800000000E+01 0. -1.
        -11    1    1    2    0    0  0.29490914048E+02 -0.26640561511E+02  0.99744812580E+02  0.10737067181E+03  0.00000000000E+00 0.  1.
         11    1    1    2    0    0  0.26183433151E+02  0.37801239186E+02  0.31103393136E+02  0.55515105333E+02  0.00000000000E+00 0. -1.
</event>
<event>
 7    1  0.2644565E-009  0.1372110E+03  0.7561462E-02  0.1217132E+00
          1   -1    0    0  501    0  0.00000000000E+00  0.00000000000E+00  0.16558963149E+03  0.16558963149E+03  0.00000000000E+00 0. -1.
         -1   -1    0    0    0  501 -0.00000000000E+00 -0.00000000000E+00 -0.19112542236E+03  0.19112542236E+03  0.00000000000E+00 0.  1.
         25    2    1    2    0    0 -0.10406789311E+03  0.65388514369E+02  0.55676465135E+02  0.18398955499E+03  0.12508598398E+03 0.  0.
          5    1    3    3  502    0 -0.10566720601E+03  0.64843386874E+02  0.87529303260E+02  0.15181921675E+03  0.41800000000E+01 0. -1.
         -5    1    3    3    0  502  0.15993128969E+01  0.54512749502E+00 -0.31852838125E+02  0.32170338238E+02  0.41800000000E+01 0. -1.
        -11    1    1    2    0    0  0.15010784694E+02 -0.54043494639E+02 -0.75480897390E+01  0.56595023002E+02  0.00000000000E+00 0. -1.
         11    1    1    2    0    0  0.89057108414E+02 -0.11345019730E+02 -0.73664166268E+02  0.11613047586E+03  0.00000000000E+00 0.  1.
</event>
<event>
 7    1  0.2644565E-009  0.1058813E+03  0.7561462E-02  0.1268393E+00
          3   -1    0    0  501    0  0.00000000000E+00  0.00000000000E+00  0.38490419674E+02  0.38490419674E+02  0.00000000000E+00 0. -1.
         -3   -1    0    0    0  501 -0.00000000000E+00 -0.00000000000E+00 -0.48163457067E+03  0.48163457067E+03  0.00000000000E+00 0.  1.
         25    2    1    2    0    0 -0.43973560227E+02 -0.67028982087E+02 -0.26310633215E+03  0.30215721760E+03  0.12508990243E+03 0.  0.
          5    1    3    3  502    0  0.19766975206E+01 -0.58743888906E+02 -0.24486492334E+03  0.25185522607E+03  0.41800000000E+01 0.  1.
         -5    1    3    3    0  502 -0.45950257748E+02 -0.82850931813E+01 -0.18241408808E+02  0.50301991525E+02  0.41800000000E+01 0.  1.
        -11    1    1    2    0    0  0.57366322853E+02  0.26343267732E+02 -0.15725556033E+03  0.16945257156E+03  0.00000000000E+00 0.  1.
         11    1    1    2    0    0 -0.13392762626E+02  0.40685714355E+02 -0.22782258514E+02  0.48515201188E+02  0.00000000000E+00 0. -1.
</event>
<event>
 7    1  0.2644565E-009  0.1252122E+03  0.7561462E-02  0.1234738E+00
         -3   -1    0    0    0  501 -0.00000000000E+00  0.00000000000E+00  0.47859795686E+03  0.47859795686E+03  0.00000000000E+00 0.  1.
          3   -1    0    0  501    0  0.00000000000E+00 -0.00000000000E+00 -0.44710036711E+02  0.44710036711E+02  0.00000000000E+00 0. -1.
         25    2    1    2    0    0 -0.30783838808E+02  0.92633404091E+02  0.25073099256E+03  0.29672017721E+03  0.12509292804E+03 0.  0.
          5    1    3    3  502    0 -0.17428697483E+02 -0.48453897778E+01  0.16533106595E+03  0.16637028300E+03  0.41800000000E+01 0.  1.
         -5    1    3    3    0  502 -0.13355141325E+02  0.97478793869E+02  0.85399926614E+02  0.13034989421E+03  0.41800000000E+01 0.  1.
        -11    1    1    2    0    0 -0.32123627264E+02 -0.22813147185E+02  0.55909875205E+02  0.68397962386E+02  0.00000000000E+00 0.  1.
         11    1    1    2    0    0  0.62907466072E+02 -0.69820256906E+02  0.12724705238E+03  0.15818985398E+03  0.00000000000E+00 0. -1.
</event>
<event>
 7    1  0.3213845E-009  0.8705631E+02  0.7561462E-02  0.1310141E+00
         -1   -1    0    0    0  501 -0.00000000000E+00  0.00000000000E+00  0.20110230130E+03  0.20110230130E+03  0.00000000000E+00 0.  1.
          1   -1    0    0  501    0  0.00000000000E+00 -0.00000000000E+00 -0.11672195257E+03  0.11672195257E+03  0.00000000000E+00 0. -1.
         25    2    1    2    0    0  0.53874120428E+02  0.91881869737E+01  0.14179057881E+03  0.19682171838E+03  0.12508947581E+03 0.  0.
          5    1    3    3  502    0 -0.12851513788E+02 -0.14365442326E+02 -0.14982462116E+02  0.24768405498E+02  0.41800000000E+01 0.  1.
         -5    1    3    3    0  502  0.66725634216E+02  0.23553629300E+02  0.15677304092E+03  0.17205331289E+03  0.41800000000E+01 0.  1.
        -11    1    1    2    0    0  0.11308239350E+02 -0.14174500284E+02  0.14938652431E+02  0.23493745379E+02  0.00000000000E+00 0.  1.
         11    1    1    2    0    0 -0.65182359778E+02  0.49863133103E+01 -0.72348882511E+02  0.97508790102E+02  0.00000000000E+00 0. -1.
</event>
<event>
 7    1  0.2644565E-009  0.9452337E+02  0.7561462E-02  0.1292253E+00
         -4   -1    0    0    0  501 -0.00000000000E+00  0.00000000000E+00  0.46726219913E+03  0.46726219913E+03  0.00000000000E+00 0.  1.
          4   -1    0    0  501    0  0.00000000000E+00 -0.00000000000E+00 -0.40185238100E+02  0.40185238100E+02  0.00000000000E+00 0. -1.
         25    2    1    2    0    0 -0.47756897045E+02  0.11669429589E+02  0.35825368284E+03  0.38264235903E+03  0.12511025877E+03 0.  0.
          5    1    3    3  502    0 -0.65527483184E+02  0.21645552581E+02  0.89542023983E+02  0.11312659925E+03  0.41800000000E+01 0.  1.
         -5    1    3    3    0  502  0.17770586139E+02 -0.99761229916E+01  0.26871165886E+03  0.26951575978E+03  0.41800000000E+01 0.  1.
        -11    1    1    2    0    0  0.44352483686E+02  0.32387146318E+02  0.18770515893E+02  0.58037938649E+02  0.00000000000E+00 0. -1.
         11    1    1    2    0    0  0.34044133595E+01 -0.44056575907E+02  0.50052762297E+02  0.66767139557E+02  0.00000000000E+00 0.  1.
</event>
<event>
 7    1  0.2644565E-009  0.6887805E+02  0.7561462E-02  0.1363950E+00
         -1   -1    0    0    0  501 -0.00000000000E+00  0.00000000000E+00  0.64917840567E+02  0.64917840567E+02  0.00000000000E+00 0.  1.
          1   -1    0    0  501    0  0.00000000000E+00 -0.00000000000E+00 -0.25789028308E+03  0.25789028308E+03  0.00000000000E+00 0. -1.
         25    2    1    2    0    0  0.20014787822E+02 -0.31834505054E+02 -0.18103139343E+03  0.22323694059E+03  0.12509332034E+03 0.  0.
          5    1    3    3  502    0  0.33176613814E+02 -0.98086691473E+00 -0.18607617364E+03  0.18905942082E+03  0.41800000000E+01 0. -1.
         -5    1    3    3    0  502 -0.13161825992E+02 -0.30853638139E+02  0.50447802185E+01  0.34177519765E+02  0.41800000000E+01 0. -1.
        -11    1    1    2    0    0  0.18029951173E+02  0.26544696478E+02  0.29129103743E+02  0.43338259486E+02  0.00000000000E+00 0.  1.
         11    1    1    2    0    0 -0.38044738995E+02  0.52898085754E+01 -0.41070152835E+02  0.56232923575E+02  0.00000000000E+00 0. -1.
</event>
<event>
 7    1  0.2644565E-009  0.1156291E+03  0.7561462E-02  0.1250487E+00
          1   -1    0    0  501    0  0.00000000000E+00  0.00000000000E+00  0.29106865366E+02  0.29106865366E+02  0.00000000000E+00 0. -1.
         -1   -1    0    0    0  501 -0.00000000000E+00 -0.00000000000E+00 -0.58559422449E+03  0.58559422449E+03  0.00000000000E+00 0.  1.
         25    2    1    2    0    0 -0.48463129201E+02 -0.43225299137E+02 -0.40337461921E+03  0.42728785933E+03  0.12508688952E+03 0.  0.
          5    1    3    3  502    0 -0.68097808532E+02 -0.76210516908E+02 -0.29717589924E+03  0.31428703744E+03  0.41800000000E+01 0. -1.
         -5    1    3    3    0  502  0.19634679331E+02  0.32985217771E+02 -0.10619871997E+03  0.11300082189E+03  0.41800000000E+01 0. -1.
        -11    1    1    2    0    0  0.61204389413E+02  0.20942367474E+02 -0.51721037319E+02  0.82822857595E+02  0.00000000000E+00 0. -1.
         11    1    1    2    0    0 -0.12741260212E+02  0.22282931663E+02 -0.10139170260E+03  0.10459037294E+03  0.00000000000E+00 0.  1.
</event>
<event>
 7    1  0.2644565E-009  0.1127565E+03  0.7561462E-02  0.1255549E+00
          2   -1    0    0  501    0  0.00000000000E+00  0.00000000000E+00  0.41287710553E+03  0.41287710553E+03  0.00000000000E+00 0. -1.
         -2   -1    0    0    0  501 -0.00000000000E+00 -0.00000000000E+00 -0.38616353759E+02  0.38616353759E+02  0.00000000000E+00 0.  1.
         25    2    1    2    0    0 -0.94112463627E+01 -0.55461326389E+02  0.26720702594E+03  0.30035243886E+03  0.12508981786E+03 0.  0.
          5    1    3    3  502    0  0.50225173445E+02 -0.25438006696E+02  0.58985663890E+02  0.81648277243E+02  0.41800000000E+01 0.  1.
         -5    1    3    3    0  502 -0.59636419808E+02 -0.30023319692E+02  0.20822136205E+03  0.21870416161E+03  0.41800000000E+01 0.  1.
        -11    1    1    2    0    0 -0.15968074143E+02  0.70751214694E+02  0.54184938443E+02  0.90535746126E+02  0.00000000000E+00 0.  1.
         11    1    1    2    0    0  0.25379320506E+02 -0.15289888306E+02  0.52868787385E+02  0.60605274303E+02  0.00000000000E+00 0. -1.
</event>
<event>
 7    1  0.2644565E-009  0.8699138E+02  0.7561462E-02  0.1310306E+00
         -2   -1    0    0    0  501 -0.00000000000E+00  0.00000000000E+00  0.11027357165E+03  0.11027357165E+03  0.00000000000E+00 0. -1.
          2   -1    0    0  501    0  0.00000000000E+00 -0.00000000000E+00 -0.15526691804E+03  0.15526691804E+03  0.00000000000E+00 0.  1.
         25    2    1    2    0    0 -0.52807476538E+01 -0.38824227015E+02  0.37238336252E+02  0.13626922706E+03  0.12508957453E+03 0.  0.
          5    1    3    3  502    0 -0.46581961459E+02  0.12285479565E+02 -0.16694225180E+02  0.51156443347E+02  0.41800000000E+01 0. -1.
         -5    1    3    3    0  502  0.41301213805E+02 -0.51109706580E+02  0.53932561432E+02  0.85112783711E+02  0.41800000000E+01 0. -1.
        -11    1    1    2    0    0  0.25101026325E+02  0.26199051387E+02  0.70389133326E+01  0.36959411751E+02  0.00000000000E+00 0. -1.
         11    1    1    2    0    0 -0.19820278671E+02  0.12625175629E+02 -0.89270595978E+02  0.92311850878E+02  0.00000000000E+00 0.  1.
</event>
<event>
 7    1  0.2644565E-009  0.9492351E+02  0.7561462E-02  0.1291348E+00
         -2   -1    0    0    0  501 -0.00000000000E+00  0.00000000000E+00  0.32360854223E+02  0.32360854223E+02  0.00000000000E+00 0.  1.
          2   -1    0    0  501    0  0.00000000000E+00 -0.00000000000E+00 -0.74046521389E+03  0.74046521389E+03  0.00000000000E+00 0. -1.
         25    2    1    2    0    0  0.21513691365E+02  0.30635810235E+02 -0.62568553535E+03  0.63916477954E+03  0.12509130452E+03 0.  0.
          5    1    3    3  502    0  0.56536721734E+02  0.55468626225E+02 -0.28751413420E+03  0.29825328022E+03  0.41800000000E+01 0. -1.
         -5    1    3    3    0  502 -0.35023030369E+02 -0.24832815990E+02 -0.33817140115E+03  0.34091149931E+03  0.41800000000E+01 0. -1.
        -11    1    1    2    0    0 -0.40402172007E+02 -0.25667519394E+02  0.11105549883E+01  0.47878913805E+02  0.00000000000E+00 0.  1.
         11    1    1    2    0    0  0.18888480642E+02 -0.49682908416E+01 -0.83529379302E+02  0.85782374772E+02  0.00000000000E+00 0. -1.
</event>
<event>
 7    1  0.2644565E-009  0.9335269E+02  0.7561462E-02  0.1294930E+00
         -1   -1    0    0    0  501 -0.00000000000E+00  0.00000000000E+00  0.69327557738E+02  0.69327557738E+02  0.00000000000E+00 0.  1.
          1   -1    0    0  501    0  0.00000000000E+00 -0.00000000000E+00 -0.15003230101E+03  0.15003230101E+03  0.00000000000E+00 0. -1.
         25    2    1    2    0    0  0.19932572478E+02  0.54785664659E+01 -0.77765067729E+02  0.14873550819E+03  0.12509006156E+03 0.  0.
          5    1    3    3  502    0  0.60549683733E+02 -0.25762215663E+02 -0.15032337739E+02  0.67626914272E+02  0.41800000000E+01 0.  1.
         -5    1    3    3    0  502 -0.40617111256E+02  0.31240782129E+02 -0.62732729990E+02  0.81108593915E+02  0.41800000000E+01 0.  1.
        -11    1    1    2    0    0 -0.68957907856E+01 -0.35744673319E+02 -0.80305888307E+01  0.37279001572E+02  0.00000000000E+00 0. -1.
         11    1    1    2    0    0 -0.13036781692E+02  0.30266106853E+02  0.50909132911E+01  0.33345348987E+02  0.00000000000E+00 0.  1.
</event>
<event>
 7    1  0.2644565E-009  0.1253722E+03  0.7561462E-02  0.1234489E+00
          2   -1    0    0  501    0  0.00000000000E+00  0.00000000000E+00  0.24667049902E+03  0.24667049902E+03  0.00000000000E+00 0. -1.
         -2   -1    0    0    0  501 -0.00000000000E+00 -0.00000000000E+00 -0.76446478897E+02  0.76446478897E+02  0.00000000000E+00 0.  1.
         25    2    1    2    0    0 -0.76459768638E+02 -0.17767411855E+01  0.13186507309E+03  0.19719593605E+03  0.12509431108E+03 0.  0.
          5    1    3    3  502    0 -0.16238476394E+02 -0.60239346367E+02  0.53558560430E+02  0.82331395966E+02  0.41800000000E+01 0. -1.
         -5    1    3    3    0  502 -0.60221292244E+02  0.58462605182E+02  0.78306512661E+02  0.11486454009E+03  0.41800000000E+01 0. -1.
        -11    1    1    2    0    0  0.36191565646E+02  0.36210726502E+02 -0.12260524845E+02  0.52643770830E+02  0.00000000000E+00 0.  1.
         11    1    1    2    0    0  0.40268202992E+02 -0.34433985317E+02  0.50619471875E+02  0.73277271032E+02  0.00000000000E+00 0. -1.
</event>
<event>
 7    1  0.2644565E-009  0.8978923E+02  0.7561462E-02  0.1303363E+00
          1   -1    0    0  501    0  0.00000000000E+00  0.00000000000E+00  0.25826890210E+03  0.25826890210E+03  0.00000000000E+00 0. -1.
         -1   -1    0    0    0  501 -0.00000000000E+00 -0.00000000000E+00 -0.62791820681E+02  0.62791820681E+02  0.00000000000E+00 0.  1.
         25    2    1    2    0    0  0.57960606067E+02 -0.21374088447E+02  0.14412239561E+03  0.20058612686E+03  0.12508895178E+03 0.  0.
          5    1    3    3  502    0 -0.10070888302E+02 -0.33630473071E+01 -0.19403856997E+02  0.22510329734E+02  0.41800000000E+01 0. -1.
         -5    1    3    3    0  502  0.68031494369E+02 -0.18011041140E+02  0.16352625261E+03  0.17807579712E+03  0.41800000000E+01 0. -1.
        -11    1    1    2    0    0 -0.13949796431E+02  0.45422176544E+02 -0.15960841371E+01  0.47542806259E+02  0.00000000000E+00 0.  1.
         11    1    1    2    0    0 -0.44010809635E+02 -0.24048088097E+02  0.52950769945E+02  0.72931789664E+02  0.00000000000E+00 0. -1.
</event>
<event>
 7    1  0.2644565E-009  0.8020328E+02  0.7561462E-02  0.1328476E+00
          2   -1    0    0  501    0  0.00000000000E+00  0.00000000000E+00  0.76234747666E+03  0.76234747666E+03  0.00000000000E+00 0.  1.
         -2   -1    0    0    0  501 -0.00000000000E+00 -0.00000000000E+00 -0.22874568198E+02  0.22874568198E+02  0.00000000000E+00 0. -1.
         25    2    1    2    0    0  0.61400871335E+02  0.91820080206E+01  0.53640320028E+03  0.55428203489E+03  0.12508319098E+03 0.  0.
          5    1    3    3  502    0 -0.61936299706E+01 -0.63650840612E+01  0.40936366833E+03  0.40948133132E+03  0.41800000000E+01 0.  1.
         -5    1    3    3    0  502  0.67594501306E+02  0.15547092082E+02  0.12703953195E+03  0.14480070358E+03  0.41800000000E+01 0.  1.
        -11    1    1    2    0    0 -0.44336911253E+02  0.18938821585E+02  0.18919322102E+03  0.19523963620E+03  0.00000000000E+00 0.  1.
         11    1    1    2    0    0 -0.17063960083E+02 -0.28120829605E+02  0.13876487169E+02  0.35700373773E+02  0.00000000000E+00 0. -1.
</event>
<event>
 7    1  0.2644565E-009  0.1230318E+03  0.7561462E-02  0.1238178E+00
         -1   -1    0    0    0  501 -0.00000000000E+00  0.00000000000E+00  0.57149609125E+02  0.57149609125E+02  0.00000000000E+00 0.  1.
          1   -1    0    0  501    0  0.00000000000E+00 -0.00000000000E+00 -0.51906997743E+03  0.51906997743E+03  0.00000000000E+00 0. -1.
         25    2    1    2    0    0  0.42862752380E+02 -0.87801200005E+02 -0.40351279408E+03  0.43360784855E+03  0.12508766955E+03 0.  0.
          5    1    3    3  502    0  0.11403804276E+01 -0.73912265529E+02 -0.37212733515E+03  0.37942133496E+03  0.41800000000E+01 0. -1.
         -5    1    3    3    0  502  0.41722371952E+02 -0.13888934475E+02 -0.31385458935E+02  0.54186513587E+02  0.41800000000E+01 0. -1.
        -11    1    1    2    0    0  0.24844421837E+02  0.18576578727E+02 -0.26076294124E+02  0.40525395604E+02  0.00000000000E+00 0.  1.
         11    1    1    2    0    0 -0.67707174217E+02  0.69224621277E+02 -0.32331280099E+02  0.10208634240E+03  0.00000000000E+00 0. -1.
</event>
<event>
 7    1  0.2644565E-009  0.4083718E+03  0.7561462E-02  0.1040919E+00
         -2   -1    0    0    0  501 -0.00000000000E+00  0.00000000000E+00  0.83537396009E+02  0.83537396009E+02  0.00000000000E+00 0.  1.
          2   -1    0    0  501    0  0.00000000000E+00 -0.00000000000E+00 -0.20979499021E+04  0.20979499021E+04  0.00000000000E+00 0. -1.
         25    2    1    2    0    0 -0.32810565485E+03  0.23562126029E+03 -0.10494969311E+04  0.11314920148E+04  0.12513861205E+03 0.  0.
          5    1    3    3  502    0 -0.20175565887E+03  0.16280137925E+03 -0.50348557006E+03  0.56632572486E+03  0.41800000000E+01 0.  1.
         -5    1    3    3    0  502 -0.12634999598E+03  0.72819881034E+02 -0.54601136101E+03  0.56516628996E+03  0.41800000000E+01 0.  1.
        -11    1    1    2    0    0  0.16269283172E+03 -0.16497582624E+03 -0.59929896232E+03  0.64253033156E+03  0.00000000000E+00 0. -1.
         11    1    1    2    0    0  0.16541282312E+03 -0.70645434053E+02 -0.36561661268E+03  0.40746495171E+03  0.00000000000E+00 0.  1.
</event>
<event>
 7    1  0.2644565E-009  0.1425383E+03  0.7561462E-02  0.1209954E+00
          2   -1    0    0  501    0  0.00000000000E+00  0.00000000000E+00  0.10930642368E+04  0.10930642368E+04  0.00000000000E+00 0. -1.
         -2   -1    0    0    0  501 -0.00000000000E+00 -0.00000000000E+00 -0.26300124969E+02  0.26300124969E+02  0.00000000000E+00 0.  1.
         25    2    1    2    0    0 -0.12888972984E+02  0.10777697309E+03  0.80688897021E+03  0.82371121119E+03  0.12509335573E+03 0.  0.
          5    1    3    3  502    0 -0.29567172711E+02 -0.10884431959E+02  0.66835517349E+02  0.74007751894E+02  0.41800000000E+01 0. -1.
         -5    1    3    3    0  502  0.16678199726E+02  0.11866140505E+03  0.74005345286E+03  0.74970345930E+03  0.41800000000E+01 0. -1.
        -11    1    1    2    0    0  0.37493704205E+02 -0.20537252126E+02  0.43172771971E+02  0.60757261455E+02  0.00000000000E+00 0.  1.
         11    1    1    2    0    0 -0.24604731221E+02 -0.87239720967E+02  0.21670236965E+03  0.23489588912E+03  0.00000000000E+00 0. -1.
</event>
<event>
 7    1  0.2644565E-009  0.1258745E+03  0.7561462E-02  0.1233709E+00
          2   -1    0    0  501    0  0.00000000000E+00  0.00000000000E+00  0.47839080665E+03  0.47839080665E+03  0.00000000000E+00 0. -1.
         -2   -1    0    0    0  501 -0.00000000000E+00 -0.00000000000E+00 -0.45108820864E+02  0.45108820864E+02  0.00000000000E+00 0.  1.
         25    2    1    2    0    0 -0.91432915456E+02 -0.31949275444E+02  0.27517907220E+03  0.31741210529E+03  0.12508472558E+03 0.  0.
          5    1    3    3  502    0 -0.99454824317E+02 -0.13615275148E+02  0.10250441081E+03  0.14353140574E+03  0.41800000000E+01 0. -1.
         -5    1    3    3    0  502  0.80219088602E+01 -0.18334000296E+02  0.17267466139E+03  0.17388069955E+03  0.41800000000E+01 0. -1.
        -11    1    1    2    0    0  0.38115438517E+02  0.59622225878E+02  0.70688254164E+02  0.10002212630E+03  0.00000000000E+00 0.  1.
         11    1    1    2    0    0  0.53317476939E+02 -0.27672950434E+02  0.87414659419E+02  0.10606539593E+03  0.00000000000E+00 0. -1.
</event>
<event>
 7    1  0.2644565E-009  0.4672883E+03  0.7561462E-02  0.1022688E+00
          2   -1    0    0  501    0  0.00000000000E+00  0.00000000000E+00  0.36860250523E+03  0.36860250523E+03  0.00000000000E+00 0. -1.
         -2   -1    0    0    0  501 -0.00000000000E+00 -0.00000000000E+00 -0.68438012942E+03  0.68438012942E+03  0.00000000000E+00 0.  1.
         25    2    1    2    0    0 -0.35098966889E+03  0.30024096416E+03 -0.33127076763E+03  0.58199927193E+03  0.12507776306E+03 0.  0.
          5    1    3    3  502    0 -0.14325034656E+03  0.18694867604E+03 -0.11818686351E+03  0.26354520745E+03  0.41800000000E+01 0. -1.
         -5    1    3    3    0  502 -0.20773932233E+03  0.11329228812E+03 -0.21308390412E+03  0.31845406449E+03  0.41800000000E+01 0. -1.
        -11    1    1    2    0    0  0.99505783006E+02 -0.97725750257E+02 -0.35937662478E+02  0.14402513218E+03  0.00000000000E+00 0.  1.
         11    1    1    2    0    0  0.25148388589E+03 -0.20251521390E+03  0.51430805916E+02  0.32695823054E+03  0.00000000000E+00 0. -1.
</event>
<event>
 7    1  0.2644565E-009  0.1163774E+03  0.7561462E-02  0.1249196E+00
          1   -1    0    0  501    0  0.00000000000E+00  0.00000000000E+00  0.33075513488E+03  0.33075513488E+03  0.00000000000E+00 0. -1.
         -1   -1    0    0    0  501 -0.00000000000E+00 -0.00000000000E+00 -0.53343699998E+02  0.53343699998E+02  0.00000000000E+00 0.  1.
         25    2    1    2    0    0  0.51923641782E+01  0.69754761793E+02  0.10865682684E+03  0.17985283202E+03  0.12509215694E+03 0.  0.
          5    1    3    3  502    0  0.27996850682E+02 -0.28172981439E+02  0.15885106815E+02  0.42980804434E+02  0.41800000000E+01 0. -1.
         -5    1    3    3    0  502 -0.22804486504E+02  0.97927743232E+02  0.92771720021E+02  0.13687202758E+03  0.41800000000E+01 0. -1.
        -11    1    1    2    0    0  0.12086129918E+02 -0.73513058521E+02  0.17090133149E+03  0.18643365955E+03  0.00000000000E+00 0. -1.
         11    1    1    2    0    0 -0.17278494096E+02  0.37582967278E+01 -0.21467234434E+01  0.17812343306E+02  0.00000000000E+00 0.  1.
</event>
<event>
 7    1  0.2644565E-009  0.1162190E+03  0.7561462E-02  0.1249468E+00
          1   -1    0    0  501    0  0.00000000000E+00  0.00000000000E+00  0.28662028536E+03  0.28662028536E+03  0.00000000000E+00 0. -1.
         -1   -1    0    0    0  501 -0.00000000000E+00 -0.00000000000E+00 -0.61747207398E+02  0.61747207398E+02  0.00000000000E+00 0.  1.
         25    2    1    2    0    0  0.32651419714E+02  0.68690377747E+02  0.98623450643E+02  0.17651714794E+03  0.12508890956E+03 0.  0.
          5    1    3    3  502    0  0.59762982980E+01  0.86457997658E+02  0.11188053526E+03  0.14158187762E+03  0.41800000000E+01 0. -1.
         -5    1    3    3    0  502  0.26675121416E+02 -0.17767619911E+02 -0.13257084615E+02  0.34935270320E+02  0.41800000000E+01 0. -1.
        -11    1    1    2    0    0  0.18686902721E+02 -0.57966826646E+02  0.47512086791E+02  0.77244752029E+02  0.00000000000E+00 0.  1.
         11    1    1    2    0    0 -0.51338322435E+02 -0.10723551101E+02  0.78737540524E+02  0.94605592786E+02  0.00000000000E+00 0. -1.
</event>
<event>
 7    1  0.2644565E-009  0.1551714E+03  0.7561462E-02  0.1194259E+00
          2   -1    0    0  501    0  0.00000000000E+00  0.00000000000E+00  0.46734672304E+03  0.46734672304E+03  0.00000000000E+00 0. -1.
         -2   -1    0    0    0  501 -0.00000000000E+00 -0.00000000000E+00 -0.56239832871E+02  0.56239832871E+02  0.00000000000E+00 0.  1.
         25    2    1    2    0    0 -0.76719816674E+02 -0.82378271067E+02  0.29008903375E+03  0.33537114914E+03  0.12510016131E+03 0.  0.
          5    1    3    3  502    0  0.31863013341E+02 -0.35390797523E+02  0.60994714853E+02  0.77495727679E+02  0.41800000000E+01 0. -1.
         -5    1    3    3    0  502 -0.10858283001E+03 -0.46987473544E+02  0.22909431890E+03  0.25787542147E+03  0.41800000000E+01 0. -1.
        -11    1    1    2    0    0 -0.96167257458E+00  0.64412373491E+02  0.54235194696E+02  0.84210064818E+02  0.00000000000E+00 0.  1.
         11    1    1    2    0    0  0.77681489248E+02  0.17965897576E+02  0.66782661726E+02  0.10400534195E+03  0.00000000000E+00 0. -1.
</event>
<event>
 7    1  0.2644565E-009  0.2770724E+03  0.7561462E-02  0.1097299E+00
         -1   -1    0    0    0  501 -0.00000000000E+00  0.00000000000E+00  0.49388288869E+03  0.49388288869E+03  0.00000000000E+00 0.  1.
          1   -1    0    0  501    0  0.00000000000E+00 -0.00000000000E+00 -0.26860163993E+03  0.26860163993E+03  0.00000000000E+00 0. -1.
         25    2    1    2    0    0  0.16558063271E+03  0.19662538616E+03  0.35903427522E+03  0.45894453985E+03  0.12508393767E+03 0.  0.
          5    1    3    3  502    0  0.17037121510E+03  0.12232509091E+03  0.28481837287E+03  0.35373543323E+03  0.41800000000E+01 0.  1.
         -5    1    3    3    0  502 -0.47905823864E+01  0.74300295244E+02  0.74215902350E+02  0.10520910661E+03  0.41800000000E+01 0.  1.
        -11    1    1    2    0    0 -0.88194691536E+01 -0.63568282365E+02 -0.50682477538E+02  0.81776665916E+02  0.00000000000E+00 0.  1.
         11    1    1    2    0    0 -0.15676116356E+03 -0.13305710379E+03 -0.83070548922E+02  0.22176332286E+03  0.00000000000E+00 0. -1.
</event>
<event>
 7    1  0.2644565E-009  0.8463226E+02  0.7561462E-02  0.1316397E+00
         -3   -1    0    0    0  501 -0.00000000000E+00  0.00000000000E+00  0.30798075220E+03  0.30798075220E+03  0.00000000000E+00 0.  1.
          3   -1    0    0  501    0  0.00000000000E+00 -0.00000000000E+00 -0.64410919956E+02  0.64410919956E+02  0.00000000000E+00 0. -1.
         25    2    1    2    0    0 -0.38046271599E+00  0.68091973052E+02  0.18963803220E+03  0.23716540395E+03  0.12509270174E+03 0.  0.
          5    1    3    3  502    0  0.16874725692E+02 -0.49331755701E+01 -0.12190924683E+02  0.21798707141E+02  0.41800000000E+01 0.  1.
         -5    1    3    3    0  502 -0.17255188408E+02  0.73025148622E+02  0.20182895688E+03  0.21536669681E+03  0.41800000000E+01 0.  1.
        -11    1    1    2    0    0 -0.16731155648E+02 -0.32969614781E+02 -0.26715381073E+02  0.45614018174E+02  0.00000000000E+00 0. -1.
         11    1    1    2    0    0  0.17111618364E+02 -0.35122358270E+02  0.80647181114E+02  0.89612250028E+02  0.00000000000E+00 0.  1.
</event>
<event>
 7    1  0.2644565E-009  0.8955961E+02  0.7561462E-02  0.1303922E+00
          2   -1    0    0  501    0  0.00000000000E+00  0.00000000000E+00  0.40520149332E+03  0.40520149332E+03  0.00000000000E+00 0.  1.
         -2   -1    0    0    0  501 -0.00000000000E+00 -0.00000000000E+00 -0.69470530717E+02  0.69470530717E+02  0.00000000000E+00 0. -1.
         25    2    1    2    0    0  0.22794134188E+02 -0.34738948334E+02  0.25164907098E+03  0.28407993817E+03  0.12509112383E+03 0.  0.
          5    1    3    3  502    0 -0.43985971931E+02 -0.37030410663E+02  0.71210122906E+02  0.91620800285E+02  0.41800000000E+01 0.  1.
         -5    1    3    3    0  502  0.66780106119E+02  0.22914623296E+01  0.18043894808E+03  0.19245913789E+03  0.41800000000E+01 0.  1.
        -11    1    1    2    0    0  0.84909011322E+01  0.15831679128E+02 -0.49205771127E+02  0.52382682046E+02  0.00000000000E+00 0. -1.
         11    1    1    2    0    0 -0.31285035320E+02  0.18907269205E+02  0.13328766275E+03  0.13820940382E+03  0.00000000000E+00 0.  1.
</event>
<event>
 7    1  0.2644565E-009  0.1165048E+03  0.7561462E-02  0.1248977E+00
         -1   -1    0    0    0  501 -0.00000000000E+00  0.00000000000E+00  0.12728566600E+03  0.12728566600E+03  0.00000000000E+00 0.  1.
          1   -1    0    0  501    0  0.00000000000E+00 -0.00000000000E+00 -0.15505984154E+03  0.15505984154E+03  0.00000000000E+00 0. -1.
         25    2    1    2    0    0 -0.61380158413E+02  0.24660598388E+02  0.44106239590E+02  0.14821930062E+03  0.12509169335E+03 0.  0.
          5    1    3    3  502    0 -0.81491568789E+01 -0.48828011547E+02  0.73233748649E+01  0.50216408562E+02  0.41800000000E+01 0.  1.
         -5    1    3    3    0  502 -0.53231001534E+02  0.73488609935E+02  0.36782864725E+02  0.98002892059E+02  0.41800000000E+01 0.  1.
        -11    1    1    2    0    0  0.18263924478E+02 -0.42170638451E+02 -0.74480715578E+02  0.87517487839E+02  0.00000000000E+00 0. -1.
         11    1    1    2    0    0  0.43116233935E+02  0.17510040062E+02  0.26003004438E+01  0.46608719078E+02  0.00000000000E+00 0.  1.
</event>
<event>
 7    1  0.2644565E-009  0.5643991E+02  0.7561462E-02  0.1413410E+00
          1   -1    0    0  501    0  0.00000000000E+00  0.00000000000E+00  0.22102838349E+03  0.22102838349E+03  0.00000000000E+00 0. -1.
         -1   -1    0    0    0  501 -0.00000000000E+00 -0.00000000000E+00 -0.60080363285E+02  0.60080363285E+02  0.00000000000E+00 0.  1.
         25    2    1    2    0    0  0.44339384438E+01  0.91257367822E+01  0.41055242913E+02  0.13203830005E+03  0.12508253606E+03 0.  0.
          5    1    3    3  502    0  0.14539500530E+02 -0.47444998976E+01 -0.43165564801E+02  0.45985277422E+02  0.41800000000E+01 0.  1.
         -5    1    3    3    0  502 -0.10105562086E+02  0.13870236680E+02  0.84220807714E+02  0.86053022624E+02  0.41800000000E+01 0.  1.
        -11    1    1    2    0    0  0.32595971820E+02 -0.22918565228E+02  0.93265649593E+02  0.10142109941E+03  0.00000000000E+00 0. -1.
         11    1    1    2    0    0 -0.37029910264E+02  0.13792828445E+02  0.26627127700E+02  0.47649347322E+02  0.00000000000E+00 0.  1.
</event>
<event>
 7    1  0.2644565E-009  0.6882545E+02  0.7561462E-02  0.1364133E+00
         -3   -1    0    0    0  501 -0.00000000000E+00  0.00000000000E+00  0.81738197123E+03  0.81738197123E+03  0.00000000000E+00 0.  1.
          3   -1    0    0  501    0  0.00000000000E+00 -0.00000000000E+00 -0.16505357591E+02  0.16505357591E+02  0.00000000000E+00 0. -1.
         25    2    1    2    0    0 -0.15725283570E+02 -0.21984224246E+02  0.56070026624E+03  0.57511988910E+03  0.12508999806E+03 0.  0.
          5    1    3    3  502    0 -0.20117854435E+02  0.23109876558E+02  0.32125905465E+02  0.44590813668E+02  0.41800000000E+01 0. -1.
         -5    1    3    3    0  502  0.43925708655E+01 -0.45094100804E+02  0.52857436077E+03  0.53052907543E+03  0.41800000000E+01 0. -1.
        -11    1    1    2    0    0  0.35501049800E+02  0.21381056203E+02  0.23457101821E+03  0.23820377135E+03  0.00000000000E+00 0.  1.
         11    1    1    2    0    0 -0.19775766230E+02  0.60316804344E+00  0.56053291897E+01  0.20563668374E+02  0.00000000000E+00 0. -1.
</event>
<event>
 7    1  0.2644565E-009  0.1322428E+03  0.7561462E-02  0.1224165E+00
         -1   -1    0    0    0  501 -0.00000000000E+00  0.00000000000E+00  0.45854272103E+03  0.45854272103E+03  0.00000000000E+00 0.  1.
          1   -1    0    0  501    0  0.00000000000E+00 -0.00000000000E+00 -0.42702450304E+02  0.42702450304E+02  0.00000000000E+00 0. -1.
         25    2    1    2    0    0 -0.87537628973E+02  0.60635317473E+02  0.27400112160E+03  0.31947140034E+03  0.12508350325E+03 0.  0.
          5    1    3    3  502    0  0.19811306822E+02  0.42118943966E+02  0.13475181988E+03  0.14262544892E+03  0.41800000000E+01 0.  1.
         -5    1    3    3    0  502 -0.10734893579E+03  0.18516373507E+02  0.13924930172E+03  0.17684595142E+03  0.41800000000E+01 0.  1.
        -11    1    1    2    0    0  0.33517786271E+02 -0.36552002067E+02  0.38805573700E+02  0.62971131496E+02  0.00000000000E+00 0.  1.
         11    1    1    2    0    0  0.54019842701E+02 -0.24083315406E+02  0.10303357542E+03  0.11880263949E+03  0.00000000000E+00 0. -1.
</event>
<event>
 7    1  0.3185437E-009  0.8645183E+02  0.7561462E-02  0.1311679E+00
          2   -1    0    0  501    0  0.00000000000E+00  0.00000000000E+00  0.60753831352E+03  0.60753831352E+03  0.00000000000E+00 0. -1.
         -2   -1    0    0    0  501 -0.00000000000E+00 -0.00000000000E+00 -0.25567479451E+02  0.25567479451E+02  0.00000000000E+00 0.  1.
         25    2    1    2    0    0 -0.15174518721E+02  0.55009049558E+02  0.38346569223E+03  0.40738595047E+03  0.12514437251E+03 0.  0.
          5    1    3    3  502    0 -0.47010570110E+00 -0.44505757933E+01 -0.85917265893E+01  0.10550772012E+02  0.41800000000E+01 0. -1.
         -5    1    3    3    0  502 -0.14704413020E+02  0.59459625351E+02  0.39205741882E+03  0.39683517846E+03  0.41800000000E+01 0. -1.
        -11    1    1    2    0    0 -0.35398530205E+02 -0.38232313117E+02  0.76181716869E+02  0.92295285319E+02  0.00000000000E+00 0.  1.
         11    1    1    2    0    0  0.50573048926E+02 -0.16776736441E+02  0.12232342497E+03  0.13342455718E+03  0.00000000000E+00 0. -1.
</event>
<event>
 7    1  0.2644565E-009  0.1568574E+03  0.7561462E-02  0.1192291E+00
          1   -1    0    0  501    0  0.00000000000E+00  0.00000000000E+00  0.11203401711E+03  0.11203401711E+03  0.00000000000E+00 0.  1.
         -1   -1    0    0    0  501 -0.00000000000E+00 -0.00000000000E+00 -0.26617866927E+03  0.26617866927E+03  0.00000000000E+00 0. -1.
         25    2    1    2    0    0  0.12057753948E+03  0.53810775116E+02 -0.10446699854E+03  0.20975094235E+03  0.12509021339E+03 0.  0.
          5    1    3    3  502    0  0.53695124823E+02  0.65416254792E+02  0.43026513554E+00  0.84735531797E+02  0.41800000000E+01 0.  1.
         -5    1    3    3    0  502  0.66882414659E+02 -0.11605479676E+02 -0.10489726368E+03  0.12501541055E+03  0.41800000000E+01 0.  1.
        -11    1    1    2    0    0 -0.13612100391E+03 -0.49471046851E+02 -0.44826621654E+02  0.15161048179E+03  0.00000000000E+00 0. -1.
         11    1    1    2    0    0  0.15543464424E+02 -0.43397282653E+01 -0.48510319701E+01  0.16851262234E+02  0.00000000000E+00 0.  1.
</event>
<event>
 7    1  0.2644565E-009  0.8827134E+02  0.7561462E-02  0.1307093E+00
          2   -1    0    0  501    0  0.00000000000E+00  0.00000000000E+00  0.26418040330E+03  0.26418040330E+03  0.00000000000E+00 0. -1.
         -2   -1    0    0    0  501 -0.00000000000E+00 -0.00000000000E+00 -0.60861260664E+02  0.60861260664E+02  0.00000000000E+00 0.  1.
         25    2    1    2    0    0  0.22530711421E+02  0.32673003335E+02  0.17878331148E+03  0.22177908093E+03  0.12508928878E+03 0.  0.
          5    1    3    3  502    0  0.85184762100E+01 -0.25501094210E+02  0.15480874051E+03  0.15718170626E+03  0.41800000000E+01 0.  1.
         -5    1    3    3    0  502  0.14012235211E+02  0.58174097546E+02  0.23974570966E+02  0.64597374667E+02  0.41800000000E+01 0.  1.
        -11    1    1    2    0    0  0.23229100043E+02 -0.36677974576E+02 -0.11462443138E+02  0.44902700481E+02  0.00000000000E+00 0.  1.
         11    1    1    2    0    0 -0.45759811464E+02  0.40049712406E+01  0.35998274292E+02  0.58359882555E+02  0.00000000000E+00 0. -1.
</event>
<event>
 6    1  0.2644565E-009  0.1612102E+03  0.7561462E-02  0.1187337E+00
          1   -1    0    0  501    0  0.00000000000E+00  0.00000000000E+00  0.98976748015E+03  0.98976748015E+03  0.00000000000E+00 0. -1.
         -1   -1    0    0    0  501 -0.00000000000E+00 -0.00000000000E+00 -0.28900899132E+02  0.28900899132E+02  0.00000000000E+00 0.  1.
          5    1    1    2  502    0 -0.15085359452E+02 -0.33357686953E+02  0.59676425533E+02  0.70135950218E+02  0.41800000000E+01 0.  1.
         -5    1    1    2    0  502 -0.10346646490E+03  0.78553773970E+02  0.53018309254E+03  0.54588239464E+03  0.41800000000E+01 0.  1.
        -11    1    1    2    0    0  0.72511394996E+02 -0.72113695246E+02  0.22310847522E+03  0.24542958086E+03  0.00000000000E+00 0.  1.
         11    1    1    2    0    0  0.46040429352E+02  0.26917608229E+02  0.14789858773E+03  0.15722045357E+03  0.00000000000E+00 0. -1.
</event>
<event>
 7    1  0.2644565E-009  0.1705355E+03  0.7561462E-02  0.1177291E+00
         -2   -1    0    0    0  501 -0.00000000000E+00  0.00000000000E+00  0.13296464045E+03  0.13296464045E+03  0.00000000000E+00 0.  1.
          2   -1    0    0  501    0  0.00000000000E+00 -0.00000000000E+00 -0.45158260409E+03  0.45158260409E+03  0.00000000000E+00 0. -1.
         25    2    1    2    0    0  0.39472009110E+02  0.16483799447E+03 -0.33000999421E+03  0.39151679201E+03  0.12509675544E+03 0.  0.
          5    1    3    3  502    0  0.15079592597E+02  0.83911629219E+02 -0.49836819618E+02  0.98841978030E+02  0.41800000000E+01 0. -1.
         -5    1    3    3    0  502  0.24392416513E+02  0.80926365255E+02 -0.28017317460E+03  0.29267481398E+03  0.41800000000E+01 0. -1.
        -11    1    1    2    0    0 -0.25839194219E+02 -0.14319890659E+03 -0.25912480917E+02  0.14780070187E+03  0.00000000000E+00 0. -1.
         11    1    1    2    0    0 -0.13632814891E+02 -0.21639087882E+02  0.37304511496E+02  0.45229750654E+02  0.00000000000E+00 0.  1.
</event>
<event>
 7    1  0.2644565E-009  0.9992040E+02  0.7561462E-02  0.1280463E+00
         -2   -1    0    0    0  501 -0.00000000000E+00  0.00000000000E+00  0.28241312657E+02  0.28241312657E+02  0.00000000000E+00 0.  1.
          2   -1    0    0  501    0  0.00000000000E+00 -0.00000000000E+00 -0.47816427964E+03  0.47816427964E+03  0.00000000000E+00 0. -1.
         25    2    1    2    0    0  0.42843482835E+02  0.73940382594E+01 -0.29514818087E+03  0.32349506556E+03  0.12508546258E+03 0.  0.
          5    1    3    3  502    0  0.37427386607E+02 -0.41317799196E+02 -0.55230324413E+02  0.78586455152E+02  0.41800000000E+01 0.  1.
         -5    1    3    3    0  502  0.54160962276E+01  0.48711837455E+02 -0.23991785645E+03  0.24490861041E+03  0.41800000000E+01 0.  1.
        -11    1    1    2    0    0 -0.68627775895E+01 -0.43343175473E+02 -0.93431867643E+02  0.10322423392E+03  0.00000000000E+00 0. -1.
         11    1    1    2    0    0 -0.35980705246E+02  0.35949137214E+02 -0.61342918470E+02  0.79686292816E+02  0.00000000000E+00 0.  1.
</event>
<event>
 7    1  0.2644565E-009  0.9125105E+02  0.7561462E-02  0.1299850E+00
          2   -1    0    0  501    0  0.00000000000E+00  0.00000000000E+00  0.23082059985E+02  0.23082059985E+02  0.00000000000E+00 0. -1.
         -2   -1    0    0    0  501 -0.00000000000E+00 -0.00000000000E+00 -0.51502767506E+03  0.51502767506E+03  0.00000000000E+00 0.  1.
         25    2    1    2    0    0 -0.16332908046E+02 -0.76012284719E+01 -0.25734715390E+03  0.28670425920E+03  0.12508889664E+03 0.  0.
          5    1    3    3  502    0 -0.50256786285E+02  0.14508413971E+02 -0.41090065419E+02  0.66649114922E+02  0.41800000000E+01 0. -1.
         -5    1    3    3    0  502  0.33923878239E+02 -0.22109642443E+02 -0.21625708848E+03  0.22005514428E+03  0.41800000000E+01 0. -1.
        -11    1    1    2    0    0  0.45762924044E+02  0.27872162789E+02 -0.12137120961E+03  0.13267280504E+03  0.00000000000E+00 0. -1.
         11    1    1    2    0    0 -0.29430015998E+02 -0.20270934317E+02 -0.11322725156E+03  0.11873267081E+03  0.00000000000E+00 0.  1.
</event>
<event>
 7    1  0.2644565E-009  0.1187871E+03  0.7561462E-02  0.1245111E+00
         -1   -1    0    0    0  501 -0.00000000000E+00  0.00000000000E+00  0.14333394839E+02  0.14333394839E+02  0.00000000000E+00 0.  1.
          1   -1    0    0  501    0  0.00000000000E+00 -0.00000000000E+00 -0.21866498199E+04  0.21866498199E+04  0.00000000000E+00 0. -1.
         25    2    1    2    0    0 -0.83124154213E+01 -0.79915310638E+02 -0.18638480867E+04  0.18697677634E+04  0.12508495238E+03 0.  0.
          5    1    3    3  502    0 -0.46784062593E+02 -0.84145989607E+02 -0.90221592332E+03  0.90734797116E+03  0.41800000000E+01 0. -1.
         -5    1    3    3    0  502  0.38471647172E+02  0.42306789696E+01 -0.96163216343E+03  0.96241979220E+03  0.41800000000E+01 0. -1.
        -11    1    1    2    0    0 -0.18599535652E+02  0.71798263760E+02 -0.28531700495E+03  0.29479946866E+03  0.00000000000E+00 0.  1.
         11    1    1    2    0    0  0.26911951073E+02  0.81170468776E+01 -0.23151333346E+02  0.36415982704E+02  0.00000000000E+00 0. -1.
</event>
<event>
 7    1  0.2644565E-009  0.1183670E+03  0.7561462E-02  0.1245815E+00
         -1   -1    0    0    0  501 -0.00000000000E+00  0.00000000000E+00  0.17059258769E+03  0.17059258769E+03  0.00000000000E+00 0.  1.
          1   -1    0    0  501    0  0.00000000000E+00 -0.00000000000E+00 -0.12452136508E+03  0.12452136508E+03  0.00000000000E+00 0. -1.
         25    2    1    2    0    0 -0.38364287865E+02  0.41767165486E+02 -0.51060712225E+02  0.14652965150E+03  0.12508967879E+03 0.  0.
          5    1    3    3  502    0  0.28094877246E+02 -0.20896686816E+02 -0.41703066189E+02  0.54613293042E+02  0.41800000000E+01 0.  1.
         -5    1    3    3    0  502 -0.66459165111E+02  0.62663852302E+02 -0.93576460360E+01  0.91916358457E+02  0.41800000000E+01 0.  1.
        -11    1    1    2    0    0 -0.14862316228E+02 -0.53501736579E+02  0.33708597377E+02  0.64958400518E+02  0.00000000000E+00 0. -1.
         11    1    1    2    0    0  0.53226604094E+02  0.11734571093E+02  0.63423337461E+02  0.83625900753E+02  0.00000000000E+00 0.  1.
</event>
<event>
 7    1  0.2644565E-009  0.1136623E+03  0.7561462E-02  0.1253934E+00
          2   -1    0    0  501    0  0.00000000000E+00  0.00000000000E+00  0.44563284041E+02  0.44563284041E+02  0.00000000000E+00 0. -1.
         -2   -1    0    0    0  501 -0.00000000000E+00 -0.00000000000E+00 -0.39303106212E+03  0.39303106212E+03  0.00000000000E+00 0.  1.
         25    2    1    2    0    0 -0.60913364128E+02  0.43047116948E+01 -0.13288585441E+03  0.19244625924E+03  0.12509174202E+03 0.  0.
          5    1    3    3  502    0 -0.99694355446E+02  0.34584109755E+01 -0.10148871576E+03  0.14236697981E+03  0.41800000000E+01 0.  1.
         -5    1    3    3    0  502  0.38780991318E+02  0.84630071932E+00 -0.31397138650E+02  0.50079279427E+02  0.41800000000E+01 0.  1.
        -11    1    1    2    0    0  0.57806735901E+02  0.22095497306E+02 -0.56299632836E+02  0.83662885285E+02  0.00000000000E+00 0. -1.
         11    1    1    2    0    0  0.31066282270E+01 -0.26400209001E+02 -0.15928229084E+03  0.16148520164E+03  0.00000000000E+00 0.  1.
</event>
<event>
 7    1  0.2644565E-009  0.1346251E+03  0.7561462E-02  0.1220750E+00
          2   -1    0    0  501    0  0.00000000000E+00  0.00000000000E+00  0.21617693768E+03  0.21617693768E+03  0.00000000000E+00 0. -1.
         -2   -1    0    0    0  501 -0.00000000000E+00 -0.00000000000E+00 -0.15389373080E+03  0.15389373080E+03  0.00000000000E+00 0.  1.
         25    2    1    2    0    0  0.11100475061E+03 -0.49043790650E+02 -0.50680896326E+02  0.18150433790E+03  0.12509165986E+03 0.  0.
          5    1    3    3  502    0  0.15949373425E+02 -0.15075928568E+01 -0.71270740391E+02  0.73168614753E+02  0.41800000000E+01 0.  1.
         -5    1    3    3    0  502  0.95055377183E+02 -0.47536197793E+02  0.20589844066E+02  0.10833572315E+03  0.41800000000E+01 0.  1.
        -11    1    1    2    0    0 -0.46511568774E+02  0.64969270683E+02  0.84498219525E+02  0.11629394338E+03  0.00000000000E+00 0. -1.
         11    1    1    2    0    0 -0.64493181833E+02 -0.15925480033E+02  0.28465883685E+02  0.72272387198E+02  0.00000000000E+00 0.  1.
</event>
<event>
 7    1  0.2644565E-009  0.1004289E+03  0.7561462E-02  0.1279397E+00
          1   -1    0    0  501    0  0.00000000000E+00  0.00000000000E+00  0.26436817912E+03  0.26436817912E+03  0.00000000000E+00 0. -1.
         -1   -1    0    0    0  501 -0.00000000000E+00 -0.00000000000E+00 -0.63091084955E+02  0.63091084955E+02  0.00000000000E+00 0.  1.
         25    2    1    2    0    0  0.12807438284E+02 -0.41693229847E+02  0.41973272881E+02  0.13896622594E+03  0.12508996932E+03 0.  0.
          5    1    3    3  502    0  0.56675462981E+02 -0.11778957106E+02  0.59283314841E+02  0.82962857672E+02  0.41800000000E+01 0.  1.
         -5    1    3    3    0  502 -0.43868024696E+02 -0.29914272741E+02 -0.17310041960E+02  0.56003368265E+02  0.41800000000E+01 0.  1.
        -11    1    1    2    0    0 -0.39247393311E+02 -0.10933889069E+01  0.11481904347E+03  0.12134647141E+03  0.00000000000E+00 0. -1.
         11    1    1    2    0    0  0.26439955026E+02  0.42786618754E+02  0.44484777821E+02  0.67146566733E+02  0.00000000000E+00 0.  1.
</event>
<event>
 7    1  0.2644565E-009  0.1737821E+03  0.7561462E-02  0.1173960E+00
          2   -1    0    0  501    0  0.00000000000E+00  0.00000000000E+00  0.53333390796E+03  0.53333390796E+03  0.00000000000E+00 0. -1.
         -2   -1    0    0    0  501 -0.00000000000E+00 -0.00000000000E+00 -0.71357194825E+02  0.71357194825E+02  0.00000000000E+00 0.  1.
         25    2    1    2    0    0  0.47705685802E+02  0.14117885492E+03  0.14608824601E+03  0.24330322454E+03  0.12508949563E+03 0.  0.
          5    1    3    3  502    0  0.22805844335E+02  0.15627869409E+03  0.14407037749E+03  0.21381506690E+03  0.41800000000E+01 0. -1.
         -5    1    3    3    0  502  0.24899841467E+02 -0.15099839171E+02  0.20178685207E+01  0.29488157647E+02  0.41800000000E+01 0. -1.
        -11    1    1    2    0    0 -0.61568346927E+02 -0.11940387893E+03  0.30518147532E+03  0.33344216969E+03  0.00000000000E+00 0. -1.
         11    1    1    2    0    0  0.13862661125E+02 -0.21774975989E+02  0.10706991800E+02  0.27945708548E+02  0.00000000000E+00 0.  1.
</event>
<event>
 7    1  0.2644565E-009  0.1196582E+03  0.7561462E-02  0.1243662E+00
         -2   -1    0    0    0  501 -0.00000000000E+00  0.00000000000E+00  0.20005249928E+02  0.20005249928E+02  0.00000000000E+00 0.  1.
          2   -1    0    0  501    0  0.00000000000E+00 -0.00000000000E+00 -0.13622768936E+04  0.13622768936E+04  0.00000000000E+00 0. -1.
         25    2    1    2    0    0 -0.67812371622E+02  0.37540296420E+02 -0.11232113299E+04  0.11328098341E+04  0.12508651884E+03 0.  0.
          5    1    3    3  502    0 -0.35920982911E+02 -0.29105914520E+02 -0.15570798818E+03  0.16248052578E+03  0.41800000000E+01 0. -1.
         -5    1    3    3    0  502 -0.31891388711E+02  0.66646210940E+02 -0.96750334167E+03  0.97032930836E+03  0.41800000000E+01 0. -1.
        -11    1    1    2    0    0  0.87436334522E+02 -0.14503100624E+02 -0.15316854105E+03  0.17696342698E+03  0.00000000000E+00 0. -1.
         11    1    1    2    0    0 -0.19623962900E+02 -0.23037195796E+02 -0.65891772758E+02  0.72508882402E+02  0.00000000000E+00 0.  1.
</event>
<event>
 7    1  0.2644565E-009  0.1405704E+03  0.7561462E-02  0.1212564E+00
          2   -1    0    0  501    0  0.00000000000E+00  0.00000000000E+00  0.28814018566E+03  0.28814018566E+03  0.00000000000E+00 0. -1.
         -2   -1    0    0    0  501 -0.00000000000E+00 -0.00000000000E+00 -0.86731500414E+02  0.86731500414E+02  0.00000000000E+00 0.  1.
         25    2    1    2    0    0 -0.30578367915E+02  0.10948877449E+03  0.13256472231E+03  0.21481418002E+03  0.12509555552E+03 0.  0.
          5    1    3    3  502    0 -0.57453472463E+02  0.39155128265E+02  0.92423053047E+01  0.70263206408E+02  0.41800000000E+01 0. -1.
         -5    1    3    3    0  502  0.26875104547E+02  0.70333646230E+02  0.12332241700E+03  0.14455097361E+03  0.41800000000E+01 0. -1.
        -11    1    1    2    0    0 -0.20520273757E+02 -0.65549466633E+02  0.77989157129E+01  0.69127688354E+02  0.00000000000E+00 0.  1.
         11    1    1    2    0    0  0.51098641672E+02 -0.43939307862E+02  0.61045047225E+02  0.90929817699E+02  0.00000000000E+00 0. -1.
</event>
<event>
 7    1  0.2644565E-009  0.9718219E+02  0.7561462E-02  0.1286336E+00
         -2   -1    0    0    0  501 -0.00000000000E+00  0.00000000000E+00  0.23044658128E+02  0.23044658128E+02  0.00000000000E+00 0.  1.
          2   -1    0    0  501    0  0.00000000000E+00 -0.00000000000E+00 -0.50548676345E+03  0.50548676345E+03  0.00000000000E+00 0. -1.
         25    2    1    2    0    0  0.65441320842E+01  0.39970950758E+01 -0.28140632475E+03  0.30805185259E+03  0.12509045464E+03 0.  0.
          5    1    3    3  502    0  0.38011282549E+02 -0.46535049580E+02 -0.18609999851E+03  0.19560432072E+03  0.41800000000E+01 0.  1.
         -5    1    3    3    0  502 -0.31467150465E+02  0.50532144656E+02 -0.95306326242E+02  0.11244753187E+03  0.41800000000E+01 0.  1.
        -11    1    1    2    0    0 -0.14034304974E+02  0.33446714445E+02 -0.16146431048E+03  0.16548827144E+03  0.00000000000E+00 0. -1.
         11    1    1    2    0    0  0.74901728894E+01 -0.37443809521E+02 -0.39571470092E+02  0.54991297553E+02  0.00000000000E+00 0.  1.
</event>
<event>
 7    1  0.2644565E-009  0.1644759E+03  0.7561462E-02  0.1183734E+00
         -1   -1    0    0    0  501 -0.00000000000E+00  0.00000000000E+00  0.29847450938E+03  0.29847450938E+03  0.00000000000E+00 0.  1.
          1   -1    0    0  501    0  0.00000000000E+00 -0.00000000000E+00 -0.11984269210E+03  0.11984269210E+03  0.00000000000E+00 0. -1.
         25    2    1    2    0    0 -0.13163441512E+03 -0.18644485214E+02  0.17325820718E+03  0.25167794344E+03  0.12509254490E+03 0.  0.
          5    1    3    3  502    0 -0.14104498839E+03 -0.32906038089E+02  0.99294452138E+02  0.17565123603E+03  0.41800000000E+01 0.  1.
         -5    1    3    3    0  502  0.94105732791E+01  0.14261552876E+02  0.73963755041E+02  0.76026707410E+02  0.41800000000E+01 0.  1.
        -11    1    1    2    0    0  0.26774761526E+01  0.36220361297E+02  0.33631818050E+01  0.36474572552E+02  0.00000000000E+00 0.  1.
         11    1    1    2    0    0  0.12895693896E+03 -0.17575876083E+02  0.20104282950E+01  0.13016468549E+03  0.00000000000E+00 0. -1.
</event>
<event>
 7    1  0.2930181E-009  0.1578197E+03  0.7561462E-02  0.1191181E+00
         -2   -1    0    0    0  501 -0.00000000000E+00  0.00000000000E+00  0.26076622732E+02  0.26076622732E+02  0.00000000000E+00 0. -1.
          2   -1    0    0  501    0  0.00000000000E+00 -0.00000000000E+00 -0.10126946185E+04  0.10126946185E+04  0.00000000000E+00 0.  1.
         25    2    1    2    0    0  0.11076947551E+03  0.48462744322E+02 -0.54185363584E+03  0.56909712426E+03  0.12509060665E+03 0.  0.
          5    1    3    3  502    0 -0.23875323927E+02  0.46807681536E+01 -0.35046478844E+02  0.42868038939E+02  0.41800000000E+01 0.  1.
         -5    1    3    3    0  502  0.13464479944E+03  0.43781976168E+02 -0.50680715699E+03  0.52622908532E+03  0.41800000000E+01 0.  1.
        -11    1    1    2    0    0 -0.31638919391E+02 -0.61451093724E+02 -0.24044697778E+03  0.25018394685E+03  0.00000000000E+00 0. -1.
         11    1    1    2    0    0 -0.79130556124E+02  0.12988349402E+02 -0.20431738219E+03  0.21949017016E+03  0.00000000000E+00 0.  1.
</event>
<event>
 7    1  0.2644565E-009  0.5929829E+02  0.7561462E-02  0.1400800E+00
          2   -1    0    0  501    0  0.00000000000E+00  0.00000000000E+00  0.15675686856E+03  0.15675686856E+03  0.00000000000E+00 0. -1.
         -2   -1    0    0    0  501 -0.00000000000E+00 -0.00000000000E+00 -0.91211318245E+02  0.91211318245E+02  0.00000000000E+00 0.  1.
         25    2    1    2    0    0 -0.28782126188E+02  0.11804028873E+02  0.77214928579E+02  0.15025924280E+03  0.12509176218E+03 0.  0.
          5    1    3    3  502    0  0.73002930672E+01 -0.13061704062E+02  0.99648899804E+02  0.10085275417E+03  0.41800000000E+01 0. -1.
         -5    1    3    3    0  502 -0.36082419256E+02  0.24865732935E+02 -0.22433971225E+02  0.49406488629E+02  0.41800000000E+01 0. -1.
        -11    1    1    2    0    0  0.35388678668E+02 -0.25645092112E+02 -0.43943344320E+02  0.61976179596E+02  0.00000000000E+00 0.  1.
         11    1    1    2    0    0 -0.66065524798E+01  0.13841063239E+02  0.32273966058E+02  0.35732764409E+02  0.00000000000E+00 0. -1.
</event>
<event>
 7    1  0.3578576E-009  0.1397305E+03  0.7561462E-02  0.1213692E+00
          1   -1    0    0  501    0  0.00000000000E+00  0.00000000000E+00  0.97674155265E+03  0.97674155265E+03  0.00000000000E+00 0. -1.
         -1   -1    0    0    0  501 -0.00000000000E+00 -0.00000000000E+00 -0.24897906061E+02  0.24897906061E+02  0.00000000000E+00 0.  1.
         25    2    1    2    0    0 -0.91967952538E+02  0.33091300216E+02  0.68548444411E+03  0.70362558583E+03  0.12508758321E+03 0.  0.
          5    1    3    3  502    0  0.12953221450E+02  0.50157962503E+02  0.24873774919E+03  0.25410932179E+03  0.41800000000E+01 0.  1.
         -5    1    3    3    0  502 -0.10492117399E+03 -0.17066662287E+02  0.43674669492E+03  0.44951626404E+03  0.41800000000E+01 0.  1.
        -11    1    1    2    0    0  0.90156157807E+02 -0.22212084096E+01  0.24319178427E+03  0.25937484553E+03  0.00000000000E+00 0. -1.
         11    1    1    2    0    0  0.18117947308E+01 -0.30870091806E+02  0.23167418209E+02  0.38639027352E+02  0.00000000000E+00 0.  1.
</event>
<event>
 7    1  0.3018040E-009  0.1135196E+03  0.7561462E-02  0.1254188E+00
          1   -1    0    0  501    0  0.00000000000E+00  0.00000000000E+00  0.29134529098E+03  0.29134529098E+03  0.00000000000E+00 0. -1.
         -1   -1    0    0    0  501 -0.00000000000E+00 -0.00000000000E+00 -0.75689768604E+02  0.75689768604E+02  0.00000000000E+00 0.  1.
         25    2    1    2    0    0 -0.92631595085E+02 -0.37336959570E+02  0.13532117232E+03  0.20960381661E+03  0.12508908547E+03 0.  0.
          5    1    3    3  502    0 -0.12165452598E+02 -0.35817956378E+02  0.12215524428E+03  0.12794647452E+03  0.41800000000E+01 0. -1.
         -5    1    3    3    0  502 -0.80466142487E+02 -0.15190031918E+01  0.13165928041E+02  0.81657342099E+02  0.41800000000E+01 0. -1.
        -11    1    1    2    0    0  0.34650836093E+02  0.36608609462E+02 -0.87270330842E+01  0.51156933403E+02  0.00000000000E+00 0.  1.
         11    1    1    2    0    0  0.57980758992E+02  0.72835010812E+00  0.89061383137E+02  0.10627430956E+03  0.00000000000E+00 0. -1.
</event>
<event>
 7    1  0.2644565E-009  0.2793831E+03  0.7561462E-02  0.1096026E+00
         -2   -1    0    0    0  501 -0.00000000000E+00  0.00000000000E+00  0.45736868302E+03  0.45736868302E+03  0.00000000000E+00 0.  1.
          2   -1    0    0  501    0  0.00000000000E+00 -0.00000000000E+00 -0.25480300447E+03  0.25480300447E+03  0.00000000000E+00 0. -1.
         25    2    1    2    0    0 -0.22976486830E+03 -0.12492795921E+03 -0.95675801148E+02  0.30528713620E+03  0.12508991529E+03 0.  0.
          5    1    3    3  502    0 -0.17982307467E+03 -0.14257848066E+03 -0.10313347726E+03  0.25163256519E+03  0.41800000000E+01 0. -1.
         -5    1    3    3    0  502 -0.49941793624E+02  0.17650521441E+02  0.74576761108E+01  0.53654571013E+02  0.41800000000E+01 0. -1.
        -11    1    1    2    0    0  0.98534739580E+02  0.55333825171E+01  0.93206943736E+02  0.13574699844E+03  0.00000000000E+00 0.  1.
         11    1    1    2    0    0  0.13123012872E+03  0.11939457670E+03  0.20503453596E+03  0.27113755285E+03  0.00000000000E+00 0. -1.
</event>
<event>
 7    1  0.2644565E-009  0.1542634E+03  0.7561462E-02  0.1195330E+00
          2   -1    0    0  501    0  0.00000000000E+00  0.00000000000E+00  0.20387497189E+04  0.20387497189E+04  0.00000000000E+00 0. -1.
         -2   -1    0    0    0  501 -0.00000000000E+00 -0.00000000000E+00 -0.14242396079E+02  0.14242396079E+02  0.00000000000E+00 0.  1.
         25    2    1    2    0    0 -0.83480893803E+02 -0.97641290975E+02  0.12623438770E+04  0.12750143600E+04  0.12508666190E+03 0.  0.
          5    1    3    3  502    0 -0.96401083242E+02 -0.10038337853E+03  0.77079640686E+03  0.78327170558E+03  0.41800000000E+01 0. -1.
         -5    1    3    3    0  502  0.12920189439E+02  0.27420875568E+01  0.49154747018E+03  0.49174265442E+03  0.41800000000E+01 0. -1.
        -11    1    1    2    0    0  0.13716948041E+02  0.83031566938E+02  0.44722085400E+03  0.45507020120E+03  0.00000000000E+00 0.  1.
         11    1    1    2    0    0  0.69763945762E+02  0.14609724037E+02  0.31494259184E+03  0.32290755382E+03  0.00000000000E+00 0. -1.
</event>
<event>
 7    1  0.2644565E-009  0.1117149E+03  0.7561462E-02  0.1257427E+00
         -3   -1    0    0    0  501 -0.00000000000E+00  0.00000000000E+00  0.93631927953E+03  0.93631927953E+03  0.00000000000E+00 0.  1.
          3   -1    0    0  501    0  0.00000000000E+00 -0.00000000000E+00 -0.26991262739E+02  0.26991262739E+02  0.00000000000E+00 0. -1.
         25    2    1    2    0    0  0.91797900470E+02  0.83897244838E+01  0.27622865868E+03  0.31693454573E+03  0.12509193578E+03 0.  0.
          5    1    3    3  502    0  0.83779476499E+02  0.48106961165E+01  0.28895206788E+03  0.30092011134E+03  0.41800000000E+01 0. -1.
         -5    1    3    3    0  502  0.80184239714E+01  0.35790283673E+01 -0.12723409203E+02  0.16014434388E+02  0.41800000000E+01 0. -1.
        -11    1    1    2    0    0 -0.63616591041E+02 -0.48966982940E+02  0.42252112416E+03  0.43008015118E+03  0.00000000000E+00 0.  1.
         11    1    1    2    0    0 -0.28181309429E+02  0.40577258456E+02  0.21057823395E+03  0.21629584536E+03  0.00000000000E+00 0. -1.
</event>
<event>
 7    1  0.2644565E-009  0.8867627E+02  0.7561462E-02  0.1306089E+00
         -1   -1    0    0    0  501 -0.00000000000E+00  0.00000000000E+00  0.69802345945E+02  0.69802345945E+02  0.00000000000E+00 0.  1.
          1   -1    0    0  501    0  0.00000000000E+00 -0.00000000000E+00 -0.17554438907E+03  0.17554438907E+03  0.00000000000E+00 0. -1.
         25    2    1    2    0    0 -0.12880201418E+02 -0.11723887306E+02 -0.46158642424E+02  0.13448623204E+03  0.12511026024E+03 0.  0.
          5    1    3    3  502    0  0.12517909366E+02 -0.65436869678E+02 -0.24218634518E+02  0.71011947066E+02  0.41800000000E+01 0. -1.
         -5    1    3    3    0  502 -0.25398110784E+02  0.53712982372E+02 -0.21940007905E+02  0.63474284979E+02  0.41800000000E+01 0. -1.
        -11    1    1    2    0    0 -0.11412666465E+02 -0.12363611230E+02  0.18864292586E+02  0.25277843524E+02  0.00000000000E+00 0.  1.
         11    1    1    2    0    0  0.24292867883E+02  0.24087498535E+02 -0.78447693287E+02  0.85582659445E+02  0.00000000000E+00 0. -1.
</event>
<event>
 7    1  0.2644565E-009  0.9868627E+02  0.7561462E-02  0.1283083E+00
         -1   -1    0    0    0  501 -0.00000000000E+00  0.00000000000E+00  0.90056693462E+02  0.90056693462E+02  0.00000000000E+00 0.  1.
          1   -1    0    0  501    0  0.00000000000E+00 -0.00000000000E+00 -0.16067072505E+03  0.16067072505E+03  0.00000000000E+00 0. -1.
         25    2    1    2    0    0  0.29938896268E+02  0.24579430405E+02 -0.72001843237E+02  0.14943940467E+03  0.12508950528E+03 0.  0.
          5    1    3    3  502    0 -0.28514975411E+02 -0.31917612935E+02 -0.36713193143E+01  0.43160037345E+02  0.41800000000E+01 0.  1.
         -5    1    3    3    0  502  0.58453871679E+02  0.56497043340E+02 -0.68330523922E+02  0.10627936733E+03  0.41800000000E+01 0.  1.
        -11    1    1    2    0    0  0.54222031708E+01  0.17315090734E+02 -0.32224402240E+02  0.36981410926E+02  0.00000000000E+00 0. -1.
         11    1    1    2    0    0 -0.35361099439E+02 -0.41894521139E+02  0.33612213890E+02  0.64306602908E+02  0.00000000000E+00 0.  1.
</event>
<event>
 7    1  0.2821677E-009  0.1256662E+03  0.7561462E-02  0.1234032E+00
          1   -1    0    0  501    0  0.00000000000E+00  0.00000000000E+00  0.52029884224E+03  0.52029884224E+03  0.00000000000E+00 0. -1.
         -1   -1    0    0    0  501 -0.00000000000E+00 -0.00000000000E+00 -0.57724627393E+02  0.57724627393E+02  0.00000000000E+00 0.  1.
         25    2    1    2    0    0 -0.66945538346E+02 -0.18530645328E+02  0.53039021403E+02  0.15259965067E+03  0.12509366760E+03 0.  0.
          5    1    3    3  502    0 -0.37193205160E+01 -0.64381386477E+02  0.28478478012E+02  0.70620764508E+02  0.41800000000E+01 0. -1.
         -5    1    3    3    0  502 -0.63226217830E+02  0.45850741149E+02  0.24560543391E+02  0.81978886163E+02  0.41800000000E+01 0. -1.
        -11    1    1    2    0    0 -0.31095408449E+01  0.36129677289E+02  0.21237235597E+03  0.21544614270E+03  0.00000000000E+00 0. -1.
         11    1    1    2    0    0  0.70055079191E+02 -0.17599031960E+02  0.19716283748E+03  0.20997767627E+03  0.00000000000E+00 0.  1.
</event>
<event>
 7    1  0.2644565E-009  0.9040208E+02  0.7561462E-02  0.1301881E+00
          2   -1    0    0  501    0  0.00000000000E+00  0.00000000000E+00  0.39028879354E+03  0.39028879354E+03  0.00000000000E+00 0. -1.
         -2   -1    0    0    0  501 -0.00000000000E+00 -0.00000000000E+00 -0.55870940813E+02  0.55870940813E+02  0.00000000000E+00 0.  1.
         25    2    1    2    0    0 -0.28136433909E+02  0.18131008264E+02  0.32496248333E+03  0.34981393489E+03  0.12509508822E+03 0.  0.
          5    1    3    3  502    0  0.25978161467E+02 -0.74804353276E+01  0.25975778339E+03  0.26119418106E+03  0.41800000000E+01 0.  1.
         -5    1    3    3    0  502 -0.54114595375E+02  0.25611443592E+02  0.65204699946E+02  0.88619753839E+02  0.41800000000E+01 0.  1.
        -11    1    1    2    0    0 -0.25780152271E+02  0.15315155315E+02  0.13252904676E+02  0.32784290686E+02  0.00000000000E+00 0.  1.
         11    1    1    2    0    0  0.53916586180E+02 -0.33446163579E+02 -0.37975352830E+01  0.63561508774E+02  0.00000000000E+00 0. -1.
</event>
<event>
 7    1  0.2644565E-009  0.8882121E+02  0.7561462E-02  0.1305732E+00
          1   -1    0    0  501    0  0.00000000000E+00  0.00000000000E+00  0.38941790228E+02  0.38941790228E+02  0.00000000000E+00 0. -1.
         -1   -1    0    0    0  501 -0.00000000000E+00 -0.00000000000E+00 -0.34791921659E+03  0.34791921659E+03  0.00000000000E+00 0.  1.
         25    2    1    2    0    0 -0.19915320917E+02  0.22653826699E+02 -0.12406780543E+03  0.17874840924E+03  0.12509339547E+03 0.  0.
          5    1    3    3  502    0 -0.33670208022E+02 -0.19829767922E+02  0.72687155760E+01  0.39965100153E+02  0.41800000000E+01 0. -1.
         -5    1    3    3    0  502  0.13754887105E+02  0.42483594621E+02 -0.13133652101E+03  0.13878330909E+03  0.41800000000E+01 0. -1.
        -11    1    1    2    0    0  0.42411025156E+02  0.18751994423E+02 -0.11293326965E+03  0.12208298712E+03  0.00000000000E+00 0. -1.
         11    1    1    2    0    0 -0.22495704239E+02 -0.41405821123E+02 -0.71976351279E+02  0.86029610458E+02  0.00000000000E+00 0.  1.
</event>
<event>
 7    1  0.2644565E-009  0.1154332E+03  0.7561462E-02  0.1250827E+00
          2   -1    0    0  501    0  0.00000000000E+00  0.00000000000E+00  0.16825491901E+03  0.16825491901E+03  0.00000000000E+00 0.  1.
         -2   -1    0    0    0  501 -0.00000000000E+00 -0.00000000000E+00 -0.96548438967E+02  0.96548438967E+02  0.00000000000E+00 0. -1.
         25    2    1    2    0    0 -0.42371766708E+02 -0.40581482775E+02  0.59606429904E+01  0.13829204614E+03  0.12508771883E+03 0.  0.
          5    1    3    3  502    0 -0.76277253240E+02 -0.58571628661E+02 -0.94415944949E+01  0.96723684548E+02  0.41800000000E+01 0. -1.
         -5    1    3    3    0  502  0.33905486532E+02  0.17990145886E+02  0.15402237485E+02  0.41568361593E+02  0.41800000000E+01 0. -1.
        -11    1    1    2    0    0 -0.22257534661E+02  0.12513972629E+02 -0.57032291865E+01  0.26163413067E+02  0.00000000000E+00 0. -1.
         11    1    1    2    0    0  0.64629301369E+02  0.28067510146E+02  0.71449066244E+02  0.10034789877E+03  0.00000000000E+00 0.  1.
</event>
<event>
 7    1  0.2644565E-009  0.6758706E+02  0.7561462E-02  0.1368496E+00
          1   -1    0    0  501    0  0.00000000000E+00  0.00000000000E+00  0.16837633169E+03  0.16837633169E+03  0.00000000000E+00 0. -1.
         -1   -1    0    0    0  501 -0.00000000000E+00 -0.00000000000E+00 -0.10194438152E+03  0.10194438152E+03  0.00000000000E+00 0.  1.
         25    2    1    2    0    0  0.26833810983E+02  0.13318076805E+02 -0.27438207079E+02  0.13152110566E+03  0.12509005334E+03 0.  0.
          5    1    3    3  502    0  0.40111516549E+01  0.36864639245E+02  0.41047307215E+02  0.55474722117E+02  0.41800000000E+01 0. -1.
         -5    1    3    3    0  502  0.22822659328E+02 -0.23546562440E+02 -0.68485514294E+02  0.76046383541E+02  0.41800000000E+01 0. -1.
        -11    1    1    2    0    0  0.17723971662E+02  0.16364934705E+01 -0.13006387867E+02  0.22045031361E+02  0.00000000000E+00 0.  1.
         11    1    1    2    0    0 -0.44557782645E+02 -0.14954570276E+02  0.10687654512E+03  0.11675457619E+03  0.00000000000E+00 0. -1.
</event>
<event>
 7    1  0.2644565E-009  0.8294138E+02  0.7561462E-02  0.1320906E+00
         -1   -1    0    0    0  501 -0.00000000000E+00  0.00000000000E+00  0.46519375373E+03  0.46519375373E+03  0.00000000000E+00 0.  1.
          1   -1    0    0  501    0  0.00000000000E+00 -0.00000000000E+00 -0.41885277508E+02  0.41885277508E+02  0.00000000000E+00 0. -1.
         25    2    1    2    0    0  0.33413785464E+02  0.23123326002E+02  0.37566783838E+03  0.39802647461E+03  0.12509028914E+03 0.  0.
          5    1    3    3  502    0  0.43909855436E+02  0.38315341403E+02  0.67485408235E+02  0.89263057957E+02  0.41800000000E+01 0.  1.
         -5    1    3    3    0  502 -0.10496069972E+02 -0.15192015401E+02  0.30818243014E+03  0.30876341665E+03  0.41800000000E+01 0.  1.
        -11    1    1    2    0    0  0.26018249109E+02 -0.71864643615E+01 -0.57365808353E+01  0.27595342296E+02  0.00000000000E+00 0. -1.
         11    1    1    2    0    0 -0.59432034573E+02 -0.15936861640E+02  0.53377218686E+02  0.81457214334E+02  0.00000000000E+00 0.  1.
</event>
<event>
 7    1  0.2644565E-009  0.1068650E+03  0.7561462E-02  0.1266488E+00
         -2   -1    0    0    0  501 -0.00000000000E+00  0.00000000000E+00  0.33532852534E+02  0.33532852534E+02  0.00000000000E+00 0. -1.
          2   -1    0    0  501    0  0.00000000000E+00 -0.00000000000E+00 -0.39496783042E+03  0.39496783042E+03  0.00000000000E+00 0.  1.
         25    2    1    2    0    0 -0.32908231125E+02  0.36856300817E+00 -0.25047331547E+03  0.28190157962E+03  0.12509408985E+03 0.  0.
          5    1    3    3  502    0 -0.66079087695E+02 -0.39477692388E+02 -0.14088386557E+03  0.16059473841E+03  0.41800000000E+01 0.  1.
         -5    1    3    3    0  502  0.33170856570E+02  0.39846255397E+02 -0.10958944990E+03  0.12130684121E+03  0.41800000000E+01 0.  1.
        -11    1    1    2    0    0  0.16349460198E+02  0.38799768154E+02 -0.20906666626E+02  0.47008675444E+02  0.00000000000E+00 0. -1.
         11    1    1    2    0    0  0.16558770927E+02 -0.39168331162E+02 -0.90054995787E+02  0.99590427888E+02  0.00000000000E+00 0.  1.
</event>
<event>
 7    1  0.2644565E-009  0.2546170E+03  0.7561462E-02  0.1110421E+00
         -2   -1    0    0    0  501 -0.00000000000E+00  0.00000000000E+00  0.46943448984E+02  0.46943448984E+02  0.00000000000E+00 0. -1.
          2   -1    0    0  501    0  0.00000000000E+00 -0.00000000000E+00 -0.13978680393E+04  0.13978680393E+04  0.00000000000E+00 0.  1.
         25    2    1    2    0    0 -0.23130599499E+03  0.14105524797E+02 -0.66254388376E+03  0.71296044780E+03  0.12508706197E+03 0.  0.
          5    1    3    3  502    0 -0.19338389997E+03  0.59714983779E+02 -0.54142053864E+03  0.57802844576E+03  0.41800000000E+01 0.  1.
         -5    1    3    3    0  502 -0.37922095017E+02 -0.45609458982E+02 -0.12112334512E+03  0.13493200204E+03  0.41800000000E+01 0.  1.
        -11    1    1    2    0    0  0.20552728201E+03 -0.41546383800E+02 -0.60663201282E+03  0.64184886432E+03  0.00000000000E+00 0.  1.
         11    1    1    2    0    0  0.25778712976E+02  0.27440859003E+02 -0.81748693699E+02  0.90002176124E+02  0.00000000000E+00 0. -1.
</event>
<event>
 6    1  0.2644565E-009  0.8664438E+02  0.7561462E-02  0.1311187E+00
          2   -1    0    0  501    0  0.00000000000E+00  0.00000000000E+00  0.34993689345E+02  0.34993689345E+02  0.00000000000E+00 0. -1.
         -2   -1    0    0    0  501 -0.00000000000E+00 -0.00000000000E+00 -0.36842528031E+03  0.36842528031E+03  0.00000000000E+00 0.  1.
          5    1    1    2  502    0  0.20386603735E+01 -0.28868813197E+02  0.66905371399E+01  0.29996669795E+02  0.41800000000E+01 0. -1.
         -5    1    1    2    0  502  0.29894764250E+02  0.40065093817E+02 -0.17696460389E+03  0.18393708735E+03  0.41800000000E+01 0. -1.
        -11    1    1    2    0    0 -0.18441482218E+02  0.38339358561E+02 -0.95550801877E+02  0.10459421791E+03  0.00000000000E+00 0.  1.
         11    1    1    2    0    0 -0.13491942405E+02 -0.49535639180E+02 -0.67606722337E+02  0.84890994599E+02  0.00000000000E+00 0. -1.
</event>
<event>
 7    1  0.2644565E-009  0.9918866E+02  0.7561462E-02  0.1282011E+00
         -2   -1    0    0    0  501 -0.00000000000E+00  0.00000000000E+00  0.27641025959E+03  0.27641025959E+03  0.00000000000E+00 0.  1.
          2   -1    0    0  501    0  0.00000000000E+00 -0.00000000000E+00 -0.58651364819E+02  0.58651364819E+02  0.00000000000E+00 0. -1.
         25    2    1    2    0    0  0.22570009226E+02 -0.63768835953E+02  0.12284970432E+03  0.18792514591E+03  0.12509172979E+03 0.  0.
          5    1    3    3  502    0  0.11557777186E+02 -0.91497815259E+02  0.12752841870E+03  0.15743697909E+03  0.41800000000E+01 0.  1.
         -5    1    3    3    0  502  0.11012232040E+02  0.27728979306E+02 -0.46787143796E+01  0.30488166821E+02  0.41800000000E+01 0.  1.
        -11    1    1    2    0    0  0.32651772249E+01  0.42057419779E+02 -0.42448020674E+01  0.42397007977E+02  0.00000000000E+00 0. -1.
         11    1    1    2    0    0 -0.25835186451E+02  0.21711416174E+02  0.99153992524E+02  0.10473947052E+03  0.00000000000E+00 0.  1.
</event>
<event>
 7    1  0.2644565E-009  0.1732565E+03  0.7561462E-02  0.1174494E+00
          2   -1    0    0  501    0  0.00000000000E+00  0.00000000000E+00  0.83342028079E+03  0.83342028079E+03  0.00000000000E+00 0. -1.
         -2   -1    0    0    0  501 -0.00000000000E+00 -0.00000000000E+00 -0.53919773897E+02  0.53919773897E+02  0.00000000000E+00 0.  1.
         25    2    1    2    0    0 -0.17255459368E+03  0.40575734206E+01  0.28509810771E+03  0.35597522776E+03  0.12508349236E+03 0.  0.
          5    1    3    3  502    0 -0.92968348898E+02  0.73792177579E+01  0.46295582905E+02  0.10420326362E+03  0.41800000000E+01 0.  1.
         -5    1    3    3    0  502 -0.79586244782E+02 -0.33216443372E+01  0.23880252480E+03  0.25177196415E+03  0.41800000000E+01 0.  1.
        -11    1    1    2    0    0  0.46174616075E+02 -0.84303997651E+01  0.46958178644E+02  0.66394558146E+02  0.00000000000E+00 0.  1.
         11    1    1    2    0    0  0.12637997761E+03  0.43728263444E+01  0.44744422055E+03  0.46497026878E+03  0.00000000000E+00 0. -1.
</event>
<event>
 7    1  0.2644565E-009  0.1311379E+03  0.7561462E-02  0.1225777E+00
         -1   -1    0    0    0  501 -0.00000000000E+00  0.00000000000E+00  0.93068802845E+02  0.93068802845E+02  0.00000000000E+00 0.  1.
          1   -1    0    0  501    0  0.00000000000E+00 -0.00000000000E+00 -0.28090828771E+03  0.28090828771E+03  0.00000000000E+00 0. -1.
         25    2    1    2    0    0  0.29651268421E+02 -0.99954476089E+02 -0.17506264974E+03  0.23909192189E+03  0.12509164947E+03 0.  0.
          5    1    3    3  502    0 -0.42733553113E+02 -0.63904313420E+02 -0.56413796348E+02  0.95445830992E+02  0.41800000000E+01 0.  1.
         -5    1    3    3    0  502  0.72384821534E+02 -0.36050162669E+02 -0.11864885340E+03  0.14364609089E+03  0.41800000000E+01 0.  1.
        -11    1    1    2    0    0 -0.24109681367E+02  0.85444259741E+02 -0.44689036045E+02  0.99393703025E+02  0.00000000000E+00 0. -1.
         11    1    1    2    0    0 -0.55415870539E+01  0.14510216348E+02  0.31912200926E+02  0.35491465643E+02  0.00000000000E+00 0.  1.
</event>
<event>
 7    1  0.2644565E-009  0.1234131E+03  0.7561462E-02  0.1237570E+00
          2   -1    0    0  501    0  0.00000000000E+00  0.00000000000E+00  0.17449928395E+03  0.17449928395E+03  0.00000000000E+00 0. -1.
         -2   -1    0    0    0  501 -0.00000000000E+00 -0.00000000000E+00 -0.14907775665E+03  0.14907775665E+03  0.00000000000E+00 0.  1.
         25    2    1    2    0    0 -0.49795474749E+01 -0.10686034627E+03 -0.38243995918E+02  0.16897910157E+03  0.12508958407E+03 0.  0.
          5    1    3    3  502    0  0.17206380095E+02 -0.68442127186E+02  0.38304127665E+02  0.80405614766E+02  0.41800000000E+01 0. -1.
         -5    1    3    3    0  502 -0.22185927570E+02 -0.38418219087E+02 -0.76548123583E+02  0.88573486801E+02  0.41800000000E+01 0. -1.
        -11    1    1    2    0    0 -0.86094381601E+01  0.11526889128E+03  0.33311133561E+02  0.12029410352E+03  0.00000000000E+00 0.  1.
         11    1    1    2    0    0  0.13588985635E+02 -0.84085450042E+01  0.30354389659E+02  0.34303835518E+02  0.00000000000E+00 0. -1.
</event>
<event>
 7    1  0.2644565E-009  0.1302437E+03  0.7561462E-02  0.1227095E+00
         -1   -1    0    0    0  501 -0.00000000000E+00  0.00000000000E+00  0.69005104189E+02  0.69005104189E+02  0.00000000000E+00 0.  1.
          1   -1    0    0  501    0  0.00000000000E+00 -0.00000000000E+00 -0.45211266910E+03  0.45211266910E+03  0.00000000000E+00 0. -1.
         25    2    1    2    0    0  0.31254835445E+02  0.67826263069E+02 -0.49786356168E+02  0.15396358180E+03  0.12509530991E+03 0.  0.
          5    1    3    3  502    0  0.59358045785E+02 -0.95924589766E+01 -0.59425219064E+01  0.60565492116E+02  0.41800000000E+01 0. -1.
         -5    1    3    3    0  502 -0.28103210340E+02  0.77418722046E+02 -0.43843834262E+02  0.93398089688E+02  0.41800000000E+01 0. -1.
        -11    1    1    2    0    0 -0.52850113786E+02 -0.71372939619E+01 -0.27543316298E+03  0.28054857469E+03  0.00000000000E+00 0. -1.
         11    1    1    2    0    0  0.21595278340E+02 -0.60688969107E+02 -0.57888045764E+02  0.86605616794E+02  0.00000000000E+00 0.  1.
</event>
<event>
 7    1  0.2644565E-009  0.1158952E+03  0.7561462E-02  0.1250026E+00
         -1   -1    0    0    0  501 -0.00000000000E+00  0.00000000000E+00  0.34301751530E+02  0.34301751530E+02  0.00000000000E+00 0.  1.
          1   -1    0    0  501    0  0.00000000000E+00 -0.00000000000E+00 -0.71489229069E+03  0.71489229069E+03  0.00000000000E+00 0. -1.
         25    2    1    2    0    0  0.20663078531E+02 -0.83546676345E+02 -0.19177012231E+03  0.24460088247E+03  0.12508717740E+03 0.  0.
          5    1    3    3  502    0 -0.21175284359E+02  0.14023120508E+02 -0.43005456129E+00  0.25742919869E+02  0.41800000000E+01 0.  1.
         -5    1    3    3    0  502  0.41838362890E+02 -0.97569796853E+02 -0.19134006775E+03  0.21885796260E+03  0.41800000000E+01 0.  1.
        -11    1    1    2    0    0 -0.35937653939E+02  0.72622849370E+02 -0.47342818696E+03  0.48031223327E+03  0.00000000000E+00 0. -1.
         11    1    1    2    0    0  0.15274575408E+02  0.10923826976E+02 -0.15392229887E+02  0.24280926477E+02  0.00000000000E+00 0.  1.
</event>
<event>
 7    1  0.2644565E-009  0.1831715E+03  0.7561462E-02  0.1164769E+00
         -3   -1    0    0    0  501 -0.00000000000E+00  0.00000000000E+00  0.80128738260E+02  0.80128738260E+02  0.00000000000E+00 0. -1.
          3   -1    0    0  501    0  0.00000000000E+00 -0.00000000000E+00 -0.44620388237E+03  0.44620388237E+03  0.00000000000E+00 0.  1.
         25    2    1    2    0    0  0.52616248288E+02  0.13664765558E+03 -0.12738335584E+03  0.23089950561E+03  0.12508801295E+03 0.  0.
          5    1    3    3  502    0 -0.68662961651E+01  0.13256963373E+03 -0.88187935815E+02  0.15942533749E+03  0.41800000000E+01 0.  1.
         -5    1    3    3    0  502  0.59482544453E+02  0.40780218499E+01 -0.39195420027E+02  0.71474168116E+02  0.41800000000E+01 0.  1.
        -11    1    1    2    0    0  0.24055637049E+02 -0.10736586229E+02 -0.43008545067E+02  0.50434937360E+02  0.00000000000E+00 0.  1.
         11    1    1    2    0    0 -0.76671885338E+02 -0.12591106936E+03 -0.19568324320E+03  0.24499817766E+03  0.00000000000E+00 0. -1.
</event>
<event>
 7    1  0.2644565E-009  0.1220044E+03  0.7561462E-02  0.1239827E+00
         -1   -1    0    0    0  501 -0.00000000000E+00  0.00000000000E+00  0.28350146701E+03  0.28350146701E+03  0.00000000000E+00 0.  1.
          1   -1    0    0  501    0  0.00000000000E+00 -0.00000000000E+00 -0.57894440805E+02  0.57894440805E+02  0.00000000000E+00 0. -1.
         25    2    1    2    0    0 -0.20637169710E+02 -0.54104826657E+02  0.17264925779E+03  0.22092650104E+03  0.12509007797E+03 0.  0.
          5    1    3    3  502    0  0.23213467789E+02  0.31964601638E+02  0.65482767916E+02  0.76590248326E+02  0.41800000000E+01 0. -1.
         -5    1    3    3    0  502 -0.43850637499E+02 -0.86069428296E+02  0.10716648987E+03  0.14433625272E+03  0.41800000000E+01 0. -1.
        -11    1    1    2    0    0  0.44186261281E+02  0.67371101653E+02  0.33966580050E+02  0.87435802645E+02  0.00000000000E+00 0. -1.
         11    1    1    2    0    0 -0.23549091571E+02 -0.13266274995E+02  0.18991188361E+02  0.33033604124E+02  0.00000000000E+00 0.  1.
</event>
<event>
 7    1  0.2644565E-009  0.9799035E+02  0.7561462E-02  0.1284580E+00
          4   -1    0    0  501    0  0.00000000000E+00  0.00000000000E+00  0.36734298985E+02  0.36734298985E+02  0.00000000000E+00 0.  1.
         -4   -1    0    0    0  501 -0.00000000000E+00 -0.00000000000E+00 -0.53932075809E+03  0.53932075809E+03  0.00000000000E+00 0. -1.
         25    2    1    2    0    0  0.68204855667E+02 -0.32814364225E+02 -0.37644663192E+03  0.40384143689E+03  0.12508858713E+03 0.  0.
          5    1    3    3  502    0 -0.21450667072E+02 -0.17995785813E+02 -0.22791683392E+03  0.22966831521E+03  0.41800000000E+01 0.  1.
         -5    1    3    3    0  502  0.89655522739E+02 -0.14818578411E+02 -0.14852979800E+03  0.17417312169E+03  0.41800000000E+01 0.  1.
        -11    1    1    2    0    0 -0.43197736171E+02  0.27280147278E+02 -0.13560362235E+03  0.14490891359E+03  0.00000000000E+00 0. -1.
         11    1    1    2    0    0 -0.25007119496E+02  0.55342169466E+01  0.94637951678E+01  0.27304706585E+02  0.00000000000E+00 0.  1.
</event>
<event>
 7    1  0.2644565E-009  0.1386767E+03  0.7561462E-02  0.1215121E+00
          2   -1    0    0  501    0  0.00000000000E+00  0.00000000000E+00  0.28353889665E+04  0.28353889665E+04  0.00000000000E+00 0. -1.
         -2   -1    0    0    0  501 -0.00000000000E+00 -0.00000000000E+00 -0.20685788077E+02  0.20685788077E+02  0.00000000000E+00 0.  1.
         25    2    1    2    0    0 -0.11920801193E+03 -0.26131670399E+02  0.24927251016E+04  0.24988436760E+04  0.12509144908E+03 0.  0.
          5    1    3    3  502    0 -0.98085049336E+02 -0.28774887727E+02  0.24354482455E+04  0.24375960083E+04  0.41800000000E+01 0. -1.
         -5    1    3    3    0  502 -0.21122962594E+02  0.26432173282E+01  0.57276856099E+02  0.61247667638E+02  0.41800000000E+01 0. -1.
        -11    1    1    2    0    0  0.95913472593E+02 -0.23305691021E+02  0.18356236427E+03  0.20841710831E+03  0.00000000000E+00 0.  1.
         11    1    1    2    0    0  0.23294539337E+02  0.49437361420E+02  0.13841571261E+03  0.14881397033E+03  0.00000000000E+00 0. -1.
</event>
<event>
 7    1  0.2644565E-009  0.1938554E+03  0.7561462E-02  0.1155029E+00
         -1   -1    0    0    0  501 -0.00000000000E+00  0.00000000000E+00  0.39128937056E+03  0.39128937056E+03  0.00000000000E+00 0.  1.
          1   -1    0    0  501    0  0.00000000000E+00 -0.00000000000E+00 -0.12985871048E+03  0.12985871048E+03  0.00000000000E+00 0. -1.
         25    2    1    2    0    0 -0.12901032648E+03  0.14041812686E+03  0.65439933788E+02  0.23725856362E+03  0.12509327076E+03 0.  0.
          5    1    3    3  502    0 -0.49045862751E+02  0.22764457204E+02  0.77323248013E+02  0.94446144697E+02  0.41800000000E+01 0.  1.
         -5    1    3    3    0  502 -0.79964463724E+02  0.11765366966E+03 -0.11883314226E+02  0.14281241893E+03  0.41800000000E+01 0.  1.
        -11    1    1    2    0    0  0.14932271879E+02 -0.10432586483E+02 -0.48476619516E+01  0.18849706380E+02  0.00000000000E+00 0. -1.
         11    1    1    2    0    0  0.11407805460E+03 -0.12998554038E+03  0.20083838824E+03  0.26503981105E+03  0.00000000000E+00 0.  1.
</event>
<event>
 7    1  0.2723561E-009  0.1531609E+03  0.7561462E-02  0.1196642E+00
          2   -1    0    0  501    0  0.00000000000E+00  0.00000000000E+00  0.11818734859E+03  0.11818734859E+03  0.00000000000E+00 0. -1.
         -2   -1    0    0    0  501 -0.00000000000E+00 -0.00000000000E+00 -0.24443709290E+03  0.24443709290E+03  0.00000000000E+00 0.  1.
         25    2    1    2    0    0 -0.32627481294E+02  0.12124757437E+03 -0.29802422113E+02  0.17972487562E+03  0.12508924704E+03 0.  0.
          5    1    3    3  502    0 -0.77673660691E+02  0.99585693024E+02 -0.28556534043E+02  0.12955097783E+03  0.41800000000E+01 0. -1.
         -5    1    3    3    0  502  0.45046179397E+02  0.21661881350E+02 -0.12458880708E+01  0.50173897786E+02  0.41800000000E+01 0. -1.
        -11    1    1    2    0    0  0.33849736731E+02 -0.62827322511E+02 -0.10168827000E+03  0.12423196604E+03  0.00000000000E+00 0.  1.
         11    1    1    2    0    0 -0.12222554370E+01 -0.58420251862E+02  0.52409478014E+01  0.58667599831E+02  0.00000000000E+00 0. -1.
</event>
<event>
 7    1  0.2644565E-009  0.6005682E+02  0.7561462E-02  0.1397593E+00
         -2   -1    0    0    0  501 -0.00000000000E+00  0.00000000000E+00  0.66680117529E+02  0.66680117529E+02  0.00000000000E+00 0.  1.
          2   -1    0    0  501    0  0.00000000000E+00 -0.00000000000E+00 -0.16556269698E+03  0.16556269698E+03  0.00000000000E+00 0. -1.
         25    2    1    2    0    0 -0.26583314389E+02 -0.11771068415E+02 -0.43171975771E+02  0.13548558165E+03  0.12508913896E+03 0.  0.
          5    1    3    3  502    0  0.19717314950E+02 -0.29744279267E+02  0.30097469888E+02  0.46870297115E+02  0.41800000000E+01 0. -1.
         -5    1    3    3    0  502 -0.46300629338E+02  0.17973210852E+02 -0.73269445660E+02  0.88615284532E+02  0.41800000000E+01 0. -1.
        -11    1    1    2    0    0  0.13107876722E+02 -0.38975462223E+01 -0.70198786066E+02  0.71518367318E+02  0.00000000000E+00 0. -1.
         11    1    1    2    0    0  0.13475437667E+02  0.15668614637E+02  0.14488182388E+02  0.25238865542E+02  0.00000000000E+00 0.  1.
</event>
<event>
 6    1  0.2644565E-009  0.1392012E+03  0.7561462E-02  0.1214408E+00
         -2   -1    0    0    0  501 -0.00000000000E+00  0.00000000000E+00  0.14249247744E+03  0.14249247744E+03  0.00000000000E+00 0. -1.
          2   -1    0    0  501    0  0.00000000000E+00 -0.00000000000E+00 -0.15175643473E+03  0.15175643473E+03  0.00000000000E+00 0.  1.
          5    1    1    2  502    0  0.73334570047E+02  0.11836516216E+02  0.39793174750E+01  0.74507514035E+02  0.41800000000E+01 0. -1.
         -5    1    1    2    0  502 -0.32876139300E+02  0.77871072229E+02  0.14860960805E+02  0.85924763493E+02  0.41800000000E+01 0. -1.
        -11    1    1    2    0    0  0.12800579031E+02 -0.53402559716E+02 -0.40429720925E+02  0.68192745522E+02  0.00000000000E+00 0.  1.
         11    1    1    2    0    0 -0.53259009778E+02 -0.36305028729E+02  0.12325485354E+02  0.65623889116E+02  0.00000000000E+00 0. -1.
</event>
<event>
 7    1  0.2644565E-009  0.1177058E+03  0.7561462E-02  0.1246931E+00
         -1   -1    0    0    0  501 -0.00000000000E+00  0.00000000000E+00  0.95306732305E+02  0.95306732305E+02  0.00000000000E+00 0.  1.
          1   -1    0    0  501    0  0.00000000000E+00 -0.00000000000E+00 -0.21723968290E+03  0.21723968290E+03  0.00000000000E+00 0. -1.
         25    2    1    2    0    0  0.80637881266E+02 -0.28121096244E+02 -0.10838553895E+03  0.18624727263E+03  0.12508939827E+03 0.  0.
          5    1    3    3  502    0  0.10791512715E+02 -0.66784294762E+02 -0.29449838801E+02  0.73901043152E+02  0.41800000000E+01 0.  1.
         -5    1    3    3    0  502  0.69846368551E+02  0.38663198518E+02 -0.78935700153E+02  0.11234622948E+03  0.41800000000E+01 0.  1.
        -11    1    1    2    0    0 -0.70524643258E+02  0.16778977999E+02  0.31289169807E+02  0.78957403431E+02  0.00000000000E+00 0.  1.
         11    1    1    2    0    0 -0.10113238008E+02  0.11342118244E+02 -0.44836581446E+02  0.47341739143E+02  0.00000000000E+00 0. -1.
</event>
<event>
 7    1  0.2644565E-009  0.9015021E+02  0.7561462E-02  0.1302488E+00
          1   -1    0    0  501    0  0.00000000000E+00  0.00000000000E+00  0.10316564050E+04  0.10316564050E+04  0.00000000000E+00 0. -1.
         -1   -1    0    0    0  501 -0.00000000000E+00 -0.00000000000E+00 -0.14811967366E+02  0.14811967366E+02  0.00000000000E+00 0.  1.
         25    2    1    2    0    0  0.36740521332E+02 -0.42570938074E+02  0.47879011219E+03  0.49804355098E+03  0.12508099963E+03 0.  0.
          5    1    3    3  502    0  0.17658772481E+02  0.86803431599E+01  0.45265395206E+01  0.20618985497E+02  0.41800000000E+01 0.  1.
         -5    1    3    3    0  502  0.19081748851E+02 -0.51251281234E+02  0.47426357266E+03  0.47742456548E+03  0.41800000000E+01 0.  1.
        -11    1    1    2    0    0 -0.50051916520E+02 -0.10056179485E+02  0.29471428115E+03  0.29910337445E+03  0.00000000000E+00 0. -1.
         11    1    1    2    0    0  0.13311395188E+02  0.52627117560E+02  0.24334004428E+03  0.24932144692E+03  0.00000000000E+00 0.  1.
</event>
<event>
 7    1  0.2644565E-009  0.1430387E+03  0.7561462E-02  0.1209298E+00
          2   -1    0    0  501    0  0.00000000000E+00  0.00000000000E+00  0.17328003852E+04  0.17328003852E+04  0.00000000000E+00 0. -1.
         -2   -1    0    0    0  501 -0.00000000000E+00 -0.00000000000E+00 -0.13040030396E+02  0.13040030396E+02  0.00000000000E+00 0.  1.
         25    2    1    2    0    0 -0.45755813340E+02  0.93568400528E+02  0.97318490441E+03  0.98670374564E+03  0.12508710346E+03 0.  0.
          5    1    3    3  502    0 -0.73234815689E+01 -0.24282995152E+02  0.37039400166E+03  0.37128491230E+03  0.41800000000E+01 0. -1.
         -5    1    3    3    0  502 -0.38432331772E+02  0.11785139568E+03  0.60279090276E+03  0.61541883334E+03  0.41800000000E+01 0. -1.
        -11    1    1    2    0    0  0.34917161938E+02  0.66451412460E+01  0.15393111021E+03  0.15798149509E+03  0.00000000000E+00 0. -1.
         11    1    1    2    0    0  0.10838651403E+02 -0.10021354177E+03  0.59264434014E+03  0.60115517483E+03  0.00000000000E+00 0.  1.
</event>
<event>
 7    1  0.2644565E-009  0.9242526E+02  0.7561462E-02  0.1297083E+00
          3   -1    0    0  501    0  0.00000000000E+00  0.00000000000E+00  0.16361972980E+03  0.16361972980E+03  0.00000000000E+00 0. -1.
         -3   -1    0    0    0  501 -0.00000000000E+00 -0.00000000000E+00 -0.99961363892E+02  0.99961363892E+02  0.00000000000E+00 0.  1.
         25    2    1    2    0    0  0.59052457595E+02  0.32771570394E+02  0.41626565547E+02  0.14812606752E+03  0.12508953732E+03 0.  0.
          5    1    3    3  502    0  0.33426977780E+02  0.58736271352E+01 -0.43394466245E+02  0.55248660074E+02  0.41800000000E+01 0.  1.
         -5    1    3    3    0  502  0.25625479815E+02  0.26897943259E+02  0.85021031792E+02  0.92877407448E+02  0.41800000000E+01 0.  1.
        -11    1    1    2    0    0 -0.17306894824E+02 -0.60650267121E+02  0.10348021957E+02  0.63914513756E+02  0.00000000000E+00 0.  1.
         11    1    1    2    0    0 -0.41745562771E+02  0.27878696726E+02  0.11683778406E+02  0.51540512416E+02  0.00000000000E+00 0. -1.
</event>
<event>
 7    1  0.2644565E-009  0.9204450E+02  0.7561462E-02  0.1297975E+00
          1   -1    0    0  501    0  0.00000000000E+00  0.00000000000E+00  0.42520138675E+03  0.42520138675E+03  0.00000000000E+00 0. -1.
         -1   -1    0    0    0  501 -0.00000000000E+00 -0.00000000000E+00 -0.36402315365E+02  0.36402315365E+02  0.00000000000E+00 0.  1.
         25    2    1    2    0    0  0.65586676762E+00  0.47396736877E+02  0.14550907275E+03  0.19765178345E+03  0.12508579625E+03 0.  0.
          5    1    3    3  502    0  0.10656584288E+02  0.62304014796E+02  0.14023332064E+02  0.64880500080E+02  0.41800000000E+01 0. -1.
         -5    1    3    3    0  502 -0.10000717521E+02 -0.14907277920E+02  0.13148574068E+03  0.13277128337E+03  0.41800000000E+01 0. -1.
        -11    1    1    2    0    0 -0.43192079772E+02 -0.72032236606E+01  0.99533339386E+02  0.10873972520E+03  0.00000000000E+00 0.  1.
         11    1    1    2    0    0  0.42536213004E+02 -0.40193513216E+02  0.14375665925E+03  0.15521219347E+03  0.00000000000E+00 0. -1.
</event>
<event>
 7    1  0.2644565E-009  0.1257641E+03  0.7561462E-02  0.1233880E+00
          2   -1    0    0  501    0  0.00000000000E+00  0.00000000000E+00  0.37066922546E+03  0.37066922546E+03  0.00000000000E+00 0. -1.
         -2   -1    0    0    0  501 -0.00000000000E+00 -0.00000000000E+00 -0.61657071685E+02  0.61657071685E+02  0.00000000000E+00 0.  1.
         25    2    1    2    0    0 -0.76527820146E+02 -0.29594613970E+02  0.26395408098E+03  0.30340004532E+03  0.12508989649E+03 0.  0.
          5    1    3    3  502    0  0.33197279645E+02 -0.88923582339E+01  0.38513429691E+02  0.51786968219E+02  0.41800000000E+01 0. -1.
         -5    1    3    3    0  502 -0.10972509979E+03 -0.20702255736E+02  0.22544065129E+03  0.25161307710E+03  0.41800000000E+01 0. -1.
        -11    1    1    2    0    0  0.57952817911E+01 -0.18662705637E+02 -0.14747599780E+02  0.24482107180E+02  0.00000000000E+00 0.  1.
         11    1    1    2    0    0  0.70732538355E+02  0.48257319607E+02  0.59805672581E+02  0.10444414465E+03  0.00000000000E+00 0. -1.
</event>
<event>
 7    1  0.2644565E-009  0.1302484E+03  0.7561462E-02  0.1227088E+00
         -3   -1    0    0    0  501 -0.00000000000E+00  0.00000000000E+00  0.33735392912E+03  0.33735392912E+03  0.00000000000E+00 0.  1.
          3   -1    0    0  501    0  0.00000000000E+00 -0.00000000000E+00 -0.74669669042E+02  0.74669669042E+02  0.00000000000E+00 0. -1.
         25    2    1    2    0    0  0.19772562398E+02 -0.91010406143E+02  0.20379033502E+03  0.25661862693E+03  0.12509504703E+03 0.  0.
          5    1    3    3  502    0  0.47367426962E+02 -0.50279405177E+02  0.29080389267E+02  0.75065525788E+02  0.41800000000E+01 0. -1.
         -5    1    3    3    0  502 -0.27594864564E+02 -0.40731000967E+02  0.17470994575E+03  0.18155310114E+03  0.41800000000E+01 0. -1.
        -11    1    1    2    0    0 -0.64302011955E+02  0.56102846419E+02  0.22935937306E+02  0.88364785622E+02  0.00000000000E+00 0.  1.
         11    1    1    2    0    0  0.44529449557E+02  0.34907559724E+02  0.35957987760E+02  0.67040185616E+02  0.00000000000E+00 0. -1.
</event>
<event>
 7    1  0.2644565E-009  0.1202242E+03  0.7561462E-02  0.1242728E+00
          1   -1    0    0  501    0  0.00000000000E+00  0.00000000000E+00  0.15290247450E+03  0.15290247450E+03  0.00000000000E+00 0. -1.
         -1   -1    0    0    0  501 -0.00000000000E+00 -0.00000000000E+00 -0.13983192074E+03  0.13983192074E+03  0.00000000000E+00 0.  1.
         25    2    1    2    0    0 -0.26197784636E+02  0.95147789993E+02  0.93874644467E+01  0.15963002410E+03  0.12511672249E+03 0.  0.
          5    1    3    3  502    0 -0.34200651386E+01 -0.46297908422E+01 -0.43689792164E+02  0.44265134679E+02  0.41800000000E+01 0. -1.
         -5    1    3    3    0  502 -0.22777719498E+02  0.99777580835E+02  0.53077256611E+02  0.11536488943E+03  0.41800000000E+01 0. -1.
        -11    1    1    2    0    0 -0.31556463637E+02 -0.40993764384E+02 -0.10187440817E+02  0.52726493018E+02  0.00000000000E+00 0.  1.
         11    1    1    2    0    0  0.57754248273E+02 -0.54154025609E+02  0.13870530129E+02  0.80377878109E+02  0.00000000000E+00 0. -1.
</event>
<event>
 7    1  0.2644565E-009  0.1250661E+03  0.7561462E-02  0.1234966E+00
          1   -1    0    0  501    0  0.00000000000E+00  0.00000000000E+00  0.95359643234E+03  0.95359643234E+03  0.00000000000E+00 0. -1.
         -1   -1    0    0    0  501 -0.00000000000E+00 -0.00000000000E+00 -0.21111482143E+02  0.21111482143E+02  0.00000000000E+00 0.  1.
         25    2    1    2    0    0 -0.36189686014E+02  0.84516873090E+02  0.51067344339E+03  0.53374765614E+03  0.12508556846E+03 0.  0.
          5    1    3    3  502    0 -0.60730069669E+02  0.70073395450E+02  0.18672910161E+03  0.20852734089E+03  0.41800000000E+01 0. -1.
         -5    1    3    3    0  502  0.24540383655E+02  0.14443477640E+02  0.32394434178E+03  0.32522031525E+03  0.41800000000E+01 0. -1.
        -11    1    1    2    0    0  0.60029976433E+02 -0.26143578355E+02  0.21667519877E+03  0.22635199695E+03  0.00000000000E+00 0. -1.
         11    1    1    2    0    0 -0.23840290420E+02 -0.58373294735E+02  0.20513630804E+03  0.21460826140E+03  0.00000000000E+00 0.  1.
</event>
<event>
 7    1  0.2644565E-009  0.1436707E+03  0.7561462E-02  0.1208473E+00
          1   -1    0    0  501    0  0.00000000000E+00  0.00000000000E+00  0.59204938216E+03  0.59204938216E+03  0.00000000000E+00 0.  1.
         -1   -1    0    0    0  501 -0.00000000000E+00 -0.00000000000E+00 -0.66039304579E+02  0.66039304579E+02  0.00000000000E+00 0. -1.
         25    2    1    2    0    0  0.30712554381E+02 -0.13290578680E+03  0.12127995445E+03  0.22127729355E+03  0.12509038382E+03 0.  0.
          5    1    3    3  502    0  0.13781858875E+02 -0.12860811994E+03  0.36281121165E+02  0.13440156362E+03  0.41800000000E+01 0.  1.
         -5    1    3    3    0  502  0.16930695506E+02 -0.42976668565E+01  0.84998833286E+02  0.86875729929E+02  0.41800000000E+01 0.  1.
        -11    1    1    2    0    0 -0.36061346073E+02  0.93702251001E+02  0.37245586417E+03  0.38575108979E+03  0.00000000000E+00 0.  1.
         11    1    1    2    0    0  0.53487916922E+01  0.39203535799E+02  0.32274258958E+02  0.51060303397E+02  0.00000000000E+00 0. -1.
</event>
<event>
 7    1  0.2644565E-009  0.1408422E+03  0.7561462E-02  0.1212200E+00
          2   -1    0    0  501    0  0.00000000000E+00  0.00000000000E+00  0.76004678299E+02  0.76004678299E+02  0.00000000000E+00 0. -1.
         -2   -1    0    0    0  501 -0.00000000000E+00 -0.00000000000E+00 -0.39028605798E+03  0.39028605798E+03  0.00000000000E+00 0.  1.
         25    2    1    2    0    0 -0.75641799413E+02  0.97057890031E+02 -0.95999552317E+02  0.20001210817E+03  0.12508802314E+03 0.  0.
          5    1    3    3  502    0 -0.56896132975E+02  0.96697541284E+02 -0.12321878835E+03  0.16669711047E+03  0.41800000000E+01 0.  1.
         -5    1    3    3    0  502 -0.18745666439E+02  0.36034874769E+00  0.27219236029E+02  0.33314997695E+02  0.41800000000E+01 0.  1.
        -11    1    1    2    0    0  0.57522606054E+02 -0.65447455816E+01 -0.10732911758E+03  0.12194762557E+03  0.00000000000E+00 0. -1.
         11    1    1    2    0    0  0.18119193359E+02 -0.90513144450E+02 -0.11095270978E+03  0.14433100254E+03  0.00000000000E+00 0.  1.
</event>
<event>
 7    1  0.2644565E-009  0.1405600E+03  0.7561462E-02  0.1212577E+00
         -1   -1    0    0    0  501 -0.00000000000E+00  0.00000000000E+00  0.17842830469E+02  0.17842830469E+02  0.00000000000E+00 0.  1.
          1   -1    0    0  501    0  0.00000000000E+00 -0.00000000000E+00 -0.12836619637E+04  0.12836619637E+04  0.00000000000E+00 0. -1.
         25    2    1    2    0    0  0.72712770580E+02 -0.76650314820E+02 -0.82081659146E+03  0.83698835363E+03  0.12508880660E+03 0.  0.
          5    1    3    3  502    0 -0.28239090033E+02 -0.33506429118E+02 -0.38621474060E+03  0.38871509523E+03  0.41800000000E+01 0. -1.
         -5    1    3    3    0  502  0.10095186061E+03 -0.43143885702E+02 -0.43460185086E+03  0.44827325841E+03  0.41800000000E+01 0. -1.
        -11    1    1    2    0    0 -0.43969215655E+02  0.86351266843E+02 -0.26905476432E+03  0.28597255010E+03  0.00000000000E+00 0.  1.
         11    1    1    2    0    0 -0.28743554925E+02 -0.97009520233E+01 -0.17594777748E+03  0.17854389046E+03  0.00000000000E+00 0. -1.
</event>
<event>
 7    1  0.2644565E-009  0.1153339E+03  0.7561462E-02  0.1250999E+00
          2   -1    0    0  501    0  0.00000000000E+00  0.00000000000E+00  0.47600765268E+02  0.47600765268E+02  0.00000000000E+00 0.  1.
         -2   -1    0    0    0  501 -0.00000000000E+00 -0.00000000000E+00 -0.51141047313E+03  0.51141047313E+03  0.00000000000E+00 0. -1.
         25    2    1    2    0    0  0.93382656882E+02 -0.12597133391E+01 -0.14027566010E+03  0.20986018865E+03  0.12506850315E+03 0.  0.
          5    1    3    3  502    0  0.95155868137E+02 -0.18855130229E+01 -0.16184910425E+03  0.18780521651E+03  0.41800000000E+01 0. -1.
         -5    1    3    3    0  502 -0.17732112551E+01  0.62579968387E+00  0.21573444156E+02  0.22054972141E+02  0.41800000000E+01 0. -1.
        -11    1    1    2    0    0  0.17132975224E+02 -0.98211064919E+01 -0.60033303678E+02  0.63198026261E+02  0.00000000000E+00 0.  1.
         11    1    1    2    0    0 -0.11051563211E+03  0.11080819831E+02 -0.26350074409E+03  0.28595302349E+03  0.00000000000E+00 0. -1.
</event>
<event>
 7    1  0.2644565E-009  0.9299116E+02  0.7561462E-02  0.1295766E+00
         -2   -1    0    0    0  501 -0.00000000000E+00  0.00000000000E+00  0.21485018367E+02  0.21485018367E+02  0.00000000000E+00 0.  1.
          2   -1    0    0  501    0  0.00000000000E+00 -0.00000000000E+00 -0.81450276191E+03  0.81450276191E+03  0.00000000000E+00 0. -1.
         25    2    1    2    0    0  0.11835190107E+02  0.17268253071E+02 -0.69924245267E+03  0.71065146737E+03  0.12508891306E+03 0.  0.
          5    1    3    3  502    0 -0.13063681300E+02  0.68302360642E+02 -0.36360006094E+03  0.37021392323E+03  0.41800000000E+01 0. -1.
         -5    1    3    3    0  502  0.24898871408E+02 -0.51034107571E+02 -0.33564239173E+03  0.34043754414E+03  0.41800000000E+01 0. -1.
        -11    1    1    2    0    0  0.22105958910E+02 -0.11609306204E+02  0.50385897566E+00  0.24974052209E+02  0.00000000000E+00 0.  1.
         11    1    1    2    0    0 -0.33941149018E+02 -0.56589468678E+01 -0.94279149844E+02  0.10036226069E+03  0.00000000000E+00 0. -1.
</event>
<event>
 7    1  0.2644565E-009  0.6646318E+02  0.7561462E-02  0.1372551E+00
          1   -1    0    0  501    0  0.00000000000E+00  0.00000000000E+00  0.29294210018E+02  0.29294210018E+02  0.00000000000E+00 0. -1.
         -1   -1    0    0    0  501 -0.00000000000E+00 -0.00000000000E+00 -0.68868897557E+03  0.68868897557E+03  0.00000000000E+00 0.  1.
         25    2    1    2    0    0 -0.51403659077E+02 -0.12091507952E+02 -0.59293636653E+03  0.60828381298E+03  0.12508845529E+03 0.  0.
          5    1    3    3  502    0 -0.56262638742E+02  0.69965610341E+01 -0.58311696330E+03  0.58588164476E+03  0.41800000000E+01 0.  1.
         -5    1    3    3    0  502  0.48589796654E+01 -0.19088068986E+02 -0.98194032346E+01  0.22402168218E+02  0.41800000000E+01 0.  1.
        -11    1    1    2    0    0  0.93761929619E+01  0.10223579826E+02 -0.66191572046E+02  0.67629570373E+02  0.00000000000E+00 0.  1.
         11    1    1    2    0    0  0.42027466115E+02  0.18679281262E+01 -0.26682697478E+00  0.42069802236E+02  0.00000000000E+00 0. -1.
</event>
<event>
 7    1  0.2644565E-009  0.1510881E+03  0.7561462E-02  0.1199142E+00
          2   -1    0    0  501    0  0.00000000000E+00  0.00000000000E+00  0.72195831556E+03  0.72195831556E+03  0.00000000000E+00 0. -1.
         -2   -1    0    0    0  501 -0.00000000000E+00 -0.00000000000E+00 -0.39697594796E+02  0.39697594796E+02  0.00000000000E+00 0.  1.
         25    2    1    2    0    0 -0.70613291275E+02 -0.10357812663E+03  0.28630594365E+03  0.33665019267E+03  0.12509034191E+03 0.  0.
          5    1    3    3  502    0 -0.20340970220E+02  0.14732607256E+02  0.31535465132E+01  0.25655838354E+02  0.41800000000E+01 0.  1.
         -5    1    3    3    0  502 -0.50272321055E+02 -0.11831073388E+03  0.28315239713E+03  0.31099435432E+03  0.41800000000E+01 0.  1.
        -11    1    1    2    0    0 -0.74990671541E+00  0.68635567203E+02  0.12458504475E+03  0.14224217666E+03  0.00000000000E+00 0.  1.
         11    1    1    2    0    0  0.71363197991E+02  0.34942559423E+02  0.27136973237E+03  0.28276354103E+03  0.00000000000E+00 0. -1.
</event>
<event>
 7    1  0.2644565E-009  0.1815886E+03  0.7561462E-02  0.1166274E+00
         -2   -1    0    0    0  501 -0.00000000000E+00  0.00000000000E+00  0.17263435758E+03  0.17263435758E+03  0.00000000000E+00 0. -1.
          2   -1    0    0  501    0  0.00000000000E+00 -0.00000000000E+00 -0.22993420855E+03  0.22993420855E+03  0.00000000000E+00 0.  1.
         25    2    1    2    0    0  0.42991503086E+02 -0.14246680393E+03  0.45582320831E+02  0.19967606351E+03  0.12509085821E+03 0.  0.
          5    1    3    3  502    0  0.54072601358E+02 -0.93913357940E+01 -0.82137079911E+01  0.55650523848E+02  0.41800000000E+01 0.  1.
         -5    1    3    3    0  502 -0.11081098272E+02 -0.13307546813E+03  0.53796028822E+02  0.14402553966E+03  0.41800000000E+01 0.  1.
        -11    1    1    2    0    0  0.21716219761E+02  0.85852079684E+02 -0.58506490489E+02  0.10613756741E+03  0.00000000000E+00 0.  1.
         11    1    1    2    0    0 -0.64707722847E+02  0.56614724242E+02 -0.44375681310E+02  0.96754935216E+02  0.00000000000E+00 0. -1.
</event>
<event>
 7    1  0.2644565E-009  0.1595983E+03  0.7561462E-02  0.1189151E+00
          2   -1    0    0  501    0  0.00000000000E+00  0.00000000000E+00  0.25657226433E+03  0.25657226433E+03  0.00000000000E+00 0. -1.
         -2   -1    0    0    0  501 -0.00000000000E+00 -0.00000000000E+00 -0.12985406161E+03  0.12985406161E+03  0.00000000000E+00 0.  1.
         25    2    1    2    0    0  0.13111979430E+03  0.53057459337E+02  0.10570647323E+03  0.21639834980E+03  0.12508754080E+03 0.  0.
          5    1    3    3  502    0  0.76302227177E+02  0.65806631078E+02  0.12139877807E+03  0.15782166608E+03  0.41800000000E+01 0. -1.
         -5    1    3    3    0  502  0.54817567122E+02 -0.12749171741E+02 -0.15692304835E+02  0.58576683726E+02  0.41800000000E+01 0. -1.
        -11    1    1    2    0    0  0.10922383556E+02 -0.33144494036E+01 -0.11339999061E+02  0.16089736359E+02  0.00000000000E+00 0.  1.
         11    1    1    2    0    0 -0.14204217786E+03 -0.49743009934E+02  0.32351728540E+02  0.15393823978E+03  0.00000000000E+00 0. -1.
</event>
<event>
 7    1  0.2644565E-009  0.1362647E+03  0.7561462E-02  0.1218445E+00
         -2   -1    0    0    0  501 -0.00000000000E+00  0.00000000000E+00  0.11932128495E+03  0.11932128495E+03  0.00000000000E+00 0.  1.
          2   -1    0    0  501    0  0.00000000000E+00 -0.00000000000E+00 -0.17025399208E+03  0.17025399208E+03  0.00000000000E+00 0. -1.
         25    2    1    2    0    0 -0.15651273993E+02 -0.89276947908E+02 -0.93708592292E+01  0.15475922042E+03  0.12508903828E+03 0.  0.
          5    1    3    3  502    0  0.40680059750E+02  0.64601130739E+01  0.82418329163E+01  0.42213748140E+02  0.41800000000E+01 0.  1.
         -5    1    3    3    0  502 -0.56331333743E+02 -0.95737060982E+02 -0.17612692145E+02  0.11254547228E+03  0.41800000000E+01 0.  1.
        -11    1    1    2    0    0 -0.35071714423E+01 -0.14254706794E+02 -0.23910666916E+02  0.28057386009E+02  0.00000000000E+00 0. -1.
         11    1    1    2    0    0  0.19158445435E+02  0.10353165470E+03 -0.17651180985E+02  0.10675867059E+03  0.00000000000E+00 0.  1.
</event>
<event>
 7    1  0.2644565E-009  0.1430379E+03  0.7561462E-02  0.1209299E+00
          1   -1    0    0  501    0  0.00000000000E+00  0.00000000000E+00  0.83151985549E+02  0.83151985549E+02  0.00000000000E+00 0. -1.
         -1   -1    0    0    0  501 -0.00000000000E+00 -0.00000000000E+00 -0.35639417197E+03  0.35639417197E+03  0.00000000000E+00 0.  1.
         25    2    1    2    0    0  0.12475384120E+03 -0.48234045609E+02 -0.14956207442E+03  0.23644546923E+03  0.12509037440E+03 0.  0.
          5    1    3    3  502    0  0.10600129546E+03 -0.16493733511E+02 -0.16451294691E+03  0.19644413961E+03  0.41800000000E+01 0. -1.
         -5    1    3    3    0  502  0.18752545740E+02 -0.31740312098E+02  0.14950872491E+02  0.40001329629E+02  0.41800000000E+01 0. -1.
        -11    1    1    2    0    0 -0.89744755137E+02  0.10850243061E+02 -0.28103472604E+02  0.94666013022E+02  0.00000000000E+00 0. -1.
         11    1    1    2    0    0 -0.35009086067E+02  0.37383802548E+02 -0.95576639400E+02  0.10843467526E+03  0.00000000000E+00 0.  1.
</event>
<event>
 7    1  0.2644565E-009  0.1960599E+03  0.7561462E-02  0.1153106E+00
          2   -1    0    0  501    0  0.00000000000E+00  0.00000000000E+00  0.10722149348E+04  0.10722149348E+04  0.00000000000E+00 0. -1.
         -2   -1    0    0    0  501 -0.00000000000E+00 -0.00000000000E+00 -0.42756257012E+02  0.42756257012E+02  0.00000000000E+00 0.  1.
         25    2    1    2    0    0 -0.17820306307E+03 -0.18627390457E+02  0.64711772928E+03  0.68301715159E+03  0.12509101668E+03 0.  0.
          5    1    3    3  502    0 -0.89632659426E+02 -0.66165688706E+02  0.42129168219E+03  0.43579360468E+03  0.41800000000E+01 0.  1.
         -5    1    3    3    0  502 -0.88570403642E+02  0.47538298249E+02  0.22582604710E+03  0.24722354692E+03  0.41800000000E+01 0.  1.
        -11    1    1    2    0    0  0.62906256899E+02  0.15002148985E+02  0.55044059952E+02  0.84924143607E+02  0.00000000000E+00 0.  1.
         11    1    1    2    0    0  0.11529680617E+03  0.36252414713E+01  0.32729688855E+03  0.34702989661E+03  0.00000000000E+00 0. -1.
</event>
<event>
 7    1  0.2644565E-009  0.7300607E+02  0.7561462E-02  0.1350159E+00
          1   -1    0    0  501    0  0.00000000000E+00  0.00000000000E+00  0.16447445156E+03  0.16447445156E+03  0.00000000000E+00 0. -1.
         -1   -1    0    0    0  501 -0.00000000000E+00 -0.00000000000E+00 -0.77368847409E+02  0.77368847409E+02  0.00000000000E+00 0.  1.
         25    2    1    2    0    0  0.10422257481E+02 -0.19290236155E+02  0.66511827845E+02  0.14336035886E+03  0.12509049759E+03 0.  0.
          5    1    3    3  502    0 -0.21904529726E+01  0.14376937185E+02  0.95684130150E+02  0.96873213891E+02  0.41800000000E+01 0. -1.
         -5    1    3    3    0  502  0.12612710454E+02 -0.33667173340E+02 -0.29172302304E+02  0.46487144970E+02  0.41800000000E+01 0. -1.
        -11    1    1    2    0    0  0.33330121160E+02 -0.17388417023E+02  0.17053415913E+02  0.41280419298E+02  0.00000000000E+00 0.  1.
         11    1    1    2    0    0 -0.43752378642E+02  0.36678653178E+02  0.35403603983E+01  0.57202520814E+02  0.00000000000E+00 0. -1.
</event>
<event>
 6    1  0.2644565E-009  0.9853475E+02  0.7561462E-02  0.1283408E+00
         -1   -1    0    0    0  501 -0.00000000000E+00  0.00000000000E+00  0.13853334462E+02  0.13853334462E+02  0.00000000000E+00 0.  1.
          1   -1    0    0  501    0  0.00000000000E+00 -0.00000000000E+00 -0.85987602359E+03  0.85987602359E+03  0.00000000000E+00 0. -1.
          5    1    1    2  502    0  0.42977970270E+02 -0.10213584692E+02 -0.35082723626E+03  0.35362217880E+03  0.41800000000E+01 0. -1.
         -5    1    1    2    0  502 -0.61931324836E+02 -0.71550478635E+00 -0.13650697983E+03  0.14995875728E+03  0.41800000000E+01 0. -1.
        -11    1    1    2    0    0  0.37867856534E+02  0.40546122331E+02 -0.19553438882E+03  0.20325269938E+03  0.00000000000E+00 0.  1.
         11    1    1    2    0    0 -0.18914501967E+02 -0.29617032853E+02 -0.16315408422E+03  0.16689572259E+03  0.00000000000E+00 0. -1.
</event>
<event>
 7    1  0.2644565E-009  0.1207556E+03  0.7561462E-02  0.1241856E+00
          1   -1    0    0  501    0  0.00000000000E+00  0.00000000000E+00  0.54853226505E+03  0.54853226505E+03  0.00000000000E+00 0. -1.
         -1   -1    0    0    0  501 -0.00000000000E+00 -0.00000000000E+00 -0.44039771426E+02  0.44039771426E+02  0.00000000000E+00 0.  1.
         25    2    1    2    0    0 -0.50291565268E+02  0.56340932703E+02  0.11965861908E+03  0.18886200563E+03  0.12508848794E+03 0.  0.
          5    1    3    3  502    0  0.32191012737E+02  0.17457796980E+02 -0.18269073304E+01  0.36903197244E+02  0.41800000000E+01 0.  1.
         -5    1    3    3    0  502 -0.82482578006E+02  0.38883135723E+02  0.12148552641E+03  0.15195880839E+03  0.41800000000E+01 0.  1.
        -11    1    1    2    0    0  0.38095026063E+02  0.15038168026E+02  0.21837470142E+03  0.22218210488E+03  0.00000000000E+00 0. -1.
         11    1    1    2    0    0  0.12196539205E+02 -0.71379100730E+02  0.16645917312E+03  0.18152792597E+03  0.00000000000E+00 0.  1.
</event>
<event>
 7    1  0.2644565E-009  0.1949069E+03  0.7561462E-02  0.1154109E+00
          2   -1    0    0  501    0  0.00000000000E+00  0.00000000000E+00  0.59597531616E+03  0.59597531616E+03  0.00000000000E+00 0. -1.
         -2   -1    0    0    0  501 -0.00000000000E+00 -0.00000000000E+00 -0.80309427972E+02  0.80309427972E+02  0.00000000000E+00 0.  1.
         25    2    1    2    0    0 -0.18713823702E+03 -0.20973941393E+02  0.29408277044E+03  0.37093218836E+03  0.12508151949E+03 0.  0.
          5    1    3    3  502    0 -0.61557574481E+02 -0.20173384423E+02  0.20984424896E+03  0.21965514253E+03  0.41800000000E+01 0.  1.
         -5    1    3    3    0  502 -0.12558066254E+03 -0.80055697056E+00  0.84238521478E+02  0.15127704583E+03  0.41800000000E+01 0.  1.
        -11    1    1    2    0    0  0.33290726390E+01 -0.12044652917E+02 -0.34091126261E+01  0.12952931615E+02  0.00000000000E+00 0.  1.
         11    1    1    2    0    0  0.18380916438E+03  0.33018594310E+02  0.22499223037E+03  0.29239962416E+03  0.00000000000E+00 0. -1.
</event>
<event>
 7    1  0.2644565E-009  0.6461620E+02  0.7561462E-02  0.1379421E+00
          2   -1    0    0  501    0  0.00000000000E+00  0.00000000000E+00  0.10974338927E+04  0.10974338927E+04  0.00000000000E+00 0. -1.
         -2   -1    0    0    0  501 -0.00000000000E+00 -0.00000000000E+00 -0.17659092131E+02  0.17659092131E+02  0.00000000000E+00 0.  1.
         25    2    1    2    0    0  0.32053703142E+02  0.11749899676E+02  0.90918547776E+03  0.91838576106E+03  0.12509465671E+03 0.  0.
          5    1    3    3  502    0 -0.19265973400E+02  0.53475449097E+01  0.76285832815E+03  0.76313175481E+03  0.41800000000E+01 0.  1.
         -5    1    3    3    0  502  0.51319676543E+02  0.64023547661E+01  0.14632714960E+03  0.15525400625E+03  0.41800000000E+01 0.  1.
        -11    1    1    2    0    0  0.85998079315E+01 -0.13748993489E+02 -0.45959280618E+01  0.16855683705E+02  0.00000000000E+00 0.  1.
         11    1    1    2    0    0 -0.40653511074E+02  0.19990938127E+01  0.17518525087E+03  0.17985154005E+03  0.00000000000E+00 0. -1.
</event>
<event>
 7    1  0.2644565E-009  0.1220303E+03  0.7561462E-02  0.1239785E+00
         -2   -1    0    0    0  501 -0.00000000000E+00  0.00000000000E+00  0.36463435820E+02  0.36463435820E+02  0.00000000000E+00 0.  1.
          2   -1    0    0  501    0  0.00000000000E+00 -0.00000000000E+00 -0.50025130305E+03  0.50025130305E+03  0.00000000000E+00 0. -1.
         25    2    1    2    0    0 -0.33539039254E+02  0.45529170224E+02 -0.24934014876E+03  0.28463251437E+03  0.12508951178E+03 0.  0.
          5    1    3    3  502    0  0.31473763419E+02  0.45416701470E+02 -0.49017767853E+02  0.73983028604E+02  0.41800000000E+01 0. -1.
         -5    1    3    3    0  502 -0.65012802673E+02  0.11246875454E+00 -0.20032238091E+03  0.21064948576E+03  0.41800000000E+01 0. -1.
        -11    1    1    2    0    0 -0.22171339024E+02 -0.61639787019E+02 -0.67289267272E+02  0.93908876620E+02  0.00000000000E+00 0.  1.
         11    1    1    2    0    0  0.55710378278E+02  0.16110616795E+02 -0.14715845120E+03  0.15817334788E+03  0.00000000000E+00 0. -1.
</event>
<event>
 7    1  0.2644565E-009  0.1509253E+03  0.7561462E-02  0.1199341E+00
         -2   -1    0    0    0  501 -0.00000000000E+00  0.00000000000E+00  0.23108061533E+03  0.23108061533E+03  0.00000000000E+00 0.  1.
          2   -1    0    0  501    0  0.00000000000E+00 -0.00000000000E+00 -0.13260366260E+03  0.13260366260E+03  0.00000000000E+00 0. -1.
         25    2    1    2    0    0  0.10562528440E+03  0.62765192061E+02 -0.10428709634E+02  0.17565178807E+03  0.12509445483E+03 0.  0.
          5    1    3    3  502    0  0.38978529619E+02 -0.29736778927E+02  0.26307815154E+02  0.55795836139E+02  0.41800000000E+01 0. -1.
         -5    1    3    3    0  502  0.66646754780E+02  0.92501970988E+02 -0.36736524789E+02  0.11985595193E+03  0.41800000000E+01 0. -1.
        -11    1    1    2    0    0 -0.44866161620E+02  0.76933403418E+01  0.77420354109E+02  0.89811308723E+02  0.00000000000E+00 0.  1.
         11    1    1    2    0    0 -0.60759122779E+02 -0.70458532403E+02  0.31485308248E+02  0.98221181141E+02  0.00000000000E+00 0. -1.
</event>
<event>
 7    1  0.2644565E-009  0.9991005E+02  0.7561462E-02  0.1280485E+00
          2   -1    0    0  501    0  0.00000000000E+00  0.00000000000E+00  0.30942303643E+03  0.30942303643E+03  0.00000000000E+00 0. -1.
         -2   -1    0    0    0  501 -0.00000000000E+00 -0.00000000000E+00 -0.70357383100E+02  0.70357383100E+02  0.00000000000E+00 0.  1.
         25    2    1    2    0    0 -0.74803396679E+01 -0.94761195608E+02  0.11695784754E+03  0.19585898578E+03  0.12508383004E+03 0.  0.
          5    1    3    3  502    0 -0.22911351035E+02 -0.30388610581E+02  0.12341492924E+03  0.12921731625E+03  0.41800000000E+01 0. -1.
         -5    1    3    3    0  502  0.15431011367E+02 -0.64372585028E+02 -0.64570816941E+01  0.66641669539E+02  0.41800000000E+01 0. -1.
        -11    1    1    2    0    0  0.79937842951E+01  0.72705680177E+02  0.15129690645E+02  0.74692195418E+02  0.00000000000E+00 0.  1.
         11    1    1    2    0    0 -0.51344462717E+00  0.22055515432E+02  0.10697811514E+03  0.10922923833E+03  0.00000000000E+00 0. -1.
</event>
<event>
 7    1  0.2644565E-009  0.1654581E+03  0.7561462E-02  0.1182669E+00
          1   -1    0    0  501    0  0.00000000000E+00  0.00000000000E+00  0.10563690637E+04  0.10563690637E+04  0.00000000000E+00 0. -1.
         -1   -1    0    0    0  501 -0.00000000000E+00 -0.00000000000E+00 -0.80260806289E+02  0.80260806289E+02  0.00000000000E+00 0.  1.
         25    2    1    2    0    0 -0.17851310666E+02 -0.14471784856E+03  0.94273922336E+03  0.96211506940E+03  0.12508492530E+03 0.  0.
          5    1    3    3  502    0 -0.40682306772E+02 -0.46670295713E+01  0.11180441572E+03  0.11914080335E+03  0.41800000000E+01 0. -1.
         -5    1    3    3    0  502  0.22830996105E+02 -0.14005081899E+03  0.83093480764E+03  0.84297426605E+03  0.41800000000E+01 0. -1.
        -11    1    1    2    0    0  0.22310978063E+02  0.84026656288E+02 -0.24721735168E+02  0.90384859898E+02  0.00000000000E+00 0.  1.
         11    1    1    2    0    0 -0.44596673962E+01  0.60691192271E+02  0.58090769256E+02  0.84129940719E+02  0.00000000000E+00 0. -1.
</event>
<event>
 7    1  0.2644565E-009  0.8445490E+02  0.7561462E-02  0.1316864E+00
         -2   -1    0    0    0  501 -0.00000000000E+00  0.00000000000E+00  0.41779199764E+02  0.41779199764E+02  0.00000000000E+00 0. -1.
          2   -1    0    0  501    0  0.00000000000E+00 -0.00000000000E+00 -0.35635199507E+03  0.35635199507E+03  0.00000000000E+00 0.  1.
         25    2    1    2    0    0  0.31516183101E+02  0.29534876831E+02 -0.21069894432E+03  0.24881248263E+03  0.12509207659E+03 0.  0.
          5    1    3    3  502    0  0.37389874895E+02  0.37142955243E+02 -0.18029539797E+02  0.55858200599E+02  0.41800000000E+01 0.  1.
         -5    1    3    3    0  502 -0.58736917948E+01 -0.76080784121E+01 -0.19266940453E+03  0.19295428203E+03  0.41800000000E+01 0.  1.
        -11    1    1    2    0    0  0.30555731181E+02  0.97828265915E+01 -0.44453920712E+02  0.54822508796E+02  0.00000000000E+00 0.  1.
         11    1    1    2    0    0 -0.62071914281E+02 -0.39317703423E+02 -0.59419930266E+02  0.94496203404E+02  0.00000000000E+00 0. -1.
</event>
<event>
 7    1  0.2644565E-009  0.1108161E+03  0.7561462E-02  0.1259066E+00
          1   -1    0    0  501    0  0.00000000000E+00  0.00000000000E+00  0.16140622170E+03  0.16140622170E+03  0.00000000000E+00 0. -1.
         -1   -1    0    0    0  501 -0.00000000000E+00 -0.00000000000E+00 -0.85488489486E+02  0.85488489486E+02  0.00000000000E+00 0.  1.
         25    2    1    2    0    0 -0.13684439325E+02  0.29089531331E+02  0.10546491764E+02  0.12957948131E+03  0.12508456650E+03 0.  0.
          5    1    3    3  502    0 -0.10489262001E+01  0.75981571924E+02  0.22559271128E+02  0.79376902384E+02  0.41800000000E+01 0.  1.
         -5    1    3    3    0  502 -0.12635513125E+02 -0.46892040593E+02 -0.12012779364E+02  0.50202578927E+02  0.41800000000E+01 0.  1.
        -11    1    1    2    0    0  0.42368440231E+02 -0.46755757278E+02  0.48836315458E+02  0.79788290329E+02  0.00000000000E+00 0. -1.
         11    1    1    2    0    0 -0.28684000906E+02  0.17666225946E+02  0.16534924990E+02  0.37526939544E+02  0.00000000000E+00 0.  1.
</event>
<event>
 7    1  0.2644565E-009  0.2217232E+03  0.7561462E-02  0.1132605E+00
          1   -1    0    0  501    0  0.00000000000E+00  0.00000000000E+00  0.31038744797E+03  0.31038744797E+03  0.00000000000E+00 0. -1.
         -1   -1    0    0    0  501 -0.00000000000E+00 -0.00000000000E+00 -0.18590149159E+03  0.18590149159E+03  0.00000000000E+00 0.  1.
         25    2    1    2    0    0 -0.20269149094E+03  0.54884008773E+01  0.13517964160E+03  0.27392608536E+03  0.12509197292E+03 0.  0.
          5    1    3    3  502    0 -0.20133711706E+03 -0.25568141513E+02  0.13257120412E+03  0.24245197695E+03  0.41800000000E+01 0. -1.
         -5    1    3    3    0  502 -0.13543738858E+01  0.31056542390E+02  0.26084374829E+01  0.31474108406E+02  0.41800000000E+01 0. -1.
        -11    1    1    2    0    0  0.91537237534E+02 -0.27895166771E+02 -0.42336554698E+02  0.10464028884E+03  0.00000000000E+00 0.  1.
         11    1    1    2    0    0  0.11115425341E+03  0.22406765894E+02  0.31642869475E+02  0.11772256537E+03  0.00000000000E+00 0. -1.
</event>
<event>
 7    1  0.2644565E-009  0.1199090E+03  0.7561462E-02  0.1243247E+00
         -1   -1    0    0    0  501 -0.00000000000E+00  0.00000000000E+00  0.87221389073E+02  0.87221389073E+02  0.00000000000E+00 0.  1.
          1   -1    0    0  501    0  0.00000000000E+00 -0.00000000000E+00 -0.25659806391E+03  0.25659806391E+03  0.00000000000E+00 0. -1.
         25    2    1    2    0    0 -0.49500707553E+02 -0.60911589447E+02 -0.17157595619E+03  0.22637487637E+03  0.12508690633E+03 0.  0.
          5    1    3    3  502    0  0.35993400661E+02 -0.36326901842E+02 -0.98938986792E+02  0.11145207130E+03  0.41800000000E+01 0. -1.
         -5    1    3    3    0  502 -0.85494108214E+02 -0.24584687605E+02 -0.72636969395E+02  0.11492280508E+03  0.41800000000E+01 0. -1.
        -11    1    1    2    0    0  0.61075347303E+02  0.33415738848E+02  0.30789810764E+02  0.76123728875E+02  0.00000000000E+00 0.  1.
         11    1    1    2    0    0 -0.11574639750E+02  0.27495850598E+02 -0.28590529418E+02  0.41320847739E+02  0.00000000000E+00 0. -1.
</event>
<event>
 7    1  0.2644565E-009  0.8022807E+02  0.7561462E-02  0.1328405E+00
         -2   -1    0    0    0  501 -0.00000000000E+00  0.00000000000E+00  0.43807205109E+02  0.43807205109E+02  0.00000000000E+00 0.  1.
          2   -1    0    0  501    0  0.00000000000E+00 -0.00000000000E+00 -0.47207976157E+03  0.47207976157E+03  0.00000000000E+00 0. -1.
         25    2    1    2    0    0 -0.55296198178E+02  0.41635178239E+02 -0.11908722494E+03  0.18607712091E+03  0.12510703490E+03 0.  0.
          5    1    3    3  502    0 -0.45061148289E+02  0.35237777370E+02 -0.14568631344E+03  0.15657005577E+03  0.41800000000E+01 0.  1.
         -5    1    3    3    0  502 -0.10235049889E+02  0.63974008685E+01  0.26599088502E+02  0.29507065141E+02  0.41800000000E+01 0.  1.
        -11    1    1    2    0    0  0.62551936380E+02 -0.17252112305E+02 -0.29196815390E+03  0.29909159637E+03  0.00000000000E+00 0. -1.
         11    1    1    2    0    0 -0.72557382020E+01 -0.24383065934E+02 -0.17217177619E+02  0.30718249403E+02  0.00000000000E+00 0.  1.
</event>
<event>
 7    1  0.2644565E-009  0.1204671E+03  0.7561462E-02  0.1242328E+00
         -3   -1    0    0    0  501 -0.00000000000E+00  0.00000000000E+00  0.12103202262E+03  0.12103202262E+03  0.00000000000E+00 0.  1.
          3   -1    0    0  501    0  0.00000000000E+00 -0.00000000000E+00 -0.17019841681E+03  0.17019841681E+03  0.00000000000E+00 0. -1.
         25    2    1    2    0    0 -0.69589795288E+02  0.41051156938E+02 -0.75880744461E+02  0.16714419054E+03  0.12510537941E+03 0.  0.
          5    1    3    3  502    0 -0.97399182542E+02  0.57517861820E+02 -0.72411559903E+02  0.13437191521E+03  0.41800000000E+01 0. -1.
         -5    1    3    3    0  502  0.27809387254E+02 -0.16466704882E+02 -0.34691845579E+01  0.32772275335E+02  0.41800000000E+01 0. -1.
        -11    1    1    2    0    0  0.56603577603E+02 -0.49865159600E+01 -0.23007863963E+02  0.61304095646E+02  0.00000000000E+00 0. -1.
         11    1    1    2    0    0  0.12986217685E+02 -0.36064640978E+02  0.49722214229E+02  0.62782153248E+02  0.00000000000E+00 0.  1.
</event>
<event>
 7    1  0.2644565E-009  0.1293906E+03  0.7561462E-02  0.1228363E+00
         -1   -1    0    0    0  501 -0.00000000000E+00  0.00000000000E+00  0.32188234859E+03  0.32188234859E+03  0.00000000000E+00 0.  1.
          1   -1    0    0  501    0  0.00000000000E+00 -0.00000000000E+00 -0.56953634955E+02  0.56953634955E+02  0.00000000000E+00 0. -1.
         25    2    1    2    0    0 -0.29446323967E+02 -0.67814138050E+02  0.99323891808E+02  0.17599272952E+03  0.12506942890E+03 0.  0.
          5    1    3    3  502    0 -0.17484162916E+02  0.34965288194E+02  0.42392909848E+02  0.57817804668E+02  0.41800000000E+01 0.  1.
         -5    1    3    3    0  502 -0.11962161051E+02 -0.10277942624E+03  0.56930981960E+02  0.11817492485E+03  0.41800000000E+01 0.  1.
        -11    1    1    2    0    0  0.61722241384E+02  0.44267595125E+02  0.94057129835E+02  0.12089664484E+03  0.00000000000E+00 0. -1.
         11    1    1    2    0    0 -0.32275917417E+02  0.23546542925E+02  0.71547691993E+02  0.81946609194E+02  0.00000000000E+00 0.  1.
</event>
<event>
 6    1  0.2644565E-009  0.1146495E+03  0.7561462E-02  0.1252194E+00
         -1   -1    0    0    0  501 -0.00000000000E+00  0.00000000000E+00  0.64111534827E+02  0.64111534827E+02  0.00000000000E+00 0.  1.
          1   -1    0    0  501    0  0.00000000000E+00 -0.00000000000E+00 -0.24631683349E+03  0.24631683349E+03  0.00000000000E+00 0. -1.
          5    1    1    2  502    0 -0.33306787555E+02  0.65211864885E+00  0.34039294636E+01  0.33746503400E+02  0.41800000000E+01 0.  1.
         -5    1    1    2    0  502  0.71546675171E+02 -0.49688282032E+02 -0.11693626616E+03  0.14587465456E+03  0.41800000000E+01 0.  1.
        -11    1    1    2    0    0 -0.11048802761E+02 -0.26244428189E+02 -0.58831132021E+01  0.29076744562E+02  0.00000000000E+00 0.  1.
         11    1    1    2    0    0 -0.27191084856E+02  0.75280591572E+02 -0.62789848766E+02  0.10173046580E+03  0.00000000000E+00 0. -1.
</event>
<event>
 7    1  0.2644565E-009  0.1203302E+03  0.7561462E-02  0.1242553E+00
          2   -1    0    0  501    0  0.00000000000E+00  0.00000000000E+00  0.83230744131E+02  0.83230744131E+02  0.00000000000E+00 0. -1.
         -2   -1    0    0    0  501 -0.00000000000E+00 -0.00000000000E+00 -0.20331562246E+03  0.20331562246E+03  0.00000000000E+00 0.  1.
         25    2    1    2    0    0  0.53025387816E+02 -0.19755603396E+02 -0.17849851788E+02  0.13845139600E+03  0.12509275049E+03 0.  0.
          5    1    3    3  502    0 -0.24315039160E+02  0.33405643187E+02 -0.15960896578E+02  0.44490232025E+02  0.41800000000E+01 0. -1.
         -5    1    3    3    0  502  0.77340426976E+02 -0.53161246583E+02 -0.18889552100E+01  0.93961163972E+02  0.41800000000E+01 0. -1.
        -11    1    1    2    0    0 -0.24742205666E+02 -0.35409112223E+02 -0.56178787444E+02  0.70866339882E+02  0.00000000000E+00 0. -1.
         11    1    1    2    0    0 -0.28283182150E+02  0.55164715619E+02 -0.46056239097E+02  0.77228630712E+02  0.00000000000E+00 0.  1.
</event>
<event>
 7    1  0.2644565E-009  0.1883248E+03  0.7561462E-02  0.1159981E+00
         -2   -1    0    0    0  501 -0.00000000000E+00  0.00000000000E+00  0.35012911099E+03  0.35012911099E+03  0.00000000000E+00 0.  1.
          2   -1    0    0  501    0  0.00000000000E+00 -0.00000000000E+00 -0.25128250563E+03  0.25128250563E+03  0.00000000000E+00 0. -1.
         25    2    1    2    0    0 -0.10971369753E+03 -0.13354956519E+03 -0.16798472567E+03  0.27154782207E+03  0.12508704900E+03 0.  0.
          5    1    3    3  502    0  0.94136542539E+01 -0.17888905958E+02 -0.81924116038E+02  0.84484691107E+02  0.41800000000E+01 0. -1.
         -5    1    3    3    0  502 -0.11912735179E+03 -0.11566065923E+03 -0.86060609628E+02  0.18706313097E+03  0.41800000000E+01 0. -1.
        -11    1    1    2    0    0  0.76355911511E+02  0.31579301580E+02  0.83668733941E+02  0.11759223848E+03  0.00000000000E+00 0.  1.
         11    1    1    2    0    0  0.33357786023E+02  0.10197026361E+03  0.18316259708E+03  0.21227155608E+03  0.00000000000E+00 0. -1.
</event>
<event>
 7    1  0.2644565E-009  0.1271589E+03  0.7561462E-02  0.1231733E+00
         -2   -1    0    0    0  501 -0.00000000000E+00  0.00000000000E+00  0.60215940045E+03  0.60215940045E+03  0.00000000000E+00 0.  1.
          2   -1    0    0  501    0  0.00000000000E+00 -0.00000000000E+00 -0.45277088608E+02  0.45277088608E+02  0.00000000000E+00 0. -1.
         25    2    1    2    0    0 -0.14930157508E+02 -0.11158647297E+03  0.40475143373E+03  0.43834448289E+03  0.12509081509E+03 0.  0.
          5    1    3    3  502    0 -0.98810210939E+01 -0.11324559505E+03  0.17642357917E+03  0.20991653356E+03  0.41800000000E+01 0.  1.
         -5    1    3    3    0  502 -0.50491364139E+01  0.16591220825E+01  0.22832785457E+03  0.22842794933E+03  0.41800000000E+01 0.  1.
        -11    1    1    2    0    0 -0.19278039314E+02  0.92789932529E+02  0.13835270421E+03  0.16769938921E+03  0.00000000000E+00 0.  1.
         11    1    1    2    0    0  0.34208196822E+02  0.18796540440E+02  0.13778173894E+02  0.41392616953E+02  0.00000000000E+00 0. -1.
</event>
<event>
 7    1  0.2644565E-009  0.1061273E+03  0.7561462E-02  0.1267914E+00
         -1   -1    0    0    0  501 -0.00000000000E+00  0.00000000000E+00  0.12804016518E+02  0.12804016518E+02  0.00000000000E+00 0.  1.
          1   -1    0    0  501    0  0.00000000000E+00 -0.00000000000E+00 -0.11667248638E+04  0.11667248638E+04  0.00000000000E+00 0. -1.
         25    2    1    2    0    0 -0.24590153719E+01  0.39584730980E+02 -0.83373772226E+03  0.84399679197E+03  0.12505597811E+03 0.  0.
          5    1    3    3  502    0  0.50124313416E+02  0.49318010080E+02 -0.33143899091E+03  0.33884213140E+03  0.41800000000E+01 0. -1.
         -5    1    3    3    0  502 -0.52583328788E+02 -0.97332791007E+01 -0.50229873135E+03  0.50515466058E+03  0.41800000000E+01 0. -1.
        -11    1    1    2    0    0  0.26081270033E+02 -0.54371605072E+02 -0.28131241404E+03  0.28770328184E+03  0.00000000000E+00 0. -1.
         11    1    1    2    0    0 -0.23622254661E+02  0.14786874093E+02 -0.38870711025E+02  0.47828806553E+02  0.00000000000E+00 0.  1.
</event>
<event>
 7    1  0.2644565E-009  0.8572950E+02  0.7561462E-02  0.1313536E+00
          1   -1    0    0  501    0  0.00000000000E+00  0.00000000000E+00  0.36386861522E+02  0.36386861522E+02  0.00000000000E+00 0. -1.
         -1   -1    0    0    0  501 -0.00000000000E+00 -0.00000000000E+00 -0.43702385460E+03  0.43702385460E+03  0.00000000000E+00 0.  1.
         25    2    1    2    0    0  0.54210237804E+02 -0.11303800485E+02 -0.28183638568E+03  0.31328220493E+03  0.12508983110E+03 0.  0.
          5    1    3    3  502    0  0.57301477262E+02 -0.31849502992E+02 -0.28444229213E+03  0.29192934092E+03  0.41800000000E+01 0. -1.
         -5    1    3    3    0  502 -0.30912394582E+01  0.20545702506E+02  0.26059064545E+01  0.21352864007E+02  0.41800000000E+01 0. -1.
        -11    1    1    2    0    0  0.53919614569E+01  0.23181604480E+02  0.30185141751E+01  0.23991070473E+02  0.00000000000E+00 0. -1.
         11    1    1    2    0    0 -0.59602199261E+02 -0.11877803995E+02 -0.12181912158E+03  0.13613744072E+03  0.00000000000E+00 0.  1.
</event>
<event>
 7    1  0.2644565E-009  0.1278041E+03  0.7561462E-02  0.1230751E+00
          1   -1    0    0  501    0  0.00000000000E+00  0.00000000000E+00  0.37496061695E+03  0.37496061695E+03  0.00000000000E+00 0. -1.
         -1   -1    0    0    0  501 -0.00000000000E+00 -0.00000000000E+00 -0.53866331626E+02  0.53866331626E+02  0.00000000000E+00 0.  1.
         25    2    1    2    0    0 -0.77827960129E+02  0.38265139250E+02  0.22019118152E+03  0.26768795781E+03  0.12510505215E+03 0.  0.
          5    1    3    3  502    0  0.23273203601E+02  0.20603821025E+01  0.12210120673E+01  0.23766582647E+02  0.41800000000E+01 0. -1.
         -5    1    3    3    0  502 -0.10110116373E+03  0.36204757147E+02  0.21897016946E+03  0.24392137516E+03  0.41800000000E+01 0. -1.
        -11    1    1    2    0    0  0.20586237990E+02 -0.59800558565E+02  0.40025871695E+02  0.74846311894E+02  0.00000000000E+00 0. -1.
         11    1    1    2    0    0  0.57241722139E+02  0.21535419315E+02  0.60877232101E+02  0.86292678871E+02  0.00000000000E+00 0.  1.
</event>
<event>
 7    1  0.2644565E-009  0.6090222E+02  0.7561462E-02  0.1394084E+00
          2   -1    0    0  501    0  0.00000000000E+00  0.00000000000E+00  0.41024511156E+03  0.41024511156E+03  0.00000000000E+00 0. -1.
         -2   -1    0    0    0  501 -0.00000000000E+00 -0.00000000000E+00 -0.31077216979E+02  0.31077216979E+02  0.00000000000E+00 0.  1.
         25    2    1    2    0    0  0.10946719920E+02  0.20632186496E+02  0.24113621478E+03  0.27265586937E+03  0.12509608799E+03 0.  0.
          5    1    3    3  502    0 -0.86671058732E+01  0.82801277606E+00 -0.13425585444E+02  0.16538533003E+02  0.41800000000E+01 0. -1.
         -5    1    3    3    0  502  0.19613825793E+02  0.19804173720E+02  0.25456180022E+03  0.25611733637E+03  0.41800000000E+01 0. -1.
        -11    1    1    2    0    0 -0.43718719479E+02  0.25911848434E+01  0.11336562307E+03  0.12153108724E+03  0.00000000000E+00 0. -1.
         11    1    1    2    0    0  0.32771999559E+02 -0.23223371340E+02  0.24666056732E+02  0.47135371922E+02  0.00000000000E+00 0.  1.
</event>
<event>
 7    1  0.2644565E-009  0.1158589E+03  0.7561462E-02  0.1250089E+00
         -2   -1    0    0    0  501 -0.00000000000E+00  0.00000000000E+00  0.15403807494E+03  0.15403807494E+03  0.00000000000E+00 0. -1.
          2   -1    0    0  501    0  0.00000000000E+00 -0.00000000000E+00 -0.11598299228E+03  0.11598299228E+03  0.00000000000E+00 0.  1.
         25    2    1    2    0    0  0.48999289198E+02 -0.61698828061E+02 -0.19575061462E+02  0.14913363639E+03  0.12509989107E+03 0.  0.
          5    1    3    3  502    0  0.89050706955E+02 -0.47488091909E+02 -0.29627548894E+02  0.10526353279E+03  0.41800000000E+01 0.  1.
         -5    1    3    3    0  502 -0.40051417757E+02 -0.14210736152E+02  0.10052487432E+02  0.43870103600E+02  0.41800000000E+01 0.  1.
        -11    1    1    2    0    0  0.21366301694E+01  0.24936487204E+02 -0.11350523629E+02  0.27481411340E+02  0.00000000000E+00 0.  1.
         11    1    1    2    0    0 -0.51135919368E+02  0.36762340857E+02  0.68980667749E+02  0.93406019495E+02  0.00000000000E+00 0. -1.
</event>
<event>
 7    1  0.2644565E-009  0.1203589E+03  0.7561462E-02  0.1242506E+00
          2   -1    0    0  501    0  0.00000000000E+00  0.00000000000E+00  0.74990158858E+02  0.74990158858E+02  0.00000000000E+00 0. -1.
         -2   -1    0    0    0  501 -0.00000000000E+00 -0.00000000000E+00 -0.21034622348E+03  0.21034622348E+03  0.00000000000E+00 0.  1.
         25    2    1    2    0    0 -0.48957385107E+02  0.24148924439E+02 -0.40470670496E+02  0.14234495482E+03  0.12507683593E+03 0.  0.
          5    1    3    3  502    0 -0.87308639950E+02 -0.55066247780E+01 -0.29948556061E+02  0.92560844510E+02  0.41800000000E+01 0. -1.
         -5    1    3    3    0  502  0.38351254843E+02  0.29655549217E+02 -0.10522114435E+02  0.49784110312E+02  0.41800000000E+01 0. -1.
        -11    1    1    2    0    0  0.45432513120E+02 -0.56180141026E+02 -0.79022251715E+02  0.10707398265E+03  0.00000000000E+00 0.  1.
         11    1    1    2    0    0  0.35248719872E+01  0.32031216587E+02 -0.15863142411E+02  0.35917444866E+02  0.00000000000E+00 0. -1.
</event>
<event>
 7    1  0.2644565E-009  0.1010795E+03  0.7561462E-02  0.1278042E+00
          2   -1    0    0  501    0  0.00000000000E+00  0.00000000000E+00  0.69116206464E+03  0.69116206464E+03  0.00000000000E+00 0. -1.
         -2   -1    0    0    0  501 -0.00000000000E+00 -0.00000000000E+00 -0.18558847679E+02  0.18558847679E+02  0.00000000000E+00 0.  1.
         25    2    1    2    0    0 -0.16848420868E+02 -0.29916886326E+02  0.35031811034E+03  0.37356341590E+03  0.12509179787E+03 0.  0.
          5    1    3    3  502    0  0.13415254672E+02 -0.66595194094E+02  0.11651838441E+03  0.13494033955E+03  0.41800000000E+01 0.  1.
         -5    1    3    3    0  502 -0.30263675541E+02  0.36678307768E+02  0.23379972593E+03  0.23862307634E+03  0.41800000000E+01 0.  1.
        -11    1    1    2    0    0 -0.27520569019E+02  0.31672437678E+02  0.85449644299E+02  0.95195413432E+02  0.00000000000E+00 0.  1.
         11    1    1    2    0    0  0.44368989887E+02 -0.17555513527E+01  0.23683546232E+03  0.24096208299E+03  0.00000000000E+00 0. -1.
</event>
<event>
 7    1  0.2644565E-009  0.1648145E+03  0.7561462E-02  0.1183366E+00
         -2   -1    0    0    0  501 -0.00000000000E+00  0.00000000000E+00  0.97050711394E+02  0.97050711394E+02  0.00000000000E+00 0.  1.
          2   -1    0    0  501    0  0.00000000000E+00 -0.00000000000E+00 -0.29419272431E+03  0.29419272431E+03  0.00000000000E+00 0. -1.
         25    2    1    2    0    0  0.12584274516E+03 -0.21428608258E+02 -0.70865499175E+02  0.19226173665E+03  0.12508826741E+03 0.  0.
          5    1    3    3  502    0  0.10533824809E+03  0.39207292767E+02 -0.59060345164E+02  0.12703918722E+03  0.41800000000E+01 0. -1.
         -5    1    3    3    0  502  0.20504497070E+02 -0.60635901025E+02 -0.11805154011E+02  0.65222549432E+02  0.41800000000E+01 0. -1.
        -11    1    1    2    0    0 -0.42734428078E+02  0.49399516906E+02 -0.63844732963E+02  0.91338346498E+02  0.00000000000E+00 0.  1.
         11    1    1    2    0    0 -0.83108317085E+02 -0.27970908648E+02 -0.62431780778E+02  0.10764335256E+03  0.00000000000E+00 0. -1.
</event>
<event>
 7    1  0.2644565E-009  0.2384783E+03  0.7561462E-02  0.1120811E+00
          1   -1    0    0  501    0  0.00000000000E+00  0.00000000000E+00  0.35821852312E+03  0.35821852312E+03  0.00000000000E+00 0. -1.
         -1   -1    0    0    0  501 -0.00000000000E+00 -0.00000000000E+00 -0.16174043186E+03  0.16174043186E+03  0.00000000000E+00 0.  1.
         25    2    1    2    0    0  0.15753848135E+03  0.14347214658E+03  0.71759555598E+02  0.25729325414E+03  0.12509098631E+03 0.  0.
          5    1    3    3  502    0 -0.13119879388E+02 -0.10258896326E+02  0.75713681503E+01  0.18766305034E+02  0.41800000000E+01 0. -1.
         -5    1    3    3    0  502  0.17065836074E+03  0.15373104291E+03  0.64188187447E+02  0.23852694911E+03  0.41800000000E+01 0. -1.
        -11    1    1    2    0    0 -0.12930595472E+03 -0.61164711510E+02  0.89874545876E+02  0.16893367295E+03  0.00000000000E+00 0.  1.
         11    1    1    2    0    0 -0.28232526635E+02 -0.82307435070E+02  0.34843989780E+02  0.93732027887E+02  0.00000000000E+00 0. -1.
</event>
<event>
 7    1  0.2644565E-009  0.7047535E+02  0.7561462E-02  0.1358484E+00
         -3   -1    0    0    0  501 -0.00000000000E+00  0.00000000000E+00  0.14892051854E+03  0.14892051854E+03  0.00000000000E+00 0.  1.
          3   -1    0    0  501    0  0.00000000000E+00 -0.00000000000E+00 -0.12432287565E+03  0.12432287565E+03  0.00000000000E+00 0. -1.
         25    2    1    2    0    0 -0.83046738571E+01  0.22766068531E+02  0.92530640239E+02  0.15745985888E+03  0.12507768103E+03 0.  0.
          5    1    3    3  502    0  0.18794378527E+02  0.10699612026E+01 -0.26854015221E+02  0.33060308751E+02  0.41800000000E+01 0. -1.
         -5    1    3    3    0  502 -0.27099052384E+02  0.21696107328E+02  0.11938465546E+03  0.12439955013E+03  0.41800000000E+01 0. -1.
        -11    1    1    2    0    0 -0.17883850982E+02  0.25878199977E+02 -0.46827050038E+01  0.31803161575E+02  0.00000000000E+00 0.  1.
         11    1    1    2    0    0  0.26188524839E+02 -0.48644268508E+02 -0.63250292346E+02  0.83980373741E+02  0.00000000000E+00 0. -1.
</event>
<event>
 7    1  0.2644565E-009  0.8743588E+02  0.7561462E-02  0.1309183E+00
         -2   -1    0    0    0  501 -0.00000000000E+00  0.00000000000E+00  0.15961056663E+03  0.15961056663E+03  0.00000000000E+00 0. -1.
          2   -1    0    0  501    0  0.00000000000E+00 -0.00000000000E+00 -0.75547578046E+02  0.75547578046E+02  0.00000000000E+00 0.  1.
         25    2    1    2    0    0  0.22221350607E+02 -0.11717463925E+02  0.52057196109E+02  0.13779509265E+03  0.12508576461E+03 0.  0.
          5    1    3    3  502    0 -0.29059979413E+02  0.43222912523E+02  0.23439771269E+02  0.57267773202E+02  0.41800000000E+01 0.  1.
         -5    1    3    3    0  502  0.51281330021E+02 -0.54940376448E+02  0.28617424840E+02  0.80527319447E+02  0.41800000000E+01 0.  1.
        -11    1    1    2    0    0 -0.31975566613E+02  0.17045734574E+02  0.58397734606E+02  0.68726191037E+02  0.00000000000E+00 0. -1.
         11    1    1    2    0    0  0.97542160060E+01 -0.53282706491E+01 -0.26391942129E+02  0.28636860990E+02  0.00000000000E+00 0.  1.
</event>
<event>
 7    1  0.2644565E-009  0.3565013E+03  0.7561462E-02  0.1059978E+00
          1   -1    0    0  501    0  0.00000000000E+00  0.00000000000E+00  0.17455406879E+04  0.17455406879E+04  0.00000000000E+00 0. -1.
         -1   -1    0    0    0  501 -0.00000000000E+00 -0.00000000000E+00 -0.82314537307E+02  0.82314537307E+02  0.00000000000E+00 0.  1.
         25    2    1    2    0    0  0.30553215086E+03 -0.16055151895E+03  0.57119812211E+03  0.67900021808E+03  0.12508923220E+03 0.  0.
          5    1    3    3  502    0  0.28483098431E+03 -0.11575117609E+03  0.53704065904E+03  0.61883533048E+03  0.41800000000E+01 0.  1.
         -5    1    3    3    0  502  0.20701166547E+02 -0.44800342860E+02  0.34157463064E+02  0.60164887598E+02  0.41800000000E+01 0.  1.
        -11    1    1    2    0    0 -0.10905549414E+03  0.12070179424E+02  0.37435703730E+03  0.39010509021E+03  0.00000000000E+00 0.  1.
         11    1    1    2    0    0 -0.19647665672E+03  0.14848133952E+03  0.71767099119E+03  0.75874991691E+03  0.00000000000E+00 0. -1.
</event>
<event>
 7    1  0.2644565E-009  0.1025119E+03  0.7561462E-02  0.1275101E+00
          2   -1    0    0  501    0  0.00000000000E+00  0.00000000000E+00  0.11364284432E+04  0.11364284432E+04  0.00000000000E+00 0. -1.
         -2   -1    0    0    0  501 -0.00000000000E+00 -0.00000000000E+00 -0.41462448858E+02  0.41462448858E+02  0.00000000000E+00 0.  1.
         25    2    1    2    0    0  0.18262359580E+02 -0.49458811210E+01  0.10737008428E+04  0.10811286576E+04  0.12509076275E+03 0.  0.
          5    1    3    3  502    0  0.61101776037E+02  0.24680524466E+02  0.40086941603E+03  0.40627123505E+03  0.41800000000E+01 0.  1.
         -5    1    3    3    0  502 -0.42839416457E+02 -0.29626405587E+02  0.67283142681E+03  0.67485742258E+03  0.41800000000E+01 0.  1.
        -11    1    1    2    0    0  0.10158022449E+02  0.40196058596E+02 -0.88345026655E+01  0.42390529415E+02  0.00000000000E+00 0.  1.
         11    1    1    2    0    0 -0.28420382029E+02 -0.35250177475E+02  0.30099654212E+02  0.54371705053E+02  0.00000000000E+00 0. -1.
</event>
<event>
 7    1  0.2644565E-009  0.1489149E+03  0.7561462E-02  0.1201813E+00
          1   -1    0    0  501    0  0.00000000000E+00  0.00000000000E+00  0.11490467479E+04  0.11490467479E+04  0.00000000000E+00 0. -1.
         -1   -1    0    0    0  501 -0.00000000000E+00 -0.00000000000E+00 -0.19847824555E+02  0.19847824555E+02  0.00000000000E+00 0.  1.
         25    2    1    2    0    0  0.60464944663E+02  0.83907143077E+02  0.64635608026E+03  0.66642393207E+03  0.12509299161E+03 0.  0.
          5    1    3    3  502    0  0.95951925597E+02  0.38405413049E+02  0.37759976537E+03  0.39151092320E+03  0.41800000000E+01 0.  1.
         -5    1    3    3    0  502 -0.35486980934E+02  0.45501730028E+02  0.26875631488E+03  0.27491300886E+03  0.41800000000E+01 0.  1.
        -11    1    1    2    0    0 -0.81917908583E+02 -0.80435050131E+02  0.36462263123E+03  0.38226954396E+03  0.00000000000E+00 0.  1.
         11    1    1    2    0    0  0.21452963921E+02 -0.34720929456E+01  0.11822021181E+03  0.12020109638E+03  0.00000000000E+00 0. -1.
</event>
<event>
 7    1  0.2644565E-009  0.8279524E+02  0.7561462E-02  0.1321301E+00
         -1   -1    0    0    0  501 -0.00000000000E+00  0.00000000000E+00  0.48700836092E+02  0.48700836092E+02  0.00000000000E+00 0.  1.
          1   -1    0    0  501    0  0.00000000000E+00 -0.00000000000E+00 -0.25142682571E+03  0.25142682571E+03  0.00000000000E+00 0. -1.
         25    2    1    2    0    0 -0.49214443406E+01 -0.23645415535E+02 -0.11400868579E+03  0.17096404246E+03  0.12508955628E+03 0.  0.
          5    1    3    3  502    0  0.17730499427E+02  0.39336971327E+02 -0.89710606855E+02  0.99635502234E+02  0.41800000000E+01 0.  1.
         -5    1    3    3    0  502 -0.22651943767E+02 -0.62982386862E+02 -0.24298078933E+02  0.71328540228E+02  0.41800000000E+01 0.  1.
        -11    1    1    2    0    0  0.28578419130E+01  0.39292004917E+02 -0.34926915856E+00  0.39397346354E+02  0.00000000000E+00 0.  1.
         11    1    1    2    0    0  0.20636024276E+01 -0.15646589382E+02 -0.88368034674E+02  0.89766272989E+02  0.00000000000E+00 0. -1.
</event>
<event>
 7    1  0.2644565E-009  0.1294795E+03  0.7561462E-02  0.1228230E+00
          1   -1    0    0  501    0  0.00000000000E+00  0.00000000000E+00  0.18086680887E+03  0.18086680887E+03  0.00000000000E+00 0. -1.
         -1   -1    0    0    0  501 -0.00000000000E+00 -0.00000000000E+00 -0.97330707745E+02  0.97330707745E+02  0.00000000000E+00 0.  1.
         25    2    1    2    0    0  0.26402386120E+02  0.64688248785E+02  0.60415841785E+02  0.15549652440E+03  0.12508972635E+03 0.  0.
          5    1    3    3  502    0 -0.41408629195E+02 -0.74599397655E+01  0.68154556602E+01  0.42828122875E+02  0.41800000000E+01 0. -1.
         -5    1    3    3    0  502  0.67811015315E+02  0.72148188550E+02  0.53600386125E+02  0.11266840152E+03  0.41800000000E+01 0. -1.
        -11    1    1    2    0    0 -0.11713481278E+02  0.24515292219E+02  0.17084383807E+02  0.32094880687E+02  0.00000000000E+00 0.  1.
         11    1    1    2    0    0 -0.14688904842E+02 -0.89203541004E+02  0.60358755337E+01  0.90606111530E+02  0.00000000000E+00 0. -1.
</event>
<event>
 7    1  0.2644565E-009  0.1394014E+03  0.7561462E-02  0.1214137E+00
          1   -1    0    0  501    0  0.00000000000E+00  0.00000000000E+00  0.22645274234E+04  0.22645274234E+04  0.00000000000E+00 0. -1.
         -1   -1    0    0    0  501 -0.00000000000E+00 -0.00000000000E+00 -0.13635465183E+02  0.13635465183E+02  0.00000000000E+00 0.  1.
         25    2    1    2    0    0 -0.10351789581E+03  0.55289842668E+02  0.16824151737E+04  0.16911357077E+04  0.12508494552E+03 0.  0.
          5    1    3    3  502    0  0.96619196067E+01 -0.59562470320E+01  0.72507223554E+03  0.72517311638E+03  0.41800000000E+01 0.  1.
         -5    1    3    3    0  502 -0.11317981542E+03  0.61246089700E+02  0.95734293818E+03  0.96596259131E+03  0.41800000000E+01 0.  1.
        -11    1    1    2    0    0  0.37956062827E+02 -0.61315417018E+02  0.39393407730E+03  0.40048008731E+03  0.00000000000E+00 0. -1.
         11    1    1    2    0    0  0.65561832987E+02  0.60255743500E+01  0.17454270718E+03  0.18654709357E+03  0.00000000000E+00 0.  1.
</event>
<event>
 7    1  0.2644565E-009  0.1381822E+03  0.7561462E-02  0.1215796E+00
         -2   -1    0    0    0  501 -0.00000000000E+00  0.00000000000E+00  0.16571197221E+02  0.16571197221E+02  0.00000000000E+00 0.  1.
          2   -1    0    0  501    0  0.00000000000E+00 -0.00000000000E+00 -0.14280005627E+04  0.14280005627E+04  0.00000000000E+00 0. -1.
         25    2    1    2    0    0  0.76193618022E+02 -0.28966959617E+02 -0.94907050370E+03  0.96074276398E+03  0.12508910969E+03 0.  0.
          5    1    3    3  502    0 -0.29161263628E+02 -0.39715105633E+01 -0.39868872163E+03  0.39979534934E+03  0.41800000000E+01 0.  1.
         -5    1    3    3    0  502  0.10535488165E+03 -0.24995449054E+02 -0.55038178207E+03  0.56094741464E+03  0.41800000000E+01 0.  1.
        -11    1    1    2    0    0  0.31662597691E+01  0.54745344968E+02 -0.24361842074E+03  0.24971386209E+03  0.00000000000E+00 0. -1.
         11    1    1    2    0    0 -0.79359877791E+02 -0.25778385351E+02 -0.21874044107E+03  0.23411513388E+03  0.00000000000E+00 0.  1.
</event>
<event>
 7    1  0.2644565E-009  0.1372764E+03  0.7561462E-02  0.1217042E+00
          2   -1    0    0  501    0  0.00000000000E+00  0.00000000000E+00  0.61102182922E+02  0.61102182922E+02  0.00000000000E+00 0. -1.
         -2   -1    0    0    0  501 -0.00000000000E+00 -0.00000000000E+00 -0.48859750533E+03  0.48859750533E+03  0.00000000000E+00 0.  1.
         25    2    1    2    0    0  0.50115088476E+02  0.11268898660E+03 -0.31009561342E+03  0.35639455716E+03  0.12508981219E+03 0.  0.
          5    1    3    3  502    0  0.60679140901E+02  0.36198283481E+02 -0.54424424787E+02  0.89284737110E+02  0.41800000000E+01 0. -1.
         -5    1    3    3    0  502 -0.10564052424E+02  0.76490703124E+02 -0.25567118863E+03  0.26710982005E+03  0.41800000000E+01 0. -1.
        -11    1    1    2    0    0 -0.50273265266E+02 -0.85002441387E+02 -0.32440092730E+02  0.10394794783E+03  0.00000000000E+00 0. -1.
         11    1    1    2    0    0  0.15817679006E+00 -0.27686545217E+02 -0.84959616258E+02  0.89357183263E+02  0.00000000000E+00 0.  1.
</event>
<event>
 7    1  0.2644565E-009  0.1964042E+03  0.7561462E-02  0.1152809E+00
          2   -1    0    0  501    0  0.00000000000E+00  0.00000000000E+00  0.83898841228E+03  0.83898841228E+03  0.00000000000E+00 0. -1.
         -2   -1    0    0    0  501 -0.00000000000E+00 -0.00000000000E+00 -0.89544643982E+02  0.89544643982E+02  0.00000000000E+00 0.  1.
         25    2    1    2    0    0 -0.12049281398E+03  0.14480340293E+03  0.66506552198E+03  0.70245710556E+03  0.12508913982E+03 0.  0.
          5    1    3    3  502    0 -0.52574475883E+01  0.20296878129E+02  0.28999432841E+03  0.29078133869E+03  0.41800000000E+01 0. -1.
         -5    1    3    3    0  502 -0.11523536639E+03  0.12450652480E+03  0.37507119357E+03  0.41167576687E+03  0.41800000000E+01 0. -1.
        -11    1    1    2    0    0  0.97647277158E+02 -0.61620506576E+02  0.17195977158E+02  0.11673807947E+03  0.00000000000E+00 0.  1.
         11    1    1    2    0    0  0.22845536818E+02 -0.83182896349E+02  0.67182269156E+02  0.10933787124E+03  0.00000000000E+00 0. -1.
</event>
<event>
 7    1  0.2644565E-009  0.1159167E+03  0.7561462E-02  0.1249989E+00
         -3   -1    0    0    0  501 -0.00000000000E+00  0.00000000000E+00  0.13385004179E+03  0.13385004179E+03  0.00000000000E+00 0.  1.
          3   -1    0    0  501    0  0.00000000000E+00 -0.00000000000E+00 -0.12040541322E+03  0.12040541322E+03  0.00000000000E+00 0. -1.
         25    2    1    2    0    0 -0.38529173899E+02 -0.26744217012E+02 -0.39643998757E+02  0.13935200299E+03  0.12509030224E+03 0.  0.
          5    1    3    3  502    0 -0.29612235961E+02 -0.75306449945E+02 -0.10079935328E+02  0.81651842711E+02  0.41800000000E+01 0.  1.
         -5    1    3    3    0  502 -0.89169379383E+01  0.48562232933E+02 -0.29564063429E+02  0.57700160278E+02  0.41800000000E+01 0.  1.
        -11    1    1    2    0    0  0.55643060547E+02 -0.13729856260E+02  0.36419119519E+02  0.67904428475E+02  0.00000000000E+00 0.  1.
         11    1    1    2    0    0 -0.17113886649E+02  0.40474073272E+02  0.16669507811E+02  0.46999023544E+02  0.00000000000E+00 0. -1.
</event>
<event>
 7    1  0.2644565E-009  0.1940252E+03  0.7561462E-02  0.1154880E+00
          1   -1    0    0  501    0  0.00000000000E+00  0.00000000000E+00  0.21692857040E+03  0.21692857040E+03  0.00000000000E+00 0. -1.
         -1   -1    0    0    0  501 -0.00000000000E+00 -0.00000000000E+00 -0.22211475376E+03  0.22211475376E+03  0.00000000000E+00 0.  1.
         25    2    1    2    0    0  0.88560975352E+02  0.15299816914E+03 -0.72598467865E+02  0.22840645706E+03  0.12508991157E+03 0.  0.
          5    1    3    3  502    0  0.91481747848E+02  0.91490848383E+02  0.46478157932E+01  0.12953208143E+03  0.41800000000E+01 0.  1.
         -5    1    3    3    0  502 -0.29207724959E+01  0.61507320754E+02 -0.77246283658E+02  0.98874375636E+02  0.41800000000E+01 0.  1.
        -11    1    1    2    0    0 -0.36687669227E+02 -0.13813326715E+03  0.33147109732E+02  0.14671576415E+03  0.00000000000E+00 0.  1.
         11    1    1    2    0    0 -0.51873306125E+02 -0.14864901986E+02  0.34265174777E+02  0.63921102947E+02  0.00000000000E+00 0. -1.
</event>
<event>
 7    1  0.2644565E-009  0.1297129E+03  0.7561462E-02  0.1227882E+00
         -2   -1    0    0    0  501 -0.00000000000E+00  0.00000000000E+00  0.38261449905E+02  0.38261449905E+02  0.00000000000E+00 0. -1.
          2   -1    0    0  501    0  0.00000000000E+00 -0.00000000000E+00 -0.60279479326E+03  0.60279479326E+03  0.00000000000E+00 0.  1.
         25    2    1    2    0    0  0.67646946317E+02 -0.64530059112E+02 -0.20128534230E+03  0.25476107714E+03  0.12508868663E+03 0.  0.
          5    1    3    3  502    0  0.83715421771E+02 -0.84279979588E+02 -0.11767875029E+03  0.16726370638E+03  0.41800000000E+01 0.  1.
         -5    1    3    3    0  502 -0.16068475454E+02  0.19749920476E+02 -0.83606592006E+02  0.87497370755E+02  0.41800000000E+01 0.  1.
        -11    1    1    2    0    0 -0.81272107826E+02  0.55165238606E+02 -0.35395011391E+03  0.36732688739E+03  0.00000000000E+00 0.  1.
         11    1    1    2    0    0  0.13625161509E+02  0.93648205062E+01 -0.92978871454E+01  0.18968278642E+02  0.00000000000E+00 0. -1.
</event>
<event>
 7    1  0.2644565E-009  0.2703411E+03  0.7561462E-02  0.1101085E+00
          2   -1    0    0  501    0  0.00000000000E+00  0.00000000000E+00  0.69180279088E+03  0.69180279088E+03  0.00000000000E+00 0. -1.
         -2   -1    0    0    0  501 -0.00000000000E+00 -0.00000000000E+00 -0.11996959378E+03  0.11996959378E+03  0.00000000000E+00 0.  1.
         25    2    1    2    0    0  0.26501791402E+03  0.31108088957E+02  0.28729173589E+03  0.41156523049E+03  0.12508872645E+03 0.  0.
          5    1    3    3  502    0  0.12940914869E+03 -0.50570521496E+01  0.56369419060E+02  0.14130564513E+03  0.41800000000E+01 0.  1.
         -5    1    3    3    0  502  0.13560876533E+03  0.36165141106E+02  0.23092231683E+03  0.27025958535E+03  0.41800000000E+01 0.  1.
        -11    1    1    2    0    0 -0.15459615772E+03  0.45404551106E+01  0.10683980203E+03  0.18797694276E+03  0.00000000000E+00 0.  1.
         11    1    1    2    0    0 -0.11042175630E+03 -0.35648544067E+02  0.17770165918E+03  0.21223021141E+03  0.00000000000E+00 0. -1.
</event>
<event>
 7    1  0.2644565E-009  0.1570640E+03  0.7561462E-02  0.1192052E+00
          1   -1    0    0  501    0  0.00000000000E+00  0.00000000000E+00  0.19175226306E+03  0.19175226306E+03  0.00000000000E+00 0. -1.
         -1   -1    0    0    0  501 -0.00000000000E+00 -0.00000000000E+00 -0.13779257155E+03  0.13779257155E+03  0.00000000000E+00 0.  1.
         25    2    1    2    0    0  0.70049696947E+02  0.88974492052E+02  0.21316326452E+02  0.17007188124E+03  0.12508652500E+03 0.  0.
          5    1    3    3  502    0  0.10132619944E+03  0.70520511408E+02  0.38907906952E+02  0.12950459005E+03  0.41800000000E+01 0.  1.
         -5    1    3    3    0  502 -0.31276502491E+02  0.18453980644E+02 -0.17591580501E+02  0.40567291186E+02  0.41800000000E+01 0.  1.
        -11    1    1    2    0    0  0.21703717776E+02  0.54634480175E+01 -0.41405361472E+01  0.22760594657E+02  0.00000000000E+00 0.  1.
         11    1    1    2    0    0 -0.91753414723E+02 -0.94437940069E+02  0.36783901198E+02  0.13671235871E+03  0.00000000000E+00 0. -1.
</event>
<event>
 7    1  0.2644565E-009  0.9898428E+02  0.7561462E-02  0.1282446E+00
         -1   -1    0    0    0  501 -0.00000000000E+00  0.00000000000E+00  0.27709234137E+03  0.27709234137E+03  0.00000000000E+00 0.  1.
          1   -1    0    0  501    0  0.00000000000E+00 -0.00000000000E+00 -0.45395729325E+02  0.45395729325E+02  0.00000000000E+00 0. -1.
         25    2    1    2    0    0 -0.19335885353E+02 -0.11004679128E+02  0.10571179551E+03  0.16527621732E+03  0.12508503058E+03 0.  0.
          5    1    3    3  502    0 -0.63302056083E+01 -0.64581140196E+02  0.30225227988E+02  0.71706568590E+02  0.41800000000E+01 0. -1.
         -5    1    3    3    0  502 -0.13005679744E+02  0.53576461067E+02  0.75486567524E+02  0.93569648726E+02  0.41800000000E+01 0. -1.
        -11    1    1    2    0    0  0.32460743757E+01  0.42320780184E+02  0.11120097571E+03  0.11902622582E+03  0.00000000000E+00 0.  1.
         11    1    1    2    0    0  0.16089810977E+02 -0.31316101056E+02  0.14783840825E+02  0.38185627560E+02  0.00000000000E+00 0. -1.
</event>
<event>
 7    1  0.2644565E-009  0.1181144E+03  0.7561462E-02  0.1246241E+00
          2   -1    0    0  501    0  0.00000000000E+00  0.00000000000E+00  0.45107032839E+02  0.45107032839E+02  0.00000000000E+00 0. -1.
         -2   -1    0    0    0  501 -0.00000000000E+00 -0.00000000000E+00 -0.34757286805E+03  0.34757286805E+03  0.00000000000E+00 0.  1.
         25    2    1    2    0    0 -0.18561998097E+01 -0.16611240371E+02 -0.12037574930E+03  0.17442014160E+03  0.12511069496E+03 0.  0.
          5    1    3    3  502    0 -0.14843924114E+02 -0.65205860643E+02 -0.99144091957E+02  0.11966273319E+03  0.41800000000E+01 0. -1.
         -5    1    3    3    0  502  0.12987724304E+02  0.48594620273E+02 -0.21231657340E+02  0.54757408407E+02  0.41800000000E+01 0. -1.
        -11    1    1    2    0    0 -0.45259323444E+02  0.44934428867E+02 -0.80013604599E+02  0.10232148444E+03  0.00000000000E+00 0. -1.
         11    1    1    2    0    0  0.47115523254E+02 -0.28323188496E+02 -0.10207648132E+03  0.11593827486E+03  0.00000000000E+00 0.  1.
</event>
<event>
 7    1  0.2644565E-009  0.2246863E+03  0.7561462E-02  0.1130437E+00
         -1   -1    0    0    0  501 -0.00000000000E+00  0.00000000000E+00  0.16371159395E+03  0.16371159395E+03  0.00000000000E+00 0.  1.
          1   -1    0    0  501    0  0.00000000000E+00 -0.00000000000E+00 -0.33964666516E+03  0.33964666516E+03  0.00000000000E+00 0. -1.
         25    2    1    2    0    0 -0.19595884579E+03  0.61057712697E+02 -0.13563053798E+03  0.27599233665E+03  0.12509281966E+03 0.  0.
          5    1    3    3  502    0 -0.14206987586E+03 -0.83563487598E+01 -0.44130933331E+02  0.14905935016E+03  0.41800000000E+01 0. -1.
         -5    1    3    3    0  502 -0.53888969931E+02  0.69414061456E+02 -0.91499604652E+02  0.12693298649E+03  0.41800000000E+01 0. -1.
        -11    1    1    2    0    0  0.37076043961E+02 -0.46499305339E+02  0.94990485943E+01  0.60224997775E+02  0.00000000000E+00 0.  1.
         11    1    1    2    0    0  0.15888280183E+03 -0.14558407357E+02 -0.49803581815E+02  0.16714092469E+03  0.00000000000E+00 0. -1.
</event>
<event>
 7    1  0.2644565E-009  0.2731862E+03  0.7561462E-02  0.1099470E+00
          2   -1    0    0  501    0  0.00000000000E+00  0.00000000000E+00  0.14257216614E+04  0.14257216614E+04  0.00000000000E+00 0. -1.
         -2   -1    0    0    0  501 -0.00000000000E+00 -0.00000000000E+00 -0.61886656136E+02  0.61886656136E+02  0.00000000000E+00 0.  1.
         25    2    1    2    0    0 -0.26484445441E+03  0.20585158280E+02  0.50491480375E+03  0.58408284737E+03  0.12508988678E+03 0.  0.
          5    1    3    3  502    0 -0.18048657163E+03 -0.10442985756E+02  0.21720342580E+03  0.28262919005E+03  0.41800000000E+01 0.  1.
         -5    1    3    3    0  502 -0.84357882782E+02  0.31028144036E+02  0.28771137795E+03  0.30145365732E+03  0.41800000000E+01 0.  1.
        -11    1    1    2    0    0  0.24641570202E+03  0.19765756946E+01  0.70380402852E+03  0.74569746922E+03  0.00000000000E+00 0.  1.
         11    1    1    2    0    0  0.18428752396E+02 -0.22561733975E+02  0.15511617302E+03  0.15782800096E+03  0.00000000000E+00 0. -1.
</event>
<event>
 7    1  0.2644565E-009  0.1151432E+03  0.7561462E-02  0.1251331E+00
         -1   -1    0    0    0  501 -0.00000000000E+00  0.00000000000E+00  0.45372497795E+03  0.45372497795E+03  0.00000000000E+00 0.  1.
          1   -1    0    0  501    0  0.00000000000E+00 -0.00000000000E+00 -0.34253859033E+02  0.34253859033E+02  0.00000000000E+00 0. -1.
         25    2    1    2    0    0  0.28845782783E+02  0.52385295768E+02  0.20838555122E+03  0.25030254376E+03  0.12510206656E+03 0.  0.
          5    1    3    3  502    0  0.37291294116E+02  0.85525277189E+02  0.10117517678E+03  0.13769205660E+03  0.41800000000E+01 0.  1.
         -5    1    3    3    0  502 -0.84455113335E+01 -0.33139981421E+02  0.10721037444E+03  0.11261048716E+03  0.41800000000E+01 0.  1.
        -11    1    1    2    0    0 -0.57790595125E+02 -0.26382109168E+02  0.16806032030E+03  0.17966646829E+03  0.00000000000E+00 0.  1.
         11    1    1    2    0    0  0.28944812343E+02 -0.26003186600E+02  0.43025247395E+02  0.58009824929E+02  0.00000000000E+00 0. -1.
</event>
<event>
 7    1  0.2644565E-009  0.1401040E+03  0.7561462E-02  0.1213189E+00
          2   -1    0    0  501    0  0.00000000000E+00  0.00000000000E+00  0.21379690206E+04  0.21379690206E+04  0.00000000000E+00 0. -1.
         -2   -1    0    0    0  501 -0.00000000000E+00 -0.00000000000E+00 -0.16797574380E+02  0.16797574380E+02  0.00000000000E+00 0.  1.
         25    2    1    2    0    0 -0.13142274045E+03  0.47491899961E+01  0.16046579966E+04  0.16148899359E+04  0.12509087673E+03 0.  0.
          5    1    3    3  502    0 -0.83336929738E+02  0.21150833701E+02  0.40017290485E+03  0.40932655399E+03  0.41800000000E+01 0. -1.
         -5    1    3    3    0  502 -0.48085810716E+02 -0.16401643705E+02  0.12044850918E+04  0.12055633819E+04  0.41800000000E+01 0. -1.
        -11    1    1    2    0    0  0.63598876118E+02  0.25965425312E+02  0.13849700604E+03  0.15459767474E+03  0.00000000000E+00 0.  1.
         11    1    1    2    0    0  0.67823864337E+02 -0.30714615308E+02  0.37801644359E+03  0.38527898437E+03  0.00000000000E+00 0. -1.
</event>
<event>
 7    1  0.2644565E-009  0.1154358E+03  0.7561462E-02  0.1250822E+00
          1   -1    0    0  501    0  0.00000000000E+00  0.00000000000E+00  0.56907669249E+03  0.56907669249E+03  0.00000000000E+00 0. -1.
         -1   -1    0    0    0  501 -0.00000000000E+00 -0.00000000000E+00 -0.54358193217E+02  0.54358193217E+02  0.00000000000E+00 0.  1.
         25    2    1    2    0    0  0.90901575194E+01  0.76784478764E+02  0.70299172848E+02  0.16299661227E+03  0.12508970687E+03 0.  0.
          5    1    3    3  502    0 -0.31078972918E+02 -0.14932545830E+02  0.49785213531E+02  0.60703569656E+02  0.41800000000E+01 0. -1.
         -5    1    3    3    0  502  0.40169130438E+02  0.91717024593E+02  0.20513959317E+02  0.10229304261E+03  0.41800000000E+01 0. -1.
        -11    1    1    2    0    0 -0.22888032905E+02 -0.58007037412E+01  0.23359338061E+02  0.33213986343E+02  0.00000000000E+00 0.  1.
         11    1    1    2    0    0  0.13797875385E+02 -0.70983775023E+02  0.42105998836E+03  0.42722428709E+03  0.00000000000E+00 0. -1.
</event>
<event>
 7    1  0.2644565E-009  0.1124758E+03  0.7561462E-02  0.1256053E+00
         -1   -1    0    0    0  501 -0.00000000000E+00  0.00000000000E+00  0.28994728476E+03  0.28994728476E+03  0.00000000000E+00 0.  1.
          1   -1    0    0  501    0  0.00000000000E+00 -0.00000000000E+00 -0.55466674309E+02  0.55466674309E+02  0.00000000000E+00 0. -1.
         25    2    1    2    0    0 -0.22727057880E+02  0.48437167558E+02  0.76958869049E+02  0.15629493117E+03  0.12507101832E+03 0.  0.
          5    1    3    3  502    0  0.44006896668E+02  0.36780235167E+02  0.55447069958E+01  0.57772041931E+02  0.41800000000E+01 0. -1.
         -5    1    3    3    0  502 -0.66733954548E+02  0.11656932391E+02  0.71414162053E+02  0.98522889240E+02  0.41800000000E+01 0. -1.
        -11    1    1    2    0    0 -0.29887963989E+01  0.23235364858E+02  0.15864891363E+02  0.28293282983E+02  0.00000000000E+00 0.  1.
         11    1    1    2    0    0  0.25715854279E+02 -0.71672532416E+02  0.14165685004E+03  0.16082574491E+03  0.00000000000E+00 0. -1.
</event>
<event>
 7    1  0.2644565E-009  0.1106455E+03  0.7561462E-02  0.1259379E+00
          2   -1    0    0  501    0  0.00000000000E+00  0.00000000000E+00  0.51201352939E+02  0.51201352939E+02  0.00000000000E+00 0. -1.
         -2   -1    0    0    0  501 -0.00000000000E+00 -0.00000000000E+00 -0.46958308488E+03  0.46958308488E+03  0.00000000000E+00 0.  1.
         25    2    1    2    0    0 -0.86665432173E+02 -0.23113361215E+02 -0.11759461565E+03  0.19370417028E+03  0.12509071650E+03 0.  0.
          5    1    3    3  502    0 -0.64450566352E+02 -0.47707918437E+02 -0.98470042486E+01  0.80897199441E+02  0.41800000000E+01 0.  1.
         -5    1    3    3    0  502 -0.22214865821E+02  0.24594557222E+02 -0.10774761140E+03  0.11280697084E+03  0.41800000000E+01 0.  1.
        -11    1    1    2    0    0  0.85723282261E+02  0.37218411480E+02 -0.29846545849E+03  0.31275441034E+03  0.00000000000E+00 0.  1.
         11    1    1    2    0    0  0.94214991172E+00 -0.14105050265E+02 -0.23216578009E+01  0.14325857195E+02  0.00000000000E+00 0. -1.
</event>
<event>
 7    1  0.2644565E-009  0.1817524E+03  0.7561462E-02  0.1166118E+00
          2   -1    0    0  501    0  0.00000000000E+00  0.00000000000E+00  0.17464174060E+04  0.17464174060E+04  0.00000000000E+00 0. -1.
         -2   -1    0    0    0  501 -0.00000000000E+00 -0.00000000000E+00 -0.21145077561E+02  0.21145077561E+02  0.00000000000E+00 0.  1.
         25    2    1    2    0    0  0.51567126984E+02 -0.14812843487E+03  0.96665045915E+03  0.98724963431E+03  0.12509008139E+03 0.  0.
          5    1    3    3  502    0 -0.85950666235E+01 -0.13925317340E+03  0.68574708704E+03  0.69980844612E+03  0.41800000000E+01 0. -1.
         -5    1    3    3    0  502  0.60162193607E+02 -0.88752614711E+01  0.28090337211E+03  0.28744118819E+03  0.41800000000E+01 0. -1.
        -11    1    1    2    0    0 -0.14635815375E+02  0.10573547511E+03  0.64237462580E+03  0.65118304466E+03  0.00000000000E+00 0. -1.
         11    1    1    2    0    0 -0.36931311609E+02  0.42392959765E+02  0.11624724351E+03  0.12912980461E+03  0.00000000000E+00 0.  1.
</event>
<event>
 7    1  0.2644565E-009  0.1301822E+03  0.7561462E-02  0.1227186E+00
          1   -1    0    0  501    0  0.00000000000E+00  0.00000000000E+00  0.12953927676E+04  0.12953927676E+04  0.00000000000E+00 0. -1.
         -1   -1    0    0    0  501 -0.00000000000E+00 -0.00000000000E+00 -0.22921449297E+02  0.22921449297E+02  0.00000000000E+00 0.  1.
         25    2    1    2    0    0 -0.80289052702E+02 -0.57566458756E+02  0.10215532898E+04  0.10339147038E+04  0.12509301256E+03 0.  0.
          5    1    3    3  502    0  0.12060274089E+02 -0.49234230701E+02  0.60555335799E+03  0.60768561070E+03  0.41800000000E+01 0.  1.
         -5    1    3    3    0  502 -0.92349326791E+02 -0.83322280547E+01  0.41599993177E+03  0.42622909311E+03  0.41800000000E+01 0.  1.
        -11    1    1    2    0    0  0.28989628017E+02  0.58595008598E+02  0.67615800945E+02  0.94051422651E+02  0.00000000000E+00 0.  1.
         11    1    1    2    0    0  0.51299424685E+02 -0.10285498423E+01  0.18330222762E+03  0.19034809045E+03  0.00000000000E+00 0. -1.
</event>
<event>
 7    1  0.2644565E-009  0.1055877E+03  0.7561462E-02  0.1268966E+00
          1   -1    0    0  501    0  0.00000000000E+00  0.00000000000E+00  0.76959511218E+02  0.76959511218E+02  0.00000000000E+00 0. -1.
         -1   -1    0    0    0  501 -0.00000000000E+00 -0.00000000000E+00 -0.22570204305E+03  0.22570204305E+03  0.00000000000E+00 0.  1.
         25    2    1    2    0    0 -0.44673270455E+02 -0.51634477632E+02 -0.45408370552E+02  0.14956869868E+03  0.12508818943E+03 0.  0.
          5    1    3    3  502    0 -0.73365476395E+02 -0.17786920797E+02  0.12355672338E+02  0.76609416634E+02  0.41800000000E+01 0. -1.
         -5    1    3    3    0  502  0.28692205940E+02 -0.33847556835E+02 -0.57764042890E+02  0.72959282044E+02  0.41800000000E+01 0. -1.
        -11    1    1    2    0    0  0.10638568034E+01  0.47148741767E+02 -0.75611463680E+01  0.47763025196E+02  0.00000000000E+00 0. -1.
         11    1    1    2    0    0  0.43609413651E+02  0.44857358651E+01 -0.95773014908E+02  0.10532983039E+03  0.00000000000E+00 0.  1.
</event>
<event>
 7    1  0.2644565E-009  0.1885852E+03  0.7561462E-02  0.1159744E+00
         -2   -1    0    0    0  501 -0.00000000000E+00  0.00000000000E+00  0.12542322446E+03  0.12542322446E+03  0.00000000000E+00 0.  1.
          2   -1    0    0  501    0  0.00000000000E+00 -0.00000000000E+00 -0.31192046357E+03  0.31192046357E+03  0.00000000000E+00 0. -1.
         25    2    1    2    0    0  0.18312728279E+02 -0.16346510906E+03 -0.85340366626E+02  0.22357748895E+03  0.12509083697E+03 0.  0.
          5    1    3    3  502    0 -0.43340561098E+02 -0.64050332379E+02  0.20865932269E+01  0.77476935829E+02  0.41800000000E+01 0. -1.
         -5    1    3    3    0  502  0.61653289377E+02 -0.99414776679E+02 -0.87426959853E+02  0.14610055312E+03  0.41800000000E+01 0. -1.
        -11    1    1    2    0    0  0.25907656063E+02  0.11132312416E+03 -0.37342698538E+02  0.12024359338E+03  0.00000000000E+00 0.  1.
         11    1    1    2    0    0 -0.44220384341E+02  0.52141984896E+02 -0.63814173950E+02  0.93522605701E+02  0.00000000000E+00 0. -1.
</event>
<event>
 7    1  0.2644565E-009  0.1208319E+03  0.7561462E-02  0.1241731E+00
          1   -1    0    0  501    0  0.00000000000E+00  0.00000000000E+00  0.99526001576E+03  0.99526001576E+03  0.00000000000E+00 0. -1.
         -1   -1    0    0    0  501 -0.00000000000E+00 -0.00000000000E+00 -0.15191466761E+02  0.15191466761E+02  0.00000000000E+00 0.  1.
         25    2    1    2    0    0 -0.27504530064E+02 -0.46896556347E+02  0.47534399958E+03  0.49452295744E+03  0.12508097908E+03 0.  0.
          5    1    3    3  502    0  0.15000167208E+02 -0.79536767183E+02  0.24785693922E+03  0.26077123512E+03  0.41800000000E+01 0. -1.
         -5    1    3    3    0  502 -0.42504697272E+02  0.32640210836E+02  0.22748706037E+03  0.23375172232E+03  0.41800000000E+01 0. -1.
        -11    1    1    2    0    0 -0.29185855909E+02  0.40345390786E+02  0.24474656650E+03  0.24976077866E+03  0.00000000000E+00 0. -1.
         11    1    1    2    0    0  0.56690385972E+02  0.65511655611E+01  0.25997798291E+03  0.26616774642E+03  0.00000000000E+00 0.  1.
</event>
<event>
 7    1  0.2644565E-009  0.1174767E+03  0.7561462E-02  0.1247319E+00
         -2   -1    0    0    0  501 -0.00000000000E+00  0.00000000000E+00  0.10783301733E+03  0.10783301733E+03  0.00000000000E+00 0.  1.
          2   -1    0    0  501    0  0.00000000000E+00 -0.00000000000E+00 -0.15497064198E+03  0.15497064198E+03  0.00000000000E+00 0. -1.
         25    2    1    2    0    0 -0.42777667691E+02 -0.11160634826E+02 -0.78297344909E+02  0.15404860469E+03  0.12508401083E+03 0.  0.
          5    1    3    3  502    0 -0.83608491318E+02  0.10913097785E+02 -0.61750598776E+02  0.10459485825E+03  0.41800000000E+01 0. -1.
         -5    1    3    3    0  502  0.40830823627E+02 -0.22073732611E+02 -0.16546746133E+02  0.49453746441E+02  0.41800000000E+01 0. -1.
        -11    1    1    2    0    0 -0.12247606407E+01  0.47099205522E+02  0.10261102321E+02  0.48219554335E+02  0.00000000000E+00 0. -1.
         11    1    1    2    0    0  0.44002428332E+02 -0.35938570696E+02  0.20898617942E+02  0.60535500284E+02  0.00000000000E+00 0.  1.
</event>
<event>
 7    1  0.2644565E-009  0.1066623E+03  0.7561462E-02  0.1266879E+00
         -1   -1    0    0    0  501 -0.00000000000E+00  0.00000000000E+00  0.66514918924E+02  0.66514918924E+02  0.00000000000E+00 0.  1.
          1   -1    0    0  501    0  0.00000000000E+00 -0.00000000000E+00 -0.24587044009E+03  0.24587044009E+03  0.00000000000E+00 0. -1.
         25    2    1    2    0    0  0.20616744500E+02  0.27974562032E+02 -0.59564379743E+02  0.14283698644E+03  0.12508742177E+03 0.  0.
          5    1    3    3  502    0 -0.38173285482E+02  0.14019065890E+02 -0.70302522515E+02  0.81324356775E+02  0.41800000000E+01 0.  1.
         -5    1    3    3    0  502  0.58790029982E+02  0.13955496143E+02  0.10738142771E+02  0.61512629663E+02  0.41800000000E+01 0.  1.
        -11    1    1    2    0    0  0.47944966471E+01  0.39492368596E+02 -0.15349954458E+02  0.42641006992E+02  0.00000000000E+00 0. -1.
         11    1    1    2    0    0 -0.25411241147E+02 -0.67466930628E+02 -0.10444118697E+03  0.12690736559E+03  0.00000000000E+00 0.  1.
</event>
<event>
 7    1  0.2644565E-009  0.1023876E+03  0.7561462E-02  0.1275354E+00
         -1   -1    0    0    0  501 -0.00000000000E+00  0.00000000000E+00  0.52775280212E+02  0.52775280212E+02  0.00000000000E+00 0.  1.
          1   -1    0    0  501    0  0.00000000000E+00 -0.00000000000E+00 -0.28449931761E+03  0.28449931761E+03  0.00000000000E+00 0. -1.
         25    2    1    2    0    0  0.13902365094E+02  0.42544480286E+02 -0.17713413797E+03  0.22141958454E+03  0.12508725365E+03 0.  0.
          5    1    3    3  502    0 -0.85093199346E+01  0.69342128051E+02 -0.41652575049E+02  0.81444144397E+02  0.41800000000E+01 0. -1.
         -5    1    3    3    0  502  0.22411685028E+02 -0.26797647765E+02 -0.13548156292E+03  0.13997544014E+03  0.41800000000E+01 0. -1.
        -11    1    1    2    0    0  0.35054186140E+02 -0.35940465331E+02 -0.14562825491E+02  0.52274170490E+02  0.00000000000E+00 0.  1.
         11    1    1    2    0    0 -0.48956551234E+02 -0.66040149552E+01 -0.40027073936E+02  0.63580842792E+02  0.00000000000E+00 0. -1.
</event>
<event>
 7    1  0.2644565E-009  0.1264189E+03  0.7561462E-02  0.1232868E+00
         -1   -1    0    0    0  501 -0.00000000000E+00  0.00000000000E+00  0.12434773571E+02  0.12434773571E+02  0.00000000000E+00 0.  1.
          1   -1    0    0  501    0  0.00000000000E+00 -0.00000000000E+00 -0.15809266912E+04  0.15809266912E+04  0.00000000000E+00 0. -1.
         25    2    1    2    0    0  0.94787573227E+01 -0.83044448785E+02 -0.99505480236E+03  0.10063637366E+04  0.12509070067E+03 0.  0.
          5    1    3    3  502    0  0.47705454753E+02 -0.16532754866E+02 -0.16111483006E+03  0.16889228302E+03  0.41800000000E+01 0. -1.
         -5    1    3    3    0  502 -0.38226697430E+02 -0.66511693919E+02 -0.83393997230E+03  0.83747145361E+03  0.41800000000E+01 0. -1.
        -11    1    1    2    0    0 -0.50696376772E+02  0.32894400456E+02 -0.28796766094E+03  0.29424061234E+03  0.00000000000E+00 0. -1.
         11    1    1    2    0    0  0.41217619450E+02  0.50150048329E+02 -0.28546945435E+03  0.29275711582E+03  0.00000000000E+00 0.  1.
</event>
<event>
 7    1  0.2811041E-009  0.1196340E+03  0.7561462E-02  0.1243702E+00
          2   -1    0    0  501    0  0.00000000000E+00  0.00000000000E+00  0.47279833852E+03  0.47279833852E+03  0.00000000000E+00 0. -1.
         -2   -1    0    0    0  501 -0.00000000000E+00 -0.00000000000E+00 -0.56210854701E+02  0.56210854701E+02  0.00000000000E+00 0.  1.
         25    2    1    2    0    0  0.29398600086E+02 -0.79948542793E+02  0.36370287760E+03  0.39393430730E+03  0.12509359741E+03 0.  0.
          5    1    3    3  502    0 -0.43597787830E+02 -0.15472849471E+02  0.18083655623E+03  0.18670701283E+03  0.41800000000E+01 0. -1.
         -5    1    3    3    0  502  0.72996387916E+02 -0.64475693322E+02  0.18286632137E+03  0.20722729446E+03  0.41800000000E+01 0. -1.
        -11    1    1    2    0    0 -0.30404047169E+02  0.22370474249E+02  0.65983065886E+02  0.76017163760E+02  0.00000000000E+00 0. -1.
         11    1    1    2    0    0  0.10054470831E+01  0.57578068544E+02 -0.13098459667E+02  0.59057722160E+02  0.00000000000E+00 0.  1.
</event>
<event>
 7    1  0.2644565E-009  0.1028124E+03  0.7561462E-02  0.1274491E+00
         -1   -1    0    0    0  501 -0.00000000000E+00  0.00000000000E+00  0.29108231378E+03  0.29108231378E+03  0.00000000000E+00 0.  1.
          1   -1    0    0  501    0  0.00000000000E+00 -0.00000000000E+00 -0.46522418916E+02  0.46522418916E+02  0.00000000000E+00 0. -1.
         25    2    1    2    0    0  0.69696921636E+01  0.11070715387E+02  0.19574605686E+03  0.23266652385E+03  0.12508419244E+03 0.  0.
          5    1    3    3  502    0  0.41065140180E+02  0.55589417806E+02  0.10002434569E+03  0.12165061135E+03  0.41800000000E+01 0. -1.
         -5    1    3    3    0  502 -0.34095448016E+02 -0.44518702419E+02  0.95721711168E+02  0.11101591251E+03  0.41800000000E+01 0. -1.
        -11    1    1    2    0    0  0.16184795746E+02 -0.39971075449E+02 -0.67402399258E+00  0.43128746727E+02  0.00000000000E+00 0. -1.
         11    1    1    2    0    0 -0.23154487909E+02  0.28900360062E+02  0.49487862000E+02  0.61809462118E+02  0.00000000000E+00 0.  1.
</event>
<event>
 7    1  0.2644565E-009  0.1028149E+03  0.7561462E-02  0.1274486E+00
          1   -1    0    0  501    0  0.00000000000E+00  0.00000000000E+00  0.14549450589E+03  0.14549450589E+03  0.00000000000E+00 0. -1.
         -1   -1    0    0    0  501 -0.00000000000E+00 -0.00000000000E+00 -0.96666198006E+02  0.96666198006E+02  0.00000000000E+00 0.  1.
         25    2    1    2    0    0 -0.13457638588E+02  0.26232937153E+02  0.65536058733E+02  0.14426059607E+03  0.12508744764E+03 0.  0.
          5    1    3    3  502    0 -0.33845406118E+02 -0.39090434250E+02  0.38203349264E+01  0.52015775723E+02  0.41800000000E+01 0. -1.
         -5    1    3    3    0  502  0.20387767530E+02  0.65323371403E+02  0.61715723806E+02  0.92244820349E+02  0.41800000000E+01 0. -1.
        -11    1    1    2    0    0  0.32911693687E+02  0.17540543369E+02 -0.30361727013E+02  0.48090380641E+02  0.00000000000E+00 0.  1.
         11    1    1    2    0    0 -0.19454055099E+02 -0.43773480522E+02  0.13653976163E+02  0.49809727181E+02  0.00000000000E+00 0. -1.
</event>
<event>
 7    1  0.2644565E-009  0.1207047E+03  0.7561462E-02  0.1241939E+00
         -2   -1    0    0    0  501 -0.00000000000E+00  0.00000000000E+00  0.20816968475E+02  0.20816968475E+02  0.00000000000E+00 0.  1.
          2   -1    0    0  501    0  0.00000000000E+00 -0.00000000000E+00 -0.14110380641E+04  0.14110380641E+04  0.00000000000E+00 0. -1.
         25    2    1    2    0    0 -0.16896358222E+02 -0.99834915082E+02 -0.10871160372E+04  0.10989639998E+04  0.12509235510E+03 0.  0.
          5    1    3    3  502    0  0.39198113533E+02 -0.28789124731E+02 -0.68622244544E+03  0.68795641057E+03  0.41800000000E+01 0. -1.
         -5    1    3    3    0  502 -0.56094471754E+02 -0.71045790351E+02 -0.40089359175E+03  0.41100758921E+03  0.41800000000E+01 0. -1.
        -11    1    1    2    0    0 -0.18816826393E+01  0.13042309775E+02  0.35419816976E+01  0.13645079998E+02  0.00000000000E+00 0.  1.
         11    1    1    2    0    0  0.18778040861E+02  0.86792605307E+02 -0.30664704012E+03  0.31924595278E+03  0.00000000000E+00 0. -1.
</event>
<event>
 7    1  0.2644565E-009  0.1135679E+03  0.7561462E-02  0.1254102E+00
         -2   -1    0    0    0  501 -0.00000000000E+00  0.00000000000E+00  0.15890100574E+02  0.15890100574E+02  0.00000000000E+00 0.  1.
          2   -1    0    0  501    0  0.00000000000E+00 -0.00000000000E+00 -0.96325594030E+03  0.96325594030E+03  0.00000000000E+00 0. -1.
         25    2    1    2    0    0  0.20939012016E+02  0.39140283975E+02 -0.63864485122E+03  0.65229183813E+03  0.12508793723E+03 0.  0.
          5    1    3    3  502    0 -0.25442933529E+02  0.64361171238E+02 -0.22981903638E+03  0.24004992213E+03  0.41800000000E+01 0. -1.
         -5    1    3    3    0  502  0.46381945545E+02 -0.25220887263E+02 -0.40882581484E+03  0.41224191600E+03  0.41800000000E+01 0. -1.
        -11    1    1    2    0    0  0.25835535511E+02 -0.50483956803E+02 -0.20145347462E+03  0.20928355699E+03  0.00000000000E+00 0.  1.
         11    1    1    2    0    0 -0.46774547527E+02  0.11343672828E+02 -0.10726751389E+03  0.11757064577E+03  0.00000000000E+00 0. -1.
</event>
<event>
 7    1  0.2644565E-009  0.6961773E+02  0.7561462E-02  0.1361398E+00
         -1   -1    0    0    0  501 -0.00000000000E+00  0.00000000000E+00  0.21689024708E+03  0.21689024708E+03  0.00000000000E+00 0.  1.
          1   -1    0    0  501    0  0.00000000000E+00 -0.00000000000E+00 -0.74032165242E+02  0.74032165242E+02  0.00000000000E+00 0. -1.
         25    2    1    2    0    0  0.56316112751E+02  0.12978598413E+02  0.11539198151E+03  0.17972934978E+03  0.12508949278E+03 0.  0.
          5    1    3    3  502    0  0.29720905901E+02 -0.18024196932E+00  0.13860945526E+03  0.14182178332E+03  0.41800000000E+01 0.  1.
         -5    1    3    3    0  502  0.26595206850E+02  0.13158840382E+02 -0.23217473754E+02  0.37907566463E+02  0.41800000000E+01 0.  1.
        -11    1    1    2    0    0 -0.22917764120E+02 -0.33103830508E+02 -0.23808999798E+02  0.46775591690E+02  0.00000000000E+00 0. -1.
         11    1    1    2    0    0 -0.33398348630E+02  0.20125232095E+02  0.51275100125E+02  0.64417470852E+02  0.00000000000E+00 0.  1.
</event>
<event>
 7    1  0.2644565E-009  0.6827789E+02  0.7561462E-02  0.1366049E+00
         -1   -1    0    0    0  501 -0.00000000000E+00  0.00000000000E+00  0.24262707643E+03  0.24262707643E+03  0.00000000000E+00 0.  1.
          1   -1    0    0  501    0  0.00000000000E+00 -0.00000000000E+00 -0.59604312286E+02  0.59604312286E+02  0.00000000000E+00 0. -1.
         25    2    1    2    0    0 -0.50492450386E+02  0.18257082075E+01  0.95662596354E+02  0.16538334250E+03  0.12508995515E+03 0.  0.
          5    1    3    3  502    0 -0.48251104368E+02 -0.16946473863E+02 -0.14668211933E+02  0.53366477216E+02  0.41800000000E+01 0. -1.
         -5    1    3    3    0  502 -0.22413460181E+01  0.18772182071E+02  0.11033080829E+03  0.11201686529E+03  0.41800000000E+01 0. -1.
        -11    1    1    2    0    0  0.25862718997E+02  0.20219059869E+02 -0.97670386943E+01  0.34250338112E+02  0.00000000000E+00 0. -1.
         11    1    1    2    0    0  0.24629731389E+02 -0.22044768077E+02  0.97127206484E+02  0.10259770810E+03  0.00000000000E+00 0.  1.
</event>
<event>
 7    1  0.2644565E-009  0.1447767E+03  0.7561462E-02  0.1207042E+00
          4   -1    0    0  501    0  0.00000000000E+00  0.00000000000E+00  0.12929540525E+03  0.12929540525E+03  0.00000000000E+00 0. -1.
         -4   -1    0    0    0  501 -0.00000000000E+00 -0.00000000000E+00 -0.17795335605E+03  0.17795335605E+03  0.00000000000E+00 0.  1.
         25    2    1    2    0    0  0.10479434760E+03  0.31953968383E+01 -0.42141886175E+02  0.16856435141E+03  0.12508371655E+03 0.  0.
          5    1    3    3  502    0 -0.30012876584E+01 -0.44753163823E+02 -0.88751180467E+01  0.45913979572E+02  0.41800000000E+01 0.  1.
         -5    1    3    3    0  502  0.10779563526E+03  0.47948560662E+02 -0.33266768128E+02  0.12265037184E+03  0.41800000000E+01 0.  1.
        -11    1    1    2    0    0 -0.44517143877E+02 -0.36517081921E+02 -0.31239457310E+02  0.65507076442E+02  0.00000000000E+00 0.  1.
         11    1    1    2    0    0 -0.60277203724E+02  0.33321685083E+02  0.24723392684E+02  0.73177333454E+02  0.00000000000E+00 0. -1.
</event>
<event>
 7    1  0.2644565E-009  0.1273982E+03  0.7561462E-02  0.1231368E+00
         -1   -1    0    0    0  501 -0.00000000000E+00  0.00000000000E+00  0.80022468263E+02  0.80022468263E+02  0.00000000000E+00 0.  1.
          1   -1    0    0  501    0  0.00000000000E+00 -0.00000000000E+00 -0.74601073461E+03  0.74601073461E+03  0.00000000000E+00 0. -1.
         25    2    1    2    0    0  0.48528094074E+01  0.79275692921E+02 -0.68217070356E+03  0.69807770892E+03  0.12508970240E+03 0.  0.
          5    1    3    3  502    0 -0.48549976151E+02 -0.30016107575E+01 -0.18701716662E+03  0.19328477141E+03  0.41800000000E+01 0.  1.
         -5    1    3    3    0  502  0.53402785558E+02  0.82277303679E+02 -0.49515353695E+03  0.50479293751E+03  0.41800000000E+01 0.  1.
        -11    1    1    2    0    0  0.31638237485E+02 -0.56576021439E+02 -0.23999198234E+02  0.69121529127E+02  0.00000000000E+00 0. -1.
         11    1    1    2    0    0 -0.36491046892E+02 -0.22699671482E+02  0.40181635455E+02  0.58833964820E+02  0.00000000000E+00 0.  1.
</event>
<event>
 7    1  0.2644565E-009  0.1904309E+03  0.7561462E-02  0.1158073E+00
         -1   -1    0    0    0  501 -0.00000000000E+00  0.00000000000E+00  0.10637429639E+04  0.10637429639E+04  0.00000000000E+00 0.  1.
          1   -1    0    0  501    0  0.00000000000E+00 -0.00000000000E+00 -0.42835481265E+02  0.42835481265E+02  0.00000000000E+00 0. -1.
         25    2    1    2    0    0 -0.21007415619E+02 -0.16643812781E+03  0.33820228317E+03  0.39770719895E+03  0.12508904770E+03 0.  0.
          5    1    3    3  502    0 -0.56912154806E+02 -0.97840938288E+02  0.11497029188E+03  0.16139232629E+03  0.41800000000E+01 0.  1.
         -5    1    3    3    0  502  0.35904739187E+02 -0.68597189527E+02  0.22323199128E+03  0.23631487266E+03  0.41800000000E+01 0.  1.
        -11    1    1    2    0    0 -0.33859725679E+02  0.41207976170E+02  0.22124997987E+03  0.22758763568E+03  0.00000000000E+00 0. -1.
         11    1    1    2    0    0  0.54867141299E+02  0.12523015164E+03  0.46145521963E+03  0.48128361056E+03  0.00000000000E+00 0.  1.
</event>
<event>
 7    1  0.2644565E-009  0.1867637E+03  0.7561462E-02  0.1161413E+00
         -2   -1    0    0    0  501 -0.00000000000E+00  0.00000000000E+00  0.97167085080E+02  0.97167085080E+02  0.00000000000E+00 0.  1.
          2   -1    0    0  501    0  0.00000000000E+00 -0.00000000000E+00 -0.39638428897E+03  0.39638428897E+03  0.00000000000E+00 0. -1.
         25    2    1    2    0    0 -0.12447946220E+03  0.91257901810E+02 -0.99822349178E+02  0.22233919934E+03  0.12508827689E+03 0.  0.
          5    1    3    3  502    0 -0.13047137170E+03  0.37940823587E+02 -0.99601180181E+02  0.16852344769E+03  0.41800000000E+01 0.  1.
         -5    1    3    3    0  502  0.59919095027E+01  0.53317078223E+02 -0.22116899764E+00  0.53815751648E+02  0.41800000000E+01 0.  1.
        -11    1    1    2    0    0  0.96561833023E+02 -0.90875730588E+01 -0.10150153068E+03  0.14038992952E+03  0.00000000000E+00 0.  1.
         11    1    1    2    0    0  0.27917629178E+02 -0.82170328751E+02 -0.97893324031E+02  0.13082224519E+03  0.00000000000E+00 0. -1.
</event>
<event>
 7    1  0.2644565E-009  0.1219570E+03  0.7561462E-02  0.1239903E+00
          2   -1    0    0  501    0  0.00000000000E+00  0.00000000000E+00  0.81020641555E+03  0.81020641555E+03  0.00000000000E+00 0. -1.
         -2   -1    0    0    0  501 -0.00000000000E+00 -0.00000000000E+00 -0.32668744447E+02  0.32668744447E+02  0.00000000000E+00 0.  1.
         25    2    1    2    0    0 -0.10190816024E+03  0.55672939214E+02  0.49007604075E+03  0.51894699105E+03  0.12508678792E+03 0.  0.
          5    1    3    3  502    0 -0.31696282416E+02  0.23848118728E+02  0.24061911622E+02  0.46581488564E+02  0.41800000000E+01 0.  1.
         -5    1    3    3    0  502 -0.70211877827E+02  0.31824820485E+02  0.46601412913E+03  0.47236550248E+03  0.41800000000E+01 0.  1.
        -11    1    1    2    0    0  0.45875693697E+02 -0.53882192782E+02  0.24081785977E+03  0.25100022222E+03  0.00000000000E+00 0. -1.
         11    1    1    2    0    0  0.56032466547E+02 -0.17907464315E+01  0.46643770581E+02  0.72927946729E+02  0.00000000000E+00 0.  1.
</event>
<event>
 7    1  0.2644565E-009  0.1293055E+03  0.7561462E-02  0.1228490E+00
         -2   -1    0    0    0  501 -0.00000000000E+00  0.00000000000E+00  0.27878587465E+02  0.27878587465E+02  0.00000000000E+00 0.  1.
          2   -1    0    0  501    0  0.00000000000E+00 -0.00000000000E+00 -0.69053077888E+03  0.69053077888E+03  0.00000000000E+00 0. -1.
         25    2    1    2    0    0 -0.71254369491E+02  0.43209918160E+02 -0.32226422300E+03  0.35559061279E+03  0.12508466046E+03 0.  0.
          5    1    3    3  502    0 -0.59755996203E+02  0.85370701369E+02 -0.19777207198E+03  0.22358488453E+03  0.41800000000E+01 0. -1.
         -5    1    3    3    0  502 -0.11498373288E+02 -0.42160783209E+02 -0.12449215102E+03  0.13200572826E+03  0.41800000000E+01 0. -1.
        -11    1    1    2    0    0  0.38241763747E+02  0.16925512070E+02 -0.53841139312E+02  0.68174582769E+02  0.00000000000E+00 0.  1.
         11    1    1    2    0    0  0.33012605744E+02 -0.60135430230E+02 -0.28654682911E+03  0.29464417079E+03  0.00000000000E+00 0. -1.
</event>
<event>
 7    1  0.2644565E-009  0.3455884E+03  0.7561462E-02  0.1064440E+00
         -2   -1    0    0    0  501 -0.00000000000E+00  0.00000000000E+00  0.11255828570E+03  0.11255828570E+03  0.00000000000E+00 0.  1.
          2   -1    0    0  501    0  0.00000000000E+00 -0.00000000000E+00 -0.13794641267E+04  0.13794641267E+04  0.00000000000E+00 0. -1.
         25    2    1    2    0    0  0.33183626120E+03 -0.35479350911E+02 -0.97910074448E+03  0.10419498895E+04  0.12508883154E+03 0.  0.
          5    1    3    3  502    0  0.26799801238E+03 -0.76231704374E+02 -0.72261631247E+03  0.77448435417E+03  0.41800000000E+01 0. -1.
         -5    1    3    3    0  502  0.63838248816E+02  0.40752353463E+02 -0.25648443200E+03  0.26746553532E+03  0.41800000000E+01 0. -1.
        -11    1    1    2    0    0 -0.28310185898E+03  0.45979658842E+02 -0.27766793095E+03  0.39919953840E+03  0.00000000000E+00 0. -1.
         11    1    1    2    0    0 -0.48734402222E+02 -0.10500307931E+02 -0.10137165565E+02  0.50872984504E+02  0.00000000000E+00 0.  1.
</event>
<event>
 7    1  0.2644565E-009  0.7445201E+02  0.7561462E-02  0.1345576E+00
          1   -1    0    0  501    0  0.00000000000E+00  0.00000000000E+00  0.29418636410E+03  0.29418636410E+03  0.00000000000E+00 0. -1.
         -1   -1    0    0    0  501 -0.00000000000E+00 -0.00000000000E+00 -0.40384461187E+02  0.40384461187E+02  0.00000000000E+00 0.  1.
         25    2    1    2    0    0  0.13794995431E+02 -0.11726035956E+02  0.15727525396E+03  0.20176988228E+03  0.12509107910E+03 0.  0.
          5    1    3    3  502    0 -0.22377238032E+02 -0.21868213732E+02  0.16074204910E+03  0.16381220437E+03  0.41800000000E+01 0.  1.
         -5    1    3    3    0  502  0.36172233462E+02  0.10142177777E+02 -0.34667951371E+01  0.37957677909E+02  0.41800000000E+01 0.  1.
        -11    1    1    2    0    0 -0.45224800181E+02 -0.19399004133E+01  0.85595066354E+02  0.96827481374E+02  0.00000000000E+00 0. -1.
         11    1    1    2    0    0  0.31429804751E+02  0.13665936369E+02  0.10931582597E+02  0.35973461629E+02  0.00000000000E+00 0.  1.
</event>
<event>
 7    1  0.2644565E-009  0.9970870E+02  0.7561462E-02  0.1280910E+00
          1   -1    0    0  501    0  0.00000000000E+00  0.00000000000E+00  0.65669375959E+03  0.65669375959E+03  0.00000000000E+00 0. -1.
         -1   -1    0    0    0  501 -0.00000000000E+00 -0.00000000000E+00 -0.31789038873E+02  0.31789038873E+02  0.00000000000E+00 0.  1.
         25    2    1    2    0    0 -0.51189110091E+02  0.41402935049E+02  0.17453574825E+03  0.22460093255E+03  0.12509325905E+03 0.  0.
          5    1    3    3  502    0 -0.57886793690E+02  0.11737813079E+02  0.18334073377E+03  0.19266539440E+03  0.41800000000E+01 0. -1.
         -5    1    3    3    0  502  0.66976835995E+01  0.29665121970E+02 -0.88049855123E+01  0.31935538151E+02  0.41800000000E+01 0. -1.
        -11    1    1    2    0    0 -0.21696499701E+02  0.60636023501E+01  0.64174466846E+02  0.68013730729E+02  0.00000000000E+00 0.  1.
         11    1    1    2    0    0  0.72885609792E+02 -0.47466537399E+02  0.38619450562E+03  0.39586813519E+03  0.00000000000E+00 0. -1.
</event>
<event>
 7    1  0.2644565E-009  0.1184234E+03  0.7561462E-02  0.1245721E+00
          2   -1    0    0  501    0  0.00000000000E+00  0.00000000000E+00  0.24647186498E+03  0.24647186498E+03  0.00000000000E+00 0. -1.
         -2   -1    0    0    0  501 -0.00000000000E+00 -0.00000000000E+00 -0.83911890426E+02  0.83911890426E+02  0.00000000000E+00 0.  1.
         25    2    1    2    0    0  0.33547754859E+02 -0.85666647889E+02  0.14799086484E+03  0.21450680619E+03  0.12509055684E+03 0.  0.
          5    1    3    3  502    0  0.38336941684E+02 -0.10935506646E+03  0.76478197447E+02  0.13890514297E+03  0.41800000000E+01 0. -1.
         -5    1    3    3    0  502 -0.47891868251E+01  0.23688418568E+02  0.71512667396E+02  0.75601663227E+02  0.41800000000E+01 0. -1.
        -11    1    1    2    0    0 -0.20688888265E+02  0.17805688057E+02  0.34498046067E+02  0.43990769569E+02  0.00000000000E+00 0. -1.
         11    1    1    2    0    0 -0.12858866594E+02  0.67860959832E+02 -0.19928936357E+02  0.71886179644E+02  0.00000000000E+00 0.  1.
</event>
<event>
 7    1  0.2644565E-009  0.1267359E+03  0.7561462E-02  0.1232381E+00
         -4   -1    0    0    0  501 -0.00000000000E+00  0.00000000000E+00  0.63146616998E+02  0.63146616998E+02  0.00000000000E+00 0.  1.
          4   -1    0    0  501    0  0.00000000000E+00 -0.00000000000E+00 -0.30623495792E+03  0.30623495792E+03  0.00000000000E+00 0. -1.
         25    2    1    2    0    0 -0.55601353294E+02 -0.41947934956E+02 -0.66317036636E+02  0.15778645241E+03  0.12508986961E+03 0.  0.
          5    1    3    3  502    0 -0.93308051842E+02 -0.15449864254E+02 -0.31147071787E+02  0.99662948606E+02  0.41800000000E+01 0. -1.
         -5    1    3    3    0  502  0.37706698548E+02 -0.26498070702E+02 -0.35169964849E+02  0.58123503799E+02  0.41800000000E+01 0. -1.
        -11    1    1    2    0    0  0.75580041466E+02  0.50388665487E+02 -0.11775613448E+03  0.14872077019E+03  0.00000000000E+00 0.  1.
         11    1    1    2    0    0 -0.19978688173E+02 -0.84407305313E+01 -0.59015169800E+02  0.62874352319E+02  0.00000000000E+00 0. -1.
</event>
<event>
 7    1  0.2644565E-009  0.2300154E+03  0.7561462E-02  0.1126629E+00
         -2   -1    0    0    0  501 -0.00000000000E+00  0.00000000000E+00  0.67782099190E+02  0.67782099190E+02  0.00000000000E+00 0.  1.
          2   -1    0    0  501    0  0.00000000000E+00 -0.00000000000E+00 -0.10382670961E+04  0.10382670961E+04  0.00000000000E+00 0. -1.
         25    2    1    2    0    0  0.11207199563E+03  0.18682756678E+03 -0.30027378802E+03  0.39150540294E+03  0.12508981113E+03 0.  0.
          5    1    3    3  502    0  0.89449153717E+02  0.70823247522E+02 -0.22214227646E+03  0.24976338179E+03  0.41800000000E+01 0. -1.
         -5    1    3    3    0  502  0.22622841917E+02  0.11600431926E+03 -0.78131511556E+02  0.14174202115E+03  0.41800000000E+01 0. -1.
        -11    1    1    2    0    0 -0.54898446333E+02 -0.14964561322E+03 -0.31712061668E+03  0.35492694247E+03  0.00000000000E+00 0.  1.
         11    1    1    2    0    0 -0.57173549301E+02 -0.37181953559E+02 -0.35309059219E+03  0.35961684986E+03  0.00000000000E+00 0. -1.
</event>
<event>
 7    1  0.2644565E-009  0.1450815E+03  0.7561462E-02  0.1206650E+00
         -3   -1    0    0    0  501 -0.00000000000E+00  0.00000000000E+00  0.36664178783E+03  0.36664178783E+03  0.00000000000E+00 0.  1.
          3   -1    0    0  501    0  0.00000000000E+00 -0.00000000000E+00 -0.70333595509E+02  0.70333595509E+02  0.00000000000E+00 0. -1.
         25    2    1    2    0    0 -0.77074311162E+02 -0.84761613350E+02  0.15638215900E+03  0.23071203833E+03  0.12509070484E+03 0.  0.
          5    1    3    3  502    0 -0.81802169136E+02 -0.11332532111E+03  0.12199053782E+03  0.18556235339E+03  0.41800000000E+01 0.  1.
         -5    1    3    3    0  502  0.47278579734E+01  0.28563707759E+02  0.34391621186E+02  0.45149684936E+02  0.41800000000E+01 0.  1.
        -11    1    1    2    0    0  0.20091431813E+02  0.14442265329E+01  0.92625696327E+02  0.94790669597E+02  0.00000000000E+00 0.  1.
         11    1    1    2    0    0  0.56982879349E+02  0.83317386817E+02  0.47300336996E+02  0.11147267542E+03  0.00000000000E+00 0. -1.
</event>
<event>
 7    1  0.2644565E-009  0.1327834E+03  0.7561462E-02  0.1223383E+00
         -2   -1    0    0    0  501 -0.00000000000E+00  0.00000000000E+00  0.21916282142E+03  0.21916282142E+03  0.00000000000E+00 0.  1.
          2   -1    0    0  501    0  0.00000000000E+00 -0.00000000000E+00 -0.87329543049E+02  0.87329543049E+02  0.00000000000E+00 0. -1.
         25    2    1    2    0    0 -0.78694344581E+02 -0.23111906694E+02  0.42069268414E+02  0.15538496611E+03  0.12509078402E+03 0.  0.
          5    1    3    3  502    0 -0.10468268992E+03  0.12118416041E+02  0.32728163989E+02  0.11042611419E+03  0.41800000000E+01 0. -1.
         -5    1    3    3    0  502  0.25988345342E+02 -0.35230322736E+02  0.93411044255E+01  0.44958851916E+02  0.41800000000E+01 0. -1.
        -11    1    1    2    0    0  0.54329735335E+02  0.54122398535E+02  0.79279388903E+02  0.11030038835E+03  0.00000000000E+00 0.  1.
         11    1    1    2    0    0  0.24364609246E+02 -0.31010491841E+02  0.10484621056E+02  0.40807010018E+02  0.00000000000E+00 0. -1.
</event>
<event>
 7    1  0.2644565E-009  0.9923448E+02  0.7561462E-02  0.1281914E+00
          2   -1    0    0  501    0  0.00000000000E+00  0.00000000000E+00  0.19943506268E+03  0.19943506268E+03  0.00000000000E+00 0. -1.
         -2   -1    0    0    0  501 -0.00000000000E+00 -0.00000000000E+00 -0.78636814770E+02  0.78636814770E+02  0.00000000000E+00 0.  1.
         25    2    1    2    0    0 -0.45394783230E+02 -0.29468776645E+02  0.33819486407E+02  0.14042999642E+03  0.12509089132E+03 0.  0.
          5    1    3    3  502    0 -0.37896369118E+02  0.42682534768E+02 -0.60499888260E+01  0.57550050664E+02  0.41800000000E+01 0. -1.
         -5    1    3    3    0  502 -0.74984141120E+01 -0.72151311413E+02  0.39869475233E+02  0.82879945754E+02  0.41800000000E+01 0. -1.
        -11    1    1    2    0    0  0.38520695015E+02  0.20912378160E+00 -0.68421072356E+01  0.39124188281E+02  0.00000000000E+00 0.  1.
         11    1    1    2    0    0  0.68740882151E+01  0.29259652863E+02  0.93820868738E+02  0.98517692753E+02  0.00000000000E+00 0. -1.
</event>
<event>
 7    1  0.2644565E-009  0.2060663E+03  0.7561462E-02  0.1144719E+00
          2   -1    0    0  501    0  0.00000000000E+00  0.00000000000E+00  0.10514998559E+04  0.10514998559E+04  0.00000000000E+00 0. -1.
         -2   -1    0    0    0  501 -0.00000000000E+00 -0.00000000000E+00 -0.45420721769E+02  0.45420721769E+02  0.00000000000E+00 0.  1.
         25    2    1    2    0    0  0.34767011894E+02  0.18299757715E+03  0.60363715343E+03  0.64398923868E+03  0.12508984042E+03 0.  0.
          5    1    3    3  502    0 -0.46281275242E+02  0.48184785101E+02  0.18801187028E+03  0.19957370999E+03  0.41800000000E+01 0. -1.
         -5    1    3    3    0  502  0.81048287136E+02  0.13481279204E+03  0.41562528316E+03  0.44441552869E+03  0.41800000000E+01 0. -1.
        -11    1    1    2    0    0 -0.23576753299E+01 -0.76010576705E+02  0.74494803286E+02  0.10645488303E+03  0.00000000000E+00 0.  1.
         11    1    1    2    0    0 -0.32409336564E+02 -0.10698700044E+03  0.32794717740E+03  0.34647645594E+03  0.00000000000E+00 0. -1.
</event>
<event>
 7    1  0.2644565E-009  0.1327996E+03  0.7561462E-02  0.1223360E+00
         -3   -1    0    0    0  501 -0.00000000000E+00  0.00000000000E+00  0.83239383852E+02  0.83239383852E+02  0.00000000000E+00 0.  1.
          3   -1    0    0  501    0  0.00000000000E+00 -0.00000000000E+00 -0.33100429311E+03  0.33100429311E+03  0.00000000000E+00 0. -1.
         25    2    1    2    0    0  0.69083338673E+02  0.65646216275E+02 -0.30770117307E+02  0.16023936713E+03  0.12509165146E+03 0.  0.
          5    1    3    3  502    0  0.61548738343E+02 -0.91622563223E+01  0.24314775663E+02  0.66939337075E+02  0.41800000000E+01 0. -1.
         -5    1    3    3    0  502  0.75346003296E+01  0.74808472598E+02 -0.55084892970E+02  0.93300030054E+02  0.41800000000E+01 0. -1.
        -11    1    1    2    0    0 -0.20316049852E+02 -0.75491826106E+02 -0.10046742455E+03  0.12730067197E+03  0.00000000000E+00 0.  1.
         11    1    1    2    0    0 -0.48767288821E+02  0.98456098308E+01 -0.11652736740E+03  0.12670363786E+03  0.00000000000E+00 0. -1.
</event>
<event>
 7    1  0.2644565E-009  0.1175761E+03  0.7561462E-02  0.1247150E+00
          2   -1    0    0  501    0  0.00000000000E+00  0.00000000000E+00  0.63368047767E+03  0.63368047767E+03  0.00000000000E+00 0. -1.
         -2   -1    0    0    0  501 -0.00000000000E+00 -0.00000000000E+00 -0.29409760093E+02  0.29409760093E+02  0.00000000000E+00 0.  1.
         25    2    1    2    0    0  0.51944782993E+02  0.41511480485E+01  0.48667396251E+03  0.50518760420E+03  0.12508987629E+03 0.  0.
          5    1    3    3  502    0  0.31505947488E+02  0.64240945162E+02  0.27244698828E+03  0.28171680388E+03  0.41800000000E+01 0. -1.
         -5    1    3    3    0  502  0.20438835505E+02 -0.60089797113E+02  0.21422697422E+03  0.22347080033E+03  0.41800000000E+01 0. -1.
        -11    1    1    2    0    0 -0.41205094365E+02 -0.43005679341E+02  0.44215301329E+02  0.74177767079E+02  0.00000000000E+00 0.  1.
         11    1    1    2    0    0 -0.10739688628E+02  0.38854531292E+02  0.73381453744E+02  0.83724866482E+02  0.00000000000E+00 0. -1.
</event>
<event>
 7    1  0.2644565E-009  0.3572179E+03  0.7561462E-02  0.1059691E+00
         -2   -1    0    0    0  501 -0.00000000000E+00  0.00000000000E+00  0.11229109323E+03  0.11229109323E+03  0.00000000000E+00 0.  1.
          2   -1    0    0  501    0  0.00000000000E+00 -0.00000000000E+00 -0.11828892137E+04  0.11828892137E+04  0.00000000000E+00 0. -1.
         25    2    1    2    0    0 -0.45344477324E+02  0.34488023804E+03 -0.56663292377E+03  0.67654820438E+03  0.12508438085E+03 0.  0.
          5    1    3    3  502    0 -0.53392111270E+02  0.12748912076E+03 -0.13539352592E+03  0.19352796366E+03  0.41800000000E+01 0. -1.
         -5    1    3    3    0  502  0.80476339464E+01  0.21739111728E+03 -0.43123939785E+03  0.48302024072E+03  0.41800000000E+01 0. -1.
        -11    1    1    2    0    0  0.55487452063E+02 -0.10748111545E+03 -0.16014580855E+03  0.20069311774E+03  0.00000000000E+00 0. -1.
         11    1    1    2    0    0 -0.10142974739E+02 -0.23739912259E+03 -0.34381938813E+03  0.41793898478E+03  0.00000000000E+00 0.  1.
</event>
<event>
 7    1  0.2644565E-009  0.1428637E+03  0.7561462E-02  0.1209527E+00
         -1   -1    0    0    0  501 -0.00000000000E+00  0.00000000000E+00  0.67048166630E+02  0.67048166630E+02  0.00000000000E+00 0.  1.
          1   -1    0    0  501    0  0.00000000000E+00 -0.00000000000E+00 -0.41003037894E+03  0.41003037894E+03  0.00000000000E+00 0. -1.
         25    2    1    2    0    0  0.10740055408E+03 -0.60151356368E+02 -0.15789372795E+03  0.23607582042E+03  0.12509316117E+03 0.  0.
          5    1    3    3  502    0  0.76055083049E+02 -0.16201356547E+02 -0.16403780541E+03  0.18158395748E+03  0.41800000000E+01 0. -1.
         -5    1    3    3    0  502  0.31345471032E+02 -0.43949999822E+02  0.61440774607E+01  0.54491862938E+02  0.41800000000E+01 0. -1.
        -11    1    1    2    0    0 -0.96317451897E+02  0.83750551518E+02 -0.14491211805E+03  0.19310807435E+03  0.00000000000E+00 0.  1.
         11    1    1    2    0    0 -0.11083102184E+02 -0.23599195149E+02 -0.40176366307E+02  0.47894650801E+02  0.00000000000E+00 0. -1.
</event>
<event>
 7    1  0.2644565E-009  0.9345434E+02  0.7561462E-02  0.1294696E+00
         -1   -1    0    0    0  501 -0.00000000000E+00  0.00000000000E+00  0.17074415092E+03  0.17074415092E+03  0.00000000000E+00 0.  1.
          1   -1    0    0  501    0  0.00000000000E+00 -0.00000000000E+00 -0.67139340188E+02  0.67139340188E+02  0.00000000000E+00 0. -1.
         25    2    1    2    0    0 -0.14798792424E+02 -0.57158314025E+01  0.54408535380E+02  0.13732824190E+03  0.12508829808E+03 0.  0.
          5    1    3    3  502    0  0.42131149665E+02  0.23156006008E+02  0.55245111478E+02  0.73353453419E+02  0.41800000000E+01 0. -1.
         -5    1    3    3    0  502 -0.56929942088E+02 -0.28871837410E+02 -0.83657609871E+00  0.63974788481E+02  0.41800000000E+01 0. -1.
        -11    1    1    2    0    0  0.81415121568E+01 -0.33719975516E+02 -0.29773461241E+01  0.34816455290E+02  0.00000000000E+00 0. -1.
         11    1    1    2    0    0  0.66572802669E+01  0.39435806919E+02  0.52173621477E+02  0.65738793918E+02  0.00000000000E+00 0.  1.
</event>
<event>
 7    1  0.2668134E-009  0.1251710E+03  0.7561462E-02  0.1234802E+00
          1   -1    0    0  501    0  0.00000000000E+00  0.00000000000E+00  0.88678432187E+03  0.88678432187E+03  0.00000000000E+00 0. -1.
         -1   -1    0    0    0  501 -0.00000000000E+00 -0.00000000000E+00 -0.21758989304E+02  0.21758989304E+02  0.00000000000E+00 0.  1.
         25    2    1    2    0    0  0.36833390537E+02  0.64013820573E+02  0.62319042944E+03  0.63989832134E+03  0.12509629258E+03 0.  0.
          5    1    3    3  502    0  0.59731116638E+02 -0.97240851797E+01  0.17826226475E+03  0.18830101317E+03  0.41800000000E+01 0.  1.
         -5    1    3    3    0  502 -0.22897726101E+02  0.73737905753E+02  0.44492816469E+03  0.45159730817E+03  0.41800000000E+01 0.  1.
        -11    1    1    2    0    0 -0.24337792649E+02 -0.84733802330E+02  0.15308140769E+03  0.17665237838E+03  0.00000000000E+00 0.  1.
         11    1    1    2    0    0 -0.12495597888E+02  0.20719981757E+02  0.88753495435E+02  0.91992611456E+02  0.00000000000E+00 0. -1.
</event>
<event>
 7    1  0.2644565E-009  0.8251321E+02  0.7561462E-02  0.1322067E+00
         -2   -1    0    0    0  501 -0.00000000000E+00  0.00000000000E+00  0.37904015602E+02  0.37904015602E+02  0.00000000000E+00 0.  1.
          2   -1    0    0  501    0  0.00000000000E+00 -0.00000000000E+00 -0.39481656622E+03  0.39481656622E+03  0.00000000000E+00 0. -1.
         25    2    1    2    0    0 -0.19916471913E+02 -0.53166208625E+02 -0.20985529777E+03  0.25081857440E+03  0.12508956657E+03 0.  0.
          5    1    3    3  502    0 -0.22614275752E+02 -0.67019594773E+02 -0.42100831193E+02  0.82419560412E+02  0.41800000000E+01 0. -1.
         -5    1    3    3    0  502  0.26978038395E+01  0.13853386148E+02 -0.16775446658E+03  0.16839901398E+03  0.41800000000E+01 0. -1.
        -11    1    1    2    0    0 -0.19424321722E+02  0.14045361226E+02  0.79443253774E+00  0.23983485347E+02  0.00000000000E+00 0.  1.
         11    1    1    2    0    0  0.39340793635E+02  0.39120847399E+02 -0.14785168538E+03  0.15791852208E+03  0.00000000000E+00 0. -1.
</event>
<event>
 7    1  0.2706524E-009  0.9481988E+02  0.7561462E-02  0.1291582E+00
         -1   -1    0    0    0  501 -0.00000000000E+00  0.00000000000E+00  0.23268014899E+03  0.23268014899E+03  0.00000000000E+00 0. -1.
          1   -1    0    0  501    0  0.00000000000E+00 -0.00000000000E+00 -0.67253888100E+02  0.67253888100E+02  0.00000000000E+00 0.  1.
         25    2    1    2    0    0 -0.21233421161E+02  0.54087967900E+02  0.64084596780E+02  0.15208759489E+03  0.12508970593E+03 0.  0.
          5    1    3    3  502    0  0.22867583734E+02  0.75412365250E+02  0.66015438474E+02  0.10288567313E+03  0.41800000000E+01 0. -1.
         -5    1    3    3    0  502 -0.44101004895E+02 -0.21324397350E+02 -0.19308416945E+01  0.49201921758E+02  0.41800000000E+01 0. -1.
        -11    1    1    2    0    0  0.89858616682E+00 -0.30104555674E+02  0.11095178087E+03  0.11496690570E+03  0.00000000000E+00 0.  1.
         11    1    1    2    0    0  0.20334834994E+02 -0.23983412226E+02 -0.96101167574E+01  0.32879536498E+02  0.00000000000E+00 0. -1.
</event>
<event>
 6    1  0.2644565E-009  0.8834836E+02  0.7561462E-02  0.1306901E+00
          1   -1    0    0  501    0  0.00000000000E+00  0.00000000000E+00  0.77015986724E+02  0.77015986724E+02  0.00000000000E+00 0. -1.
         -1   -1    0    0    0  501 -0.00000000000E+00 -0.00000000000E+00 -0.19696110164E+03  0.19696110164E+03  0.00000000000E+00 0.  1.
          5    1    1    2  502    0  0.28826017803E+01  0.89507444269E+01 -0.82127742151E+02  0.82769944120E+02  0.41800000000E+01 0. -1.
         -5    1    1    2    0  502 -0.60055533186E+02  0.72889101054E+00  0.26592463599E+02  0.65816638236E+02  0.41800000000E+01 0. -1.
        -11    1    1    2    0    0  0.81189589932E+02 -0.28821142072E+01 -0.57374113861E+02  0.99457755037E+02  0.00000000000E+00 0.  1.
         11    1    1    2    0    0 -0.24016658526E+02 -0.67975212302E+01 -0.70357224973E+01  0.25932750967E+02  0.00000000000E+00 0. -1.
</event>
<event>
 7    1  0.2644565E-009  0.1064522E+03  0.7561462E-02  0.1267285E+00
          2   -1    0    0  501    0  0.00000000000E+00  0.00000000000E+00  0.43674953726E+03  0.43674953726E+03  0.00000000000E+00 0. -1.
         -2   -1    0    0    0  501 -0.00000000000E+00 -0.00000000000E+00 -0.74997965486E+02  0.74997965486E+02  0.00000000000E+00 0.  1.
         25    2    1    2    0    0  0.83585052009E+02 -0.20327756723E+02  0.35598326403E+03  0.38700469675E+03  0.12509545324E+03 0.  0.
          5    1    3    3  502    0  0.97803107315E+02 -0.30489751397E+02  0.15892464615E+03  0.18912849678E+03  0.41800000000E+01 0.  1.
         -5    1    3    3    0  502 -0.14218055306E+02  0.10161994674E+02  0.19705861788E+03  0.19787619997E+03  0.41800000000E+01 0.  1.
        -11    1    1    2    0    0 -0.13501521519E+02  0.17713276012E+02  0.40697793206E+02  0.46393551300E+02  0.00000000000E+00 0. -1.
         11    1    1    2    0    0 -0.70083530490E+02  0.26144807104E+01 -0.34929485471E+02  0.78349254691E+02  0.00000000000E+00 0.  1.
</event>
<event>
 7    1  0.2644565E-009  0.1255382E+03  0.7561462E-02  0.1234231E+00
         -2   -1    0    0    0  501 -0.00000000000E+00  0.00000000000E+00  0.29802451563E+03  0.29802451563E+03  0.00000000000E+00 0.  1.
          2   -1    0    0  501    0  0.00000000000E+00 -0.00000000000E+00 -0.60282177169E+02  0.60282177169E+02  0.00000000000E+00 0. -1.
         25    2    1    2    0    0  0.28961611301E+02  0.61408077381E+02  0.77492421854E+02  0.16205525521E+03  0.12508838236E+03 0.  0.
          5    1    3    3  502    0 -0.44150127288E+02  0.49363767667E+02  0.23976011181E+02  0.70557329952E+02  0.41800000000E+01 0.  1.
         -5    1    3    3    0  502  0.73111738590E+02  0.12044309715E+02  0.53516410673E+02  0.91497925263E+02  0.41800000000E+01 0.  1.
        -11    1    1    2    0    0 -0.50349574383E+02 -0.55072525256E+01  0.52215450093E+02  0.72745190215E+02  0.00000000000E+00 0. -1.
         11    1    1    2    0    0  0.21387963082E+02 -0.55900824855E+02  0.10803446651E+03  0.12350624737E+03  0.00000000000E+00 0.  1.
</event>
<event>
 7    1  0.2644565E-009  0.1663378E+03  0.7561462E-02  0.1181722E+00
         -1   -1    0    0    0  501 -0.00000000000E+00  0.00000000000E+00  0.56238096305E+03  0.56238096305E+03  0.00000000000E+00 0.  1.
          1   -1    0    0  501    0  0.00000000000E+00 -0.00000000000E+00 -0.64462796169E+02  0.64462796169E+02  0.00000000000E+00 0. -1.
         25    2    1    2    0    0  0.18797606398E+02  0.15538119518E+03  0.27744606593E+03  0.34222868745E+03  0.12508992442E+03 0.  0.
          5    1    3    3  502    0  0.17201301813E+02  0.46417150272E+02  0.20587716120E+03  0.21178601117E+03  0.41800000000E+01 0.  1.
         -5    1    3    3    0  502  0.15963045844E+01  0.10896404491E+03  0.71568904732E+02  0.13044267628E+03  0.41800000000E+01 0.  1.
        -11    1    1    2    0    0 -0.47366961983E+02 -0.11592030160E+03  0.18863902775E+03  0.22641958441E+03  0.00000000000E+00 0.  1.
         11    1    1    2    0    0  0.28569355586E+02 -0.39460893579E+02  0.31833073203E+02  0.58195487369E+02  0.00000000000E+00 0. -1.
</event>
<event>
 7    1  0.2644565E-009  0.1990671E+03  0.7561462E-02  0.1150528E+00
          1   -1    0    0  501    0  0.00000000000E+00  0.00000000000E+00  0.61249653077E+03  0.61249653077E+03  0.00000000000E+00 0. -1.
         -1   -1    0    0    0  501 -0.00000000000E+00 -0.00000000000E+00 -0.68504017076E+02  0.68504017076E+02  0.00000000000E+00 0.  1.
         25    2    1    2    0    0  0.74159707896E+02 -0.15687184378E+03  0.26007693433E+03  0.33674253917E+03  0.12508832189E+03 0.  0.
          5    1    3    3  502    0  0.76022912904E+02 -0.30430060240E+02  0.14037561022E+03  0.16256769727E+03  0.41800000000E+01 0. -1.
         -5    1    3    3    0  502 -0.18632050077E+01 -0.12644178354E+03  0.11970132411E+03  0.17417484190E+03  0.41800000000E+01 0. -1.
        -11    1    1    2    0    0 -0.46076207284E+02  0.20584142300E+02  0.11374637513E+03  0.12443858585E+03  0.00000000000E+00 0. -1.
         11    1    1    2    0    0 -0.28083500612E+02  0.13628770148E+03  0.17016920423E+03  0.21981942282E+03  0.00000000000E+00 0.  1.
</event>
<event>
 7    1  0.2644565E-009  0.1097462E+03  0.7561462E-02  0.1261041E+00
          1   -1    0    0  501    0  0.00000000000E+00  0.00000000000E+00  0.54210697760E+02  0.54210697760E+02  0.00000000000E+00 0. -1.
         -1   -1    0    0    0  501 -0.00000000000E+00 -0.00000000000E+00 -0.27532987165E+03  0.27532987165E+03  0.00000000000E+00 0.  1.
         25    2    1    2    0    0 -0.35297605058E+02  0.12095942815E+02 -0.18308405742E+03  0.22485046646E+03  0.12508288224E+03 0.  0.
          5    1    3    3  502    0  0.29220656872E+02 -0.37986241612E+02 -0.57293207129E+02  0.74811665688E+02  0.41800000000E+01 0.  1.
         -5    1    3    3    0  502 -0.64518261931E+02  0.50082184427E+02 -0.12579085029E+03  0.15003880077E+03  0.41800000000E+01 0.  1.
        -11    1    1    2    0    0  0.25770236612E+02 -0.46902833259E+02 -0.42484680528E+02  0.68329561262E+02  0.00000000000E+00 0.  1.
         11    1    1    2    0    0  0.95273684463E+01  0.34806890444E+02  0.44495640568E+01  0.36360541693E+02  0.00000000000E+00 0. -1.
</event>
<event>
 7    1  0.2644565E-009  0.9824730E+02  0.7561462E-02  0.1284025E+00
          2   -1    0    0  501    0  0.00000000000E+00  0.00000000000E+00  0.48741340782E+03  0.48741340782E+03  0.00000000000E+00 0. -1.
         -2   -1    0    0    0  501 -0.00000000000E+00 -0.00000000000E+00 -0.25453990386E+02  0.25453990386E+02  0.00000000000E+00 0.  1.
         25    2    1    2    0    0  0.70211342615E+01  0.16156478057E+02  0.31603282770E+03  0.34034226213E+03  0.12508308880E+03 0.  0.
          5    1    3    3  502    0 -0.43395691394E+02 -0.25822953859E+02  0.75050523486E+02  0.90554207264E+02  0.41800000000E+01 0.  1.
         -5    1    3    3    0  502  0.50416825655E+02  0.41979431916E+02  0.24098230421E+03  0.24978805487E+03  0.41800000000E+01 0.  1.
        -11    1    1    2    0    0  0.15290320766E+02 -0.42732354663E+02  0.12255390311E+03  0.13068782351E+03  0.00000000000E+00 0. -1.
         11    1    1    2    0    0 -0.22311455028E+02  0.26575876606E+02  0.23372686624E+02  0.41837312567E+02  0.00000000000E+00 0.  1.
</event>
<event>
 7    1  0.2880959E-009  0.1320364E+03  0.7561462E-02  0.1224465E+00
          2   -1    0    0  501    0  0.00000000000E+00  0.00000000000E+00  0.96052012119E+02  0.96052012119E+02  0.00000000000E+00 0. -1.
         -2   -1    0    0    0  501 -0.00000000000E+00 -0.00000000000E+00 -0.25067845820E+03  0.25067845820E+03  0.00000000000E+00 0.  1.
         25    2    1    2    0    0  0.55411960711E+02  0.90155720382E+02 -0.11964750448E+03  0.20288463833E+03  0.12509241318E+03 0.  0.
          5    1    3    3  502    0  0.89015937866E+02  0.67255369360E+02 -0.50450794607E+02  0.12251480310E+03  0.41800000000E+01 0.  1.
         -5    1    3    3    0  502 -0.33603977155E+02  0.22900351021E+02 -0.69196709876E+02  0.80369835232E+02  0.41800000000E+01 0.  1.
        -11    1    1    2    0    0 -0.21768069251E+02 -0.67662971111E+02  0.21595438129E+02  0.74286536105E+02  0.00000000000E+00 0. -1.
         11    1    1    2    0    0 -0.33643891460E+02 -0.22492749271E+02 -0.56574379730E+02  0.69559295886E+02  0.00000000000E+00 0.  1.
</event>
<event>
 7    1  0.2644565E-009  0.7834272E+02  0.7561462E-02  0.1333821E+00
          2   -1    0    0  501    0  0.00000000000E+00  0.00000000000E+00  0.41434774556E+03  0.41434774556E+03  0.00000000000E+00 0. -1.
         -2   -1    0    0    0  501 -0.00000000000E+00 -0.00000000000E+00 -0.29030503872E+02  0.29030503872E+02  0.00000000000E+00 0.  1.
         25    2    1    2    0    0 -0.44524310242E+01 -0.10037783085E+01  0.26497783853E+03  0.29306119613E+03  0.12510306971E+03 0.  0.
          5    1    3    3  502    0  0.32540064429E+02  0.13144258890E+02  0.12540335399E+02  0.37501463261E+02  0.41800000000E+01 0. -1.
         -5    1    3    3    0  502 -0.36992495453E+02 -0.14148037199E+02  0.25243750313E+03  0.25555973287E+03  0.41800000000E+01 0. -1.
        -11    1    1    2    0    0 -0.35785244083E+02 -0.14204522835E+02  0.89376190925E+02  0.97316266201E+02  0.00000000000E+00 0. -1.
         11    1    1    2    0    0  0.40237675107E+02  0.15208301143E+02  0.30963212231E+02  0.53000787101E+02  0.00000000000E+00 0.  1.
</event>
<event>
 6    1  0.2644565E-009  0.5941557E+02  0.7561462E-02  0.1400301E+00
         -2   -1    0    0    0  501 -0.00000000000E+00  0.00000000000E+00  0.16820022121E+03  0.16820022121E+03  0.00000000000E+00 0. -1.
          2   -1    0    0  501    0  0.00000000000E+00 -0.00000000000E+00 -0.78014806605E+02  0.78014806605E+02  0.00000000000E+00 0.  1.
          5    1    1    2  502    0 -0.77268581417E+01  0.15461930963E+02  0.81932851821E+02  0.83840564486E+02  0.41800000000E+01 0.  1.
         -5    1    1    2    0  502  0.27672362644E+02 -0.46006857311E+02 -0.23889972803E+02  0.58911745641E+02  0.41800000000E+01 0.  1.
        -11    1    1    2    0    0  0.74452333582E+01  0.11990270544E+02 -0.29948592630E+02  0.33107646971E+02  0.00000000000E+00 0.  1.
         11    1    1    2    0    0 -0.27390737860E+02  0.18554655804E+02  0.62091128214E+02  0.70355070715E+02  0.00000000000E+00 0. -1.
</event>
<event>
 7    1  0.2644565E-009  0.1187812E+03  0.7561462E-02  0.1245121E+00
          1   -1    0    0  501    0  0.00000000000E+00  0.00000000000E+00  0.53678501274E+03  0.53678501274E+03  0.00000000000E+00 0.  1.
         -1   -1    0    0    0  501 -0.00000000000E+00 -0.00000000000E+00 -0.32864966203E+02  0.32864966203E+02  0.00000000000E+00 0. -1.
         25    2    1    2    0    0  0.73425981651E+02 -0.20711644325E+02  0.24996393194E+03  0.28974665678E+03  0.12510320080E+03 0.  0.
          5    1    3    3  502    0 -0.70119660139E+01 -0.56858184255E+02  0.11363215959E+03  0.12732541332E+03  0.41800000000E+01 0. -1.
         -5    1    3    3    0  502  0.80437947665E+02  0.36146539931E+02  0.13633177235E+03  0.16242124346E+03  0.41800000000E+01 0. -1.
        -11    1    1    2    0    0 -0.22072215979E+02  0.32366433413E+02  0.20258003920E+03  0.20633332502E+03  0.00000000000E+00 0.  1.
         11    1    1    2    0    0 -0.51353765672E+02 -0.11654789089E+02  0.51376075395E+02  0.73569997148E+02  0.00000000000E+00 0. -1.
</event>
<event>
 7    1  0.2644565E-009  0.2288680E+03  0.7561462E-02  0.1127439E+00
         -2   -1    0    0    0  501 -0.00000000000E+00  0.00000000000E+00  0.40105136855E+02  0.40105136855E+02  0.00000000000E+00 0.  1.
          2   -1    0    0  501    0  0.00000000000E+00 -0.00000000000E+00 -0.16589617342E+04  0.16589617342E+04  0.00000000000E+00 0. -1.
         25    2    1    2    0    0 -0.11589525764E+03  0.19554870251E+03 -0.10226696007E+04  0.10550696379E+04  0.12509125740E+03 0.  0.
          5    1    3    3  502    0 -0.29077793535E+02  0.40558805654E+02 -0.70597649280E+02  0.86556543812E+02  0.41800000000E+01 0. -1.
         -5    1    3    3    0  502 -0.86817464103E+02  0.15498989685E+03 -0.95207195145E+03  0.96851309404E+03  0.41800000000E+01 0. -1.
        -11    1    1    2    0    0  0.49776545555E+02 -0.52380788609E+02 -0.10015539263E+03  0.12350123148E+03  0.00000000000E+00 0.  1.
         11    1    1    2    0    0  0.66118712084E+02 -0.14316791390E+03 -0.49603160398E+03  0.52049600172E+03  0.00000000000E+00 0. -1.
</event>
<event>
 7    1  0.2644565E-009  0.8542981E+02  0.7561462E-02  0.1314312E+00
          1   -1    0    0  501    0  0.00000000000E+00  0.00000000000E+00  0.10049974789E+03  0.10049974789E+03  0.00000000000E+00 0. -1.
         -1   -1    0    0    0  501 -0.00000000000E+00 -0.00000000000E+00 -0.14620929705E+03  0.14620929705E+03  0.00000000000E+00 0.  1.
         25    2    1    2    0    0 -0.38627714412E+01 -0.55769815650E+02 -0.29468151548E+02  0.14014608854E+03  0.12508941137E+03 0.  0.
          5    1    3    3  502    0 -0.41941681390E+02 -0.51779025670E+02 -0.60949626114E+02  0.90401888590E+02  0.41800000000E+01 0.  1.
         -5    1    3    3    0  502  0.38078909949E+02 -0.39907899796E+01  0.31481474566E+02  0.49744199948E+02  0.41800000000E+01 0.  1.
        -11    1    1    2    0    0 -0.72575132205E+01  0.53797980315E+02  0.27875039673E+02  0.61023864356E+02  0.00000000000E+00 0. -1.
         11    1    1    2    0    0  0.11120284662E+02  0.19718353342E+01 -0.44116437285E+02  0.45539092045E+02  0.00000000000E+00 0.  1.
</event>
<event>
 7    1  0.2644565E-009  0.1225530E+03  0.7561462E-02  0.1238944E+00
         -1   -1    0    0    0  501 -0.00000000000E+00  0.00000000000E+00  0.16534870596E+04  0.16534870596E+04  0.00000000000E+00 0.  1.
          1   -1    0    0  501    0  0.00000000000E+00 -0.00000000000E+00 -0.13252616078E+02  0.13252616078E+02  0.00000000000E+00 0. -1.
         25    2    1    2    0    0 -0.61900402374E+02  0.66892183945E+02  0.11263633692E+04  0.11369469019E+04  0.12509034354E+03 0.  0.
          5    1    3    3  502    0 -0.16078302466E+02  0.73191612293E+02  0.99100628833E+03  0.99384428349E+03  0.41800000000E+01 0.  1.
         -5    1    3    3    0  502 -0.45822099908E+02 -0.62994283475E+01  0.13535708090E+03  0.14310261838E+03  0.41800000000E+01 0.  1.
        -11    1    1    2    0    0 -0.10259161504E+02 -0.47910600502E+02  0.13432593814E+03  0.14298298393E+03  0.00000000000E+00 0.  1.
         11    1    1    2    0    0  0.72159563878E+02 -0.18981583444E+02  0.37954513610E+03  0.38680978983E+03  0.00000000000E+00 0. -1.
</event>
<event>
 7    1  0.2644565E-009  0.1683431E+03  0.7561462E-02  0.1179587E+00
         -2   -1    0    0    0  501 -0.00000000000E+00  0.00000000000E+00  0.33917828685E+02  0.33917828685E+02  0.00000000000E+00 0.  1.
          2   -1    0    0  501    0  0.00000000000E+00 -0.00000000000E+00 -0.21390853446E+04  0.21390853446E+04  0.00000000000E+00 0. -1.
         25    2    1    2    0    0  0.74920818017E+02 -0.13859878386E+03 -0.18388341457E+04  0.18498056844E+04  0.12508918042E+03 0.  0.
          5    1    3    3  502    0  0.44061429132E+02 -0.37785123835E+02 -0.12658813464E+04  0.12672182846E+04  0.41800000000E+01 0. -1.
         -5    1    3    3    0  502  0.30859388884E+02 -0.10081366002E+03 -0.57295279923E+03  0.58258739986E+03  0.41800000000E+01 0. -1.
        -11    1    1    2    0    0 -0.14964251639E+02  0.10122848503E+03 -0.10276402366E+03  0.14502268638E+03  0.00000000000E+00 0.  1.
         11    1    1    2    0    0 -0.59956566377E+02  0.37370298831E+02 -0.16356934657E+03  0.17817480244E+03  0.00000000000E+00 0. -1.
</event>
<event>
 7    1  0.3236079E-009  0.9491105E+02  0.7561462E-02  0.1291377E+00
         -1   -1    0    0    0  501 -0.00000000000E+00  0.00000000000E+00  0.47485772484E+02  0.47485772484E+02  0.00000000000E+00 0.  1.
          1   -1    0    0  501    0  0.00000000000E+00 -0.00000000000E+00 -0.38083253260E+03  0.38083253260E+03  0.00000000000E+00 0. -1.
         25    2    1    2    0    0 -0.14239440683E+02  0.72358355100E+02 -0.13659436056E+03  0.19936577634E+03  0.12510076025E+03 0.  0.
          5    1    3    3  502    0  0.16353863531E+02  0.64375922198E+02 -0.15051150444E+03  0.16456881108E+03  0.41800000000E+01 0. -1.
         -5    1    3    3    0  502 -0.30593304214E+02  0.79824329022E+01  0.13917143880E+02  0.34796965263E+02  0.41800000000E+01 0. -1.
        -11    1    1    2    0    0 -0.18202233561E+02 -0.46354328263E+02 -0.32375302464E+02  0.59398697502E+02  0.00000000000E+00 0.  1.
         11    1    1    2    0    0  0.32441674244E+02 -0.26004026837E+02 -0.16437709710E+03  0.16955383124E+03  0.00000000000E+00 0. -1.
</event>
<event>
 7    1  0.2644565E-009  0.8953196E+02  0.7561462E-02  0.1303989E+00
         -1   -1    0    0    0  501 -0.00000000000E+00  0.00000000000E+00  0.49678434338E+03  0.49678434338E+03  0.00000000000E+00 0.  1.
          1   -1    0    0  501    0  0.00000000000E+00 -0.00000000000E+00 -0.44233441467E+02  0.44233441467E+02  0.00000000000E+00 0. -1.
         25    2    1    2    0    0 -0.19471765013E+02 -0.12470487433E+02  0.19384115635E+03  0.23185426199E+03  0.12508933694E+03 0.  0.
          5    1    3    3  502    0 -0.16466558099E+02  0.30456461426E+02  0.17072664053E+01  0.34916052709E+02  0.41800000000E+01 0. -1.
         -5    1    3    3    0  502 -0.30052069147E+01 -0.42926948859E+02  0.19213388995E+03  0.19693820928E+03  0.41800000000E+01 0. -1.
        -11    1    1    2    0    0 -0.29106812101E+02  0.36560047485E+02  0.24989654406E+03  0.25422849234E+03  0.00000000000E+00 0.  1.
         11    1    1    2    0    0  0.48578577115E+02 -0.24089560052E+02  0.88132015003E+01  0.54935030524E+02  0.00000000000E+00 0. -1.
</event>
<event>
 7    1  0.2644565E-009  0.9630043E+02  0.7561462E-02  0.1288274E+00
         -1   -1    0    0    0  501 -0.00000000000E+00  0.00000000000E+00  0.52110478733E+02  0.52110478733E+02  0.00000000000E+00 0.  1.
          1   -1    0    0  501    0  0.00000000000E+00 -0.00000000000E+00 -0.39746859657E+03  0.39746859657E+03  0.00000000000E+00 0. -1.
         25    2    1    2    0    0 -0.63073038271E+02  0.70364294062E+02 -0.18208388284E+03  0.24027373665E+03  0.12509031176E+03 0.  0.
          5    1    3    3  502    0 -0.46409818130E+02  0.40152280021E+02 -0.19401165116E+03  0.20352903968E+03  0.41800000000E+01 0. -1.
         -5    1    3    3    0  502 -0.16663220142E+02  0.30212014040E+02  0.11927768318E+02  0.36744696963E+02  0.41800000000E+01 0. -1.
        -11    1    1    2    0    0  0.35800799907E+02 -0.25950840016E+02 -0.14877629216E+03  0.15520801680E+03  0.00000000000E+00 0. -1.
         11    1    1    2    0    0  0.27272238364E+02 -0.44413454046E+02 -0.14497942845E+02  0.54097321860E+02  0.00000000000E+00 0.  1.
</event>
<event>
 7    1  0.2644565E-009  0.7188460E+02  0.7561462E-02  0.1353799E+00
          3   -1    0    0  501    0  0.00000000000E+00  0.00000000000E+00  0.38860020353E+02  0.38860020353E+02  0.00000000000E+00 0.  1.
         -3   -1    0    0    0  501 -0.00000000000E+00 -0.00000000000E+00 -0.30196206163E+03  0.30196206163E+03  0.00000000000E+00 0. -1.
         25    2    1    2    0    0  0.68853755901E+01  0.16805274405E+02 -0.15369856307E+03  0.19900650788E+03  0.12510202335E+03 0.  0.
          5    1    3    3  502    0 -0.84030752654E+01 -0.28323692982E+02  0.75789217557E+01  0.30785641346E+02  0.41800000000E+01 0. -1.
         -5    1    3    3    0  502  0.15288450856E+02  0.45128967388E+02 -0.16127748482E+03  0.16822086653E+03  0.41800000000E+01 0. -1.
        -11    1    1    2    0    0 -0.16976915162E+02 -0.38552615047E+02 -0.15478028690E+02  0.44878604563E+02  0.00000000000E+00 0.  1.
         11    1    1    2    0    0  0.10091539571E+02  0.21747340642E+02 -0.93925449523E+02  0.96936969543E+02  0.00000000000E+00 0. -1.
</event>
<event>
 7    1  0.2644565E-009  0.1100844E+03  0.7561462E-02  0.1260414E+00
          1   -1    0    0  501    0  0.00000000000E+00  0.00000000000E+00  0.46215387132E+03  0.46215387132E+03  0.00000000000E+00 0. -1.
         -1   -1    0    0    0  501 -0.00000000000E+00 -0.00000000000E+00 -0.33966872475E+02  0.33966872475E+02  0.00000000000E+00 0.  1.
         25    2    1    2    0    0  0.34889379001E+02 -0.95826576995E+01  0.34198231594E+03  0.36593522551E+03  0.12509032241E+03 0.  0.
          5    1    3    3  502    0  0.31603524012E+02 -0.64076199713E+02  0.14835519922E+03  0.16471575406E+03  0.41800000000E+01 0.  1.
         -5    1    3    3    0  502  0.32858549894E+01  0.54493542013E+02  0.19362711671E+03  0.20121947145E+03  0.41800000000E+01 0.  1.
        -11    1    1    2    0    0  0.17594131845E+02 -0.25309804240E+02  0.12638999594E+02  0.33314921234E+02  0.00000000000E+00 0.  1.
         11    1    1    2    0    0 -0.52483510846E+02  0.34892461940E+02  0.73565683312E+02  0.96870597046E+02  0.00000000000E+00 0. -1.
</event>
<event>
 7    1  0.2644565E-009  0.1047682E+03  0.7561462E-02  0.1270577E+00
         -2   -1    0    0    0  501 -0.00000000000E+00  0.00000000000E+00  0.32299729809E+02  0.32299729809E+02  0.00000000000E+00 0.  1.
          2   -1    0    0  501    0  0.00000000000E+00 -0.00000000000E+00 -0.72481697363E+03  0.72481697363E+03  0.00000000000E+00 0. -1.
         25    2    1    2    0    0  0.75566654543E+01 -0.41781389126E+02 -0.61744692920E+03  0.63141100597E+03  0.12504543340E+03 0.  0.
          5    1    3    3  502    0 -0.48823447009E+02 -0.22495008936E+02 -0.13641293968E+03  0.14668236743E+03  0.41800000000E+01 0. -1.
         -5    1    3    3    0  502  0.56380112464E+02 -0.19286380190E+02 -0.48103398952E+03  0.48472863853E+03  0.41800000000E+01 0. -1.
        -11    1    1    2    0    0  0.23524139028E+02  0.56715883637E+02 -0.65800445830E+02  0.89998751353E+02  0.00000000000E+00 0. -1.
         11    1    1    2    0    0 -0.31080804483E+02 -0.14934494510E+02 -0.92698687959E+01  0.35706946118E+02  0.00000000000E+00 0.  1.
</event>
<event>
 7    1  0.2644565E-009  0.1299571E+03  0.7561462E-02  0.1227519E+00
          1   -1    0    0  501    0  0.00000000000E+00  0.00000000000E+00  0.39001432501E+03  0.39001432501E+03  0.00000000000E+00 0. -1.
         -1   -1    0    0    0  501 -0.00000000000E+00 -0.00000000000E+00 -0.49941630562E+02  0.49941630562E+02  0.00000000000E+00 0.  1.
         25    2    1    2    0    0 -0.58427039578E+02 -0.56897447806E+02  0.22912027020E+03  0.27348762245E+03  0.12509333673E+03 0.  0.
          5    1    3    3  502    0 -0.73782717287E+02 -0.80433426902E+02  0.12710795926E+03  0.16759275414E+03  0.41800000000E+01 0. -1.
         -5    1    3    3    0  502  0.15355677708E+02  0.23535979096E+02  0.10201231094E+03  0.10589486830E+03  0.41800000000E+01 0. -1.
        -11    1    1    2    0    0  0.58216049038E+02 -0.67681622240E+01  0.67469099321E+02  0.89369993558E+02  0.00000000000E+00 0.  1.
         11    1    1    2    0    0  0.21099054022E+00  0.63665610030E+02  0.43483324926E+02  0.77098339568E+02  0.00000000000E+00 0. -1.
</event>
<event>
 7    1  0.2644565E-009  0.1250124E+03  0.7561462E-02  0.1235050E+00
          2   -1    0    0  501    0  0.00000000000E+00  0.00000000000E+00  0.82249907022E+03  0.82249907022E+03  0.00000000000E+00 0. -1.
         -2   -1    0    0    0  501 -0.00000000000E+00 -0.00000000000E+00 -0.24347001052E+02  0.24347001052E+02  0.00000000000E+00 0.  1.
         25    2    1    2    0    0 -0.52766242834E+02  0.72837966500E+02  0.45234279509E+03  0.47786308344E+03  0.12509786765E+03 0.  0.
          5    1    3    3  502    0  0.28363708787E+02  0.96954236563E+01  0.28021616785E+02  0.41245419422E+02  0.41800000000E+01 0. -1.
         -5    1    3    3    0  502 -0.81129951622E+02  0.63142542844E+02  0.42432117831E+03  0.43661766401E+03  0.41800000000E+01 0. -1.
        -11    1    1    2    0    0  0.69793191830E+02 -0.41487277573E+02  0.15615025532E+03  0.17599768767E+03  0.00000000000E+00 0.  1.
         11    1    1    2    0    0 -0.17026948995E+02 -0.31350688927E+02  0.18965901875E+03  0.19298530017E+03  0.00000000000E+00 0. -1.
</event>
<event>
 7    1  0.2644565E-009  0.8494428E+02  0.7561462E-02  0.1315578E+00
          1   -1    0    0  501    0  0.00000000000E+00  0.00000000000E+00  0.46852964786E+02  0.46852964786E+02  0.00000000000E+00 0. -1.
         -1   -1    0    0    0  501 -0.00000000000E+00 -0.00000000000E+00 -0.50898117036E+03  0.50898117036E+03  0.00000000000E+00 0.  1.
         25    2    1    2    0    0 -0.21493362101E+02 -0.60163504979E+02 -0.41441180834E+03  0.43756921964E+03  0.12509221852E+03 0.  0.
          5    1    3    3  502    0 -0.42831129674E+02 -0.40415631897E+02 -0.40092475285E+03  0.40524814475E+03  0.41800000000E+01 0.  1.
         -5    1    3    3    0  502  0.21337767573E+02 -0.19747873082E+02 -0.13487055492E+02  0.32321074891E+02  0.41800000000E+01 0.  1.
        -11    1    1    2    0    0  0.37431161484E+02  0.32591169736E+02 -0.65194700394E+02  0.81936714324E+02  0.00000000000E+00 0.  1.
         11    1    1    2    0    0 -0.15937799383E+02  0.27572335243E+02  0.17478303163E+02  0.36328201185E+02  0.00000000000E+00 0. -1.
</event>
<event>
 7    1  0.2644565E-009  0.1033021E+03  0.7561462E-02  0.1273501E+00
         -3   -1    0    0    0  501 -0.00000000000E+00  0.00000000000E+00  0.44571882773E+02  0.44571882773E+02  0.00000000000E+00 0.  1.
          3   -1    0    0  501    0  0.00000000000E+00 -0.00000000000E+00 -0.36243349733E+03  0.36243349733E+03  0.00000000000E+00 0. -1.
         25    2    1    2    0    0  0.53472592667E+02 -0.38284039776E+02 -0.19486999403E+03  0.24072377410E+03  0.12509450417E+03 0.  0.
          5    1    3    3  502    0  0.58554717048E+02 -0.59723398028E+02 -0.57615517766E+02  0.10164919797E+03  0.41800000000E+01 0.  1.
         -5    1    3    3    0  502 -0.50821243808E+01  0.21439358252E+02 -0.13725447627E+03  0.13907457613E+03  0.41800000000E+01 0.  1.
        -11    1    1    2    0    0 -0.50322375788E+02  0.60103359799E+02 -0.12096474253E+03  0.14414306886E+03  0.00000000000E+00 0. -1.
         11    1    1    2    0    0 -0.31502168793E+01 -0.21819320023E+02 -0.20268779961E+01  0.22138537148E+02  0.00000000000E+00 0.  1.
</event>
<event>
 7    1  0.2644565E-009  0.1135731E+03  0.7561462E-02  0.1254093E+00
          1   -1    0    0  501    0  0.00000000000E+00  0.00000000000E+00  0.51428060207E+03  0.51428060207E+03  0.00000000000E+00 0. -1.
         -1   -1    0    0    0  501 -0.00000000000E+00 -0.00000000000E+00 -0.35310156130E+02  0.35310156130E+02  0.00000000000E+00 0.  1.
         25    2    1    2    0    0 -0.79967664452E+02 -0.15723945889E+02  0.26679404137E+03  0.30572625762E+03  0.12508962490E+03 0.  0.
          5    1    3    3  502    0 -0.63220910589E+02 -0.54589999813E+02  0.85852374839E+02  0.11985430439E+03  0.41800000000E+01 0.  1.
         -5    1    3    3    0  502 -0.16746753863E+02  0.38866053924E+02  0.18094166653E+03  0.18587195323E+03  0.41800000000E+01 0.  1.
        -11    1    1    2    0    0  0.50418005633E+02 -0.20337240635E+02  0.17783707374E+03  0.18596129555E+03  0.00000000000E+00 0. -1.
         11    1    1    2    0    0  0.29549658819E+02  0.36061186524E+02  0.34339330839E+02  0.57903205026E+02  0.00000000000E+00 0.  1.
</event>
<event>
 7    1  0.2991622E-009  0.1651536E+03  0.7561462E-02  0.1182998E+00
          2   -1    0    0  501    0  0.00000000000E+00  0.00000000000E+00  0.31808001353E+03  0.31808001353E+03  0.00000000000E+00 0. -1.
         -2   -1    0    0    0  501 -0.00000000000E+00 -0.00000000000E+00 -0.11620047980E+03  0.11620047980E+03  0.00000000000E+00 0.  1.
         25    2    1    2    0    0 -0.12836029138E+03  0.77701719612E+02  0.48728486078E+02  0.20133697341E+03  0.12509272511E+03 0.  0.
          5    1    3    3  502    0 -0.58118365625E+02  0.56823396674E+02 -0.36208986204E+02  0.89079772757E+02  0.41800000000E+01 0. -1.
         -5    1    3    3    0  502 -0.70241925751E+02  0.20878322938E+02  0.84937472281E+02  0.11225720066E+03  0.41800000000E+01 0. -1.
        -11    1    1    2    0    0  0.30299724544E+02 -0.71042064478E+02  0.67173026509E+02  0.10235850587E+03  0.00000000000E+00 0.  1.
         11    1    1    2    0    0  0.98060566832E+02 -0.66596551337E+01  0.85978021148E+02  0.13058501405E+03  0.00000000000E+00 0. -1.
</event>
<event>
 7    1  0.2644565E-009  0.2047679E+03  0.7561462E-02  0.1145778E+00
         -2   -1    0    0    0  501 -0.00000000000E+00  0.00000000000E+00  0.50257386162E+02  0.50257386162E+02  0.00000000000E+00 0.  1.
          2   -1    0    0  501    0  0.00000000000E+00 -0.00000000000E+00 -0.12309745980E+04  0.12309745980E+04  0.00000000000E+00 0. -1.
         25    2    1    2    0    0  0.11134937604E+03 -0.14581693091E+03 -0.93544664356E+03  0.96144169142E+03  0.12509373356E+03 0.  0.
          5    1    3    3  502    0 -0.39144855110E+01  0.13901843028E+02 -0.18349615786E+03  0.18411109903E+03  0.41800000000E+01 0. -1.
         -5    1    3    3    0  502  0.11526386155E+03 -0.15971877394E+03 -0.75195048570E+03  0.77733059239E+03  0.41800000000E+01 0. -1.
        -11    1    1    2    0    0 -0.94259019072E+02  0.64062953214E+02 -0.18309304049E+03  0.21566614506E+03  0.00000000000E+00 0. -1.
         11    1    1    2    0    0 -0.17090356964E+02  0.81753977699E+02 -0.62177527835E+02  0.10412414772E+03  0.00000000000E+00 0.  1.
</event>
<event>
 7    1  0.2644565E-009  0.1178210E+03  0.7561462E-02  0.1246736E+00
         -3   -1    0    0    0  501 -0.00000000000E+00  0.00000000000E+00  0.86749446044E+03  0.86749446044E+03  0.00000000000E+00 0.  1.
          3   -1    0    0  501    0  0.00000000000E+00 -0.00000000000E+00 -0.38776669610E+02  0.38776669610E+02  0.00000000000E+00 0. -1.
         25    2    1    2    0    0  0.55752199349E+02 -0.23865035370E+02  0.76873893742E+03  0.78120752011E+03  0.12509111853E+03 0.  0.
          5    1    3    3  502    0  0.57288271317E+02  0.41911103318E+02  0.33276189755E+03  0.34027406524E+03  0.41800000000E+01 0.  1.
         -5    1    3    3    0  502 -0.15360719688E+01 -0.65776138688E+02  0.43597703986E+03  0.44093345487E+03  0.41800000000E+01 0.  1.
        -11    1    1    2    0    0 -0.75078690032E+02  0.12277217137E+02  0.67091257111E+02  0.10143360655E+03  0.00000000000E+00 0.  1.
         11    1    1    2    0    0  0.19326490683E+02  0.11587818233E+02 -0.71124036992E+01  0.23630003384E+02  0.00000000000E+00 0. -1.
</event>
<event>
 7    1  0.2644565E-009  0.1087672E+03  0.7561462E-02  0.1262870E+00
         -2   -1    0    0    0  501 -0.00000000000E+00  0.00000000000E+00  0.92381216836E+02  0.92381216836E+02  0.00000000000E+00 0.  1.
          2   -1    0    0  501    0  0.00000000000E+00 -0.00000000000E+00 -0.25227256326E+03  0.25227256326E+03  0.00000000000E+00 0. -1.
         25    2    1    2    0    0  0.73993588897E+02 -0.20998968454E+02  0.68231456584E+00  0.14684629381E+03  0.12508941034E+03 0.  0.
          5    1    3    3  502    0  0.41225578896E+02 -0.50487084307E+02  0.48742244479E+02  0.81497072549E+02  0.41800000000E+01 0. -1.
         -5    1    3    3    0  502  0.32768010001E+02  0.29488115853E+02 -0.48059929913E+02  0.65349221260E+02  0.41800000000E+01 0. -1.
        -11    1    1    2    0    0 -0.13843408251E+02  0.42004643689E+02 -0.32908372635E+02  0.55127044478E+02  0.00000000000E+00 0.  1.
         11    1    1    2    0    0 -0.60150180646E+02 -0.21005675235E+02 -0.12766528836E+03  0.14268044181E+03  0.00000000000E+00 0. -1.
</event>
<event>
 7    1  0.2644565E-009  0.1148465E+03  0.7561462E-02  0.1251849E+00
          2   -1    0    0  501    0  0.00000000000E+00  0.00000000000E+00  0.14496981703E+04  0.14496981703E+04  0.00000000000E+00 0.  1.
         -2   -1    0    0    0  501 -0.00000000000E+00 -0.00000000000E+00 -0.22366342053E+02  0.22366342053E+02  0.00000000000E+00 0. -1.
         25    2    1    2    0    0  0.98272263976E+02 -0.15474271452E+02  0.11833533621E+04  0.11940976855E+04  0.12508881659E+03 0.  0.
          5    1    3    3  502    0  0.14619637905E+02 -0.53234451892E+01  0.85263248231E+03  0.85278467105E+03  0.41800000000E+01 0.  1.
         -5    1    3    3    0  502  0.83652626071E+02 -0.10150826263E+02  0.33072087977E+03  0.34131301446E+03  0.41800000000E+01 0.  1.
        -11    1    1    2    0    0 -0.74977905764E+02  0.48132592162E+02  0.19686767487E+03  0.21609098591E+03  0.00000000000E+00 0.  1.
         11    1    1    2    0    0 -0.23294358211E+02 -0.32658320710E+02  0.47110791307E+02  0.61875840953E+02  0.00000000000E+00 0. -1.
</event>
<event>
 7    1  0.2644565E-009  0.5170244E+03  0.7561462E-02  0.1009428E+00
          2   -1    0    0  501    0  0.00000000000E+00  0.00000000000E+00  0.59182187658E+03  0.59182187658E+03  0.00000000000E+00 0. -1.
         -2   -1    0    0    0  501 -0.00000000000E+00 -0.00000000000E+00 -0.67164527586E+03  0.67164527586E+03  0.00000000000E+00 0.  1.
         25    2    1    2    0    0 -0.49957447111E+03 -0.10023477266E+03 -0.39582395633E+03  0.65722624131E+03  0.12509223008E+03 0.  0.
          5    1    3    3  502    0 -0.43057749206E+03 -0.40239046460E+02 -0.33887375096E+03  0.54942610879E+03  0.41800000000E+01 0.  1.
         -5    1    3    3    0  502 -0.68996979054E+02 -0.59995726197E+02 -0.56950205366E+02  0.10780013252E+03  0.41800000000E+01 0.  1.
        -11    1    1    2    0    0  0.74362461691E+02  0.66645935183E+01  0.12965304622E+02  0.75777909970E+02  0.00000000000E+00 0.  1.
         11    1    1    2    0    0  0.42521200942E+03  0.93570179138E+02  0.30303525243E+03  0.53046300115E+03  0.00000000000E+00 0. -1.
</event>
<event>
 7    1  0.2644565E-009  0.1160968E+03  0.7561462E-02  0.1249679E+00
         -1   -1    0    0    0  501 -0.00000000000E+00  0.00000000000E+00  0.22663714672E+03  0.22663714672E+03  0.00000000000E+00 0.  1.
          1   -1    0    0  501    0  0.00000000000E+00 -0.00000000000E+00 -0.89816404733E+02  0.89816404733E+02  0.00000000000E+00 0. -1.
         25    2    1    2    0    0 -0.65601050936E+02 -0.30625371988E+02  0.13746294819E+03  0.19946130858E+03  0.12508932888E+03 0.  0.
          5    1    3    3  502    0 -0.54548782986E+01 -0.71127221881E+02  0.75940059406E+02  0.10427464894E+03  0.41800000000E+01 0.  1.
         -5    1    3    3    0  502 -0.60146172638E+02  0.40501849893E+02  0.61522888785E+02  0.95186659634E+02  0.41800000000E+01 0.  1.
        -11    1    1    2    0    0  0.72455739128E+02  0.19497405838E+02  0.32195743167E+02  0.81648936583E+02  0.00000000000E+00 0.  1.
         11    1    1    2    0    0 -0.68546881918E+01  0.11127966150E+02 -0.32837949371E+02  0.35343306293E+02  0.00000000000E+00 0. -1.
</event>
<event>
 7    1  0.2644565E-009  0.1436464E+03  0.7561462E-02  0.1208505E+00
         -2   -1    0    0    0  501 -0.00000000000E+00  0.00000000000E+00  0.31012039737E+02  0.31012039737E+02  0.00000000000E+00 0.  1.
          2   -1    0    0  501    0  0.00000000000E+00 -0.00000000000E+00 -0.81373704923E+03  0.81373704923E+03  0.00000000000E+00 0. -1.
         25    2    1    2    0    0 -0.92177291047E+02 -0.42432279365E+02 -0.27504478388E+03  0.31873893458E+03  0.12509086281E+03 0.  0.
          5    1    3    3  502    0  0.26133380174E+02  0.38033625592E+01 -0.18731218279E+02  0.32645827670E+02  0.41800000000E+01 0. -1.
         -5    1    3    3    0  502 -0.11831067122E+03 -0.46235641924E+02 -0.25631356560E+03  0.28609310691E+03  0.41800000000E+01 0. -1.
        -11    1    1    2    0    0  0.70861210924E+02 -0.14799155834E+02 -0.33823716779E+03  0.34589696139E+03  0.00000000000E+00 0. -1.
         11    1    1    2    0    0  0.21316080123E+02  0.57231435199E+02 -0.16944305783E+03  0.18011319300E+03  0.00000000000E+00 0.  1.
</event>
<event>
 7    1  0.2644565E-009  0.1591737E+03  0.7561462E-02  0.1189633E+00
         -3   -1    0    0    0  501 -0.00000000000E+00  0.00000000000E+00  0.53891862153E+02  0.53891862153E+02  0.00000000000E+00 0.  1.
          3   -1    0    0  501    0  0.00000000000E+00 -0.00000000000E+00 -0.51630656905E+03  0.51630656905E+03  0.00000000000E+00 0. -1.
         25    2    1    2    0    0  0.66434887262E+02  0.10869070774E+03 -0.25103428457E+03  0.30804682879E+03  0.12508945800E+03 0.  0.
          5    1    3    3  502    0  0.38547200782E+02  0.13141619303E+03 -0.22502860608E+03  0.26346052537E+03  0.41800000000E+01 0. -1.
         -5    1    3    3    0  502  0.27887686479E+02 -0.22725485283E+02 -0.26005678496E+02  0.44586303419E+02  0.41800000000E+01 0. -1.
        -11    1    1    2    0    0 -0.56532424743E+02 -0.26687425053E+02 -0.47091002510E+02  0.78266827077E+02  0.00000000000E+00 0. -1.
         11    1    1    2    0    0 -0.99024625191E+01 -0.82003282691E+02 -0.16428941982E+03  0.18388477534E+03  0.00000000000E+00 0.  1.
</event>
<event>
 7    1  0.2644565E-009  0.9809832E+02  0.7561462E-02  0.1284347E+00
          2   -1    0    0  501    0  0.00000000000E+00  0.00000000000E+00  0.18711290784E+03  0.18711290784E+03  0.00000000000E+00 0. -1.
         -2   -1    0    0    0  501 -0.00000000000E+00 -0.00000000000E+00 -0.74009043022E+02  0.74009043022E+02  0.00000000000E+00 0.  1.
         25    2    1    2    0    0  0.96330769913E+01  0.21203767368E+02  0.15458045977E+02  0.12820030330E+03  0.12511582897E+03 0.  0.
          5    1    3    3  502    0  0.11961648214E+02 -0.45521833128E+02 -0.21343078066E+02  0.51848989389E+02  0.41800000000E+01 0. -1.
         -5    1    3    3    0  502 -0.23285712226E+01  0.66725600496E+02  0.36801124043E+02  0.76351313914E+02  0.41800000000E+01 0. -1.
        -11    1    1    2    0    0 -0.27443595322E+01  0.30129314658E+02  0.11422866971E+02  0.32338661086E+02  0.00000000000E+00 0.  1.
         11    1    1    2    0    0 -0.68887174591E+01 -0.51333082026E+02  0.86222951866E+02  0.10058298647E+03  0.00000000000E+00 0. -1.
</event>
<event>
 7    1  0.2644565E-009  0.9871161E+02  0.7561462E-02  0.1283029E+00
          3   -1    0    0  501    0  0.00000000000E+00  0.00000000000E+00  0.97230008225E+02  0.97230008225E+02  0.00000000000E+00 0. -1.
         -3   -1    0    0    0  501 -0.00000000000E+00 -0.00000000000E+00 -0.15799096315E+03  0.15799096315E+03  0.00000000000E+00 0.  1.
         25    2    1    2    0    0  0.58978581340E+02  0.72678061623E+01 -0.43378308495E+02  0.14512615522E+03  0.12509448117E+03 0.  0.
          5    1    3    3  502    0 -0.15156098795E+02  0.43247581218E+02  0.96863163462E+01  0.47025075611E+02  0.41800000000E+01 0.  1.
         -5    1    3    3    0  502  0.74134680135E+02 -0.35979775056E+02 -0.53064624841E+02  0.98101079614E+02  0.41800000000E+01 0.  1.
        -11    1    1    2    0    0 -0.16638699598E+02  0.13788468114E+02  0.33986631701E+02  0.40274797475E+02  0.00000000000E+00 0. -1.
         11    1    1    2    0    0 -0.42339881742E+02 -0.21056274276E+02 -0.51369278134E+02  0.69820018679E+02  0.00000000000E+00 0.  1.
</event>
<event>
 7    1  0.2644565E-009  0.1587468E+03  0.7561462E-02  0.1190119E+00
         -2   -1    0    0    0  501 -0.00000000000E+00  0.00000000000E+00  0.68080104821E+02  0.68080104821E+02  0.00000000000E+00 0.  1.
          2   -1    0    0  501    0  0.00000000000E+00 -0.00000000000E+00 -0.40325844234E+03  0.40325844234E+03  0.00000000000E+00 0. -1.
         25    2    1    2    0    0 -0.83338458455E+02 -0.91546543406E+02 -0.15364938446E+03  0.23362807740E+03  0.12509147427E+03 0.  0.
          5    1    3    3  502    0 -0.47011015422E+01  0.24965953949E+02 -0.58272694904E+02  0.63706974373E+02  0.41800000000E+01 0. -1.
         -5    1    3    3    0  502 -0.78637356913E+02 -0.11651249736E+03 -0.95376689559E+02  0.16992110303E+03  0.41800000000E+01 0. -1.
        -11    1    1    2    0    0  0.66238080159E+02  0.10844709194E+03 -0.13539887183E+03  0.18569089774E+03  0.00000000000E+00 0.  1.
         11    1    1    2    0    0  0.17100378296E+02 -0.16900548534E+02 -0.46130081232E+02  0.52019572019E+02  0.00000000000E+00 0. -1.
</event>
<event>
 7    1  0.2644565E-009  0.1275867E+03  0.7561462E-02  0.1231081E+00
          2   -1    0    0  501    0  0.00000000000E+00  0.00000000000E+00  0.48577897569E+03  0.48577897569E+03  0.00000000000E+00 0.  1.
         -2   -1    0    0    0  501 -0.00000000000E+00 -0.00000000000E+00 -0.39462381494E+02  0.39462381494E+02  0.00000000000E+00 0. -1.
         25    2    1    2    0    0 -0.60430287653E+02  0.56975414515E+02  0.28467686442E+03  0.32183247537E+03  0.12504882063E+03 0.  0.
          5    1    3    3  502    0 -0.87282873225E+02  0.59205470118E+02  0.27200078698E+03  0.29176272580E+03  0.41800000000E+01 0. -1.
         -5    1    3    3    0  502  0.26852585572E+02 -0.22300556029E+01  0.12676077445E+02  0.30069749571E+02  0.41800000000E+01 0. -1.
        -11    1    1    2    0    0  0.49097077122E+02  0.13543619736E+02  0.54009505069E+02  0.74235970091E+02  0.00000000000E+00 0. -1.
         11    1    1    2    0    0  0.11333210531E+02 -0.70519034251E+02  0.10763022470E+03  0.12917291172E+03  0.00000000000E+00 0.  1.
</event>
<event>
 7    1  0.2644565E-009  0.9972670E+02  0.7561462E-02  0.1280872E+00
         -1   -1    0    0    0  501 -0.00000000000E+00  0.00000000000E+00  0.56814808519E+02  0.56814808519E+02  0.00000000000E+00 0.  1.
          1   -1    0    0  501    0  0.00000000000E+00 -0.00000000000E+00 -0.36627912564E+03  0.36627912564E+03  0.00000000000E+00 0. -1.
         25    2    1    2    0    0 -0.29512639835E+02 -0.76011322269E+02 -0.86539783671E+02  0.17258348215E+03  0.12508879698E+03 0.  0.
          5    1    3    3  502    0 -0.65014965989E+01 -0.80401283415E+02  0.21059198984E+01  0.80799400563E+02  0.41800000000E+01 0. -1.
         -5    1    3    3    0  502 -0.23011143236E+02  0.43899611454E+01 -0.88645703570E+02  0.91784081590E+02  0.41800000000E+01 0. -1.
        -11    1    1    2    0    0 -0.13599701530E+02  0.20454027253E+02 -0.10436019861E+02  0.26687630526E+02  0.00000000000E+00 0.  1.
         11    1    1    2    0    0  0.43112341365E+02  0.55557295016E+02 -0.21248851359E+03  0.22382282148E+03  0.00000000000E+00 0. -1.
</event>
<event>
 7    1  0.2644565E-009  0.9483600E+02  0.7561462E-02  0.1291546E+00
          1   -1    0    0  501    0  0.00000000000E+00  0.00000000000E+00  0.16569033359E+03  0.16569033359E+03  0.00000000000E+00 0. -1.
         -1   -1    0    0    0  501 -0.00000000000E+00 -0.00000000000E+00 -0.77081345453E+02  0.77081345453E+02  0.00000000000E+00 0.  1.
         25    2    1    2    0    0  0.31876068524E+00 -0.12618893441E+02  0.19033316857E+02  0.12714902299E+03  0.12508104899E+03 0.  0.
          5    1    3    3  502    0 -0.13841849007E+02  0.51591233038E+02  0.28334475556E+02  0.60609958054E+02  0.41800000000E+01 0.  1.
         -5    1    3    3    0  502  0.14160609692E+02 -0.64210126479E+02 -0.93011586987E+01  0.66539064935E+02  0.41800000000E+01 0.  1.
        -11    1    1    2    0    0 -0.34514085547E+02  0.98895848841E+01 -0.23039767947E+01  0.35976857831E+02  0.00000000000E+00 0. -1.
         11    1    1    2    0    0  0.34195324861E+02  0.27293085568E+01  0.71879648077E+02  0.79645798227E+02  0.00000000000E+00 0.  1.
</event>
<event>
 7    1  0.3154787E-009  0.1756073E+03  0.7561462E-02  0.1172123E+00
          1   -1    0    0  501    0  0.00000000000E+00  0.00000000000E+00  0.59523095139E+03  0.59523095139E+03  0.00000000000E+00 0. -1.
         -1   -1    0    0    0  501 -0.00000000000E+00 -0.00000000000E+00 -0.55660014190E+02  0.55660014190E+02  0.00000000000E+00 0.  1.
         25    2    1    2    0    0 -0.13882975893E+03  0.43624422751E+02  0.30450547492E+03  0.35991807790E+03  0.12506256961E+03 0.  0.
          5    1    3    3  502    0 -0.16116304623E+03  0.28024429379E+02  0.27053567007E+03  0.31617387193E+03  0.41800000000E+01 0.  1.
         -5    1    3    3    0  502  0.22333287292E+02  0.15599993373E+02  0.33969804850E+02  0.43744205972E+02  0.41800000000E+01 0.  1.
        -11    1    1    2    0    0  0.65409935638E+02  0.13750554547E+02  0.48989422719E+02  0.82870386562E+02  0.00000000000E+00 0.  1.
         11    1    1    2    0    0  0.73419823295E+02 -0.57374977299E+02  0.18607603956E+03  0.20810250112E+03  0.00000000000E+00 0. -1.
</event>
<event>
 7    1  0.2644565E-009  0.2114040E+03  0.7561462E-02  0.1140459E+00
          1   -1    0    0  501    0  0.00000000000E+00  0.00000000000E+00  0.83430003845E+02  0.83430003845E+02  0.00000000000E+00 0. -1.
         -1   -1    0    0    0  501 -0.00000000000E+00 -0.00000000000E+00 -0.59930040100E+03  0.59930040100E+03  0.00000000000E+00 0.  1.
         25    2    1    2    0    0 -0.18930346230E+03 -0.29543273876E+02 -0.21166238502E+03  0.31169962486E+03  0.12508830896E+03 0.  0.
          5    1    3    3  502    0 -0.63706842223E+02 -0.52677838074E+02 -0.14650045361E+03  0.16826577691E+03  0.41800000000E+01 0.  1.
         -5    1    3    3    0  502 -0.12559662007E+03  0.23134564198E+02 -0.65161931411E+02  0.14343384796E+03  0.41800000000E+01 0.  1.
        -11    1    1    2    0    0  0.53242721770E+02  0.51924393960E+02 -0.11348875526E+03  0.13568576816E+03  0.00000000000E+00 0.  1.
         11    1    1    2    0    0  0.13606074053E+03 -0.22381120083E+02 -0.19071925687E+03  0.23534501182E+03  0.00000000000E+00 0. -1.
</event>
<event>
 7    1  0.2644565E-009  0.7595198E+02  0.7561462E-02  0.1340948E+00
         -1   -1    0    0    0  501 -0.00000000000E+00  0.00000000000E+00  0.22150362883E+02  0.22150362883E+02  0.00000000000E+00 0.  1.
          1   -1    0    0  501    0  0.00000000000E+00 -0.00000000000E+00 -0.76381191334E+03  0.76381191334E+03  0.00000000000E+00 0. -1.
         25    2    1    2    0    0 -0.41768082620E+00 -0.27901917346E+02 -0.61534189862E+03  0.62854762532E+03  0.12509106143E+03 0.  0.
          5    1    3    3  502    0  0.15380857739E+02  0.13570294882E+02 -0.13177202548E+02  0.24735293711E+02  0.41800000000E+01 0. -1.
         -5    1    3    3    0  502 -0.15798538565E+02 -0.41472212228E+02 -0.60216469607E+03  0.60381233161E+03  0.41800000000E+01 0. -1.
        -11    1    1    2    0    0 -0.40361704908E+02  0.19207769743E+02 -0.34146789793E+02  0.56249523507E+02  0.00000000000E+00 0.  1.
         11    1    1    2    0    0  0.40779385734E+02  0.86941476025E+01 -0.92172862041E+02  0.10116512739E+03  0.00000000000E+00 0. -1.
</event>
<event>
 7    1  0.2644565E-009  0.1542336E+03  0.7561462E-02  0.1195365E+00
         -2   -1    0    0    0  501 -0.00000000000E+00  0.00000000000E+00  0.54207566480E+02  0.54207566480E+02  0.00000000000E+00 0. -1.
          2   -1    0    0  501    0  0.00000000000E+00 -0.00000000000E+00 -0.73936445812E+03  0.73936445812E+03  0.00000000000E+00 0.  1.
         25    2    1    2    0    0 -0.11691393810E+03 -0.53397461892E+02 -0.14404222702E+03  0.23003540819E+03  0.12509183826E+03 0.  0.
          5    1    3    3  502    0  0.19135033910E+02  0.12710521866E+02 -0.40282348043E+02  0.46560142318E+02  0.41800000000E+01 0.  1.
         -5    1    3    3    0  502 -0.13604897201E+03 -0.66107983757E+02 -0.10375987898E+03  0.18347526588E+03  0.41800000000E+01 0.  1.
        -11    1    1    2    0    0  0.81615326326E+02  0.55078557948E+02 -0.49871163293E+03  0.50833847174E+03  0.00000000000E+00 0.  1.
         11    1    1    2    0    0  0.35298611779E+02 -0.16810960565E+01 -0.42403031683E+02  0.55198144656E+02  0.00000000000E+00 0. -1.
</event>
<event>
 7    1  0.2644565E-009  0.3610585E+03  0.7561462E-02  0.1058166E+00
          2   -1    0    0  501    0  0.00000000000E+00  0.00000000000E+00  0.31677343732E+04  0.31677343732E+04  0.00000000000E+00 0.  1.
         -2   -1    0    0    0  501 -0.00000000000E+00 -0.00000000000E+00 -0.43408074796E+02  0.43408074796E+02  0.00000000000E+00 0. -1.
         25    2    1    2    0    0  0.11674257730E+03  0.33245332236E+03  0.17309337938E+04  0.17708556606E+04  0.12507570228E+03 0.  0.
          5    1    3    3  502    0  0.13515783483E+03  0.24154188778E+03  0.11709027512E+04  0.12031794750E+04  0.41800000000E+01 0. -1.
         -5    1    3    3    0  502 -0.18415257532E+02  0.90911434580E+02  0.56003104261E+03  0.56767618563E+03  0.41800000000E+01 0. -1.
        -11    1    1    2    0    0 -0.27827636732E+02 -0.90072786890E+02  0.55807515220E+03  0.56598176632E+03  0.00000000000E+00 0. -1.
         11    1    1    2    0    0 -0.88914940565E+02 -0.24238053547E+03  0.83531735247E+03  0.87430502113E+03  0.00000000000E+00 0.  1.
</event>
<event>
 7    1  0.2644565E-009  0.1166662E+03  0.7561462E-02  0.1248700E+00
          2   -1    0    0  501    0  0.00000000000E+00  0.00000000000E+00  0.33670701238E+02  0.33670701238E+02  0.00000000000E+00 0. -1.
         -2   -1    0    0    0  501 -0.00000000000E+00 -0.00000000000E+00 -0.64843229909E+03  0.64843229909E+03  0.00000000000E+00 0.  1.
         25    2    1    2    0    0 -0.63702797926E+02  0.67383485355E+02 -0.24483429184E+03  0.29015538969E+03  0.12509092350E+03 0.  0.
          5    1    3    3  502    0  0.71423120345E+01 -0.21576436221E+02 -0.11590805807E+03  0.11818927848E+03  0.41800000000E+01 0.  1.
         -5    1    3    3    0  502 -0.70845109961E+02  0.88959921576E+02 -0.12892623377E+03  0.17196611122E+03  0.41800000000E+01 0.  1.
        -11    1    1    2    0    0  0.14410173560E+02 -0.20110670109E+01 -0.16083013546E+01  0.14638446837E+02  0.00000000000E+00 0. -1.
         11    1    1    2    0    0  0.49292624367E+02 -0.65372418344E+02 -0.36831900465E+03  0.37730916380E+03  0.00000000000E+00 0.  1.
</event>
<event>
 7    1  0.2644565E-009  0.8260699E+02  0.7561462E-02  0.1321812E+00
         -2   -1    0    0    0  501 -0.00000000000E+00  0.00000000000E+00  0.28078542463E+03  0.28078542463E+03  0.00000000000E+00 0.  1.
          2   -1    0    0  501    0  0.00000000000E+00 -0.00000000000E+00 -0.66110193785E+02  0.66110193785E+02  0.00000000000E+00 0. -1.
         25    2    1    2    0    0  0.18701146537E+02 -0.60573400770E+02  0.18477702644E+03  0.23196799901E+03  0.12509090016E+03 0.  0.
          5    1    3    3  502    0  0.13141304239E+02 -0.47369205557E+02  0.28372982977E+01  0.49417185005E+02  0.41800000000E+01 0.  1.
         -5    1    3    3    0  502  0.55598422974E+01 -0.13204195213E+02  0.18193972815E+03  0.18255081401E+03  0.41800000000E+01 0.  1.
        -11    1    1    2    0    0 -0.28580628128E+02  0.76806027851E+02  0.42311768012E+02  0.92229626101E+02  0.00000000000E+00 0.  1.
         11    1    1    2    0    0  0.98794815910E+01 -0.16232627080E+02 -0.12413563610E+02  0.22697993302E+02  0.00000000000E+00 0. -1.
</event>
<event>
 7    1  0.2644565E-009  0.3452207E+03  0.7561462E-02  0.1064594E+00
         -1   -1    0    0    0  501 -0.00000000000E+00  0.00000000000E+00  0.23307347302E+03  0.23307347302E+03  0.00000000000E+00 0.  1.
          1   -1    0    0  501    0  0.00000000000E+00 -0.00000000000E+00 -0.53161539343E+03  0.53161539343E+03  0.00000000000E+00 0. -1.
         25    2    1    2    0    0  0.24307448459E+03 -0.22562464098E+03 -0.19345014467E+03  0.40381192717E+03  0.12509768334E+03 0.  0.
          5    1    3    3  502    0  0.21936942374E+03 -0.12978978854E+03 -0.15081955533E+03  0.29619646175E+03  0.41800000000E+01 0.  1.
         -5    1    3    3    0  502  0.23705060855E+02 -0.95834852432E+02 -0.42630589343E+02  0.10761546542E+03  0.41800000000E+01 0.  1.
        -11    1    1    2    0    0 -0.15395652902E+03  0.10345655530E+03 -0.97296523079E+02  0.20945759730E+03  0.00000000000E+00 0. -1.
         11    1    1    2    0    0 -0.89117955580E+02  0.12216808567E+03 -0.77952526535E+01  0.15141934199E+03  0.00000000000E+00 0.  1.
</event>
<event>
 7    1  0.2644565E-009  0.8117434E+02  0.7561462E-02  0.1325751E+00
          2   -1    0    0  501    0  0.00000000000E+00  0.00000000000E+00  0.89440955757E+03  0.89440955757E+03  0.00000000000E+00 0. -1.
         -2   -1    0    0    0  501 -0.00000000000E+00 -0.00000000000E+00 -0.20854264037E+02  0.20854264037E+02  0.00000000000E+00 0.  1.
         25    2    1    2    0    0 -0.65397182860E+02 -0.14613607430E+02  0.64062948266E+03  0.65615857826E+03  0.12509035422E+03 0.  0.
          5    1    3    3  502    0 -0.62644282803E+00 -0.39003181733E+01  0.50875040648E+03  0.50878291383E+03  0.41800000000E+01 0.  1.
         -5    1    3    3    0  502 -0.64770740031E+02 -0.10713289257E+02  0.13187907618E+03  0.14737566443E+03  0.41800000000E+01 0.  1.
        -11    1    1    2    0    0  0.19533529719E+02  0.35421575117E+02  0.18573144429E+03  0.19008528656E+03  0.00000000000E+00 0. -1.
         11    1    1    2    0    0  0.45863653141E+02 -0.20807967686E+02  0.47194366577E+02  0.69019956790E+02  0.00000000000E+00 0.  1.
</event>
<event>
 7    1  0.2644565E-009  0.9826974E+02  0.7561462E-02  0.1283977E+00
         -1   -1    0    0    0  501 -0.00000000000E+00  0.00000000000E+00  0.42507272297E+02  0.42507272297E+02  0.00000000000E+00 0.  1.
          1   -1    0    0  501    0  0.00000000000E+00 -0.00000000000E+00 -0.30678492521E+03  0.30678492521E+03  0.00000000000E+00 0. -1.
         25    2    1    2    0    0 -0.18474435452E+02  0.20349440589E+02 -0.18513711880E+03  0.22511922288E+03  0.12508999662E+03 0.  0.
          5    1    3    3  502    0  0.52007611192E+02  0.12194776629E+02 -0.10584722165E+03  0.11863646544E+03  0.41800000000E+01 0. -1.
         -5    1    3    3    0  502 -0.70482046643E+02  0.81546639598E+01 -0.79289897150E+02  0.10648275745E+03  0.41800000000E+01 0. -1.
        -11    1    1    2    0    0 -0.17179950699E+02 -0.30330086245E+02  0.20713809614E+01  0.34919270564E+02  0.00000000000E+00 0.  1.
         11    1    1    2    0    0  0.35654386151E+02  0.99806456559E+01 -0.81211915064E+02  0.89253704057E+02  0.00000000000E+00 0. -1.
</event>
<event>
 7    1  0.2644565E-009  0.1876852E+03  0.7561462E-02  0.1160566E+00
         -1   -1    0    0    0  501 -0.00000000000E+00  0.00000000000E+00  0.15014427470E+03  0.15014427470E+03  0.00000000000E+00 0.  1.
          1   -1    0    0  501    0  0.00000000000E+00 -0.00000000000E+00 -0.26722623106E+03  0.26722623106E+03  0.00000000000E+00 0. -1.
         25    2    1    2    0    0  0.13651916765E+03 -0.77916478185E+02  0.91912030768E+00  0.20088645271E+03  0.12508421720E+03 0.  0.
          5    1    3    3  502    0  0.17792963339E+02  0.28909216298E+02  0.20578077899E+02  0.39915686407E+02  0.41800000000E+01 0.  1.
         -5    1    3    3    0  502  0.11872620431E+03 -0.10682569448E+03 -0.19658957591E+02  0.16097076630E+03  0.41800000000E+01 0.  1.
        -11    1    1    2    0    0 -0.36000304711E+02 -0.19909020408E+02 -0.29720493165E+02  0.50751342316E+02  0.00000000000E+00 0.  1.
         11    1    1    2    0    0 -0.10051886294E+03  0.97825498593E+02 -0.88280583508E+02  0.16573271073E+03  0.00000000000E+00 0. -1.
</event>
<event>
 7    1  0.2644565E-009  0.1509418E+03  0.7561462E-02  0.1199321E+00
         -1   -1    0    0    0  501 -0.00000000000E+00  0.00000000000E+00  0.21321277209E+02  0.21321277209E+02  0.00000000000E+00 0.  1.
          1   -1    0    0  501    0  0.00000000000E+00 -0.00000000000E+00 -0.13788424405E+04  0.13788424405E+04  0.00000000000E+00 0. -1.
         25    2    1    2    0    0  0.95917146294E+02 -0.63921963905E+02 -0.98119127632E+03  0.99582630245E+03  0.12509031740E+03 0.  0.
          5    1    3    3  502    0 -0.27192512260E+02 -0.19304749085E+01 -0.93328214084E+02  0.97317970593E+02  0.41800000000E+01 0. -1.
         -5    1    3    3    0  502  0.12310965855E+03 -0.61991488996E+02 -0.88786306224E+03  0.89850833186E+03  0.41800000000E+01 0. -1.
        -11    1    1    2    0    0 -0.32896355116E+02 -0.14370828856E+02 -0.18252605940E+03  0.18602272243E+03  0.00000000000E+00 0. -1.
         11    1    1    2    0    0 -0.63020791179E+02  0.78292792761E+02 -0.19380382754E+03  0.21831469279E+03  0.00000000000E+00 0.  1.
</event>
<event>
 7    1  0.3453042E-009  0.7289204E+02  0.7561462E-02  0.1350526E+00
          2   -1    0    0  501    0  0.00000000000E+00  0.00000000000E+00  0.54412902801E+03  0.54412902801E+03  0.00000000000E+00 0. -1.
         -2   -1    0    0    0  501 -0.00000000000E+00 -0.00000000000E+00 -0.22804015972E+02  0.22804015972E+02  0.00000000000E+00 0.  1.
         25    2    1    2    0    0 -0.21016516792E+02  0.12727600083E+02  0.28589733540E+03  0.31303397898E+03  0.12509716154E+03 0.  0.
          5    1    3    3  502    0 -0.35518324954E+02  0.11301087146E+02  0.12969699116E+02  0.39685658284E+02  0.41800000000E+01 0. -1.
         -5    1    3    3    0  502  0.14501808162E+02  0.14265129373E+01  0.27292763628E+03  0.27334832069E+03  0.41800000000E+01 0. -1.
        -11    1    1    2    0    0 -0.35405830889E+02 -0.92210418607E+01  0.11855767440E+03  0.12407466556E+03  0.00000000000E+00 0.  1.
         11    1    1    2    0    0  0.56422347681E+02 -0.35065582226E+01  0.11687000224E+03  0.12982439945E+03  0.00000000000E+00 0. -1.
</event>
<event>
 7    1  0.2644565E-009  0.8412486E+02  0.7561462E-02  0.1317737E+00
         -1   -1    0    0    0  501 -0.00000000000E+00  0.00000000000E+00  0.36688965996E+03  0.36688965996E+03  0.00000000000E+00 0.  1.
          1   -1    0    0  501    0  0.00000000000E+00 -0.00000000000E+00 -0.36919347973E+02  0.36919347973E+02  0.00000000000E+00 0. -1.
         25    2    1    2    0    0  0.21230011369E+01  0.20402925964E+02  0.25018946418E+03  0.28047024909E+03  0.12509199061E+03 0.  0.
          5    1    3    3  502    0  0.54970389060E+02  0.39951089802E+02  0.16210243468E+03  0.17581952389E+03  0.41800000000E+01 0. -1.
         -5    1    3    3    0  502 -0.52847387923E+02 -0.19548163838E+02  0.88087029499E+02  0.10465072520E+03  0.41800000000E+01 0. -1.
        -11    1    1    2    0    0  0.17813850454E+02 -0.50923755061E+01 -0.15897695084E+02  0.24413157626E+02  0.00000000000E+00 0. -1.
         11    1    1    2    0    0 -0.19936851591E+02 -0.15310550458E+02  0.95678542886E+02  0.98925601213E+02  0.00000000000E+00 0.  1.
</event>
<event>
 7    1  0.2986669E-009  0.1087389E+03  0.7561462E-02  0.1262923E+00
          1   -1    0    0  501    0  0.00000000000E+00  0.00000000000E+00  0.44614198076E+03  0.44614198076E+03  0.00000000000E+00 0. -1.
         -1   -1    0    0    0  501 -0.00000000000E+00 -0.00000000000E+00 -0.31363356769E+02  0.31363356769E+02  0.00000000000E+00 0.  1.
         25    2    1    2    0    0  0.44696348305E+02 -0.13260859190E+02  0.24536939954E+03  0.27933185253E+03  0.12508608104E+03 0.  0.
          5    1    3    3  502    0 -0.36496525815E+02  0.22295127861E+02  0.59802657117E+02  0.73640337596E+02  0.41800000000E+01 0.  1.
         -5    1    3    3    0  502  0.81192874121E+02 -0.35555987051E+02  0.18556674242E+03  0.20569151493E+03  0.41800000000E+01 0.  1.
        -11    1    1    2    0    0 -0.52270018039E+02  0.34896214107E+02  0.61774191025E+02  0.88124634590E+02  0.00000000000E+00 0.  1.
         11    1    1    2    0    0  0.75736697337E+01 -0.21635354917E+02  0.10763503343E+03  0.11004885041E+03  0.00000000000E+00 0. -1.
</event>
<event>
 7    1  0.2644565E-009  0.2155168E+03  0.7561462E-02  0.1137270E+00
         -1   -1    0    0    0  501 -0.00000000000E+00  0.00000000000E+00  0.47231367969E+03  0.47231367969E+03  0.00000000000E+00 0.  1.
          1   -1    0    0  501    0  0.00000000000E+00 -0.00000000000E+00 -0.15057350117E+03  0.15057350117E+03  0.00000000000E+00 0. -1.
         25    2    1    2    0    0 -0.19723509337E+03 -0.27919998694E+02  0.32791656565E+03  0.40355620410E+03  0.12508847851E+03 0.  0.
          5    1    3    3  502    0 -0.18150039769E+03 -0.63730786766E+02  0.29530813092E+03  0.35246045471E+03  0.41800000000E+01 0. -1.
         -5    1    3    3    0  502 -0.15734695676E+02  0.35810788072E+02  0.32608434733E+02  0.51095749394E+02  0.41800000000E+01 0. -1.
        -11    1    1    2    0    0  0.30847692172E+02  0.65063335071E+01  0.34474658023E+02  0.46716319781E+02  0.00000000000E+00 0.  1.
         11    1    1    2    0    0  0.16638740120E+03  0.21413665186E+02 -0.40651045157E+02  0.17261465699E+03  0.00000000000E+00 0. -1.
</event>
<event>
 7    1  0.2644565E-009  0.1339455E+03  0.7561462E-02  0.1221716E+00
         -2   -1    0    0    0  501 -0.00000000000E+00  0.00000000000E+00  0.56531838420E+02  0.56531838420E+02  0.00000000000E+00 0.  1.
          2   -1    0    0  501    0  0.00000000000E+00 -0.00000000000E+00 -0.40320946985E+03  0.40320946985E+03  0.00000000000E+00 0. -1.
         25    2    1    2    0    0 -0.76691411852E+02 -0.32791877629E+02 -0.27527991200E+03  0.31366110900E+03  0.12508949378E+03 0.  0.
          5    1    3    3  502    0  0.30830903004E+02 -0.27393153277E+02 -0.94835237960E+02  0.10349939220E+03  0.41800000000E+01 0. -1.
         -5    1    3    3    0  502 -0.10752231486E+03 -0.53987243512E+01 -0.18044467404E+03  0.21016171680E+03  0.41800000000E+01 0. -1.
        -11    1    1    2    0    0  0.91793668005E+02  0.11379918500E+02 -0.75703631775E+02  0.11952664931E+03  0.00000000000E+00 0. -1.
         11    1    1    2    0    0 -0.15102256153E+02  0.21411959129E+02  0.43059123491E+01  0.26553549966E+02  0.00000000000E+00 0.  1.
</event>
<event>
 7    1  0.2644565E-009  0.1576136E+03  0.7561462E-02  0.1191418E+00
         -2   -1    0    0    0  501 -0.00000000000E+00  0.00000000000E+00  0.11571754098E+03  0.11571754098E+03  0.00000000000E+00 0.  1.
          2   -1    0    0  501    0  0.00000000000E+00 -0.00000000000E+00 -0.39378346904E+03  0.39378346904E+03  0.00000000000E+00 0. -1.
         25    2    1    2    0    0  0.78670209291E+02 -0.11681179312E+03 -0.43265799546E+01  0.18840797191E+03  0.12507936578E+03 0.  0.
          5    1    3    3  502    0  0.24806514796E+02 -0.10282718663E+03  0.43947502908E+02  0.11461958340E+03  0.41800000000E+01 0. -1.
         -5    1    3    3    0  502  0.53863694496E+02 -0.13984606488E+02 -0.48274082863E+02  0.73788388515E+02  0.41800000000E+01 0. -1.
        -11    1    1    2    0    0 -0.28019625153E+02  0.93860187158E+02 -0.23115412318E+03  0.25105191254E+03  0.00000000000E+00 0.  1.
         11    1    1    2    0    0 -0.50650584139E+02  0.22951605958E+02 -0.42585224922E+02  0.70041125571E+02  0.00000000000E+00 0. -1.
</event>
<event>
 7    1  0.2644565E-009  0.1128747E+03  0.7561462E-02  0.1255337E+00
         -1   -1    0    0    0  501 -0.00000000000E+00  0.00000000000E+00  0.67690574271E+03  0.67690574271E+03  0.00000000000E+00 0.  1.
          1   -1    0    0  501    0  0.00000000000E+00 -0.00000000000E+00 -0.22550410672E+02  0.22550410672E+02  0.00000000000E+00 0. -1.
         25    2    1    2    0    0 -0.43631368128E+02 -0.29046907692E+02  0.28855542355E+03  0.31884002615E+03  0.12508921092E+03 0.  0.
          5    1    3    3  502    0 -0.63353597719E+02 -0.57570301585E+02  0.25988129565E+03  0.27364900548E+03  0.41800000000E+01 0.  1.
         -5    1    3    3    0  502  0.19722229591E+02  0.28523393894E+02  0.28674127893E+02  0.45191020675E+02  0.41800000000E+01 0.  1.
        -11    1    1    2    0    0  0.61836280098E+02 -0.94273654835E+01  0.22325262430E+03  0.23184981133E+03  0.00000000000E+00 0.  1.
         11    1    1    2    0    0 -0.18204911971E+02  0.38474273175E+02  0.14254728419E+03  0.14876631590E+03  0.00000000000E+00 0. -1.
</event>
<event>
 7    1  0.2644565E-009  0.1636500E+03  0.7561462E-02  0.1184636E+00
         -1   -1    0    0    0  501 -0.00000000000E+00  0.00000000000E+00  0.50460223100E+02  0.50460223100E+02  0.00000000000E+00 0.  1.
          1   -1    0    0  501    0  0.00000000000E+00 -0.00000000000E+00 -0.61025002516E+03  0.61025002516E+03  0.00000000000E+00 0. -1.
         25    2    1    2    0    0 -0.43100622593E+01 -0.13658759606E+03 -0.32847896531E+03  0.37712129307E+03  0.12508913225E+03 0.  0.
          5    1    3    3  502    0  0.46667296090E+02 -0.12991657917E+02 -0.11934186465E+03  0.12886649199E+03  0.41800000000E+01 0.  1.
         -5    1    3    3    0  502 -0.50977358350E+02 -0.12359593814E+03 -0.20913710066E+03  0.24825480108E+03  0.41800000000E+01 0.  1.
        -11    1    1    2    0    0 -0.20515408128E+02  0.87933642844E+02 -0.20275747765E+03  0.22195450493E+03  0.00000000000E+00 0. -1.
         11    1    1    2    0    0  0.24825470387E+02  0.48653953213E+02 -0.28553359111E+02  0.61634450267E+02  0.00000000000E+00 0.  1.
</event>
<event>
 7    1  0.2644565E-009  0.1290158E+03  0.7561462E-02  0.1228923E+00
          1   -1    0    0  501    0  0.00000000000E+00  0.00000000000E+00  0.27352397266E+03  0.27352397266E+03  0.00000000000E+00 0. -1.
         -1   -1    0    0    0  501 -0.00000000000E+00 -0.00000000000E+00 -0.64585548446E+02  0.64585548446E+02  0.00000000000E+00 0.  1.
         25    2    1    2    0    0 -0.57710862720E+02  0.48900046302E+02  0.12598422156E+03  0.19298201766E+03  0.12509307277E+03 0.  0.
          5    1    3    3  502    0 -0.83541665697E+02  0.67111819300E+02  0.11928632454E+03  0.16040544199E+03  0.41800000000E+01 0.  1.
         -5    1    3    3    0  502  0.25830802977E+02 -0.18211772998E+02  0.66978970222E+01  0.32576575674E+02  0.41800000000E+01 0.  1.
        -11    1    1    2    0    0  0.35283857948E+01 -0.62859181114E+02  0.47810540646E+02  0.79054246903E+02  0.00000000000E+00 0.  1.
         11    1    1    2    0    0  0.54182476925E+02  0.13959134811E+02  0.35143662004E+02  0.66073256538E+02  0.00000000000E+00 0. -1.
</event>
<event>
 7    1  0.2644565E-009  0.1193129E+03  0.7561462E-02  0.1244235E+00
         -2   -1    0    0    0  501 -0.00000000000E+00  0.00000000000E+00  0.26305738114E+02  0.26305738114E+02  0.00000000000E+00 0.  1.
          2   -1    0    0  501    0  0.00000000000E+00 -0.00000000000E+00 -0.85298204005E+03  0.85298204005E+03  0.00000000000E+00 0. -1.
         25    2    1    2    0    0 -0.43923159929E+02  0.92499648408E+02 -0.50615104186E+03  0.53133940277E+03  0.12508898761E+03 0.  0.
          5    1    3    3  502    0 -0.34485983895E+02  0.91247542918E+02 -0.17796490143E+03  0.20298860981E+03  0.41800000000E+01 0.  1.
         -5    1    3    3    0  502 -0.94371760339E+01  0.12521054900E+01 -0.32818614044E+03  0.32835079296E+03  0.41800000000E+01 0.  1.
        -11    1    1    2    0    0 -0.24628319685E+01 -0.83258239439E+02 -0.24563021089E+03  0.25936885024E+03  0.00000000000E+00 0. -1.
         11    1    1    2    0    0  0.46385991897E+02 -0.92414089683E+01 -0.74895049190E+02  0.88579525157E+02  0.00000000000E+00 0.  1.
</event>
<event>
 7    1  0.2644565E-009  0.1724480E+03  0.7561462E-02  0.1175319E+00
         -2   -1    0    0    0  501 -0.00000000000E+00  0.00000000000E+00  0.36178582205E+03  0.36178582205E+03  0.00000000000E+00 0. -1.
          2   -1    0    0  501    0  0.00000000000E+00 -0.00000000000E+00 -0.10727219463E+03  0.10727219463E+03  0.00000000000E+00 0.  1.
         25    2    1    2    0    0 -0.15661341120E+03 -0.51439057888E+02  0.10952640289E+03  0.23413274859E+03  0.12509346021E+03 0.  0.
          5    1    3    3  502    0 -0.91368508355E+02  0.49164323708E+01 -0.38044149814E+01  0.91675087126E+02  0.41800000000E+01 0. -1.
         -5    1    3    3    0  502 -0.65244902847E+02 -0.56355490259E+02  0.11333081788E+03  0.14245766147E+03  0.41800000000E+01 0. -1.
        -11    1    1    2    0    0  0.90476189135E+02  0.43444098113E+02  0.34919778990E+02  0.10626721708E+03  0.00000000000E+00 0.  1.
         11    1    1    2    0    0  0.66137222067E+02  0.79949597751E+01  0.11006744553E+03  0.12865805101E+03  0.00000000000E+00 0. -1.
</event>
<event>
 7    1  0.2644565E-009  0.1065035E+03  0.7561462E-02  0.1267185E+00
          2   -1    0    0  501    0  0.00000000000E+00  0.00000000000E+00  0.33993309453E+03  0.33993309453E+03  0.00000000000E+00 0. -1.
         -2   -1    0    0    0  501 -0.00000000000E+00 -0.00000000000E+00 -0.37251930948E+02  0.37251930948E+02  0.00000000000E+00 0.  1.
         25    2    1    2    0    0 -0.10496982318E+02  0.10930850430E+02  0.12751498905E+03  0.17926813349E+03  0.12508925263E+03 0.  0.
          5    1    3    3  502    0 -0.65646658912E+02  0.19481866284E+02  0.56658781173E+02  0.88975933961E+02  0.41800000000E+01 0. -1.
         -5    1    3    3    0  502  0.55149676594E+02 -0.85510158538E+01  0.70856207881E+02  0.90292199530E+02  0.41800000000E+01 0. -1.
        -11    1    1    2    0    0  0.47927878656E+02  0.40980365737E+01  0.67037550389E+02  0.82510051620E+02  0.00000000000E+00 0.  1.
         11    1    1    2    0    0 -0.37430896339E+02 -0.15028887004E+02  0.10812862414E+03  0.11540684037E+03  0.00000000000E+00 0. -1.
</event>
<event>
 7    1  0.2644565E-009  0.1079907E+03  0.7561462E-02  0.1264337E+00
         -3   -1    0    0    0  501 -0.00000000000E+00  0.00000000000E+00  0.41260260054E+03  0.41260260054E+03  0.00000000000E+00 0.  1.
          3   -1    0    0  501    0  0.00000000000E+00 -0.00000000000E+00 -0.44653054325E+02  0.44653054325E+02  0.00000000000E+00 0. -1.
         25    2    1    2    0    0 -0.38599051897E+02  0.49074960960E+02  0.21130422286E+03  0.25336670273E+03  0.12508786055E+03 0.  0.
          5    1    3    3  502    0 -0.25285030556E+02  0.91413251066E+02  0.13605423853E+03  0.16590341606E+03  0.41800000000E+01 0.  1.
         -5    1    3    3    0  502 -0.13314021341E+02 -0.42338290106E+02  0.75249984330E+02  0.87463286669E+02  0.41800000000E+01 0.  1.
        -11    1    1    2    0    0  0.91956568661E-01 -0.35701432225E+02  0.15909549513E+03  0.16305206926E+03  0.00000000000E+00 0.  1.
         11    1    1    2    0    0  0.38507095329E+02 -0.13373528735E+02 -0.24501717671E+01  0.40836882878E+02  0.00000000000E+00 0. -1.
</event>
<event>
 7    1  0.2644565E-009  0.7903797E+02  0.7561462E-02  0.1331804E+00
          1   -1    0    0  501    0  0.00000000000E+00  0.00000000000E+00  0.54061667817E+03  0.54061667817E+03  0.00000000000E+00 0. -1.
         -1   -1    0    0    0  501 -0.00000000000E+00 -0.00000000000E+00 -0.39079356393E+02  0.39079356393E+02  0.00000000000E+00 0.  1.
         25    2    1    2    0    0 -0.10510292055E+02 -0.21722461553E+02  0.46345371995E+03  0.48064524288E+03  0.12509263523E+03 0.  0.
          5    1    3    3  502    0 -0.15728910333E+02 -0.46565066062E+02  0.44784599825E+03  0.45055434139E+03  0.41800000000E+01 0. -1.
         -5    1    3    3    0  502  0.52186182783E+01  0.24842604510E+02  0.15607721702E+02  0.30090901487E+02  0.41800000000E+01 0. -1.
        -11    1    1    2    0    0  0.44976365957E+02  0.17652492261E+02  0.10939079094E+01  0.48328879692E+02  0.00000000000E+00 0.  1.
         11    1    1    2    0    0 -0.34466073902E+02  0.40699692914E+01  0.36989693915E+02  0.50721911993E+02  0.00000000000E+00 0. -1.
</event>
<event>
 7    1  0.2644565E-009  0.1646000E+03  0.7561462E-02  0.1183599E+00
         -2   -1    0    0    0  501 -0.00000000000E+00  0.00000000000E+00  0.38851157441E+02  0.38851157441E+02  0.00000000000E+00 0.  1.
          2   -1    0    0  501    0  0.00000000000E+00 -0.00000000000E+00 -0.92544147946E+03  0.92544147946E+03  0.00000000000E+00 0. -1.
         25    2    1    2    0    0 -0.13059678453E+03 -0.53750492124E+02 -0.30205829636E+03  0.35613432791E+03  0.12509120508E+03 0.  0.
          5    1    3    3  502    0 -0.11300937672E+03 -0.74607173159E+02 -0.29912830653E+03  0.32837869249E+03  0.41800000000E+01 0.  1.
         -5    1    3    3    0  502 -0.17587407810E+02  0.20856681035E+02 -0.29299898222E+01  0.27755635421E+02  0.41800000000E+01 0.  1.
        -11    1    1    2    0    0  0.36297950716E+02 -0.24324087629E+02 -0.19524961578E+03  0.20007902171E+03  0.00000000000E+00 0.  1.
         11    1    1    2    0    0  0.94298833816E+02  0.78074579753E+02 -0.38928240988E+03  0.40807928728E+03  0.00000000000E+00 0. -1.
</event>
<event>
 7    1  0.2644565E-009  0.1244224E+03  0.7561462E-02  0.1235975E+00
         -2   -1    0    0    0  501 -0.00000000000E+00  0.00000000000E+00  0.76660507066E+02  0.76660507066E+02  0.00000000000E+00 0. -1.
          2   -1    0    0  501    0  0.00000000000E+00 -0.00000000000E+00 -0.22382024221E+03  0.22382024221E+03  0.00000000000E+00 0.  1.
         25    2    1    2    0    0 -0.28826362321E+02  0.18058344953E+01 -0.31153999947E+02  0.13210357284E+03  0.12508621844E+03 0.  0.
          5    1    3    3  502    0 -0.28987735530E+02 -0.59378347080E+02 -0.23713052418E+02  0.70326795520E+02  0.41800000000E+01 0. -1.
         -5    1    3    3    0  502  0.16137320899E+00  0.61184181575E+02 -0.74409475293E+01  0.61776777324E+02  0.41800000000E+01 0. -1.
        -11    1    1    2    0    0  0.17201543987E+02 -0.59767423304E+02 -0.50267083770E+02  0.79967604157E+02  0.00000000000E+00 0.  1.
         11    1    1    2    0    0  0.11624818334E+02  0.57961588809E+02 -0.65738651430E+02  0.88409572278E+02  0.00000000000E+00 0. -1.
</event>
<event>
 6    1  0.2644565E-009  0.1157965E+03  0.7561462E-02  0.1250197E+00
          1   -1    0    0  501    0  0.00000000000E+00  0.00000000000E+00  0.17417099609E+04  0.17417099609E+04  0.00000000000E+00 0. -1.
         -1   -1    0    0    0  501 -0.00000000000E+00 -0.00000000000E+00 -0.16180461469E+02  0.16180461469E+02  0.00000000000E+00 0.  1.
          5    1    1    2  502    0  0.33762468359E+02 -0.24555702841E+02  0.10923084267E+04  0.10931139274E+04  0.41800000000E+01 0.  1.
         -5    1    1    2    0  502 -0.13674956245E+02 -0.66308896896E+02  0.28475896800E+03  0.29272686329E+03  0.41800000000E+01 0.  1.
        -11    1    1    2    0    0  0.30506977803E+02  0.35258612443E+02  0.73880743091E+02  0.87362518540E+02  0.00000000000E+00 0.  1.
         11    1    1    2    0    0 -0.50594489917E+02  0.55605987294E+02  0.27458136164E+03  0.28468711315E+03  0.00000000000E+00 0. -1.
</event>
<event>
 7    1  0.2644565E-009  0.1043817E+03  0.7561462E-02  0.1271343E+00
          1   -1    0    0  501    0  0.00000000000E+00  0.00000000000E+00  0.13391774103E+03  0.13391774103E+03  0.00000000000E+00 0. -1.
         -1   -1    0    0    0  501 -0.00000000000E+00 -0.00000000000E+00 -0.94522782808E+02  0.94522782808E+02  0.00000000000E+00 0.  1.
         25    2    1    2    0    0  0.54475676060E+01 -0.22966688282E+01  0.67818314748E+01  0.12541095600E+03  0.12508782501E+03 0.  0.
          5    1    3    3  502    0 -0.57715583113E+02  0.33803870208E-01  0.18986019753E+02  0.60901814610E+02  0.41800000000E+01 0. -1.
         -5    1    3    3    0  502  0.63163150719E+02 -0.23304726984E+01 -0.12204188278E+02  0.64509141393E+02  0.41800000000E+01 0. -1.
        -11    1    1    2    0    0  0.10263051248E+02 -0.40595897439E+02  0.38611770621E+02  0.56958106888E+02  0.00000000000E+00 0. -1.
         11    1    1    2    0    0 -0.15710618854E+02  0.42892566267E+02 -0.59986438709E+01  0.46071460950E+02  0.00000000000E+00 0.  1.
</event>
<event>
 7    1  0.2644565E-009  0.1308540E+03  0.7561462E-02  0.1226194E+00
          3   -1    0    0  501    0  0.00000000000E+00  0.00000000000E+00  0.12296344658E+03  0.12296344658E+03  0.00000000000E+00 0. -1.
         -3   -1    0    0    0  501 -0.00000000000E+00 -0.00000000000E+00 -0.18039614071E+03  0.18039614071E+03  0.00000000000E+00 0.  1.
         25    2    1    2    0    0  0.96611842318E+02 -0.32259057554E+02 -0.38234927802E+02  0.16578054463E+03  0.12508710727E+03 0.  0.
          5    1    3    3  502    0  0.10484190898E+03  0.81064505403E+01  0.57201315859E+01  0.10539322902E+03  0.41800000000E+01 0. -1.
         -5    1    3    3    0  502 -0.82300666596E+01 -0.40365508094E+02 -0.43955059388E+02  0.60387315611E+02  0.41800000000E+01 0. -1.
        -11    1    1    2    0    0 -0.84026294095E+02  0.39928383896E+01 -0.46671284838E+02  0.96200674042E+02  0.00000000000E+00 0.  1.
         11    1    1    2    0    0 -0.12585548223E+02  0.28266219165E+02  0.27473518508E+02  0.41378368614E+02  0.00000000000E+00 0. -1.
</event>
<event>
 7    1  0.2644565E-009  0.1247995E+03  0.7561462E-02  0.1235383E+00
         -4   -1    0    0    0  501 -0.00000000000E+00  0.00000000000E+00  0.85798005505E+02  0.85798005505E+02  0.00000000000E+00 0.  1.
          4   -1    0    0  501    0  0.00000000000E+00 -0.00000000000E+00 -0.34921357264E+03  0.34921357264E+03  0.00000000000E+00 0. -1.
         25    2    1    2    0    0 -0.67278383950E+02  0.77861908173E+02 -0.31218299877E+02  0.16494858057E+03  0.12507835262E+03 0.  0.
          5    1    3    3  502    0 -0.75471354984E+02  0.74694474503E+02 -0.68491522496E+02  0.12642686027E+03  0.41800000000E+01 0.  1.
         -5    1    3    3    0  502  0.81929710338E+01  0.31674336697E+01  0.37273222619E+02  0.38521720299E+02  0.41800000000E+01 0.  1.
        -11    1    1    2    0    0  0.86092798793E+02 -0.48736035558E+02 -0.13889194116E+03  0.17052314354E+03  0.00000000000E+00 0.  1.
         11    1    1    2    0    0 -0.18814414842E+02 -0.29125872615E+02 -0.93305326098E+02  0.99539854027E+02  0.00000000000E+00 0. -1.
</event>
<event>
 7    1  0.2644565E-009  0.1089403E+03  0.7561462E-02  0.1262545E+00
         -2   -1    0    0    0  501 -0.00000000000E+00  0.00000000000E+00  0.49895516885E+02  0.49895516885E+02  0.00000000000E+00 0.  1.
          2   -1    0    0  501    0  0.00000000000E+00 -0.00000000000E+00 -0.46072829313E+03  0.46072829313E+03  0.00000000000E+00 0. -1.
         25    2    1    2    0    0  0.27430827527E+02 -0.86917861271E+02 -0.31355839189E+03  0.34967715256E+03  0.12509228991E+03 0.  0.
          5    1    3    3  502    0  0.69741722458E+01 -0.44270022229E+02 -0.29544680162E+03  0.29885574937E+03  0.41800000000E+01 0. -1.
         -5    1    3    3    0  502  0.20456655282E+02 -0.42647839042E+02 -0.18111590273E+02  0.50821403193E+02  0.41800000000E+01 0. -1.
        -11    1    1    2    0    0 -0.52455864510E+02  0.24023308754E+02 -0.28140976614E+02  0.64192302107E+02  0.00000000000E+00 0. -1.
         11    1    1    2    0    0  0.25025036983E+02  0.62894552517E+02 -0.69133407743E+02  0.96754355347E+02  0.00000000000E+00 0.  1.
</event>
<event>
 7    1  0.2644565E-009  0.1564109E+03  0.7561462E-02  0.1192809E+00
          1   -1    0    0  501    0  0.00000000000E+00  0.00000000000E+00  0.10100852256E+03  0.10100852256E+03  0.00000000000E+00 0. -1.
         -1   -1    0    0    0  501 -0.00000000000E+00 -0.00000000000E+00 -0.34790910849E+03  0.34790910849E+03  0.00000000000E+00 0.  1.
         25    2    1    2    0    0 -0.11710325099E+03 -0.65333267819E+02 -0.44023969022E+02  0.18859401576E+03  0.12509190883E+03 0.  0.
          5    1    3    3  502    0 -0.92484820827E+02 -0.98588970739E+02 -0.54331800235E+02  0.14574856483E+03  0.41800000000E+01 0.  1.
         -5    1    3    3    0  502 -0.24618430163E+02  0.33255702920E+02  0.10307831212E+02  0.42845450922E+02  0.41800000000E+01 0.  1.
        -11    1    1    2    0    0  0.49965798577E+02  0.15281771698E+02 -0.15564432697E+03  0.16418060206E+03  0.00000000000E+00 0. -1.
         11    1    1    2    0    0  0.67137452413E+02  0.50051496121E+02 -0.47232289938E+02  0.96143013231E+02  0.00000000000E+00 0.  1.
</event>
<event>
 7    1  0.2644565E-009  0.1321750E+03  0.7561462E-02  0.1224264E+00
         -2   -1    0    0    0  501 -0.00000000000E+00  0.00000000000E+00  0.32693787130E+02  0.32693787130E+02  0.00000000000E+00 0. -1.
          2   -1    0    0  501    0  0.00000000000E+00 -0.00000000000E+00 -0.59873791235E+03  0.59873791235E+03  0.00000000000E+00 0.  1.
         25    2    1    2    0    0  0.77340619755E+01  0.81227778456E+02 -0.38478001581E+03  0.41274768604E+03  0.12508886464E+03 0.  0.
          5    1    3    3  502    0  0.33310032612E+02 -0.20492901274E+02 -0.15847515359E+03  0.16328307928E+03  0.41800000000E+01 0. -1.
         -5    1    3    3    0  502 -0.25575970637E+02  0.10172067973E+03 -0.22630486222E+03  0.24946460675E+03  0.41800000000E+01 0. -1.
        -11    1    1    2    0    0  0.38306571224E+02 -0.55109771184E+02 -0.80039311377E+02  0.10445463917E+03  0.00000000000E+00 0. -1.
         11    1    1    2    0    0 -0.46040633199E+02 -0.26118007272E+02 -0.10122479804E+03  0.11422937427E+03  0.00000000000E+00 0.  1.
</event>
<event>
 7    1  0.2644565E-009  0.1338196E+03  0.7561462E-02  0.1221896E+00
         -2   -1    0    0    0  501 -0.00000000000E+00  0.00000000000E+00  0.22662196820E+02  0.22662196820E+02  0.00000000000E+00 0. -1.
          2   -1    0    0  501    0  0.00000000000E+00 -0.00000000000E+00 -0.93686812673E+03  0.93686812673E+03  0.00000000000E+00 0.  1.
         25    2    1    2    0    0  0.75304394611E+02  0.36225474449E+02 -0.33725556550E+03  0.36928125912E+03  0.12507715632E+03 0.  0.
          5    1    3    3  502    0 -0.32409705398E+02  0.11860570758E+00 -0.44355013119E+02  0.55093036402E+02  0.41800000000E+01 0. -1.
         -5    1    3    3    0  502  0.10771410001E+03  0.36106868742E+02 -0.29290055238E+03  0.31418822272E+03  0.41800000000E+01 0. -1.
        -11    1    1    2    0    0 -0.52191077266E+02 -0.65646351538E+02 -0.45586755632E+03  0.46351761662E+03  0.00000000000E+00 0.  1.
         11    1    1    2    0    0 -0.23113317345E+02  0.29420877088E+02 -0.12108280810E+03  0.12673144781E+03  0.00000000000E+00 0. -1.
</event>
<event>
 7    1  0.2644565E-009  0.1041011E+03  0.7561462E-02  0.1271901E+00
          1   -1    0    0  501    0  0.00000000000E+00  0.00000000000E+00  0.10582096443E+03  0.10582096443E+03  0.00000000000E+00 0. -1.
         -1   -1    0    0    0  501 -0.00000000000E+00 -0.00000000000E+00 -0.24915453486E+03  0.24915453486E+03  0.00000000000E+00 0.  1.
         25    2    1    2    0    0 -0.34327565448E+02 -0.55542758987E+02  0.33614632931E+02  0.14505590986E+03  0.12509154094E+03 0.  0.
          5    1    3    3  502    0 -0.73003800657E+02 -0.63981624755E+02  0.75088243692E+01  0.97452850446E+02  0.41800000000E+01 0. -1.
         -5    1    3    3    0  502  0.38676235208E+02  0.84388657680E+01  0.26105808562E+02  0.47603059418E+02  0.41800000000E+01 0. -1.
        -11    1    1    2    0    0  0.37267609051E+02  0.37202324426E+02 -0.18296728144E+03  0.19039410102E+03  0.00000000000E+00 0.  1.
         11    1    1    2    0    0 -0.29400436030E+01  0.18340434561E+02  0.60190780741E+01  0.19525488397E+02  0.00000000000E+00 0. -1.
</event>
<event>
 7    1  0.2644565E-009  0.1248709E+03  0.7561462E-02  0.1235271E+00
         -2   -1    0    0    0  501 -0.00000000000E+00  0.00000000000E+00  0.58073064018E+02  0.58073064018E+02  0.00000000000E+00 0.  1.
          2   -1    0    0  501    0  0.00000000000E+00 -0.00000000000E+00 -0.46484233345E+03  0.46484233345E+03  0.00000000000E+00 0. -1.
         25    2    1    2    0    0 -0.65437495453E+02 -0.56941713032E+02 -0.78436237468E+02  0.17124643018E+03  0.12509465220E+03 0.  0.
          5    1    3    3  502    0  0.35086731931E+02 -0.80659646524E+01 -0.30763314701E+01  0.36374094610E+02  0.41800000000E+01 0. -1.
         -5    1    3    3    0  502 -0.10052422738E+03 -0.48875748379E+02 -0.75359905998E+02  0.13487233557E+03  0.41800000000E+01 0. -1.
        -11    1    1    2    0    0  0.25114740868E+02  0.55927840735E+02 -0.28863727452E+03  0.29507651519E+03  0.00000000000E+00 0. -1.
         11    1    1    2    0    0  0.40322754584E+02  0.10138722965E+01 -0.39695757441E+02  0.56592452086E+02  0.00000000000E+00 0.  1.
</event>
<event>
 7    1  0.2644565E-009  0.1625611E+03  0.7561462E-02  0.1185835E+00
          1   -1    0    0  501    0  0.00000000000E+00  0.00000000000E+00  0.33695622463E+03  0.33695622463E+03  0.00000000000E+00 0. -1.
         -1   -1    0    0    0  501 -0.00000000000E+00 -0.00000000000E+00 -0.11906176903E+03  0.11906176903E+03  0.00000000000E+00 0.  1.
         25    2    1    2    0    0  0.58348077397E+01  0.15074056918E+03  0.30091858314E+02  0.19825121895E+03  0.12506502988E+03 0.  0.
          5    1    3    3  502    0  0.40056924354E+01  0.33510145000E+02 -0.46894986710E+02  0.57927433642E+02  0.41800000000E+01 0.  1.
         -5    1    3    3    0  502  0.18291153042E+01  0.11723042418E+03  0.76986845024E+02  0.14032378530E+03  0.41800000000E+01 0.  1.
        -11    1    1    2    0    0  0.37531180344E+01 -0.16024917362E+03  0.15812160781E+03  0.22515844732E+03  0.00000000000E+00 0.  1.
         11    1    1    2    0    0 -0.95879257741E+01  0.95086044427E+01  0.29680989482E+02  0.32608327399E+02  0.00000000000E+00 0. -1.
</event>
<event>
 7    1  0.2644565E-009  0.1548179E+03  0.7561462E-02  0.1194675E+00
          2   -1    0    0  501    0  0.00000000000E+00  0.00000000000E+00  0.54314589657E+03  0.54314589657E+03  0.00000000000E+00 0.  1.
         -2   -1    0    0    0  501 -0.00000000000E+00 -0.00000000000E+00 -0.65546996198E+02  0.65546996198E+02  0.00000000000E+00 0. -1.
         25    2    1    2    0    0  0.12907692686E+03 -0.73537313514E+02  0.18463090456E+03  0.26796237163E+03  0.12508665863E+03 0.  0.
          5    1    3    3  502    0  0.55613967923E+02 -0.87447571873E+01  0.15588575861E+03  0.16579272102E+03  0.41800000000E+01 0.  1.
         -5    1    3    3    0  502  0.73462958934E+02 -0.64792556326E+02  0.28745145952E+02  0.10216965061E+03  0.41800000000E+01 0.  1.
        -11    1    1    2    0    0 -0.49497509469E+02  0.43458737967E+01  0.31585034817E+02  0.58877028518E+02  0.00000000000E+00 0. -1.
         11    1    1    2    0    0 -0.79579417388E+02  0.69191439717E+02  0.26138296099E+03  0.28185349261E+03  0.00000000000E+00 0.  1.
</event>
<event>
 7    1  0.2644565E-009  0.1018779E+03  0.7561462E-02  0.1276396E+00
          1   -1    0    0  501    0  0.00000000000E+00  0.00000000000E+00  0.17371802482E+03  0.17371802482E+03  0.00000000000E+00 0. -1.
         -1   -1    0    0    0  501 -0.00000000000E+00 -0.00000000000E+00 -0.10684628196E+03  0.10684628196E+03  0.00000000000E+00 0.  1.
         25    2    1    2    0    0  0.33265695790E+02 -0.49584084716E+02 -0.22194478713E+02  0.14037515880E+03  0.12508957730E+03 0.  0.
          5    1    3    3  502    0  0.69207151652E+02  0.49639106919E+01  0.45610536853E+01  0.69660217197E+02  0.41800000000E+01 0.  1.
         -5    1    3    3    0  502 -0.35941455862E+02 -0.54547995408E+02 -0.26755532398E+02  0.70714941607E+02  0.41800000000E+01 0.  1.
        -11    1    1    2    0    0 -0.26505361522E+02  0.95300567244E+01  0.95045197356E+02  0.99130952336E+02  0.00000000000E+00 0. -1.
         11    1    1    2    0    0 -0.67603342683E+01  0.40054027992E+02 -0.59789757879E+01  0.41058195640E+02  0.00000000000E+00 0.  1.
</event>
<event>
 7    1  0.4015436E-009  0.8926542E+02  0.7561462E-02  0.1304640E+00
          1   -1    0    0  501    0  0.00000000000E+00  0.00000000000E+00  0.42895374458E+03  0.42895374458E+03  0.00000000000E+00 0. -1.
         -1   -1    0    0    0  501 -0.00000000000E+00 -0.00000000000E+00 -0.36818636472E+02  0.36818636472E+02  0.00000000000E+00 0.  1.
         25    2    1    2    0    0 -0.22752303495E+02 -0.21954293107E+02  0.11756317868E+03  0.17454981003E+03  0.12508747700E+03 0.  0.
          5    1    3    3  502    0 -0.19459741093E+02  0.26751634852E+02 -0.12464562936E+02  0.35597320403E+02  0.41800000000E+01 0. -1.
         -5    1    3    3    0  502 -0.32925624017E+01 -0.48705927959E+02  0.13002774161E+03  0.13895248963E+03  0.41800000000E+01 0. -1.
        -11    1    1    2    0    0 -0.23212779647E+02 -0.22441441103E+02  0.11135346107E+03  0.11593983229E+03  0.00000000000E+00 0.  1.
         11    1    1    2    0    0  0.45965083142E+02  0.44395734210E+02  0.16321846836E+03  0.17528273873E+03  0.00000000000E+00 0. -1.
</event>
<event>
 7    1  0.2644565E-009  0.1186274E+03  0.7561462E-02  0.1245379E+00
         -4   -1    0    0    0  501 -0.00000000000E+00  0.00000000000E+00  0.40795349966E+03  0.40795349966E+03  0.00000000000E+00 0.  1.
          4   -1    0    0  501    0  0.00000000000E+00 -0.00000000000E+00 -0.57572145820E+02  0.57572145820E+02  0.00000000000E+00 0. -1.
         25    2    1    2    0    0  0.39977356461E+02 -0.10548569379E+02  0.32706297481E+03  0.35260096351E+03  0.12509112133E+03 0.  0.
          5    1    3    3  502    0 -0.29215269886E+02 -0.42633096213E+02  0.94167343168E+02  0.10749918049E+03  0.41800000000E+01 0.  1.
         -5    1    3    3    0  502  0.69192626348E+02  0.32084526834E+02  0.23289563164E+03  0.24510178302E+03  0.41800000000E+01 0.  1.
        -11    1    1    2    0    0 -0.12742531587E+02  0.55236002784E+02  0.29354164897E+01  0.56762705933E+02  0.00000000000E+00 0.  1.
         11    1    1    2    0    0 -0.27234824874E+02 -0.44687433406E+02  0.20382962546E+02  0.56161976038E+02  0.00000000000E+00 0. -1.
</event>
<event>
 7    1  0.2644565E-009  0.9831920E+02  0.7561462E-02  0.1283871E+00
          1   -1    0    0  501    0  0.00000000000E+00  0.00000000000E+00  0.45153725640E+02  0.45153725640E+02  0.00000000000E+00 0. -1.
         -1   -1    0    0    0  501 -0.00000000000E+00 -0.00000000000E+00 -0.30540339700E+03  0.30540339700E+03  0.00000000000E+00 0.  1.
         25    2    1    2    0    0 -0.60142231832E+01  0.44742526756E+02 -0.12974659111E+03  0.18579039430E+03  0.12508328477E+03 0.  0.
          5    1    3    3  502    0 -0.32800760420E+01 -0.29051976091E+02 -0.10298221252E+03  0.10713349014E+03  0.41800000000E+01 0.  1.
         -5    1    3    3    0  502 -0.27341471412E+01  0.73794502847E+02 -0.26764378591E+02  0.78656904162E+02  0.41800000000E+01 0.  1.
        -11    1    1    2    0    0  0.31321511277E+02  0.99610698621E+01 -0.78710526386E+02  0.85297168449E+02  0.00000000000E+00 0.  1.
         11    1    1    2    0    0 -0.25307288094E+02 -0.54703596618E+02 -0.51792553862E+02  0.79469559891E+02  0.00000000000E+00 0. -1.
</event>
<event>
 6    1  0.2644565E-009  0.1096415E+03  0.7561462E-02  0.1261235E+00
          1   -1    0    0  501    0  0.00000000000E+00  0.00000000000E+00  0.62640217056E+02  0.62640217056E+02  0.00000000000E+00 0. -1.
         -1   -1    0    0    0  501 -0.00000000000E+00 -0.00000000000E+00 -0.20552626897E+03  0.20552626897E+03  0.00000000000E+00 0.  1.
          5    1    1    2  502    0 -0.32369538044E+02 -0.72372278259E+02 -0.67267310490E+02  0.10405718194E+03  0.41800000000E+01 0.  1.
         -5    1    1    2    0  502  0.23759896639E+02  0.40235185020E+02 -0.15071764647E+02  0.49275077793E+02  0.41800000000E+01 0.  1.
        -11    1    1    2    0    0  0.84614806652E+01 -0.29831993182E+02 -0.37637011157E+02  0.48765654729E+02  0.00000000000E+00 0.  1.
         11    1    1    2    0    0  0.14816073979E+00  0.61969086420E+02 -0.22909965619E+02  0.66068571560E+02  0.00000000000E+00 0. -1.
</event>
<event>
 7    1  0.2644565E-009  0.9422868E+02  0.7561462E-02  0.1292923E+00
          1   -1    0    0  501    0  0.00000000000E+00  0.00000000000E+00  0.49102665259E+02  0.49102665259E+02  0.00000000000E+00 0. -1.
         -1   -1    0    0    0  501 -0.00000000000E+00 -0.00000000000E+00 -0.31821001328E+03  0.31821001328E+03  0.00000000000E+00 0.  1.
         25    2    1    2    0    0 -0.27450620659E+02  0.20768678566E+02 -0.74481003593E+02  0.14959452844E+03  0.12508488501E+03 0.  0.
          5    1    3    3  502    0 -0.66613596817E+02  0.13652748488E+02 -0.36332683717E+01  0.68223470017E+02  0.41800000000E+01 0. -1.
         -5    1    3    3    0  502  0.39162976158E+02  0.71159300780E+01 -0.70847735222E+02  0.81371058420E+02  0.41800000000E+01 0. -1.
        -11    1    1    2    0    0  0.33448991642E+02 -0.44590728959E+02 -0.18149717867E+03  0.18986414621E+03  0.00000000000E+00 0.  1.
         11    1    1    2    0    0 -0.59983709825E+01  0.23822050394E+02 -0.13129165761E+02  0.27854003895E+02  0.00000000000E+00 0. -1.
</event>
<event>
 7    1  0.2644565E-009  0.1337252E+03  0.7561462E-02  0.1222031E+00
          1   -1    0    0  501    0  0.00000000000E+00  0.00000000000E+00  0.53440959975E+03  0.53440959975E+03  0.00000000000E+00 0. -1.
         -1   -1    0    0    0  501 -0.00000000000E+00 -0.00000000000E+00 -0.35715436784E+02  0.35715436784E+02  0.00000000000E+00 0.  1.
         25    2    1    2    0    0 -0.57542573695E+02  0.62215063259E+02  0.27086420861E+03  0.31015221723E+03  0.12508043995E+03 0.  0.
          5    1    3    3  502    0  0.32969208617E+02  0.48446504371E+02  0.91647434204E+02  0.10886118270E+03  0.41800000000E+01 0.  1.
         -5    1    3    3    0  502 -0.90511782313E+02  0.13768558889E+02  0.17921677441E+03  0.20129103453E+03  0.41800000000E+01 0.  1.
        -11    1    1    2    0    0  0.48048858812E+02  0.57824289840E+01  0.14224518908E+03  0.15025253121E+03  0.00000000000E+00 0. -1.
         11    1    1    2    0    0  0.94937148832E+01 -0.67997492243E+02  0.85584765267E+02  0.10972028809E+03  0.00000000000E+00 0.  1.
</event>
<event>
 7    1  0.2644565E-009  0.4814547E+03  0.7561462E-02  0.1018736E+00
          2   -1    0    0  501    0  0.00000000000E+00  0.00000000000E+00  0.36520656365E+03  0.36520656365E+03  0.00000000000E+00 0. -1.
         -2   -1    0    0    0  501 -0.00000000000E+00 -0.00000000000E+00 -0.66847329935E+03  0.66847329935E+03  0.00000000000E+00 0.  1.
         25    2    1    2    0    0 -0.35127400955E+03  0.31950728550E+03 -0.23769553288E+03  0.54554998185E+03  0.12508909254E+03 0.  0.
          5    1    3    3  502    0 -0.10948718690E+02 -0.57073361069E+01  0.72210682592E+01  0.14901823821E+02  0.41800000000E+01 0. -1.
         -5    1    3    3    0  502 -0.34032529086E+03  0.32521462161E+03 -0.24491660114E+03  0.53064815803E+03  0.41800000000E+01 0. -1.
        -11    1    1    2    0    0  0.58429758631E+02 -0.88902901698E+02 -0.42869962656E+02  0.11469784794E+03  0.00000000000E+00 0. -1.
         11    1    1    2    0    0  0.29284425092E+03 -0.23060438380E+03 -0.22701240168E+02  0.37343203321E+03  0.00000000000E+00 0.  1.
</event>
<event>
 7    1  0.2644565E-009  0.1711286E+03  0.7561462E-02  0.1176676E+00
          1   -1    0    0  501    0  0.00000000000E+00  0.00000000000E+00  0.12930022916E+04  0.12930022916E+04  0.00000000000E+00 0. -1.
         -1   -1    0    0    0  501 -0.00000000000E+00 -0.00000000000E+00 -0.36886160420E+02  0.36886160420E+02  0.00000000000E+00 0.  1.
         25    2    1    2    0    0  0.15516815614E+03  0.27774444738E+02  0.96480886533E+03  0.98557136377E+03  0.12508473129E+03 0.  0.
          5    1    3    3  502    0  0.44921218985E+02 -0.19464450192E+01  0.63361564138E+03  0.63522276247E+03  0.41800000000E+01 0. -1.
         -5    1    3    3    0  502  0.11024693715E+03  0.29720889758E+02  0.33119322396E+03  0.35034860130E+03  0.41800000000E+01 0. -1.
        -11    1    1    2    0    0 -0.11967842366E+03  0.22025932778E+02  0.17912417657E+03  0.21654915709E+03  0.00000000000E+00 0.  1.
         11    1    1    2    0    0 -0.35489732474E+02 -0.49800377517E+02  0.11218308927E+03  0.12776793114E+03  0.00000000000E+00 0. -1.
</event>
<event>
 7    1  0.2644565E-009  0.8923509E+02  0.7561462E-02  0.1304715E+00
         -4   -1    0    0    0  501 -0.00000000000E+00  0.00000000000E+00  0.97390922412E+02  0.97390922412E+02  0.00000000000E+00 0. -1.
          4   -1    0    0  501    0  0.00000000000E+00 -0.00000000000E+00 -0.14022281263E+03  0.14022281263E+03  0.00000000000E+00 0.  1.
         25    2    1    2    0    0 -0.22502092419E+02  0.21126860849E+02  0.68832839952E+01  0.12902539413E+03  0.12508990495E+03 0.  0.
          5    1    3    3  502    0 -0.53569605905E+02  0.53005901117E+02  0.26781734242E+02  0.80087838771E+02  0.41800000000E+01 0.  1.
         -5    1    3    3    0  502  0.31067513486E+02 -0.31879040267E+02 -0.19898450246E+02  0.48937555362E+02  0.41800000000E+01 0.  1.
        -11    1    1    2    0    0  0.10117635659E+02  0.16119812851E+02 -0.64037144637E+02  0.66805469918E+02  0.00000000000E+00 0.  1.
         11    1    1    2    0    0  0.12384456760E+02 -0.37246673700E+02  0.14321970428E+02  0.41782870987E+02  0.00000000000E+00 0. -1.
</event>
<event>
 7    1  0.2644565E-009  0.1375166E+03  0.7561462E-02  0.1216710E+00
         -2   -1    0    0    0  501 -0.00000000000E+00  0.00000000000E+00  0.94940868113E+02  0.94940868113E+02  0.00000000000E+00 0. -1.
          2   -1    0    0  501    0  0.00000000000E+00 -0.00000000000E+00 -0.24431182185E+03  0.24431182185E+03  0.00000000000E+00 0.  1.
         25    2    1    2    0    0  0.28639284766E+02 -0.10158584057E+03 -0.61238926856E+02  0.17475131885E+03  0.12509166896E+03 0.  0.
          5    1    3    3  502    0  0.77803500418E+02 -0.53207752636E+02 -0.30879957816E+02  0.99274839776E+02  0.41800000000E+01 0. -1.
         -5    1    3    3    0  502 -0.49164215652E+02 -0.48378087930E+02 -0.30358969040E+02  0.75476479075E+02  0.41800000000E+01 0. -1.
        -11    1    1    2    0    0 -0.26360056261E+02  0.29903856551E+02  0.11731019402E+02  0.41553700424E+02  0.00000000000E+00 0. -1.
         11    1    1    2    0    0 -0.22792285053E+01  0.71681984015E+02 -0.99863046285E+02  0.12294767069E+03  0.00000000000E+00 0.  1.
</event>
<event>
 7    1  0.3005573E-009  0.1098152E+03  0.7561462E-02  0.1260912E+00
         -1   -1    0    0    0  501 -0.00000000000E+00  0.00000000000E+00  0.45576116011E+02  0.45576116011E+02  0.00000000000E+00 0.  1.
          1   -1    0    0  501    0  0.00000000000E+00 -0.00000000000E+00 -0.35757364160E+03  0.35757364160E+03  0.00000000000E+00 0. -1.
         25    2    1    2    0    0 -0.26568606070E+02  0.26204514501E+02 -0.85953210175E+02  0.15629640342E+03  0.12509214193E+03 0.  0.
          5    1    3    3  502    0 -0.72110897993E+02  0.17083789807E+02 -0.22520390262E+02  0.77565958133E+02  0.41800000000E+01 0. -1.
         -5    1    3    3    0  502  0.45542291923E+02  0.91207246943E+01 -0.63432819912E+02  0.78730445284E+02  0.41800000000E+01 0. -1.
        -11    1    1    2    0    0 -0.24059104963E+02 -0.39659234413E+02 -0.94783723754E+02  0.10552558787E+03  0.00000000000E+00 0.  1.
         11    1    1    2    0    0  0.50627711032E+02  0.13454719912E+02 -0.13126059166E+03  0.14132776633E+03  0.00000000000E+00 0. -1.
</event>
<event>
 7    1  0.2644565E-009  0.1214625E+03  0.7561462E-02  0.1240704E+00
         -2   -1    0    0    0  501 -0.00000000000E+00  0.00000000000E+00  0.31414764549E+03  0.31414764549E+03  0.00000000000E+00 0.  1.
          2   -1    0    0  501    0  0.00000000000E+00 -0.00000000000E+00 -0.10101261318E+03  0.10101261318E+03  0.00000000000E+00 0. -1.
         25    2    1    2    0    0  0.80294833281E+02 -0.65369473483E+02  0.20268978426E+01  0.16239313367E+03  0.12508794200E+03 0.  0.
          5    1    3    3  502    0  0.53009440422E+02 -0.58697733563E+02 -0.56534637024E+02  0.97309106885E+02  0.41800000000E+01 0.  1.
         -5    1    3    3    0  502  0.27285392858E+02 -0.66717399200E+01  0.58561534866E+02  0.65084026788E+02  0.41800000000E+01 0.  1.
        -11    1    1    2    0    0 -0.92113362141E+02  0.28217706490E+02  0.17428959682E+03  0.19914309931E+03  0.00000000000E+00 0. -1.
         11    1    1    2    0    0  0.11818528860E+02  0.37151766993E+02  0.36818537652E+02  0.53624025679E+02  0.00000000000E+00 0.  1.
</event>
<event>
 7    1  0.2644565E-009  0.1126335E+03  0.7561462E-02  0.1255769E+00
          2   -1    0    0  501    0  0.00000000000E+00  0.00000000000E+00  0.74799007530E+03  0.74799007530E+03  0.00000000000E+00 0. -1.
         -2   -1    0    0    0  501 -0.00000000000E+00 -0.00000000000E+00 -0.50588747550E+02  0.50588747550E+02  0.00000000000E+00 0.  1.
         25    2    1    2    0    0  0.17809022323E+01  0.70382382740E+02  0.66382066769E+03  0.67916286955E+03  0.12508986014E+03 0.  0.
          5    1    3    3  502    0  0.32968854617E+02  0.91636258264E+02  0.56404528282E+03  0.57240606450E+03  0.41800000000E+01 0.  1.
         -5    1    3    3    0  502 -0.31187952384E+02 -0.21253875524E+02  0.99775384875E+02  0.10675680506E+03  0.41800000000E+01 0.  1.
        -11    1    1    2    0    0 -0.15979997580E+02  0.19564189002E+01 -0.21879567417E+02  0.27164376818E+02  0.00000000000E+00 0.  1.
         11    1    1    2    0    0  0.14199095348E+02 -0.72338801640E+02  0.55460227473E+02  0.92251576479E+02  0.00000000000E+00 0. -1.
</event>
<event>
 7    1  0.2644565E-009  0.9333242E+02  0.7561462E-02  0.1294977E+00
         -2   -1    0    0    0  501 -0.00000000000E+00  0.00000000000E+00  0.44070452793E+03  0.44070452793E+03  0.00000000000E+00 0.  1.
          2   -1    0    0  501    0  0.00000000000E+00 -0.00000000000E+00 -0.29041801728E+02  0.29041801728E+02  0.00000000000E+00 0. -1.
         25    2    1    2    0    0 -0.15542650531E+02  0.23893775625E+02  0.22546755293E+03  0.25940969795E+03  0.12508112355E+03 0.  0.
          5    1    3    3  502    0 -0.20312186780E+02  0.68453226341E+02  0.80836377048E+02  0.10793711772E+03  0.41800000000E+01 0. -1.
         -5    1    3    3    0  502  0.47695362488E+01 -0.44559450716E+02  0.14463117588E+03  0.15147258023E+03  0.41800000000E+01 0. -1.
        -11    1    1    2    0    0 -0.96844241878E+01  0.18452644163E+02  0.35282694984E+01  0.21136149936E+02  0.00000000000E+00 0. -1.
         11    1    1    2    0    0  0.25227074719E+02 -0.42346419787E+02  0.18266690377E+03  0.18920048177E+03  0.00000000000E+00 0.  1.
</event>
<event>
 7    1  0.2644565E-009  0.1125090E+03  0.7561462E-02  0.1255993E+00
          1   -1    0    0  501    0  0.00000000000E+00  0.00000000000E+00  0.67043197445E+02  0.67043197445E+02  0.00000000000E+00 0. -1.
         -1   -1    0    0    0  501 -0.00000000000E+00 -0.00000000000E+00 -0.27601148087E+03  0.27601148087E+03  0.00000000000E+00 0.  1.
         25    2    1    2    0    0 -0.39826530994E+02 -0.86596056121E+01 -0.20704727104E+03  0.24529020667E+03  0.12505027670E+03 0.  0.
          5    1    3    3  502    0 -0.60562465795E+02 -0.51481984258E+02 -0.15749901367E+03  0.17646988036E+03  0.41800000000E+01 0. -1.
         -5    1    3    3    0  502  0.20735934802E+02  0.42822378645E+02 -0.49548257364E+02  0.68820326305E+02  0.41800000000E+01 0. -1.
        -11    1    1    2    0    0 -0.49680404086E+01 -0.34855683889E+02 -0.26685959691E+01  0.35308944042E+02  0.00000000000E+00 0.  1.
         11    1    1    2    0    0  0.44794571402E+02  0.43515289501E+02  0.74758358304E+00  0.62455527607E+02  0.00000000000E+00 0. -1.
</event>
<event>
 7    1  0.2644565E-009  0.9009901E+02  0.7561462E-02  0.1302612E+00
          2   -1    0    0  501    0  0.00000000000E+00  0.00000000000E+00  0.29991619806E+03  0.29991619806E+03  0.00000000000E+00 0. -1.
         -2   -1    0    0    0  501 -0.00000000000E+00 -0.00000000000E+00 -0.46661866980E+02  0.46661866980E+02  0.00000000000E+00 0.  1.
         25    2    1    2    0    0 -0.26599329639E+02 -0.40285289034E+02  0.13884545544E+03  0.19304229825E+03  0.12512729346E+03 0.  0.
          5    1    3    3  502    0 -0.57601863614E+02 -0.24459708169E+02  0.14450601749E+03  0.15753004001E+03  0.41800000000E+01 0.  1.
         -5    1    3    3    0  502  0.31002533974E+02 -0.15825580865E+02 -0.56605620528E+01  0.35512258240E+02  0.41800000000E+01 0.  1.
        -11    1    1    2    0    0 -0.18825623713E+02 -0.37043118083E+01  0.78513969120E+02  0.80824311820E+02  0.00000000000E+00 0. -1.
         11    1    1    2    0    0  0.45424953353E+02  0.43989600842E+02  0.35894906524E+02  0.72711454969E+02  0.00000000000E+00 0.  1.
</event>
<event>
 7    1  0.2644565E-009  0.6047599E+02  0.7561462E-02  0.1395845E+00
          1   -1    0    0  501    0  0.00000000000E+00  0.00000000000E+00  0.62070952867E+02  0.62070952867E+02  0.00000000000E+00 0. -1.
         -1   -1    0    0    0  501 -0.00000000000E+00 -0.00000000000E+00 -0.21874450202E+03  0.21874450202E+03  0.00000000000E+00 0.  1.
         25    2    1    2    0    0  0.32093158195E+02 -0.21329949965E+02 -0.11855621792E+03  0.17660060649E+03  0.12508900766E+03 0.  0.
          5    1    3    3  502    0  0.79889808031E+01 -0.21878574616E+02 -0.14125516385E+03  0.14322356494E+03  0.41800000000E+01 0.  1.
         -5    1    3    3    0  502  0.24104177392E+02  0.54862465085E+00  0.22698945924E+02  0.33377041553E+02  0.41800000000E+01 0.  1.
        -11    1    1    2    0    0  0.40934584026E+01 -0.18533357670E+02 -0.46038110921E+02  0.49797082298E+02  0.00000000000E+00 0.  1.
         11    1    1    2    0    0 -0.36186616598E+02  0.39863307635E+02  0.79207796844E+01  0.54417766099E+02  0.00000000000E+00 0. -1.
</event>
<event>
 7    1  0.2644565E-009  0.1671615E+03  0.7561462E-02  0.1180841E+00
         -2   -1    0    0    0  501 -0.00000000000E+00  0.00000000000E+00  0.24509753352E+03  0.24509753352E+03  0.00000000000E+00 0.  1.
          2   -1    0    0  501    0  0.00000000000E+00 -0.00000000000E+00 -0.12741909972E+03  0.12741909972E+03  0.00000000000E+00 0. -1.
         25    2    1    2    0    0 -0.15095537269E+02 -0.13398641910E+03  0.29995872391E+02  0.18635460752E+03  0.12509217255E+03 0.  0.
          5    1    3    3  502    0  0.35614357459E+02 -0.12060463483E+03  0.41517966461E+02  0.13249556347E+03  0.41800000000E+01 0.  1.
         -5    1    3    3    0  502 -0.50709894728E+02 -0.13381784268E+02 -0.11522094070E+02  0.53859044043E+02  0.41800000000E+01 0.  1.
        -11    1    1    2    0    0 -0.31276916866E+02  0.71789785889E+02  0.14754413268E+02  0.79685077634E+02  0.00000000000E+00 0. -1.
         11    1    1    2    0    0  0.46372454135E+02  0.62196633212E+02  0.72928148141E+02  0.10647694810E+03  0.00000000000E+00 0.  1.
</event>
<event>
 7    1  0.2644565E-009  0.9345395E+02  0.7561462E-02  0.1294697E+00
          2   -1    0    0  501    0  0.00000000000E+00  0.00000000000E+00  0.70980911909E+03  0.70980911909E+03  0.00000000000E+00 0.  1.
         -2   -1    0    0    0  501 -0.00000000000E+00 -0.00000000000E+00 -0.34290701466E+02  0.34290701466E+02  0.00000000000E+00 0. -1.
         25    2    1    2    0    0  0.88527298294E+02  0.17267235529E+02  0.51526841815E+03  0.53785114437E+03  0.12508825201E+03 0.  0.
          5    1    3    3  502    0  0.40770787509E+02  0.24924381395E+02  0.46677534052E+03  0.46923360154E+03  0.41800000000E+01 0. -1.
         -5    1    3    3    0  502  0.47756510785E+02 -0.76571458660E+01  0.48493077630E+02  0.68617542824E+02  0.41800000000E+01 0. -1.
        -11    1    1    2    0    0 -0.51471470593E+02 -0.13033335599E+02  0.16039147415E+03  0.16895148742E+03  0.00000000000E+00 0.  1.
         11    1    1    2    0    0 -0.37055827701E+02 -0.42338999292E+01 -0.14147466950E+00  0.37297188772E+02  0.00000000000E+00 0. -1.
</event>
<event>
 7    1  0.2666984E-009  0.1425051E+03  0.7561462E-02  0.1209997E+00
          4   -1    0    0  501    0  0.00000000000E+00  0.00000000000E+00  0.72313295241E+03  0.72313295241E+03  0.00000000000E+00 0. -1.
         -4   -1    0    0    0  501 -0.00000000000E+00 -0.00000000000E+00 -0.28196935816E+02  0.28196935816E+02  0.00000000000E+00 0.  1.
         25    2    1    2    0    0  0.89350565384E+02  0.23888250216E+02  0.39316185649E+03  0.42282024660E+03  0.12508614435E+03 0.  0.
          5    1    3    3  502    0  0.11102358852E+03 -0.13368983631E+02  0.29592203275E+03  0.31637365377E+03  0.41800000000E+01 0.  1.
         -5    1    3    3    0  502 -0.21673023139E+02  0.37257233847E+02  0.97239823734E+02  0.10644659283E+03  0.41800000000E+01 0.  1.
        -11    1    1    2    0    0 -0.12998105497E+02 -0.48003014606E+02  0.11370378540E+03  0.12410395229E+03  0.00000000000E+00 0. -1.
         11    1    1    2    0    0 -0.76352459887E+02  0.24114764389E+02  0.18807037470E+03  0.20440568933E+03  0.00000000000E+00 0.  1.
</event>
<event>
 7    1  0.2644565E-009  0.9107001E+02  0.7561462E-02  0.1300281E+00
          1   -1    0    0  501    0  0.00000000000E+00  0.00000000000E+00  0.43550771521E+03  0.43550771521E+03  0.00000000000E+00 0. -1.
         -1   -1    0    0    0  501 -0.00000000000E+00 -0.00000000000E+00 -0.31289792291E+02  0.31289792291E+02  0.00000000000E+00 0.  1.
         25    2    1    2    0    0  0.88258894158E+01 -0.39042520616E+02  0.28072090969E+03  0.30993014006E+03  0.12510095060E+03 0.  0.
          5    1    3    3  502    0  0.38330513824E+02 -0.28337561932E+01  0.17279450475E+02  0.42347494293E+02  0.41800000000E+01 0. -1.
         -5    1    3    3    0  502 -0.29504624408E+02 -0.36208764423E+02  0.26344145921E+03  0.26758264577E+03  0.41800000000E+01 0. -1.
        -11    1    1    2    0    0 -0.65817873791E+00 -0.28521007457E+02  0.40424835122E+02  0.49477756217E+02  0.00000000000E+00 0.  1.
         11    1    1    2    0    0 -0.81677106779E+01  0.67563528073E+02  0.83072178113E+02  0.10738961123E+03  0.00000000000E+00 0. -1.
</event>
<event>
 7    1  0.2644565E-009  0.1205191E+03  0.7561462E-02  0.1242243E+00
          3   -1    0    0  501    0  0.00000000000E+00  0.00000000000E+00  0.15341397074E+03  0.15341397074E+03  0.00000000000E+00 0. -1.
         -3   -1    0    0    0  501 -0.00000000000E+00 -0.00000000000E+00 -0.11515652916E+03  0.11515652916E+03  0.00000000000E+00 0.  1.
         25    2    1    2    0    0  0.60363955441E+02  0.22146422835E+02 -0.19590607587E+02  0.14200466048E+03  0.12508901044E+03 0.  0.
          5    1    3    3  502    0  0.95483082935E+02  0.28341950061E+02  0.27319780599E+01  0.99725730703E+02  0.41800000000E+01 0.  1.
         -5    1    3    3    0  502 -0.35119127494E+02 -0.61955272256E+01 -0.22322585646E+02  0.42278929782E+02  0.41800000000E+01 0.  1.
        -11    1    1    2    0    0  0.61188343417E+01  0.23836166183E+02 -0.38062619072E+01  0.24901618054E+02  0.00000000000E+00 0.  1.
         11    1    1    2    0    0 -0.66482789782E+02 -0.45982589018E+02  0.61654311072E+02  0.10166422136E+03  0.00000000000E+00 0. -1.
</event>
<event>
 7    1  0.2644565E-009  0.1299232E+03  0.7561462E-02  0.1227570E+00
          2   -1    0    0  501    0  0.00000000000E+00  0.00000000000E+00  0.49184096529E+03  0.49184096529E+03  0.00000000000E+00 0. -1.
         -2   -1    0    0    0  501 -0.00000000000E+00 -0.00000000000E+00 -0.36853488601E+02  0.36853488601E+02  0.00000000000E+00 0.  1.
         25    2    1    2    0    0  0.57617632263E+02  0.41384187823E+02  0.19206990909E+03  0.23993967564E+03  0.12509098857E+03 0.  0.
          5    1    3    3  502    0  0.19588343524E+02 -0.44963075267E+02  0.60836961257E+02  0.78255923703E+02  0.41800000000E+01 0.  1.
         -5    1    3    3    0  502  0.38029288739E+02  0.86347263090E+02  0.13123294783E+03  0.16168375194E+03  0.41800000000E+01 0.  1.
        -11    1    1    2    0    0 -0.29611701288E+02  0.28373462269E+02  0.63002636712E+02  0.75174719467E+02  0.00000000000E+00 0. -1.
         11    1    1    2    0    0 -0.28005930975E+02 -0.69757650092E+02  0.19991493089E+03  0.21358005878E+03  0.00000000000E+00 0.  1.
</event>
<event>
 7    1  0.2644565E-009  0.1246825E+03  0.7561462E-02  0.1235566E+00
         -2   -1    0    0    0  501 -0.00000000000E+00  0.00000000000E+00  0.23487376130E+02  0.23487376130E+02  0.00000000000E+00 0.  1.
          2   -1    0    0  501    0  0.00000000000E+00 -0.00000000000E+00 -0.10222360327E+04  0.10222360327E+04  0.00000000000E+00 0. -1.
         25    2    1    2    0    0  0.24363268105E+02  0.90505219559E+02 -0.73596991717E+03  0.75238613343E+03  0.12509360974E+03 0.  0.
          5    1    3    3  502    0 -0.43220478581E+02  0.33592148466E+02 -0.14906472623E+03  0.15885278472E+03  0.41800000000E+01 0. -1.
         -5    1    3    3    0  502  0.67583746686E+02  0.56913071093E+02 -0.58690519095E+03  0.59353334872E+03  0.41800000000E+01 0. -1.
        -11    1    1    2    0    0 -0.29930452589E+02 -0.21669543008E+02 -0.18779806592E+03  0.19139883659E+03  0.00000000000E+00 0. -1.
         11    1    1    2    0    0  0.55671844843E+01 -0.68835676551E+02 -0.74980673450E+02  0.10193843878E+03  0.00000000000E+00 0.  1.
</event>
<event>
 7    1  0.2644565E-009  0.1102095E+03  0.7561462E-02  0.1260182E+00
         -2   -1    0    0    0  501 -0.00000000000E+00  0.00000000000E+00  0.14132334217E+02  0.14132334217E+02  0.00000000000E+00 0. -1.
          2   -1    0    0  501    0  0.00000000000E+00 -0.00000000000E+00 -0.13753723083E+04  0.13753723083E+04  0.00000000000E+00 0.  1.
         25    2    1    2    0    0 -0.19618096182E+01  0.85429794955E+02 -0.85264425233E+03  0.86599755193E+03  0.12508972923E+03 0.  0.
          5    1    3    3  502    0  0.99700579772E+01  0.84005880145E+00 -0.58327515439E+03  0.58337593872E+03  0.41800000000E+01 0. -1.
         -5    1    3    3    0  502 -0.11931867595E+02  0.84589736154E+02 -0.26936909794E+03  0.28262161321E+03  0.41800000000E+01 0. -1.
        -11    1    1    2    0    0  0.29800839535E+02 -0.90912740675E+02 -0.38938725591E+03  0.40096839217E+03  0.00000000000E+00 0.  1.
         11    1    1    2    0    0 -0.27839029917E+02  0.54829457202E+01 -0.11920846584E+03  0.12253869841E+03  0.00000000000E+00 0. -1.
</event>
<event>
 7    1  0.2644565E-009  0.1444243E+03  0.7561462E-02  0.1207497E+00
          1   -1    0    0  501    0  0.00000000000E+00  0.00000000000E+00  0.38814043846E+03  0.38814043846E+03  0.00000000000E+00 0. -1.
         -1   -1    0    0    0  501 -0.00000000000E+00 -0.00000000000E+00 -0.54958217388E+02  0.54958217388E+02  0.00000000000E+00 0.  1.
         25    2    1    2    0    0 -0.87746574670E+02 -0.42205700478E+02  0.17572146602E+03  0.23665035193E+03  0.12507826721E+03 0.  0.
          5    1    3    3  502    0 -0.11755868157E+03 -0.43103240670E+02  0.15823100927E+03  0.20182283732E+03  0.41800000000E+01 0. -1.
         -5    1    3    3    0  502  0.29812106905E+02  0.89754019197E+00  0.17490456752E+02  0.34827514610E+02  0.41800000000E+01 0. -1.
        -11    1    1    2    0    0  0.33099048182E+02  0.66009790340E+02  0.83856238743E+02  0.11173499088E+03  0.00000000000E+00 0.  1.
         11    1    1    2    0    0  0.54647526488E+02 -0.23804089861E+02  0.73604516306E+02  0.94713313035E+02  0.00000000000E+00 0. -1.
</event>
<event>
 7    1  0.2644565E-009  0.1063482E+03  0.7561462E-02  0.1267486E+00
         -1   -1    0    0    0  501 -0.00000000000E+00  0.00000000000E+00  0.40164182237E+02  0.40164182237E+02  0.00000000000E+00 0.  1.
          1   -1    0    0  501    0  0.00000000000E+00 -0.00000000000E+00 -0.33247548611E+03  0.33247548611E+03  0.00000000000E+00 0. -1.
         25    2    1    2    0    0  0.15323121461E+02  0.35628441459E+01 -0.22669236994E+03  0.25939255474E+03  0.12509026723E+03 0.  0.
          5    1    3    3  502    0  0.28790399604E+02 -0.55557520379E+02 -0.88932991552E+02  0.10882129647E+03  0.41800000000E+01 0.  1.
         -5    1    3    3    0  502 -0.13467278143E+02  0.59120364525E+02 -0.13775937839E+03  0.15057125827E+03  0.41800000000E+01 0.  1.
        -11    1    1    2    0    0 -0.48680363515E+02 -0.19242415847E+02 -0.23796485436E+02  0.57500618072E+02  0.00000000000E+00 0.  1.
         11    1    1    2    0    0  0.33357242054E+02  0.15679571701E+02 -0.41822448500E+02  0.55746495537E+02  0.00000000000E+00 0. -1.
</event>
<event>
 7    1  0.2644565E-009  0.8891205E+02  0.7561462E-02  0.1305508E+00
         -1   -1    0    0    0  501 -0.00000000000E+00  0.00000000000E+00  0.13692170749E+02  0.13692170749E+02  0.00000000000E+00 0.  1.
          1   -1    0    0  501    0  0.00000000000E+00 -0.00000000000E+00 -0.92664711914E+03  0.92664711914E+03  0.00000000000E+00 0. -1.
         25    2    1    2    0    0  0.30703924437E+02  0.71811222620E+01 -0.54939049379E+03  0.56433315264E+03  0.12509073913E+03 0.  0.
          5    1    3    3  502    0  0.14846037656E+02 -0.35887258453E+02 -0.53162987878E+02  0.65970264768E+02  0.41800000000E+01 0. -1.
         -5    1    3    3    0  502  0.15857886781E+02  0.43068380715E+02 -0.49622750591E+03  0.49836288787E+03  0.41800000000E+01 0. -1.
        -11    1    1    2    0    0 -0.50517781122E+02  0.23846703592E+02 -0.16912727289E+03  0.17811441805E+03  0.00000000000E+00 0.  1.
         11    1    1    2    0    0  0.19813856685E+02 -0.31027825854E+02 -0.19443718171E+03  0.19789171920E+03  0.00000000000E+00 0. -1.
</event>
<event>
 7    1  0.2644565E-009  0.1530775E+03  0.7561462E-02  0.1196742E+00
         -2   -1    0    0    0  501 -0.00000000000E+00  0.00000000000E+00  0.16240305241E+02  0.16240305241E+02  0.00000000000E+00 0.  1.
          2   -1    0    0  501    0  0.00000000000E+00 -0.00000000000E+00 -0.37605591533E+04  0.37605591533E+04  0.00000000000E+00 0. -1.
         25    2    1    2    0    0  0.12325534109E+03 -0.69514588112E+02 -0.32333511674E+04  0.32388625310E+04  0.12508623376E+03 0.  0.
          5    1    3    3  502    0  0.13487050439E+03 -0.55452199983E+02 -0.19782253212E+04  0.19835972104E+04  0.41800000000E+01 0. -1.
         -5    1    3    3    0  502 -0.11615163299E+02 -0.14062388129E+02 -0.12551258462E+04  0.12552653205E+04  0.41800000000E+01 0. -1.
        -11    1    1    2    0    0 -0.93595616690E+02  0.50902348621E+02 -0.47838854824E+03  0.49010895895E+03  0.00000000000E+00 0. -1.
         11    1    1    2    0    0 -0.29659724401E+02  0.18612239492E+02 -0.32579132410E+02  0.47827968586E+02  0.00000000000E+00 0.  1.
</event>
<event>
 7    1  0.2644565E-009  0.9783966E+02  0.7561462E-02  0.1284906E+00
          3   -1    0    0  501    0  0.00000000000E+00  0.00000000000E+00  0.38784556925E+02  0.38784556925E+02  0.00000000000E+00 0. -1.
         -3   -1    0    0    0  501 -0.00000000000E+00 -0.00000000000E+00 -0.40036992778E+03  0.40036992778E+03  0.00000000000E+00 0.  1.
         25    2    1    2    0    0 -0.60711056298E+02  0.59963371334E+01 -0.20872045901E+03  0.25086570639E+03  0.12509030426E+03 0.  0.
          5    1    3    3  502    0 -0.26354130135E+01 -0.52045860895E+02 -0.51169533988E+02  0.73154020031E+02  0.41800000000E+01 0. -1.
         -5    1    3    3    0  502 -0.58075643285E+02  0.58042198029E+02 -0.15755092502E+03  0.17771168636E+03  0.41800000000E+01 0. -1.
        -11    1    1    2    0    0  0.43063034871E+02 -0.63804583285E+01 -0.16246403229E+03  0.16819541317E+03  0.00000000000E+00 0.  1.
         11    1    1    2    0    0  0.17648021427E+02  0.38412119515E+00  0.95991204501E+01  0.20093365144E+02  0.00000000000E+00 0. -1.
</event>
<event>
 7    1  0.2644565E-009  0.1450373E+03  0.7561462E-02  0.1206707E+00
          2   -1    0    0  501    0  0.00000000000E+00  0.00000000000E+00  0.14213169937E+04  0.14213169937E+04  0.00000000000E+00 0. -1.
         -2   -1    0    0    0  501 -0.00000000000E+00 -0.00000000000E+00 -0.40491555081E+02  0.40491555081E+02  0.00000000000E+00 0.  1.
         25    2    1    2    0    0 -0.62143562499E+02 -0.85095729645E+02  0.12776159512E+04  0.12880418235E+04  0.12508443058E+03 0.  0.
          5    1    3    3  502    0 -0.35222367238E+02 -0.11423600983E+03  0.10667701624E+04  0.10734554172E+04  0.41800000000E+01 0.  1.
         -5    1    3    3    0  502 -0.26921195262E+02  0.29140280182E+02  0.21084578884E+03  0.21458640627E+03  0.41800000000E+01 0.  1.
        -11    1    1    2    0    0  0.86251960976E+01  0.75748796665E+02  0.28498192709E+02  0.81390547311E+02  0.00000000000E+00 0.  1.
         11    1    1    2    0    0  0.53518366402E+02  0.93469329803E+01  0.74711294721E+02  0.92376177976E+02  0.00000000000E+00 0. -1.
</event>
<event>
 7    1  0.2644565E-009  0.3279172E+03  0.7561462E-02  0.1072062E+00
          2   -1    0    0  501    0  0.00000000000E+00  0.00000000000E+00  0.43343296711E+03  0.43343296711E+03  0.00000000000E+00 0. -1.
         -2   -1    0    0    0  501 -0.00000000000E+00 -0.00000000000E+00 -0.36544369552E+03  0.36544369552E+03  0.00000000000E+00 0.  1.
         25    2    1    2    0    0  0.31124580535E+03 -0.51291607815E+02  0.25172657816E+03  0.42251498635E+03  0.12509141922E+03 0.  0.
          5    1    3    3  502    0 -0.95410190231E+01  0.76530380386E+01  0.67530187326E+01  0.14583404857E+02  0.41800000000E+01 0. -1.
         -5    1    3    3    0  502  0.32078682437E+03 -0.58944645853E+02  0.24497355943E+03  0.40793158150E+03  0.41800000000E+01 0. -1.
        -11    1    1    2    0    0 -0.87659535484E+02  0.15560144648E+01 -0.98745389541E+02  0.13205024535E+03  0.00000000000E+00 0.  1.
         11    1    1    2    0    0 -0.22358626986E+03  0.49735593350E+02 -0.84991917030E+02  0.24431143092E+03  0.00000000000E+00 0. -1.
</event>
<event>
 7    1  0.2644565E-009  0.1042593E+03  0.7561462E-02  0.1271586E+00
         -3   -1    0    0    0  501 -0.00000000000E+00  0.00000000000E+00  0.97567744878E+02  0.97567744878E+02  0.00000000000E+00 0.  1.
          3   -1    0    0  501    0  0.00000000000E+00 -0.00000000000E+00 -0.23324994280E+03  0.23324994280E+03  0.00000000000E+00 0. -1.
         25    2    1    2    0    0 -0.42919367893E+02 -0.53522378734E+02 -0.15831449274E+03  0.21311259294E+03  0.12508709562E+03 0.  0.
          5    1    3    3  502    0 -0.64412494879E+02  0.15182728645E+02 -0.10181748706E+03  0.12150620485E+03  0.41800000000E+01 0.  1.
         -5    1    3    3    0  502  0.21493126986E+02 -0.68705107380E+02 -0.56497005680E+02  0.91606388088E+02  0.41800000000E+01 0.  1.
        -11    1    1    2    0    0  0.27447584538E+02  0.22725885600E+02  0.58159222285E+02  0.68207997406E+02  0.00000000000E+00 0.  1.
         11    1    1    2    0    0  0.15471783355E+02  0.30796493135E+02 -0.35526927471E+02  0.49497097340E+02  0.00000000000E+00 0. -1.
</event>
<event>
 7    1  0.2644565E-009  0.1178674E+03  0.7561462E-02  0.1246657E+00
         -1   -1    0    0    0  501 -0.00000000000E+00  0.00000000000E+00  0.40742462435E+03  0.40742462435E+03  0.00000000000E+00 0.  1.
          1   -1    0    0  501    0  0.00000000000E+00 -0.00000000000E+00 -0.56081457669E+02  0.56081457669E+02  0.00000000000E+00 0. -1.
         25    2    1    2    0    0 -0.82500734087E+02 -0.59724804259E+02  0.22794646112E+03  0.27925133530E+03  0.12509314835E+03 0.  0.
          5    1    3    3  502    0 -0.14153734492E+02 -0.53788439847E+02  0.19539742361E+03  0.20320223920E+03  0.41800000000E+01 0. -1.
         -5    1    3    3    0  502 -0.68346999595E+02 -0.59363644126E+01  0.32549037505E+02  0.76049096107E+02  0.41800000000E+01 0. -1.
        -11    1    1    2    0    0  0.80638867130E+02  0.37513209212E+02  0.13299025126E+03  0.15998835798E+03  0.00000000000E+00 0.  1.
         11    1    1    2    0    0  0.18618669567E+01  0.22211595047E+02 -0.95935456996E+01  0.24266388734E+02  0.00000000000E+00 0. -1.
</event>
<event>
 7    1  0.2644565E-009  0.1829861E+03  0.7561462E-02  0.1164944E+00
          2   -1    0    0  501    0  0.00000000000E+00  0.00000000000E+00  0.46375674171E+03  0.46375674171E+03  0.00000000000E+00 0. -1.
         -2   -1    0    0    0  501 -0.00000000000E+00 -0.00000000000E+00 -0.93141576637E+02  0.93141576637E+02  0.00000000000E+00 0.  1.
         25    2    1    2    0    0 -0.12536078518E+03  0.12385107226E+03  0.18135131571E+03  0.28211697737E+03  0.12508906687E+03 0.  0.
          5    1    3    3  502    0 -0.61352051403E+02  0.10629380054E+03  0.17705680202E+03  0.21547396545E+03  0.41800000000E+01 0.  1.
         -5    1    3    3    0  502 -0.64008733773E+02  0.17557271714E+02  0.42945136883E+01  0.66643011915E+02  0.41800000000E+01 0.  1.
        -11    1    1    2    0    0  0.40374285923E+02 -0.31890767366E+02  0.45844810356E+01  0.51653862134E+02  0.00000000000E+00 0.  1.
         11    1    1    2    0    0  0.84986499253E+02 -0.91960304889E+02  0.18467936833E+03  0.22312747885E+03  0.00000000000E+00 0. -1.
</event>
<event>
 7    1  0.2644565E-009  0.1283140E+03  0.7561462E-02  0.1229979E+00
          1   -1    0    0  501    0  0.00000000000E+00  0.00000000000E+00  0.22537475079E+03  0.22537475079E+03  0.00000000000E+00 0. -1.
         -1   -1    0    0    0  501 -0.00000000000E+00 -0.00000000000E+00 -0.12853200029E+03  0.12853200029E+03  0.00000000000E+00 0.  1.
         25    2    1    2    0    0  0.78159237189E+02 -0.18392617748E+02 -0.55980573807E+02  0.15883463520E+03  0.12508981553E+03 0.  0.
          5    1    3    3  502    0  0.47369515183E+01 -0.53559873288E+02 -0.55399524663E+02  0.77315447805E+02  0.41800000000E+01 0. -1.
         -5    1    3    3    0  502  0.73422285671E+02  0.35167255540E+02 -0.58104914357E+00  0.81519187394E+02  0.41800000000E+01 0. -1.
        -11    1    1    2    0    0 -0.25169668985E+02 -0.36853865328E+02  0.53436292430E+02  0.69621526664E+02  0.00000000000E+00 0.  1.
         11    1    1    2    0    0 -0.52989568204E+02  0.55246483076E+02  0.99387031875E+02  0.12545058922E+03  0.00000000000E+00 0. -1.
</event>
<event>
 7    1  0.2644565E-009  0.1147165E+03  0.7561462E-02  0.1252077E+00
          1   -1    0    0  501    0  0.00000000000E+00  0.00000000000E+00  0.90728073099E+03  0.90728073099E+03  0.00000000000E+00 0. -1.
         -1   -1    0    0    0  501 -0.00000000000E+00 -0.00000000000E+00 -0.41256419828E+02  0.41256419828E+02  0.00000000000E+00 0.  1.
         25    2    1    2    0    0 -0.32260305398E+02 -0.32603666629E+02  0.83286905189E+03  0.84345873459E+03  0.12509217794E+03 0.  0.
          5    1    3    3  502    0 -0.28337854591E+02 -0.79351152925E+02  0.46548180749E+03  0.47306492681E+03  0.41800000000E+01 0.  1.
         -5    1    3    3    0  502 -0.39224508078E+01  0.46747486296E+02  0.36738724440E+03  0.37039380778E+03  0.41800000000E+01 0.  1.
        -11    1    1    2    0    0 -0.25350628588E+02 -0.90099248301E+01  0.60625121401E+00  0.26910976492E+02  0.00000000000E+00 0.  1.
         11    1    1    2    0    0  0.57610933986E+02  0.41613591459E+02  0.32549008056E+02  0.78167439732E+02  0.00000000000E+00 0. -1.
</event>
<event>
 7    1  0.2644565E-009  0.1029081E+03  0.7561462E-02  0.1274297E+00
         -2   -1    0    0    0  501 -0.00000000000E+00  0.00000000000E+00  0.35556927278E+02  0.35556927278E+02  0.00000000000E+00 0.  1.
          2   -1    0    0  501    0  0.00000000000E+00 -0.00000000000E+00 -0.58271313575E+03  0.58271313575E+03  0.00000000000E+00 0. -1.
         25    2    1    2    0    0  0.16827108630E+02  0.76843145723E+02 -0.40260172384E+03  0.42886156482E+03  0.12508426406E+03 0.  0.
          5    1    3    3  502    0  0.13685725740E+02  0.11630355195E+02  0.24127811113E+01  0.18597262263E+02  0.41800000000E+01 0. -1.
         -5    1    3    3    0  502  0.31413828901E+01  0.65212790528E+02 -0.40501450495E+03  0.41026430256E+03  0.41800000000E+01 0. -1.
        -11    1    1    2    0    0 -0.34954246927E+02 -0.91942070990E+02 -0.12260533383E+03  0.15718527819E+03  0.00000000000E+00 0.  1.
         11    1    1    2    0    0  0.18127138297E+02  0.15098925267E+02 -0.21949150800E+02  0.32223220011E+02  0.00000000000E+00 0. -1.
</event>
<event>
 7    1  0.2644565E-009  0.1552779E+03  0.7561462E-02  0.1194134E+00
         -2   -1    0    0    0  501 -0.00000000000E+00  0.00000000000E+00  0.23158326158E+02  0.23158326158E+02  0.00000000000E+00 0. -1.
          2   -1    0    0  501    0  0.00000000000E+00 -0.00000000000E+00 -0.10704657116E+04  0.10704657116E+04  0.00000000000E+00 0.  1.
         25    2    1    2    0    0 -0.40487137928E+02 -0.10441584306E+03 -0.65003079313E+03  0.67136193917E+03  0.12507975346E+03 0.  0.
          5    1    3    3  502    0  0.42943438015E+02 -0.57344972274E+02 -0.26059081415E+03  0.27029174892E+03  0.41800000000E+01 0.  1.
         -5    1    3    3    0  502 -0.83430575943E+02 -0.47070870782E+02 -0.38943997898E+03  0.40107019025E+03  0.41800000000E+01 0.  1.
        -11    1    1    2    0    0 -0.13136988220E+02  0.84794975492E+02 -0.22781015737E+03  0.24343425422E+03  0.00000000000E+00 0. -1.
         11    1    1    2    0    0  0.53624126148E+02  0.19620867564E+02 -0.16946643493E+03  0.17882784435E+03  0.00000000000E+00 0.  1.
</event>
<event>
 7    1  0.2644565E-009  0.1129512E+03  0.7561462E-02  0.1255200E+00
         -2   -1    0    0    0  501 -0.00000000000E+00  0.00000000000E+00  0.26595497595E+02  0.26595497595E+02  0.00000000000E+00 0.  1.
          2   -1    0    0  501    0  0.00000000000E+00 -0.00000000000E+00 -0.85147302917E+03  0.85147302917E+03  0.00000000000E+00 0. -1.
         25    2    1    2    0    0  0.88362687901E+02 -0.63139219176E+01 -0.59621161725E+03  0.61560002736E+03  0.12508905198E+03 0.  0.
          5    1    3    3  502    0  0.10406495489E+03  0.11746252126E+02 -0.57118437047E+03  0.58072071320E+03  0.41800000000E+01 0. -1.
         -5    1    3    3    0  502 -0.15702266987E+02 -0.18060174044E+02 -0.25027246780E+02  0.34879314162E+02  0.41800000000E+01 0. -1.
        -11    1    1    2    0    0 -0.28760758101E+02 -0.16291371695E+02 -0.17799451837E+03  0.18103767168E+03  0.00000000000E+00 0. -1.
         11    1    1    2    0    0 -0.59601929800E+02  0.22605293612E+02 -0.50671395963E+02  0.81430827725E+02  0.00000000000E+00 0.  1.
</event>
<event>
 7    1  0.2644565E-009  0.8353072E+02  0.7561462E-02  0.1319320E+00
         -1   -1    0    0    0  501 -0.00000000000E+00  0.00000000000E+00  0.20814052102E+03  0.20814052102E+03  0.00000000000E+00 0.  1.
          1   -1    0    0  501    0  0.00000000000E+00 -0.00000000000E+00 -0.75287447604E+02  0.75287447604E+02  0.00000000000E+00 0. -1.
         25    2    1    2    0    0  0.11581081978E+02  0.24245350223E+02  0.10062731592E+02  0.12833675905E+03  0.12508839550E+03 0.  0.
          5    1    3    3  502    0  0.50237412329E+02 -0.36567018014E+01 -0.35889754114E+02  0.61989643619E+02  0.41800000000E+01 0. -1.
         -5    1    3    3    0  502 -0.38656330351E+02  0.27902052025E+02  0.45952485706E+02  0.66347115430E+02  0.41800000000E+01 0. -1.
        -11    1    1    2    0    0  0.16738806537E+02  0.13477747631E+02 -0.20970626941E+01  0.21592475481E+02  0.00000000000E+00 0. -1.
         11    1    1    2    0    0 -0.28319888515E+02 -0.37723097854E+02  0.12488740452E+03  0.13349873409E+03  0.00000000000E+00 0.  1.
</event>
<event>
 7    1  0.2644565E-009  0.8286682E+02  0.7561462E-02  0.1321107E+00
         -1   -1    0    0    0  501 -0.00000000000E+00  0.00000000000E+00  0.43752369369E+03  0.43752369369E+03  0.00000000000E+00 0.  1.
          1   -1    0    0  501    0  0.00000000000E+00 -0.00000000000E+00 -0.33971155327E+02  0.33971155327E+02  0.00000000000E+00 0. -1.
         25    2    1    2    0    0  0.28776903940E+02 -0.32047827753E+02  0.28542496022E+03  0.31459560652E+03  0.12509122376E+03 0.  0.
          5    1    3    3  502    0  0.46169636217E+02 -0.42149109443E+01  0.27641227369E+03  0.28030450982E+03  0.41800000000E+01 0. -1.
         -5    1    3    3    0  502 -0.17392732276E+02 -0.27832916808E+02  0.90126865295E+01  0.34291096695E+02  0.41800000000E+01 0. -1.
        -11    1    1    2    0    0 -0.53958804882E+02  0.16173315993E+02  0.11358602936E+03  0.12678688749E+03  0.00000000000E+00 0.  1.
         11    1    1    2    0    0  0.25181900942E+02  0.15874511760E+02  0.45415487891E+01  0.30112355007E+02  0.00000000000E+00 0. -1.
</event>
<event>
 7    1  0.2644565E-009  0.7866329E+02  0.7561462E-02  0.1332888E+00
          2   -1    0    0  501    0  0.00000000000E+00  0.00000000000E+00  0.37407799740E+03  0.37407799740E+03  0.00000000000E+00 0. -1.
         -2   -1    0    0    0  501 -0.00000000000E+00 -0.00000000000E+00 -0.52887507359E+02  0.52887507359E+02  0.00000000000E+00 0.  1.
         25    2    1    2    0    0 -0.96303506839E+01 -0.22624858602E+02  0.40830729826E+02  0.13386422073E+03  0.12509137945E+03 0.  0.
          5    1    3    3  502    0 -0.37792157157E+02  0.74930708305E+01 -0.31873126002E+02  0.50177303776E+02  0.41800000000E+01 0. -1.
         -5    1    3    3    0  502  0.28161806473E+02 -0.30117929432E+02  0.72703855829E+02  0.83686916955E+02  0.41800000000E+01 0. -1.
        -11    1    1    2    0    0  0.34803016922E+00 -0.26818628261E+02  0.44679011765E+02  0.52111170003E+02  0.00000000000E+00 0.  1.
         11    1    1    2    0    0  0.92823205146E+01  0.49443486863E+02  0.23568074845E+03  0.24099011402E+03  0.00000000000E+00 0. -1.
</event>
<event>
 7    1  0.2644565E-009  0.1211283E+03  0.7561462E-02  0.1241247E+00
          3   -1    0    0  501    0  0.00000000000E+00  0.00000000000E+00  0.21379366942E+03  0.21379366942E+03  0.00000000000E+00 0. -1.
         -3   -1    0    0    0  501 -0.00000000000E+00 -0.00000000000E+00 -0.93398033907E+02  0.93398033907E+02  0.00000000000E+00 0.  1.
         25    2    1    2    0    0  0.82039265843E+02  0.31171765575E+02  0.90009624704E+02  0.17733864358E+03  0.12508054148E+03 0.  0.
          5    1    3    3  502    0  0.98949303693E+02  0.13001339991E+02  0.10745675028E+03  0.14671204832E+03  0.41800000000E+01 0. -1.
         -5    1    3    3    0  502 -0.16910037851E+02  0.18170425584E+02 -0.17447125574E+02  0.30626595253E+02  0.41800000000E+01 0. -1.
        -11    1    1    2    0    0 -0.61607036482E+02  0.17806679724E+02 -0.76173598358E+01  0.64579632685E+02  0.00000000000E+00 0.  1.
         11    1    1    2    0    0 -0.20432229361E+02 -0.48978445299E+02  0.38003370643E+02  0.65273427065E+02  0.00000000000E+00 0. -1.
</event>
<event>
 7    1  0.2644565E-009  0.1500547E+03  0.7561462E-02  0.1200406E+00
          2   -1    0    0  501    0  0.00000000000E+00  0.00000000000E+00  0.31435088154E+04  0.31435088154E+04  0.00000000000E+00 0.  1.
         -2   -1    0    0    0  501 -0.00000000000E+00 -0.00000000000E+00 -0.17004372063E+02  0.17004372063E+02  0.00000000000E+00 0. -1.
         25    2    1    2    0    0 -0.11786755504E+03 -0.68676789988E+01  0.27463920626E+04  0.27517739352E+04  0.12510197189E+03 0.  0.
          5    1    3    3  502    0 -0.12884675654E+03 -0.37848132433E+02  0.19063418940E+04  0.19110706049E+04  0.41800000000E+01 0. -1.
         -5    1    3    3    0  502  0.10979201500E+02  0.30980453434E+02  0.84005016861E+03  0.84070333028E+03  0.41800000000E+01 0. -1.
        -11    1    1    2    0    0  0.67982721676E+02  0.33808979563E+02  0.11620232418E+03  0.13880806061E+03  0.00000000000E+00 0. -1.
         11    1    1    2    0    0  0.49884833368E+02 -0.26941300564E+02  0.26391005660E+03  0.26993119169E+03  0.00000000000E+00 0.  1.
</event>
<event>
 7    1  0.2644565E-009  0.1335604E+03  0.7561462E-02  0.1222266E+00
         -1   -1    0    0    0  501 -0.00000000000E+00  0.00000000000E+00  0.32599421562E+02  0.32599421562E+02  0.00000000000E+00 0.  1.
          1   -1    0    0  501    0  0.00000000000E+00 -0.00000000000E+00 -0.67127080015E+03  0.67127080015E+03  0.00000000000E+00 0. -1.
         25    2    1    2    0    0 -0.65748705108E+02 -0.79386869337E+02 -0.38952060106E+03  0.42189858498E+03  0.12508776963E+03 0.  0.
          5    1    3    3  502    0 -0.85355189180E+02 -0.90484206189E+02 -0.37414823210E+03  0.39430606371E+03  0.41800000000E+01 0.  1.
         -5    1    3    3    0  502  0.19606484072E+02  0.11097336851E+02 -0.15372368956E+02  0.27592521273E+02  0.41800000000E+01 0.  1.
        -11    1    1    2    0    0  0.73090030306E+02  0.47834288271E+02 -0.11760991038E+03  0.14650038459E+03  0.00000000000E+00 0.  1.
         11    1    1    2    0    0 -0.73413251977E+01  0.31552581066E+02 -0.13154086715E+03  0.13547125214E+03  0.00000000000E+00 0. -1.
</event>
<event>
 7    1  0.2644565E-009  0.1039233E+03  0.7561462E-02  0.1272256E+00
          1   -1    0    0  501    0  0.00000000000E+00  0.00000000000E+00  0.37353775584E+03  0.37353775584E+03  0.00000000000E+00 0. -1.
         -1   -1    0    0    0  501 -0.00000000000E+00 -0.00000000000E+00 -0.35716837202E+02  0.35716837202E+02  0.00000000000E+00 0.  1.
         25    2    1    2    0    0  0.25203553205E+02  0.17240354431E+02  0.23914297607E+03  0.27160523992E+03  0.12509034507E+03 0.  0.
          5    1    3    3  502    0  0.44280353448E+02  0.60623900442E+02  0.10400926168E+03  0.12834097522E+03  0.41800000000E+01 0.  1.
         -5    1    3    3    0  502 -0.19076800243E+02 -0.43383546011E+02  0.13513371439E+03  0.14326426469E+03  0.41800000000E+01 0.  1.
        -11    1    1    2    0    0  0.14738792395E+02  0.23683441256E+02  0.56666167122E+01  0.28464854399E+02  0.00000000000E+00 0.  1.
         11    1    1    2    0    0 -0.39942345600E+02 -0.40923795687E+02  0.93011325857E+02  0.10918449873E+03  0.00000000000E+00 0. -1.
</event>
<event>
 7    1  0.2644565E-009  0.7706685E+02  0.7561462E-02  0.1337588E+00
         -1   -1    0    0    0  501 -0.00000000000E+00  0.00000000000E+00  0.21083163680E+03  0.21083163680E+03  0.00000000000E+00 0.  1.
          1   -1    0    0  501    0  0.00000000000E+00 -0.00000000000E+00 -0.75532456189E+02  0.75532456189E+02  0.00000000000E+00 0. -1.
         25    2    1    2    0    0 -0.26279254201E+01  0.18984331139E+02  0.14650064529E+03  0.19359103974E+03  0.12509093003E+03 0.  0.
          5    1    3    3  502    0 -0.11406032416E+02 -0.46113980643E+02  0.10619407982E+03  0.11640984397E+03  0.41800000000E+01 0. -1.
         -5    1    3    3    0  502  0.87781069957E+01  0.65098311782E+02  0.40306565476E+02  0.77181195766E+02  0.41800000000E+01 0. -1.
        -11    1    1    2    0    0 -0.19209376085E+01  0.10560194660E+02  0.35631577986E+02  0.37213130241E+02  0.00000000000E+00 0.  1.
         11    1    1    2    0    0  0.45488630286E+01 -0.29544525799E+02 -0.46833042665E+02  0.55559923009E+02  0.00000000000E+00 0. -1.
</event>
<event>
 7    1  0.2644565E-009  0.6986319E+02  0.7561462E-02  0.1360559E+00
          1   -1    0    0  501    0  0.00000000000E+00  0.00000000000E+00  0.27521505437E+03  0.27521505437E+03  0.00000000000E+00 0. -1.
         -1   -1    0    0    0  501 -0.00000000000E+00 -0.00000000000E+00 -0.55316630601E+02  0.55316630601E+02  0.00000000000E+00 0.  1.
         25    2    1    2    0    0 -0.16799607207E+02 -0.50285640598E+02  0.88434370770E+02  0.16210654329E+03  0.12508805296E+03 0.  0.
          5    1    3    3  502    0 -0.11989325220E+02 -0.39984395947E+02 -0.24461517527E+02  0.48562681950E+02  0.41800000000E+01 0.  1.
         -5    1    3    3    0  502 -0.48102819876E+01 -0.10301244651E+02  0.11289588830E+03  0.11354386134E+03  0.41800000000E+01 0.  1.
        -11    1    1    2    0    0  0.37400250065E+02  0.53016071598E+02  0.43677674569E+02  0.78212670382E+02  0.00000000000E+00 0.  1.
         11    1    1    2    0    0 -0.20600642858E+02 -0.27304310002E+01  0.87786378431E+02  0.90212471297E+02  0.00000000000E+00 0. -1.
</event>
<event>
 7    1  0.2644565E-009  0.7165159E+02  0.7561462E-02  0.1354565E+00
         -2   -1    0    0    0  501 -0.00000000000E+00  0.00000000000E+00  0.12078460737E+02  0.12078460737E+02  0.00000000000E+00 0.  1.
          2   -1    0    0  501    0  0.00000000000E+00 -0.00000000000E+00 -0.10450305291E+04  0.10450305291E+04  0.00000000000E+00 0. -1.
         25    2    1    2    0    0 -0.11075863671E+02 -0.23278058594E+02 -0.61187612698E+03  0.62506358126E+03  0.12509013980E+03 0.  0.
          5    1    3    3  502    0  0.12097349481E+02 -0.21829723064E+02 -0.18815140477E+02  0.31533546973E+02  0.41800000000E+01 0.  1.
         -5    1    3    3    0  502 -0.23173213152E+02 -0.14483355298E+01 -0.59306098650E+03  0.59353003428E+03  0.41800000000E+01 0.  1.
        -11    1    1    2    0    0  0.24460289950E+02 -0.30437653157E+02 -0.12942593608E+03  0.13518812613E+03  0.00000000000E+00 0. -1.
         11    1    1    2    0    0 -0.13384426280E+02  0.53715711751E+02 -0.29165000528E+03  0.29685728244E+03  0.00000000000E+00 0.  1.
</event>
<event>
 7    1  0.2644565E-009  0.8272543E+02  0.7561462E-02  0.1321490E+00
         -2   -1    0    0    0  501 -0.00000000000E+00  0.00000000000E+00  0.11856558121E+03  0.11856558121E+03  0.00000000000E+00 0.  1.
          2   -1    0    0  501    0  0.00000000000E+00 -0.00000000000E+00 -0.10755283278E+03  0.10755283278E+03  0.00000000000E+00 0. -1.
         25    2    1    2    0    0  0.21364817454E+02 -0.23034900965E+02  0.11582303478E+01  0.12898254673E+03  0.12509234100E+03 0.  0.
          5    1    3    3  502    0  0.48713633188E+02 -0.73832407557E+01  0.50249752888E+02  0.70498513230E+02  0.41800000000E+01 0.  1.
         -5    1    3    3    0  502 -0.27348815734E+02 -0.15651660210E+02 -0.49091522540E+02  0.58484033502E+02  0.41800000000E+01 0.  1.
        -11    1    1    2    0    0  0.23599688565E+02 -0.12683599481E+02  0.26155297828E+02  0.37442203469E+02  0.00000000000E+00 0.  1.
         11    1    1    2    0    0 -0.44964506019E+02  0.35718500446E+02 -0.16300779746E+02  0.59693663784E+02  0.00000000000E+00 0. -1.
</event>
<event>
 7    1  0.2644565E-009  0.2196551E+03  0.7561462E-02  0.1134140E+00
          2   -1    0    0  501    0  0.00000000000E+00  0.00000000000E+00  0.17326707234E+04  0.17326707234E+04  0.00000000000E+00 0. -1.
         -2   -1    0    0    0  501 -0.00000000000E+00 -0.00000000000E+00 -0.32558359018E+02  0.32558359018E+02  0.00000000000E+00 0.  1.
         25    2    1    2    0    0 -0.12814845971E+03  0.16531641261E+03  0.77882672042E+03  0.81606988254E+03  0.12508976275E+03 0.  0.
          5    1    3    3  502    0 -0.12503900058E+03  0.16303656486E+03  0.78267374551E+03  0.80920413831E+03  0.41800000000E+01 0. -1.
         -5    1    3    3    0  502 -0.31094591311E+01  0.22798477505E+01 -0.38470250877E+01  0.68657442334E+01  0.41800000000E+01 0. -1.
        -11    1    1    2    0    0  0.53485231875E+02 -0.13902654599E+03  0.62100711489E+03  0.63862264856E+03  0.00000000000E+00 0. -1.
         11    1    1    2    0    0  0.74663227832E+02 -0.26289866624E+02  0.30027852904E+03  0.31053655128E+03  0.00000000000E+00 0.  1.
</event>
<event>
 7    1  0.2656109E-009  0.1712683E+03  0.7561462E-02  0.1176532E+00
          2   -1    0    0  501    0  0.00000000000E+00  0.00000000000E+00  0.91152452643E+03  0.91152452643E+03  0.00000000000E+00 0. -1.
         -2   -1    0    0    0  501 -0.00000000000E+00 -0.00000000000E+00 -0.34391239393E+02  0.34391239393E+02  0.00000000000E+00 0.  1.
         25    2    1    2    0    0 -0.96889701798E+02 -0.99309297757E+02  0.50326467962E+03  0.53681850108E+03  0.12509522138E+03 0.  0.
          5    1    3    3  502    0 -0.24904795206E+02 -0.10645555160E+03  0.36021009743E+03  0.37645958612E+03  0.41800000000E+01 0.  1.
         -5    1    3    3    0  502 -0.71984906592E+02  0.71462538445E+01  0.14305458218E+03  0.16035891495E+03  0.41800000000E+01 0.  1.
        -11    1    1    2    0    0  0.97386470925E+02  0.46610255792E+02  0.19826312875E+03  0.22575408941E+03  0.00000000000E+00 0.  1.
         11    1    1    2    0    0 -0.49676912691E+00  0.52699041965E+02  0.17560547867E+03  0.18334317534E+03  0.00000000000E+00 0. -1.
</event>
<event>
 7    1  0.2644565E-009  0.9437933E+02  0.7561462E-02  0.1292580E+00
          1   -1    0    0  501    0  0.00000000000E+00  0.00000000000E+00  0.78295134706E+03  0.78295134706E+03  0.00000000000E+00 0. -1.
         -1   -1    0    0    0  501 -0.00000000000E+00 -0.00000000000E+00 -0.35491786424E+02  0.35491786424E+02  0.00000000000E+00 0.  1.
         25    2    1    2    0    0  0.57660348784E+02  0.23387242063E+02  0.66994704222E+03  0.68436048277E+03  0.12509417287E+03 0.  0.
          5    1    3    3  502    0 -0.11338664564E+02 -0.29980846031E+01  0.23438131657E+01  0.12669636361E+02  0.41800000000E+01 0.  1.
         -5    1    3    3    0  502  0.68999013347E+02  0.26385326666E+02  0.66760322905E+03  0.67169084640E+03  0.41800000000E+01 0.  1.
        -11    1    1    2    0    0 -0.64952901305E+02  0.12115956915E+02  0.71479431750E+02  0.97339534431E+02  0.00000000000E+00 0.  1.
         11    1    1    2    0    0  0.72925525214E+01 -0.35503198978E+02  0.60330866747E+01  0.36743116291E+02  0.00000000000E+00 0. -1.
</event>
<event>
 7    1  0.2644565E-009  0.1186239E+03  0.7561462E-02  0.1245385E+00
          1   -1    0    0  501    0  0.00000000000E+00  0.00000000000E+00  0.51588748869E+03  0.51588748869E+03  0.00000000000E+00 0. -1.
         -1   -1    0    0    0  501 -0.00000000000E+00 -0.00000000000E+00 -0.33653263355E+02  0.33653263355E+02  0.00000000000E+00 0.  1.
         25    2    1    2    0    0  0.58657112522E+02 -0.20578142744E+02  0.36449911010E+03  0.39034765842E+03  0.12509027283E+03 0.  0.
          5    1    3    3  502    0 -0.18472717536E+02 -0.52628812066E+02  0.15416283003E+03  0.16399598689E+03  0.41800000000E+01 0. -1.
         -5    1    3    3    0  502  0.77129830059E+02  0.32050669321E+02  0.21033628008E+03  0.22635167153E+03  0.41800000000E+01 0. -1.
        -11    1    1    2    0    0 -0.47684572875E+02  0.48299502045E+02  0.10850267479E+03  0.12798238482E+03  0.00000000000E+00 0. -1.
         11    1    1    2    0    0 -0.10972539647E+02 -0.27721359301E+02  0.92324404438E+01  0.31210708809E+02  0.00000000000E+00 0.  1.
</event>
<event>
 7    1  0.2644565E-009  0.6750814E+02  0.7561462E-02  0.1368778E+00
         -1   -1    0    0    0  501 -0.00000000000E+00  0.00000000000E+00  0.31276658270E+02  0.31276658270E+02  0.00000000000E+00 0.  1.
          1   -1    0    0  501    0  0.00000000000E+00 -0.00000000000E+00 -0.56179109269E+03  0.56179109269E+03  0.00000000000E+00 0. -1.
         25    2    1    2    0    0  0.13208360467E+02 -0.27831727755E+02 -0.44817282620E+03  0.46632030155E+03  0.12508667252E+03 0.  0.
          5    1    3    3  502    0 -0.76034451502E+00 -0.23009571273E+02 -0.63692823470E+01  0.24249920650E+02  0.41800000000E+01 0.  1.
         -5    1    3    3    0  502  0.13968704982E+02 -0.48221564818E+01 -0.44180354385E+03  0.44207038090E+03  0.41800000000E+01 0.  1.
        -11    1    1    2    0    0 -0.61749686360E+01  0.61528389601E+02 -0.55600697541E+02  0.83158346133E+02  0.00000000000E+00 0.  1.
         11    1    1    2    0    0 -0.70333918312E+01 -0.33696661846E+02 -0.26740910683E+02  0.43589103276E+02  0.00000000000E+00 0. -1.
</event>
<event>
 7    1  0.2644565E-009  0.2608732E+03  0.7561462E-02  0.1106620E+00
         -1   -1    0    0    0  501 -0.00000000000E+00  0.00000000000E+00  0.20282282113E+03  0.20282282113E+03  0.00000000000E+00 0.  1.
          1   -1    0    0  501    0  0.00000000000E+00 -0.00000000000E+00 -0.35695146458E+03  0.35695146458E+03  0.00000000000E+00 0. -1.
         25    2    1    2    0    0 -0.29872403973E+02  0.24371227043E+03 -0.94855137334E+02  0.29143329496E+03  0.12509131485E+03 0.  0.
          5    1    3    3  502    0  0.21790425927E+02  0.12919082379E+01  0.71798822587E+01  0.23356258224E+02  0.41800000000E+01 0. -1.
         -5    1    3    3    0  502 -0.51662829900E+02  0.24242036220E+03 -0.10203501959E+03  0.26807703673E+03  0.41800000000E+01 0. -1.
        -11    1    1    2    0    0 -0.16096586472E+02 -0.78494050020E+02 -0.54265644583E+02  0.96773840301E+02  0.00000000000E+00 0.  1.
         11    1    1    2    0    0  0.45968990445E+02 -0.16521822041E+03 -0.50078615304E+01  0.17156715046E+03  0.00000000000E+00 0. -1.
</event>
<event>
 7    1  0.2644565E-009  0.1355826E+03  0.7561462E-02  0.1219400E+00
          2   -1    0    0  501    0  0.00000000000E+00  0.00000000000E+00  0.26375674329E+03  0.26375674329E+03  0.00000000000E+00 0.  1.
         -2   -1    0    0    0  501 -0.00000000000E+00 -0.00000000000E+00 -0.81665874831E+02  0.81665874831E+02  0.00000000000E+00 0. -1.
         25    2    1    2    0    0 -0.54731392297E+02  0.67792503560E+02  0.15391703050E+03  0.21663228029E+03  0.12509094189E+03 0.  0.
          5    1    3    3  502    0 -0.88641321477E+02  0.15661224080E+02  0.90367274368E+02  0.12761768878E+03  0.41800000000E+01 0.  1.
         -5    1    3    3    0  502  0.33909929180E+02  0.52131279480E+02  0.63549756128E+02  0.89014591507E+02  0.41800000000E+01 0.  1.
        -11    1    1    2    0    0  0.51668930025E+02 -0.85963549911E+02  0.38775279588E+02  0.10753107714E+03  0.00000000000E+00 0.  1.
         11    1    1    2    0    0  0.30624622718E+01  0.18171046351E+02 -0.10601441627E+02  0.21259260694E+02  0.00000000000E+00 0. -1.
</event>
<event>
 7    1  0.2644565E-009  0.1406608E+03  0.7561462E-02  0.1212443E+00
          2   -1    0    0  501    0  0.00000000000E+00  0.00000000000E+00  0.73043041660E+03  0.73043041660E+03  0.00000000000E+00 0.  1.
         -2   -1    0    0    0  501 -0.00000000000E+00 -0.00000000000E+00 -0.34645615870E+02  0.34645615870E+02  0.00000000000E+00 0. -1.
         25    2    1    2    0    0 -0.13423775354E+02  0.11043548405E+03  0.43669092851E+03  0.46767900925E+03  0.12509394376E+03 0.  0.
          5    1    3    3  502    0  0.49573890388E+02  0.13336633541E+02  0.14113134034E+03  0.15023636054E+03  0.41800000000E+01 0.  1.
         -5    1    3    3    0  502 -0.62997665741E+02  0.97098850513E+02  0.29555958817E+03  0.31744264871E+03  0.41800000000E+01 0.  1.
        -11    1    1    2    0    0 -0.74188867842E+01 -0.28436345412E+02  0.17729388204E+03  0.17971306638E+03  0.00000000000E+00 0.  1.
         11    1    1    2    0    0  0.20842662138E+02 -0.81999138642E+02  0.81799990187E+02  0.11768395684E+03  0.00000000000E+00 0. -1.
</event>
<event>
 7    1  0.2644565E-009  0.1024688E+03  0.7561462E-02  0.1275188E+00
         -3   -1    0    0    0  501 -0.00000000000E+00  0.00000000000E+00  0.59359043959E+02  0.59359043959E+02  0.00000000000E+00 0.  1.
          3   -1    0    0  501    0  0.00000000000E+00 -0.00000000000E+00 -0.33172051778E+03  0.33172051778E+03  0.00000000000E+00 0. -1.
         25    2    1    2    0    0  0.50226363392E+02  0.16980828187E+02 -0.46764215610E+02  0.14368932230E+03  0.12509473760E+03 0.  0.
          5    1    3    3  502    0  0.53042114813E+02  0.48567887818E+02  0.15500701399E+02  0.73688871716E+02  0.41800000000E+01 0.  1.
         -5    1    3    3    0  502 -0.28157514204E+01 -0.31587059631E+02 -0.62264917008E+02  0.70000450586E+02  0.41800000000E+01 0.  1.
        -11    1    1    2    0    0 -0.47867489469E+02 -0.49177750662E+02 -0.14022329207E+03  0.15611636477E+03  0.00000000000E+00 0.  1.
         11    1    1    2    0    0 -0.23588739233E+01  0.32196922475E+02 -0.85373966135E+02  0.91273874667E+02  0.00000000000E+00 0. -1.
</event>
<event>
 7    1  0.2817944E-009  0.1171353E+03  0.7561462E-02  0.1247899E+00
         -3   -1    0    0    0  501 -0.00000000000E+00  0.00000000000E+00  0.19024996816E+02  0.19024996816E+02  0.00000000000E+00 0.  1.
          3   -1    0    0  501    0  0.00000000000E+00 -0.00000000000E+00 -0.92757877627E+03  0.92757877627E+03  0.00000000000E+00 0. -1.
         25    2    1    2    0    0 -0.35900881799E+02 -0.63098070846E+02 -0.59512802176E+03  0.61244972388E+03  0.12508821743E+03 0.  0.
          5    1    3    3  502    0 -0.78517574635E+02 -0.57858502901E+02 -0.47180482340E+03  0.48179858828E+03  0.41800000000E+01 0. -1.
         -5    1    3    3    0  502  0.42616692836E+02 -0.52395679447E+01 -0.12332319836E+03  0.13065113560E+03  0.41800000000E+01 0. -1.
        -11    1    1    2    0    0 -0.16120018390E+02  0.90268966469E+01 -0.88748696021E+01  0.20496418380E+02  0.00000000000E+00 0.  1.
         11    1    1    2    0    0  0.52020900189E+02  0.54071174199E+02 -0.30455088810E+03  0.31365763083E+03  0.00000000000E+00 0. -1.
</event>
<event>
 7    1  0.2644565E-009  0.1134901E+03  0.7561462E-02  0.1254240E+00
         -2   -1    0    0    0  501 -0.00000000000E+00  0.00000000000E+00  0.14019447506E+03  0.14019447506E+03  0.00000000000E+00 0.  1.
          2   -1    0    0  501    0  0.00000000000E+00 -0.00000000000E+00 -0.14229696038E+03  0.14229696038E+03  0.00000000000E+00 0. -1.
         25    2    1    2    0    0  0.32768727366E+02 -0.83514064771E+02  0.11186171470E+02  0.15435904243E+03  0.12511272933E+03 0.  0.
          5    1    3    3  502    0  0.21640692728E+02  0.21908938891E+02  0.33767292505E+02  0.45891433058E+02  0.41800000000E+01 0.  1.
         -5    1    3    3    0  502  0.11128034639E+02 -0.10542300366E+03 -0.22581121035E+02  0.10846760937E+03  0.41800000000E+01 0.  1.
        -11    1    1    2    0    0 -0.11641559478E+02  0.24376041071E+02 -0.48954143243E+02  0.55912658907E+02  0.00000000000E+00 0. -1.
         11    1    1    2    0    0 -0.21127167888E+02  0.59138023701E+02  0.35665486455E+02  0.72219734106E+02  0.00000000000E+00 0.  1.
</event>
<event>
 7    1  0.2644565E-009  0.1178935E+03  0.7561462E-02  0.1246613E+00
         -1   -1    0    0    0  501 -0.00000000000E+00  0.00000000000E+00  0.48367160775E+02  0.48367160775E+02  0.00000000000E+00 0.  1.
          1   -1    0    0  501    0  0.00000000000E+00 -0.00000000000E+00 -0.41014746925E+03  0.41014746925E+03  0.00000000000E+00 0. -1.
         25    2    1    2    0    0 -0.37885191918E+02 -0.66513606136E+02 -0.12461232836E+03  0.19244361088E+03  0.12508782283E+03 0.  0.
          5    1    3    3  502    0 -0.65548365213E+02 -0.67809097605E+02 -0.13309862124E+03  0.16317897314E+03  0.41800000000E+01 0.  1.
         -5    1    3    3    0  502  0.27663173295E+02  0.12954914693E+01  0.84862928807E+01  0.29264637735E+02  0.41800000000E+01 0.  1.
        -11    1    1    2    0    0  0.64020113955E+02  0.36956908537E+02 -0.19391328706E+03  0.20752530202E+03  0.00000000000E+00 0. -1.
         11    1    1    2    0    0 -0.26134922037E+02  0.29556697598E+02 -0.43254693052E+02  0.58545717126E+02  0.00000000000E+00 0.  1.
</event>
<event>
 7    1  0.2644565E-009  0.1121573E+03  0.7561462E-02  0.1256626E+00
         -1   -1    0    0    0  501 -0.00000000000E+00  0.00000000000E+00  0.65488366655E+02  0.65488366655E+02  0.00000000000E+00 0.  1.
          1   -1    0    0  501    0  0.00000000000E+00 -0.00000000000E+00 -0.27698297827E+03  0.27698297827E+03  0.00000000000E+00 0. -1.
         25    2    1    2    0    0  0.37313153435E+02 -0.68178868700E+02 -0.13920941461E+03  0.20265126195E+03  0.12509054040E+03 0.  0.
          5    1    3    3  502    0 -0.12284383240E+02 -0.55830453943E+02 -0.14008879613E+03  0.15136145104E+03  0.41800000000E+01 0.  1.
         -5    1    3    3    0  502  0.49597536675E+02 -0.12348414756E+02  0.87938152051E+00  0.51289810909E+02  0.41800000000E+01 0.  1.
        -11    1    1    2    0    0 -0.56816329074E+02  0.14551577714E+02 -0.18748146872E+02  0.61573831086E+02  0.00000000000E+00 0. -1.
         11    1    1    2    0    0  0.19503175639E+02  0.53627290986E+02 -0.53537050134E+02  0.78246251894E+02  0.00000000000E+00 0.  1.
</event>
<event>
 7    1  0.2644565E-009  0.2523596E+03  0.7561462E-02  0.1111823E+00
         -1   -1    0    0    0  501 -0.00000000000E+00  0.00000000000E+00  0.12134409581E+04  0.12134409581E+04  0.00000000000E+00 0.  1.
          1   -1    0    0  501    0  0.00000000000E+00 -0.00000000000E+00 -0.70662190119E+02  0.70662190119E+02  0.00000000000E+00 0. -1.
         25    2    1    2    0    0  0.51967617632E+02  0.24427659125E+03  0.35057713624E+03  0.44824526230E+03  0.12509116839E+03 0.  0.
          5    1    3    3  502    0  0.13390247547E+02  0.48650122687E+02  0.17618182211E+03  0.18331295647E+03  0.41800000000E+01 0. -1.
         -5    1    3    3    0  502  0.38577370085E+02  0.19562646856E+03  0.17439531413E+03  0.26493230583E+03  0.41800000000E+01 0. -1.
        -11    1    1    2    0    0 -0.55940073640E+00 -0.12205537092E+03  0.25752453526E+03  0.28498546061E+03  0.00000000000E+00 0. -1.
         11    1    1    2    0    0 -0.51408216896E+02 -0.12222122033E+03  0.53467709653E+03  0.55087242536E+03  0.00000000000E+00 0.  1.
</event>
<event>
 7    1  0.2644565E-009  0.1332903E+03  0.7561462E-02  0.1222654E+00
          1   -1    0    0  501    0  0.00000000000E+00  0.00000000000E+00  0.68041379735E+03  0.68041379735E+03  0.00000000000E+00 0. -1.
         -1   -1    0    0    0  501 -0.00000000000E+00 -0.00000000000E+00 -0.28447609630E+02  0.28447609630E+02  0.00000000000E+00 0.  1.
         25    2    1    2    0    0 -0.41966063663E+02  0.78347688315E+02  0.39742967881E+03  0.42602476243E+03  0.12508891972E+03 0.  0.
          5    1    3    3  502    0  0.10819902766E+02  0.95818984804E+02  0.22576286479E+03  0.24552941100E+03  0.41800000000E+01 0. -1.
         -5    1    3    3    0  502 -0.52785966429E+02 -0.17471296489E+02  0.17166681402E+03  0.18049535143E+03  0.41800000000E+01 0. -1.
        -11    1    1    2    0    0  0.45386350263E+02 -0.90734410199E+02  0.24894255960E+03  0.26882159877E+03  0.00000000000E+00 0. -1.
         11    1    1    2    0    0 -0.34202866001E+01  0.12386721884E+02  0.55939493076E+01  0.14015045783E+02  0.00000000000E+00 0.  1.
</event>
<event>
 7    1  0.2644565E-009  0.2139073E+03  0.7561462E-02  0.1138509E+00
         -2   -1    0    0    0  501 -0.00000000000E+00  0.00000000000E+00  0.42120434201E+02  0.42120434201E+02  0.00000000000E+00 0.  1.
          2   -1    0    0  501    0  0.00000000000E+00 -0.00000000000E+00 -0.12271860497E+04  0.12271860497E+04  0.00000000000E+00 0. -1.
         25    2    1    2    0    0 -0.11346184422E+03  0.14858062331E+03 -0.81617368599E+03  0.84660295819E+03  0.12508913382E+03 0.  0.
          5    1    3    3  502    0  0.12361148454E+01 -0.19833980153E+02 -0.97357408165E+02  0.99452763025E+02  0.41800000000E+01 0. -1.
         -5    1    3    3    0  502 -0.11469795906E+03  0.16841460346E+03 -0.71881627782E+03  0.74715019516E+03  0.41800000000E+01 0. -1.
        -11    1    1    2    0    0  0.55643611914E+02 -0.14223931794E+02 -0.75398107888E+02  0.94780833799E+02  0.00000000000E+00 0.  1.
         11    1    1    2    0    0  0.57818232301E+02 -0.13435669151E+03 -0.29349382163E+03  0.32792269192E+03  0.00000000000E+00 0. -1.
</event>
<event>
 7    1  0.2644565E-009  0.1361764E+03  0.7561462E-02  0.1218568E+00
          1   -1    0    0  501    0  0.00000000000E+00  0.00000000000E+00  0.47562345117E+03  0.47562345117E+03  0.00000000000E+00 0. -1.
         -1   -1    0    0    0  501 -0.00000000000E+00 -0.00000000000E+00 -0.58975215138E+02  0.58975215138E+02  0.00000000000E+00 0.  1.
         25    2    1    2    0    0 -0.76182618177E+02 -0.82899501913E+02  0.30552862109E+03  0.34881281235E+03  0.12508605447E+03 0.  0.
          5    1    3    3  502    0 -0.55144448099E+02 -0.93533981656E+02  0.12056004417E+03  0.16230130169E+03  0.41800000000E+01 0.  1.
         -5    1    3    3    0  502 -0.21038170078E+02  0.10634479743E+02  0.18496857692E+03  0.18651151065E+03  0.41800000000E+01 0.  1.
        -11    1    1    2    0    0  0.22762800653E+00 -0.15469667497E+02 -0.44246648103E+01  0.16091615384E+02  0.00000000000E+00 0. -1.
         11    1    1    2    0    0  0.75954990171E+02  0.98369169410E+02  0.11554427975E+03  0.16969423858E+03  0.00000000000E+00 0.  1.
</event>
<event>
 7    1  0.2644565E-009  0.1218365E+03  0.7561462E-02  0.1240098E+00
         -2   -1    0    0    0  501 -0.00000000000E+00  0.00000000000E+00  0.17069008753E+02  0.17069008753E+02  0.00000000000E+00 0. -1.
          2   -1    0    0  501    0  0.00000000000E+00 -0.00000000000E+00 -0.17256242526E+04  0.17256242526E+04  0.00000000000E+00 0.  1.
         25    2    1    2    0    0 -0.11578575537E+03  0.19980662178E+02 -0.12339747815E+04  0.12458516037E+04  0.12508752534E+03 0.  0.
          5    1    3    3  502    0 -0.13713339494E+02 -0.64830962776E+01 -0.13238810216E+02  0.20562701995E+02  0.41800000000E+01 0. -1.
         -5    1    3    3    0  502 -0.10207241588E+03  0.26463758456E+02 -0.12207359713E+04  0.12252889017E+04  0.41800000000E+01 0. -1.
        -11    1    1    2    0    0  0.10460715805E+03 -0.28423996951E+02 -0.46963872966E+03  0.48198663624E+03  0.00000000000E+00 0.  1.
         11    1    1    2    0    0  0.11178597323E+02  0.84433347729E+01 -0.49417326989E+01  0.14855021450E+02  0.00000000000E+00 0. -1.
</event>
<event>
 7    1  0.2644565E-009  0.1298562E+03  0.7561462E-02  0.1227669E+00
         -3   -1    0    0    0  501 -0.00000000000E+00  0.00000000000E+00  0.13088345413E+03  0.13088345413E+03  0.00000000000E+00 0.  1.
          3   -1    0    0  501    0  0.00000000000E+00 -0.00000000000E+00 -0.15619273782E+03  0.15619273782E+03  0.00000000000E+00 0. -1.
         25    2    1    2    0    0  0.74819421599E+02  0.20774968360E+02 -0.65570848809E+02  0.16117334904E+03  0.12509103513E+03 0.  0.
          5    1    3    3  502    0  0.10856664006E+03  0.22794894200E+02 -0.37958486110E+02  0.11732280939E+03  0.41800000000E+01 0.  1.
         -5    1    3    3    0  502 -0.33747218459E+02 -0.20199258401E+01 -0.27612362699E+02  0.43850539654E+02  0.41800000000E+01 0.  1.
        -11    1    1    2    0    0 -0.73585571151E+02 -0.47692327913E+02  0.44971600824E+02  0.98548664649E+02  0.00000000000E+00 0.  1.
         11    1    1    2    0    0 -0.12338504475E+01  0.26917359553E+02 -0.47100357047E+01  0.27354178266E+02  0.00000000000E+00 0. -1.
</event>
<event>
 7    1  0.2644565E-009  0.1189640E+03  0.7561462E-02  0.1244816E+00
         -2   -1    0    0    0  501 -0.00000000000E+00  0.00000000000E+00  0.26669340662E+02  0.26669340662E+02  0.00000000000E+00 0.  1.
          2   -1    0    0  501    0  0.00000000000E+00 -0.00000000000E+00 -0.64112396810E+03  0.64112396810E+03  0.00000000000E+00 0. -1.
         25    2    1    2    0    0  0.58067964240E+02  0.27497244744E+02 -0.27468369217E+03  0.30857729780E+03  0.12506330811E+03 0.  0.
          5    1    3    3  502    0 -0.27358152213E+02  0.24602432076E+02 -0.25113771112E+02  0.44742843630E+02  0.41800000000E+01 0.  1.
         -5    1    3    3    0  502  0.85426116453E+02  0.28948126679E+01 -0.24956992105E+03  0.26383445417E+03  0.41800000000E+01 0.  1.
        -11    1    1    2    0    0  0.22067356173E+02  0.12918358371E+02 -0.55362087759E+02  0.60982070746E+02  0.00000000000E+00 0. -1.
         11    1    1    2    0    0 -0.80135320412E+02 -0.40415603115E+02 -0.28440884751E+03  0.29823394021E+03  0.00000000000E+00 0.  1.
</event>
<event>
 7    1  0.2644565E-009  0.1431022E+03  0.7561462E-02  0.1209215E+00
         -1   -1    0    0    0  501 -0.00000000000E+00  0.00000000000E+00  0.53108971017E+03  0.53108971017E+03  0.00000000000E+00 0.  1.
          1   -1    0    0  501    0  0.00000000000E+00 -0.00000000000E+00 -0.92594177295E+02  0.92594177295E+02  0.00000000000E+00 0. -1.
         25    2    1    2    0    0 -0.60931701721E+02  0.11408777867E+03  0.26953187353E+02  0.18194607826E+03  0.12509679279E+03 0.  0.
          5    1    3    3  502    0 -0.55819704064E+02  0.10268694998E+03  0.70426362490E+02  0.13652030615E+03  0.41800000000E+01 0.  1.
         -5    1    3    3    0  502 -0.51119976571E+01  0.11400828692E+02 -0.43473175136E+02  0.45425772105E+02  0.41800000000E+01 0.  1.
        -11    1    1    2    0    0  0.35823349011E+02  0.33547754614E+01  0.56988730039E+02  0.67396455428E+02  0.00000000000E+00 0. -1.
         11    1    1    2    0    0  0.25108352710E+02 -0.11744255414E+03  0.35455361548E+03  0.37434135378E+03  0.00000000000E+00 0.  1.
</event>
<event>
 7    1  0.2644565E-009  0.1393406E+03  0.7561462E-02  0.1214219E+00
         -2   -1    0    0    0  501 -0.00000000000E+00  0.00000000000E+00  0.74925416087E+02  0.74925416087E+02  0.00000000000E+00 0.  1.
          2   -1    0    0  501    0  0.00000000000E+00 -0.00000000000E+00 -0.27518213197E+03  0.27518213197E+03  0.00000000000E+00 0. -1.
         25    2    1    2    0    0  0.44407082562E+02  0.80886821928E+02 -0.12720662636E+03  0.20085634678E+03  0.12508828605E+03 0.  0.
          5    1    3    3  502    0 -0.41129929714E+02  0.80690400497E+01 -0.44669286540E+02  0.61397052744E+02  0.41800000000E+01 0.  1.
         -5    1    3    3    0  502  0.85537012276E+02  0.72817781878E+02 -0.82537339825E+02  0.13945929403E+03  0.41800000000E+01 0.  1.
        -11    1    1    2    0    0 -0.59721381441E+02 -0.22554941226E+02 -0.59867685051E+02  0.87518617952E+02  0.00000000000E+00 0. -1.
         11    1    1    2    0    0  0.15314298879E+02 -0.58331880702E+02 -0.13182404464E+02  0.61732583324E+02  0.00000000000E+00 0.  1.
</event>
<event>
 7    1  0.2644565E-009  0.8747754E+02  0.7561462E-02  0.1309078E+00
         -2   -1    0    0    0  501 -0.00000000000E+00  0.00000000000E+00  0.64364329814E+02  0.64364329814E+02  0.00000000000E+00 0.  1.
          2   -1    0    0  501    0  0.00000000000E+00 -0.00000000000E+00 -0.23071289306E+03  0.23071289306E+03  0.00000000000E+00 0. -1.
         25    2    1    2    0    0  0.54117815310E+01  0.65867939741E+02 -0.95448507259E+02  0.17066408574E+03  0.12509172537E+03 0.  0.
          5    1    3    3  502    0 -0.84924180414E+01 -0.10184969990E+01  0.27965447591E+02  0.29541448158E+02  0.41800000000E+01 0.  1.
         -5    1    3    3    0  502  0.13904199572E+02  0.66886436740E+02 -0.12341395485E+03  0.14112263758E+03  0.41800000000E+01 0.  1.
        -11    1    1    2    0    0 -0.18413279209E+02  0.93544762517E+01 -0.63896323049E+00  0.20663091521E+02  0.00000000000E+00 0.  1.
         11    1    1    2    0    0  0.13001497678E+02 -0.75222415993E+02 -0.70261092753E+02  0.10375004561E+03  0.00000000000E+00 0. -1.
</event>
<event>
 7    1  0.2644565E-009  0.9125299E+02  0.7561462E-02  0.1299845E+00
         -1   -1    0    0    0  501 -0.00000000000E+00  0.00000000000E+00  0.47674010392E+02  0.47674010392E+02  0.00000000000E+00 0. -1.
          1   -1    0    0  501    0  0.00000000000E+00 -0.00000000000E+00 -0.28532085622E+03  0.28532085622E+03  0.00000000000E+00 0.  1.
         25    2    1    2    0    0  0.24405339688E+02  0.33601005880E+02 -0.11492044363E+03  0.17486825858E+03  0.12509017265E+03 0.  0.
          5    1    3    3  502    0  0.63633556165E+02  0.41580530431E+02 -0.31777063011E+02  0.82494994484E+02  0.41800000000E+01 0.  1.
         -5    1    3    3    0  502 -0.39228216477E+02 -0.79795245515E+01 -0.83143380615E+02  0.92373264098E+02  0.41800000000E+01 0.  1.
        -11    1    1    2    0    0  0.14796200578E+02 -0.47432148752E+00  0.86048282128E+01  0.17122955381E+02  0.00000000000E+00 0. -1.
         11    1    1    2    0    0 -0.39201540266E+02 -0.33126684392E+02 -0.13133123041E+03  0.14100365265E+03  0.00000000000E+00 0.  1.
</event>
<event>
 7    1  0.2644565E-009  0.1042457E+03  0.7561462E-02  0.1271613E+00
          2   -1    0    0  501    0  0.00000000000E+00  0.00000000000E+00  0.30089015753E+03  0.30089015753E+03  0.00000000000E+00 0.  1.
         -2   -1    0    0    0  501 -0.00000000000E+00 -0.00000000000E+00 -0.64731117683E+02  0.64731117683E+02  0.00000000000E+00 0. -1.
         25    2    1    2    0    0 -0.33654661965E+02  0.23849398865E+01  0.23805883896E+02  0.13174007305E+03  0.12510156885E+03 0.  0.
          5    1    3    3  502    0  0.42369564348E+02  0.38623096271E+01  0.34375636861E+02  0.54856669861E+02  0.41800000000E+01 0.  1.
         -5    1    3    3    0  502 -0.76024226313E+02 -0.14773697407E+01 -0.10569752964E+02  0.76883403187E+02  0.41800000000E+01 0.  1.
        -11    1    1    2    0    0  0.58649774388E+02 -0.16442275242E+02  0.18288908884E+03  0.19276556557E+03  0.00000000000E+00 0.  1.
         11    1    1    2    0    0 -0.24995112423E+02  0.14057335355E+02  0.29464067107E+02  0.41115636597E+02  0.00000000000E+00 0. -1.
</event>
<event>
 7    1  0.2644565E-009  0.7378824E+02  0.7561462E-02  0.1347665E+00
          2   -1    0    0  501    0  0.00000000000E+00  0.00000000000E+00  0.41874442136E+02  0.41874442136E+02  0.00000000000E+00 0. -1.
         -2   -1    0    0    0  501 -0.00000000000E+00 -0.00000000000E+00 -0.33156465719E+03  0.33156465719E+03  0.00000000000E+00 0.  1.
         25    2    1    2    0    0  0.76941116524E+01  0.19528856363E+02 -0.97070972487E+02  0.15972247602E+03  0.12509164666E+03 0.  0.
          5    1    3    3  502    0  0.22664989798E+02  0.48643647674E+02 -0.11141479125E+03  0.12373614803E+03  0.41800000000E+01 0.  1.
         -5    1    3    3    0  502 -0.14970878145E+02 -0.29114791312E+02  0.14343818761E+02  0.35986327990E+02  0.41800000000E+01 0.  1.
        -11    1    1    2    0    0  0.24869222410E+02 -0.10122387189E+02 -0.11090564160E+02  0.29050672265E+02  0.00000000000E+00 0. -1.
         11    1    1    2    0    0 -0.32563334062E+02 -0.94064691733E+01 -0.18152867840E+03  0.18466595103E+03  0.00000000000E+00 0.  1.
</event>
<event>
 7    1  0.2644565E-009  0.1136096E+03  0.7561462E-02  0.1254028E+00
         -2   -1    0    0    0  501 -0.00000000000E+00  0.00000000000E+00  0.24005725929E+02  0.24005725929E+02  0.00000000000E+00 0.  1.
          2   -1    0    0  501    0  0.00000000000E+00 -0.00000000000E+00 -0.88305441846E+03  0.88305441846E+03  0.00000000000E+00 0. -1.
         25    2    1    2    0    0  0.50028535769E+02  0.21196397302E+02 -0.71700403553E+03  0.72985706999E+03  0.12507763190E+03 0.  0.
          5    1    3    3  502    0  0.81116692397E+02  0.47884731206E+02 -0.53564614132E+03  0.54388153708E+03  0.41800000000E+01 0. -1.
         -5    1    3    3    0  502 -0.31088156629E+02 -0.26688333904E+02 -0.18135789422E+03  0.18597553292E+03  0.41800000000E+01 0. -1.
        -11    1    1    2    0    0 -0.26515922296E+02  0.27171362910E+02 -0.10565353560E+03  0.11226774551E+03  0.00000000000E+00 0. -1.
         11    1    1    2    0    0 -0.23512613472E+02 -0.48367760212E+02 -0.36391121398E+02  0.64935328880E+02  0.00000000000E+00 0.  1.
</event>
<event>
 7    1  0.2644565E-009  0.1234326E+03  0.7561462E-02  0.1237539E+00
         -2   -1    0    0    0  501 -0.00000000000E+00  0.00000000000E+00  0.11890366529E+03  0.11890366529E+03  0.00000000000E+00 0.  1.
          2   -1    0    0  501    0  0.00000000000E+00 -0.00000000000E+00 -0.14353835529E+03  0.14353835529E+03  0.00000000000E+00 0. -1.
         25    2    1    2    0    0  0.14976882126E+02 -0.67097374242E+02 -0.34170134120E+02  0.14677149279E+03  0.12509160004E+03 0.  0.
          5    1    3    3  502    0 -0.31752150369E+02 -0.77237602996E+02 -0.48521569844E+02  0.96672961627E+02  0.41800000000E+01 0.  1.
         -5    1    3    3    0  502  0.46729032495E+02  0.10140228754E+02  0.14351435724E+02  0.50098531160E+02  0.41800000000E+01 0.  1.
        -11    1    1    2    0    0 -0.53559063047E+02  0.49176119712E+02  0.71723920508E+01  0.73063720081E+02  0.00000000000E+00 0.  1.
         11    1    1    2    0    0  0.38582180921E+02  0.17921254531E+02  0.23630520656E+01  0.42606807715E+02  0.00000000000E+00 0. -1.
</event>
<event>
 7    1  0.2644565E-009  0.1157151E+03  0.7561462E-02  0.1250338E+00
         -1   -1    0    0    0  501 -0.00000000000E+00  0.00000000000E+00  0.40686612420E+02  0.40686612420E+02  0.00000000000E+00 0.  1.
          1   -1    0    0  501    0  0.00000000000E+00 -0.00000000000E+00 -0.47641414415E+03  0.47641414415E+03  0.00000000000E+00 0. -1.
         25    2    1    2    0    0 -0.27084074360E+02 -0.81871567373E+02 -0.26115131225E+03  0.30213795272E+03  0.12510329313E+03 0.  0.
          5    1    3    3  502    0  0.18167245458E+02 -0.44153304898E+02 -0.16855467862E+02  0.50804944029E+02  0.41800000000E+01 0. -1.
         -5    1    3    3    0  502 -0.45251319818E+02 -0.37718262475E+02 -0.24429584439E+03  0.25133300869E+03  0.41800000000E+01 0. -1.
        -11    1    1    2    0    0  0.26445696914E+02  0.10145813130E+03 -0.15600139116E+03  0.18796159538E+03  0.00000000000E+00 0. -1.
         11    1    1    2    0    0  0.63837744661E+00 -0.19586563928E+02 -0.18574828316E+02  0.27001208478E+02  0.00000000000E+00 0.  1.
</event>
<event>
 7    1  0.2644565E-009  0.1113715E+03  0.7561462E-02  0.1258051E+00
         -2   -1    0    0    0  501 -0.00000000000E+00  0.00000000000E+00  0.95826023506E+02  0.95826023506E+02  0.00000000000E+00 0.  1.
          2   -1    0    0  501    0  0.00000000000E+00 -0.00000000000E+00 -0.14635052391E+03  0.14635052391E+03  0.00000000000E+00 0. -1.
         25    2    1    2    0    0  0.12822296549E+02  0.35894184401E+02 -0.57018408975E+02  0.14268284547E+03  0.12511791105E+03 0.  0.
          5    1    3    3  502    0  0.60043829305E+02  0.52977929896E+02 -0.30956809481E+02  0.85951840858E+02  0.41800000000E+01 0.  1.
         -5    1    3    3    0  502 -0.47221532756E+02 -0.17083745495E+02 -0.26061599494E+02  0.56731004610E+02  0.41800000000E+01 0.  1.
        -11    1    1    2    0    0  0.28481525664E+02 -0.41659222760E+02  0.21930939765E+02  0.55024124383E+02  0.00000000000E+00 0. -1.
         11    1    1    2    0    0 -0.41303822213E+02  0.57650383590E+01 -0.15437031195E+02  0.44469577565E+02  0.00000000000E+00 0.  1.
</event>
<event>
 7    1  0.2644565E-009  0.1023917E+03  0.7561462E-02  0.1275345E+00
          1   -1    0    0  501    0  0.00000000000E+00  0.00000000000E+00  0.64751312350E+03  0.64751312350E+03  0.00000000000E+00 0. -1.
         -1   -1    0    0    0  501 -0.00000000000E+00 -0.00000000000E+00 -0.20066081566E+02  0.20066081566E+02  0.00000000000E+00 0.  1.
         25    2    1    2    0    0  0.24931258362E+02 -0.27193058192E+02  0.38050663848E+03  0.40223395788E+03  0.12508327180E+03 0.  0.
          5    1    3    3  502    0 -0.15210611770E+02 -0.60597099403E+02  0.10888157997E+03  0.12560271503E+03  0.41800000000E+01 0.  1.
         -5    1    3    3    0  502  0.40141870132E+02  0.33404041212E+02  0.27162505851E+03  0.27663124285E+03  0.41800000000E+01 0.  1.
        -11    1    1    2    0    0 -0.54384413930E+02  0.89063378604E+01  0.19691590732E+03  0.20448193536E+03  0.00000000000E+00 0. -1.
         11    1    1    2    0    0  0.29453155568E+02  0.18286720331E+02  0.50024496127E+02  0.60863311824E+02  0.00000000000E+00 0.  1.
</event>
<event>
 7    1  0.2644565E-009  0.1068758E+03  0.7561462E-02  0.1266467E+00
         -1   -1    0    0    0  501 -0.00000000000E+00  0.00000000000E+00  0.94004278026E+02  0.94004278026E+02  0.00000000000E+00 0.  1.
          1   -1    0    0  501    0  0.00000000000E+00 -0.00000000000E+00 -0.23559223415E+03  0.23559223415E+03  0.00000000000E+00 0. -1.
         25    2    1    2    0    0  0.39814614953E+01 -0.71099469303E+02  0.53330539154E+01  0.14404002257E+03  0.12509236615E+03 0.  0.
          5    1    3    3  502    0  0.39992666236E+02 -0.70247709660E+02  0.43083427660E+02  0.91694101250E+02  0.41800000000E+01 0.  1.
         -5    1    3    3    0  502 -0.36011204741E+02 -0.85175964329E+00 -0.37750373745E+02  0.52345921324E+02  0.41800000000E+01 0.  1.
        -11    1    1    2    0    0  0.13654221627E+02  0.76806223136E+02 -0.64930486654E+02  0.10149680674E+03  0.00000000000E+00 0.  1.
         11    1    1    2    0    0 -0.17635683122E+02 -0.57067538335E+01 -0.81990523390E+02  0.84059682870E+02  0.00000000000E+00 0. -1.
</event>
<event>
 7    1  0.2739400E-009  0.1066768E+03  0.7561462E-02  0.1266851E+00
          1   -1    0    0  501    0  0.00000000000E+00  0.00000000000E+00  0.69319265740E+03  0.69319265740E+03  0.00000000000E+00 0. -1.
         -1   -1    0    0    0  501 -0.00000000000E+00 -0.00000000000E+00 -0.28366334964E+02  0.28366334964E+02  0.00000000000E+00 0.  1.
         25    2    1    2    0    0  0.61050974146E+02 -0.45262039705E+02  0.24632624773E+03  0.28653113655E+03  0.12509036018E+03 0.  0.
          5    1    3    3  502    0  0.56957512599E+02  0.34181662394E+01  0.22654983268E+03  0.23366245139E+03  0.41800000000E+01 0.  1.
         -5    1    3    3    0  502  0.40934615474E+01 -0.48680205945E+02  0.19776415048E+02  0.52868685159E+02  0.41800000000E+01 0.  1.
        -11    1    1    2    0    0 -0.38706845561E+02 -0.16013023553E+02  0.80014909047E+02  0.90316236007E+02  0.00000000000E+00 0.  1.
         11    1    1    2    0    0 -0.22344128585E+02  0.61275063259E+02  0.33848516567E+03  0.34471161981E+03  0.00000000000E+00 0. -1.
</event>
<event>
 6    1  0.2644565E-009  0.1181829E+03  0.7561462E-02  0.1246125E+00
         -1   -1    0    0    0  501 -0.00000000000E+00  0.00000000000E+00  0.99419386190E+02  0.99419386190E+02  0.00000000000E+00 0.  1.
          1   -1    0    0  501    0  0.00000000000E+00 -0.00000000000E+00 -0.17100180648E+03  0.17100180648E+03  0.00000000000E+00 0. -1.
          5    1    1    2  502    0  0.26249703166E+02  0.19064648826E+02  0.38249343235E+01  0.32933421835E+02  0.41800000000E+01 0. -1.
         -5    1    1    2    0  502 -0.80396934494E+02 -0.73183354261E+02 -0.57952728346E+02  0.12326987280E+03  0.41800000000E+01 0. -1.
        -11    1    1    2    0    0  0.56705275308E+02  0.19232919633E+02  0.19846447898E+02  0.63081494430E+02  0.00000000000E+00 0.  1.
         11    1    1    2    0    0 -0.25580439805E+01  0.34885785802E+02 -0.37301074166E+02  0.51136403608E+02  0.00000000000E+00 0. -1.
</event>
<event>
 7    1  0.2644565E-009  0.1045943E+03  0.7561462E-02  0.1270921E+00
          1   -1    0    0  501    0  0.00000000000E+00  0.00000000000E+00  0.63097440251E+03  0.63097440251E+03  0.00000000000E+00 0. -1.
         -1   -1    0    0    0  501 -0.00000000000E+00 -0.00000000000E+00 -0.20849875476E+02  0.20849875476E+02  0.00000000000E+00 0.  1.
         25    2    1    2    0    0 -0.25986712040E+02 -0.10831759409E+02  0.41366364021E+03  0.43308242472E+03  0.12510053219E+03 0.  0.
          5    1    3    3  502    0  0.12395416920E+02 -0.59019742357E+02  0.13922158039E+03  0.15177976544E+03  0.41800000000E+01 0. -1.
         -5    1    3    3    0  502 -0.38382128960E+02  0.48187982948E+02  0.27444205981E+03  0.28130265928E+03  0.41800000000E+01 0. -1.
        -11    1    1    2    0    0 -0.10480645805E+02  0.39332942610E+02  0.46492801906E+02  0.61794052626E+02  0.00000000000E+00 0.  1.
         11    1    1    2    0    0  0.36467357845E+02 -0.28501183201E+02  0.14996808492E+03  0.15694780065E+03  0.00000000000E+00 0. -1.
</event>
<event>
 7    1  0.2644565E-009  0.5608077E+02  0.7561462E-02  0.1415056E+00
         -2   -1    0    0    0  501 -0.00000000000E+00  0.00000000000E+00  0.23888518662E+03  0.23888518662E+03  0.00000000000E+00 0.  1.
          2   -1    0    0  501    0  0.00000000000E+00 -0.00000000000E+00 -0.63560655098E+02  0.63560655098E+02  0.00000000000E+00 0. -1.
         25    2    1    2    0    0 -0.34150859825E+02 -0.66286667153E+01  0.42536637610E+02  0.13662741749E+03  0.12508982860E+03 0.  0.
          5    1    3    3  502    0 -0.14312335184E+02  0.27454862784E+02 -0.36593260392E+02  0.48116021604E+02  0.41800000000E+01 0.  1.
         -5    1    3    3    0  502 -0.19838524641E+02 -0.34083529499E+02  0.79129898002E+02  0.88511395881E+02  0.41800000000E+01 0.  1.
        -11    1    1    2    0    0  0.26314461320E+02  0.14591682689E+02  0.14568232281E+03  0.14875720910E+03  0.00000000000E+00 0.  1.
         11    1    1    2    0    0  0.78363985043E+01 -0.79630159732E+01 -0.12894428906E+02  0.17061215131E+02  0.00000000000E+00 0. -1.
</event>
<event>
 7    1  0.2644565E-009  0.4839878E+03  0.7561462E-02  0.1018045E+00
          2   -1    0    0  501    0  0.00000000000E+00  0.00000000000E+00  0.20152900649E+04  0.20152900649E+04  0.00000000000E+00 0.  1.
         -2   -1    0    0    0  501 -0.00000000000E+00 -0.00000000000E+00 -0.11993195568E+03  0.11993195568E+03  0.00000000000E+00 0. -1.
         25    2    1    2    0    0  0.13220703410E+03  0.46032561955E+03  0.92317563904E+03  0.10475111808E+04  0.12509211592E+03 0.  0.
          5    1    3    3  502    0  0.12133233869E+03  0.37106667707E+03  0.63324271831E+03  0.74392595596E+03  0.41800000000E+01 0.  1.
         -5    1    3    3    0  502  0.10874695406E+02  0.89258942477E+02  0.28993292072E+03  0.30358522482E+03  0.41800000000E+01 0.  1.
        -11    1    1    2    0    0 -0.14462998601E+03 -0.44438014392E+03  0.92383753889E+03  0.10353102643E+04  0.00000000000E+00 0. -1.
         11    1    1    2    0    0  0.12422951912E+02 -0.15945475628E+02  0.48344931304E+02  0.52400575474E+02  0.00000000000E+00 0.  1.
</event>
<event>
 7    1  0.2644565E-009  0.1240291E+03  0.7561462E-02  0.1236595E+00
          1   -1    0    0  501    0  0.00000000000E+00  0.00000000000E+00  0.20700398789E+03  0.20700398789E+03  0.00000000000E+00 0. -1.
         -1   -1    0    0    0  501 -0.00000000000E+00 -0.00000000000E+00 -0.92684072135E+02  0.92684072135E+02  0.00000000000E+00 0.  1.
         25    2    1    2    0    0 -0.57886653338E+00 -0.85452581214E+02  0.77328923627E+02  0.17008852599E+03  0.12509142865E+03 0.  0.
          5    1    3    3  502    0  0.49411964256E+02 -0.12608033255E+02  0.61894142862E+02  0.80304807047E+02  0.41800000000E+01 0.  1.
         -5    1    3    3    0  502 -0.49990830789E+02 -0.72844547959E+02  0.15434780765E+02  0.89783718945E+02  0.41800000000E+01 0.  1.
        -11    1    1    2    0    0  0.46796062117E+01 -0.10974562360E+02 -0.15637304402E+02  0.19668884622E+02  0.00000000000E+00 0.  1.
         11    1    1    2    0    0 -0.41007396783E+01  0.96427143574E+02  0.52628296526E+02  0.10993064941E+03  0.00000000000E+00 0. -1.
</event>
<event>
 7    1  0.2644565E-009  0.1763689E+03  0.7561462E-02  0.1171364E+00
         -1   -1    0    0    0  501 -0.00000000000E+00  0.00000000000E+00  0.12812526941E+04  0.12812526941E+04  0.00000000000E+00 0.  1.
          1   -1    0    0  501    0  0.00000000000E+00 -0.00000000000E+00 -0.28166433608E+02  0.28166433608E+02  0.00000000000E+00 0. -1.
         25    2    1    2    0    0 -0.10870718495E+03  0.11016840767E+03  0.59369490801E+03  0.62615587279E+03  0.12507279127E+03 0.  0.
          5    1    3    3  502    0 -0.84176676889E+02  0.20913379121E+02  0.15392037145E+03  0.17672587673E+03  0.41800000000E+01 0.  1.
         -5    1    3    3    0  502 -0.24530508062E+02  0.89255028553E+02  0.43977453656E+03  0.44942999606E+03  0.41800000000E+01 0.  1.
        -11    1    1    2    0    0  0.89454428508E+02 -0.35682410601E+02  0.27856570219E+03  0.29474426143E+03  0.00000000000E+00 0. -1.
         11    1    1    2    0    0  0.19252756443E+02 -0.74485997072E+02  0.38082565032E+03  0.38851899353E+03  0.00000000000E+00 0.  1.
</event>
<event>
 7    1  0.2644565E-009  0.1906657E+03  0.7561462E-02  0.1157862E+00
         -1   -1    0    0    0  501 -0.00000000000E+00  0.00000000000E+00  0.54561854062E+03  0.54561854062E+03  0.00000000000E+00 0.  1.
          1   -1    0    0  501    0  0.00000000000E+00 -0.00000000000E+00 -0.70158346533E+02  0.70158346533E+02  0.00000000000E+00 0. -1.
         25    2    1    2    0    0  0.15126947216E+03 -0.55012621240E+02  0.28595963129E+03  0.35118616879E+03  0.12509985098E+03 0.  0.
          5    1    3    3  502    0  0.88315727794E+02 -0.89412569039E+02  0.22123741802E+03  0.25447542674E+03  0.41800000000E+01 0.  1.
         -5    1    3    3    0  502  0.62953744364E+02  0.34399947800E+02  0.64722213270E+02  0.96710742054E+02  0.41800000000E+01 0.  1.
        -11    1    1    2    0    0 -0.15112153167E+03  0.71538603578E+02  0.17934073611E+03  0.24519092309E+03  0.00000000000E+00 0. -1.
         11    1    1    2    0    0 -0.14794049203E+00 -0.16525982338E+02  0.10159826680E+02  0.19399795278E+02  0.00000000000E+00 0.  1.
</event>
<event>
 7    1  0.2644565E-009  0.1119511E+03  0.7561462E-02  0.1256999E+00
         -2   -1    0    0    0  501 -0.00000000000E+00  0.00000000000E+00  0.30436168643E+03  0.30436168643E+03  0.00000000000E+00 0.  1.
          2   -1    0    0  501    0  0.00000000000E+00 -0.00000000000E+00 -0.97581425599E+02  0.97581425599E+02  0.00000000000E+00 0. -1.
         25    2    1    2    0    0 -0.82233835695E+02  0.69452249652E+02  0.20216496391E+03  0.26098735841E+03  0.12513077121E+03 0.  0.
          5    1    3    3  502    0 -0.94814759485E+01  0.33135048028E+02 -0.79780222060E+01  0.35622338950E+02  0.41800000000E+01 0.  1.
         -5    1    3    3    0  502 -0.72752359747E+02  0.36317201624E+02  0.21014298612E+03  0.22536501946E+03  0.41800000000E+01 0.  1.
        -11    1    1    2    0    0  0.33625629347E+02 -0.31770655620E+02  0.47245553697E+02  0.66122612257E+02  0.00000000000E+00 0.  1.
         11    1    1    2    0    0  0.48608206348E+02 -0.37681594033E+02 -0.42630256776E+02  0.74833141361E+02  0.00000000000E+00 0. -1.
</event>
<event>
 7    1  0.2644565E-009  0.9346753E+02  0.7561462E-02  0.1294665E+00
         -2   -1    0    0    0  501 -0.00000000000E+00  0.00000000000E+00  0.36281776192E+02  0.36281776192E+02  0.00000000000E+00 0.  1.
          2   -1    0    0  501    0  0.00000000000E+00 -0.00000000000E+00 -0.47309452179E+03  0.47309452179E+03  0.00000000000E+00 0. -1.
         25    2    1    2    0    0  0.41499128267E+02  0.12788262712E+02 -0.25897346973E+03  0.29086186635E+03  0.12509056703E+03 0.  0.
          5    1    3    3  502    0 -0.31181709959E+02  0.24304406240E+02 -0.17350604502E+03  0.17800231251E+03  0.41800000000E+01 0. -1.
         -5    1    3    3    0  502  0.72680838226E+02 -0.11516143527E+02 -0.85467424710E+02  0.11285955384E+03  0.41800000000E+01 0. -1.
        -11    1    1    2    0    0 -0.39401859215E+02  0.17499731028E+02 -0.18274355024E+03  0.18776035857E+03  0.00000000000E+00 0. -1.
         11    1    1    2    0    0 -0.20972690522E+01 -0.30287993741E+02  0.49042743816E+01  0.30754073056E+02  0.00000000000E+00 0.  1.
</event>
<event>
 7    1  0.2644565E-009  0.1155588E+03  0.7561462E-02  0.1250609E+00
          2   -1    0    0  501    0  0.00000000000E+00  0.00000000000E+00  0.25024817256E+04  0.25024817256E+04  0.00000000000E+00 0. -1.
         -2   -1    0    0    0  501 -0.00000000000E+00 -0.00000000000E+00 -0.13873073445E+02  0.13873073445E+02  0.00000000000E+00 0.  1.
         25    2    1    2    0    0  0.77492547403E+02 -0.60824323352E+02  0.20523707209E+04  0.20585379757E+04  0.12509327815E+03 0.  0.
          5    1    3    3  502    0  0.24048570309E+02 -0.21528649369E+02  0.10268333745E+03  0.10771794960E+03  0.41800000000E+01 0. -1.
         -5    1    3    3    0  502  0.53443977094E+02 -0.39295673983E+02  0.19496873834E+04  0.19508200261E+04  0.41800000000E+01 0. -1.
        -11    1    1    2    0    0 -0.65589439880E+02 -0.44622049999E+01  0.28790723694E+03  0.29531756294E+03  0.00000000000E+00 0. -1.
         11    1    1    2    0    0 -0.11903107523E+02  0.65286528352E+02  0.14833069435E+03  0.16249926043E+03  0.00000000000E+00 0.  1.
</event>
<event>
 7    1  0.2690082E-009  0.1142500E+03  0.7561462E-02  0.1252896E+00
          1   -1    0    0  501    0  0.00000000000E+00  0.00000000000E+00  0.62777611077E+03  0.62777611077E+03  0.00000000000E+00 0. -1.
         -1   -1    0    0    0  501 -0.00000000000E+00 -0.00000000000E+00 -0.28772109657E+02  0.28772109657E+02  0.00000000000E+00 0.  1.
         25    2    1    2    0    0 -0.46319375541E+02 -0.50034920725E+02  0.42553129778E+03  0.44874647150E+03  0.12509009733E+03 0.  0.
          5    1    3    3  502    0  0.42902789009E+02 -0.96200008677E+01  0.14503971417E+03  0.15161525256E+03  0.41800000000E+01 0. -1.
         -5    1    3    3    0  502 -0.89222164550E+02 -0.40414919857E+02  0.28049158360E+03  0.29713121894E+03  0.41800000000E+01 0. -1.
        -11    1    1    2    0    0  0.37990288590E+01  0.43035736704E+02  0.15501458225E+03  0.16092242841E+03  0.00000000000E+00 0. -1.
         11    1    1    2    0    0  0.42520346682E+02  0.69991840205E+01  0.18458121087E+02  0.46879320525E+02  0.00000000000E+00 0.  1.
</event>
<event>
 7    1  0.2644565E-009  0.2389902E+03  0.7561462E-02  0.1120467E+00
          1   -1    0    0  501    0  0.00000000000E+00  0.00000000000E+00  0.48245845503E+03  0.48245845503E+03  0.00000000000E+00 0. -1.
         -1   -1    0    0    0  501 -0.00000000000E+00 -0.00000000000E+00 -0.12136467077E+03  0.12136467077E+03  0.00000000000E+00 0.  1.
         25    2    1    2    0    0 -0.13130686411E+03 -0.17249154794E+03  0.18270829437E+03  0.30987797619E+03  0.12508881895E+03 0.  0.
          5    1    3    3  502    0 -0.70760246121E+02 -0.37836641111E+01  0.50767447897E+02  0.87270468723E+02  0.41800000000E+01 0.  1.
         -5    1    3    3    0  502 -0.60546617986E+02 -0.16870788383E+03  0.13194084648E+03  0.22260750747E+03  0.41800000000E+01 0.  1.
        -11    1    1    2    0    0  0.31452272316E+02  0.38100605487E+01  0.46664850622E+01  0.32024023452E+02  0.00000000000E+00 0.  1.
         11    1    1    2    0    0  0.99854591791E+02  0.16868148739E+03  0.17371900482E+03  0.26192112615E+03  0.00000000000E+00 0. -1.
</event>
<event>
 7    1  0.2644565E-009  0.8941035E+02  0.7561462E-02  0.1304286E+00
          1   -1    0    0  501    0  0.00000000000E+00  0.00000000000E+00  0.41641022208E+03  0.41641022208E+03  0.00000000000E+00 0. -1.
         -1   -1    0    0    0  501 -0.00000000000E+00 -0.00000000000E+00 -0.67859625524E+02  0.67859625524E+02  0.00000000000E+00 0.  1.
         25    2    1    2    0    0  0.40853396731E+02 -0.19892823075E+02  0.36826991965E+03  0.39157989651E+03  0.12508939681E+03 0.  0.
          5    1    3    3  502    0 -0.44963789713E+02 -0.12416700559E+02  0.13185102665E+03  0.13992170120E+03  0.41800000000E+01 0. -1.
         -5    1    3    3    0  502  0.85817186444E+02 -0.74761225162E+01  0.23641889300E+03  0.25165819531E+03  0.41800000000E+01 0. -1.
        -11    1    1    2    0    0 -0.22955689659E+02  0.82552688988E+01  0.29949463536E+02  0.38627496921E+02  0.00000000000E+00 0. -1.
         11    1    1    2    0    0 -0.17897707073E+02  0.11637554176E+02 -0.49668786634E+02  0.54062454174E+02  0.00000000000E+00 0.  1.
</event>
<event>
 7    1  0.2644565E-009  0.1300634E+03  0.7561462E-02  0.1227362E+00
         -1   -1    0    0    0  501 -0.00000000000E+00  0.00000000000E+00  0.10186736231E+04  0.10186736231E+04  0.00000000000E+00 0.  1.
          1   -1    0    0  501    0  0.00000000000E+00 -0.00000000000E+00 -0.17115946573E+02  0.17115946573E+02  0.00000000000E+00 0. -1.
         25    2    1    2    0    0 -0.30629072008E+02 -0.64365957854E+02  0.47112265842E+03  0.49263039212E+03  0.12508807848E+03 0.  0.
          5    1    3    3  502    0  0.48475040003E+02 -0.21704851560E+02  0.15196217102E+03  0.16103075453E+03  0.41800000000E+01 0.  1.
         -5    1    3    3    0  502 -0.79104112011E+02 -0.42661106293E+02  0.31916048740E+03  0.33159963758E+03  0.41800000000E+01 0.  1.
        -11    1    1    2    0    0 -0.33459669563E+02  0.22864558524E+02  0.18415511021E+03  0.18856150758E+03  0.00000000000E+00 0.  1.
         11    1    1    2    0    0  0.64088741571E+02  0.41501399329E+02  0.34627990793E+03  0.35459767002E+03  0.00000000000E+00 0. -1.
</event>
<event>
 7    1  0.2644565E-009  0.7360533E+02  0.7561462E-02  0.1348245E+00
          2   -1    0    0  501    0  0.00000000000E+00  0.00000000000E+00  0.16852701986E+03  0.16852701986E+03  0.00000000000E+00 0.  1.
         -2   -1    0    0    0  501 -0.00000000000E+00 -0.00000000000E+00 -0.16474434294E+03  0.16474434294E+03  0.00000000000E+00 0. -1.
         25    2    1    2    0    0  0.49532885679E+02 -0.39872593211E+02 -0.10663068830E+03  0.17624007934E+03  0.12508849437E+03 0.  0.
          5    1    3    3  502    0  0.37376640376E+02 -0.28646402803E+02  0.17894996892E+02  0.50550301217E+02  0.41800000000E+01 0. -1.
         -5    1    3    3    0  502  0.12156245302E+02 -0.11226190409E+02 -0.12452568519E+03  0.12568977812E+03  0.41800000000E+01 0. -1.
        -11    1    1    2    0    0 -0.16615682757E+02  0.46420761810E+02  0.11308184978E+03  0.12336317437E+03  0.00000000000E+00 0.  1.
         11    1    1    2    0    0 -0.32917202922E+02 -0.65481685986E+01 -0.26684845694E+01  0.33668109096E+02  0.00000000000E+00 0. -1.
</event>
<event>
 7    1  0.2644565E-009  0.9798438E+02  0.7561462E-02  0.1284593E+00
         -2   -1    0    0    0  501 -0.00000000000E+00  0.00000000000E+00  0.86584657818E+02  0.86584657818E+02  0.00000000000E+00 0. -1.
          2   -1    0    0  501    0  0.00000000000E+00 -0.00000000000E+00 -0.12642135630E+03  0.12642135630E+03  0.00000000000E+00 0.  1.
         25    2    1    2    0    0 -0.13024052544E+02  0.27275122250E+02 -0.24033243350E+02  0.13091405263E+03  0.12508930471E+03 0.  0.
          5    1    3    3  502    0 -0.39156065193E+02 -0.33617208297E+02 -0.36514094813E+02  0.63356654387E+02  0.41800000000E+01 0. -1.
         -5    1    3    3    0  502  0.26132012650E+02  0.60892330547E+02  0.12480851463E+02  0.67557398247E+02  0.41800000000E+01 0. -1.
        -11    1    1    2    0    0  0.33435287443E+02  0.10343482864E+02 -0.17762068868E+02  0.39247893887E+02  0.00000000000E+00 0.  1.
         11    1    1    2    0    0 -0.20411234899E+02 -0.37618605113E+02  0.19586137327E+01  0.42844067600E+02  0.00000000000E+00 0. -1.
</event>
<event>
 7    1  0.2644565E-009  0.8512371E+02  0.7561462E-02  0.1315109E+00
          2   -1    0    0  501    0  0.00000000000E+00  0.00000000000E+00  0.28700749885E+03  0.28700749885E+03  0.00000000000E+00 0. -1.
         -2   -1    0    0    0  501 -0.00000000000E+00 -0.00000000000E+00 -0.43356070475E+02  0.43356070475E+02  0.00000000000E+00 0.  1.
         25    2    1    2    0    0 -0.87474925929E+01  0.91622311923E+01  0.18115039901E+03  0.22050527211E+03  0.12508654147E+03 0.  0.
          5    1    3    3  502    0  0.37170290479E+02  0.45322973936E+02  0.51143514535E+02  0.77903362827E+02  0.41800000000E+01 0.  1.
         -5    1    3    3    0  502 -0.45917783072E+02 -0.36160742743E+02  0.13000688448E+03  0.14260190928E+03  0.41800000000E+01 0.  1.
        -11    1    1    2    0    0  0.30114235047E+02 -0.13767464094E+01 -0.11634788365E+02  0.32313014150E+02  0.00000000000E+00 0.  1.
         11    1    1    2    0    0 -0.21366742454E+02 -0.77854847829E+01  0.74135817723E+02  0.77545283066E+02  0.00000000000E+00 0. -1.
</event>
<event>
 7    1  0.2644565E-009  0.1690277E+03  0.7561462E-02  0.1178866E+00
          2   -1    0    0  501    0  0.00000000000E+00  0.00000000000E+00  0.26896379865E+03  0.26896379865E+03  0.00000000000E+00 0. -1.
         -2   -1    0    0    0  501 -0.00000000000E+00 -0.00000000000E+00 -0.12592459395E+03  0.12592459395E+03  0.00000000000E+00 0.  1.
         25    2    1    2    0    0  0.80476692050E+02  0.10538542916E+03  0.40475787278E+01  0.18233612470E+03  0.12508993898E+03 0.  0.
          5    1    3    3  502    0 -0.26704198141E+02 -0.23681379311E+01 -0.11569417969E+02  0.29496543997E+02  0.41800000000E+01 0. -1.
         -5    1    3    3    0  502  0.10718089019E+03  0.10775356709E+03  0.15616996697E+02  0.15283958070E+03  0.41800000000E+01 0. -1.
        -11    1    1    2    0    0  0.16055741743E+02 -0.37725265368E+02  0.22260933408E+02  0.46653313347E+02  0.00000000000E+00 0.  1.
         11    1    1    2    0    0 -0.96532433792E+02 -0.67660163788E+02  0.11673069256E+03  0.16589895456E+03  0.00000000000E+00 0. -1.
</event>
<event>
 7    1  0.2644565E-009  0.1211375E+03  0.7561462E-02  0.1241232E+00
         -1   -1    0    0    0  501 -0.00000000000E+00  0.00000000000E+00  0.35033682429E+02  0.35033682429E+02  0.00000000000E+00 0.  1.
          1   -1    0    0  501    0  0.00000000000E+00 -0.00000000000E+00 -0.64290211017E+03  0.64290211017E+03  0.00000000000E+00 0. -1.
         25    2    1    2    0    0 -0.66508493152E+02 -0.77254922274E+02 -0.36583599848E+03  0.39984203056E+03  0.12508384764E+03 0.  0.
          5    1    3    3  502    0  0.23897340553E+02 -0.28825629947E+02 -0.20922820747E+03  0.21259330900E+03  0.41800000000E+01 0. -1.
         -5    1    3    3    0  502 -0.90405833705E+02 -0.48429292327E+02 -0.15660779101E+03  0.18724872156E+03  0.41800000000E+01 0. -1.
        -11    1    1    2    0    0  0.21522354890E+02  0.23794646395E+02 -0.69237310139E+01  0.32822781848E+02  0.00000000000E+00 0.  1.
         11    1    1    2    0    0  0.44986138262E+02  0.53460275879E+02 -0.23510869825E+03  0.24527098020E+03  0.00000000000E+00 0. -1.
</event>
<event>
 7    1  0.2644565E-009  0.1160926E+03  0.7561462E-02  0.1249686E+00
          1   -1    0    0  501    0  0.00000000000E+00  0.00000000000E+00  0.19400588935E+04  0.19400588935E+04  0.00000000000E+00 0. -1.
         -1   -1    0    0    0  501 -0.00000000000E+00 -0.00000000000E+00 -0.79110384418E+01  0.79110384418E+01  0.00000000000E+00 0.  1.
         25    2    1    2    0    0 -0.44975822627E+02 -0.10747289755E+02  0.13990193180E+04  0.14053601530E+04  0.12507509166E+03 0.  0.
          5    1    3    3  502    0 -0.45280072445E+02 -0.63678932007E+02  0.71026947277E+03  0.71456664328E+03  0.41800000000E+01 0. -1.
         -5    1    3    3    0  502  0.30424981783E+00  0.52931642252E+02  0.68874984524E+03  0.69079350969E+03  0.41800000000E+01 0. -1.
        -11    1    1    2    0    0  0.71495436821E+02  0.17223526600E+02  0.37520442981E+03  0.38234357782E+03  0.00000000000E+00 0.  1.
         11    1    1    2    0    0 -0.26519614194E+02 -0.64762368449E+01  0.15792410723E+03  0.16026620114E+03  0.00000000000E+00 0. -1.
</event>
<event>
 7    1  0.2644565E-009  0.9950174E+02  0.7561462E-02  0.1281347E+00
          2   -1    0    0  501    0  0.00000000000E+00  0.00000000000E+00  0.48281513915E+03  0.48281513915E+03  0.00000000000E+00 0. -1.
         -2   -1    0    0    0  501 -0.00000000000E+00 -0.00000000000E+00 -0.32940631309E+02  0.32940631309E+02  0.00000000000E+00 0.  1.
         25    2    1    2    0    0  0.31467711268E+02  0.36962525286E+02  0.34102516074E+03  0.36647257061E+03  0.12509012601E+03 0.  0.
          5    1    3    3  502    0 -0.14644085798E+02 -0.23580787448E+02  0.15342335706E+02  0.31990036737E+02  0.41800000000E+01 0.  1.
         -5    1    3    3    0  502  0.46111797067E+02  0.60543312734E+02  0.32568282504E+03  0.33448253388E+03  0.41800000000E+01 0.  1.
        -11    1    1    2    0    0 -0.20209791764E+01 -0.58308985880E+02  0.37952924529E+02  0.69602059391E+02  0.00000000000E+00 0.  1.
         11    1    1    2    0    0 -0.29446732092E+02  0.21346460594E+02  0.70896422571E+02  0.79681140455E+02  0.00000000000E+00 0. -1.
</event>
<event>
 7    1  0.2644565E-009  0.1063098E+03  0.7561462E-02  0.1267560E+00
         -1   -1    0    0    0  501 -0.00000000000E+00  0.00000000000E+00  0.12497056262E+03  0.12497056262E+03  0.00000000000E+00 0.  1.
          1   -1    0    0  501    0  0.00000000000E+00 -0.00000000000E+00 -0.10535630976E+03  0.10535630976E+03  0.00000000000E+00 0. -1.
         25    2    1    2    0    0  0.48118434531E+01  0.33997923802E+02  0.28169081455E+02  0.13273965130E+03  0.12508918905E+03 0.  0.
          5    1    3    3  502    0 -0.51029615837E+02  0.31645828628E+02 -0.14956393756E+02  0.62021337265E+02  0.41800000000E+01 0.  1.
         -5    1    3    3    0  502  0.55841459290E+02  0.23520951737E+01  0.43125475211E+02  0.70718314032E+02  0.41800000000E+01 0.  1.
        -11    1    1    2    0    0 -0.55280792543E+01 -0.65068380735E+02 -0.11725734173E+02  0.66347167789E+02  0.00000000000E+00 0. -1.
         11    1    1    2    0    0  0.71623580119E+00  0.31070456933E+02  0.31709055704E+01  0.31240053296E+02  0.00000000000E+00 0.  1.
</event>
<event>
 7    1  0.2644565E-009  0.9196644E+02  0.7561462E-02  0.1298158E+00
          2   -1    0    0  501    0  0.00000000000E+00  0.00000000000E+00  0.57206786148E+02  0.57206786148E+02  0.00000000000E+00 0. -1.
         -2   -1    0    0    0  501 -0.00000000000E+00 -0.00000000000E+00 -0.26105001773E+03  0.26105001773E+03  0.00000000000E+00 0.  1.
         25    2    1    2    0    0  0.44219347386E+02  0.19026237053E+02 -0.17761451887E+03  0.22251297389E+03  0.12509099829E+03 0.  0.
          5    1    3    3  502    0 -0.33270369966E+02 -0.17798476417E+02 -0.99166656591E+02  0.10618475154E+03  0.41800000000E+01 0. -1.
         -5    1    3    3    0  502  0.77489717352E+02  0.36824713470E+02 -0.78447862280E+02  0.11632822234E+03  0.41800000000E+01 0. -1.
        -11    1    1    2    0    0 -0.30347893889E+02 -0.29782506869E+02  0.19487591251E+02  0.46773481715E+02  0.00000000000E+00 0. -1.
         11    1    1    2    0    0 -0.13871453496E+02  0.10756269817E+02 -0.45716303959E+02  0.48970348275E+02  0.00000000000E+00 0.  1.
</event>
<event>
 7    1  0.2644565E-009  0.8332558E+02  0.7561462E-02  0.1319870E+00
          2   -1    0    0  501    0  0.00000000000E+00  0.00000000000E+00  0.10528609703E+03  0.10528609703E+03  0.00000000000E+00 0.  1.
         -2   -1    0    0    0  501 -0.00000000000E+00 -0.00000000000E+00 -0.23081837412E+03  0.23081837412E+03  0.00000000000E+00 0. -1.
         25    2    1    2    0    0  0.44949437440E+00 -0.23698222592E+02 -0.20103997224E+03  0.23796264622E+03  0.12508933910E+03 0.  0.
          5    1    3    3  502    0 -0.26305971623E+02  0.32953856032E+02 -0.21007750476E+02  0.47294383920E+02  0.41800000000E+01 0. -1.
         -5    1    3    3    0  502  0.26755465997E+02 -0.56652078623E+02 -0.18003222177E+03  0.19066826230E+03  0.41800000000E+01 0. -1.
        -11    1    1    2    0    0  0.88214071395E+01  0.40956783076E+02  0.59879283518E+02  0.73080803898E+02  0.00000000000E+00 0.  1.
         11    1    1    2    0    0 -0.92709015139E+01 -0.17258560484E+02  0.15628411641E+02  0.25061021034E+02  0.00000000000E+00 0. -1.
</event>
<event>
 7    1  0.2644565E-009  0.7776597E+02  0.7561462E-02  0.1335514E+00
          2   -1    0    0  501    0  0.00000000000E+00  0.00000000000E+00  0.10464205169E+04  0.10464205169E+04  0.00000000000E+00 0. -1.
         -2   -1    0    0    0  501 -0.00000000000E+00 -0.00000000000E+00 -0.15410336825E+02  0.15410336825E+02  0.00000000000E+00 0.  1.
         25    2    1    2    0    0  0.95024152117E+00  0.25855172455E+02  0.83473224796E+03  0.84444917137E+03  0.12508830618E+03 0.  0.
          5    1    3    3  502    0  0.17021046842E+02  0.37909755378E+02  0.81470912205E+03  0.81577894772E+03  0.41800000000E+01 0.  1.
         -5    1    3    3    0  502 -0.16070805320E+02 -0.12054582923E+02  0.20023125910E+02  0.28670223653E+02  0.41800000000E+01 0.  1.
        -11    1    1    2    0    0 -0.14835399433E+02  0.31188847364E+02  0.66174761544E+02  0.74645377229E+02  0.00000000000E+00 0.  1.
         11    1    1    2    0    0  0.13885157912E+02 -0.57044019819E+02  0.13010317054E+03  0.14273630509E+03  0.00000000000E+00 0. -1.
</event>
<event>
 7    1  0.2644565E-009  0.1859351E+03  0.7561462E-02  0.1162180E+00
          1   -1    0    0  501    0  0.00000000000E+00  0.00000000000E+00  0.23317903061E+03  0.23317903061E+03  0.00000000000E+00 0. -1.
         -1   -1    0    0    0  501 -0.00000000000E+00 -0.00000000000E+00 -0.20663201996E+03  0.20663201996E+03  0.00000000000E+00 0.  1.
         25    2    1    2    0    0 -0.12148488801E+03  0.10357028907E+03  0.11414150640E+03  0.23272416279E+03  0.12508744810E+03 0.  0.
          5    1    3    3  502    0 -0.39554182157E+02  0.96797245560E+02  0.10767843175E+03  0.15015444429E+03  0.41800000000E+01 0. -1.
         -5    1    3    3    0  502 -0.81930705852E+02  0.67730435076E+01  0.64630746449E+01  0.82569718503E+02  0.41800000000E+01 0. -1.
        -11    1    1    2    0    0  0.75252090006E+00 -0.54619942521E+02 -0.10248105938E+02  0.55578125949E+02  0.00000000000E+00 0. -1.
         11    1    1    2    0    0  0.12073236711E+03 -0.48950346546E+02 -0.77346389816E+02  0.15150876183E+03  0.00000000000E+00 0.  1.
</event>
<event>
 7    1  0.2644565E-009  0.1052178E+03  0.7561462E-02  0.1269691E+00
          2   -1    0    0  501    0  0.00000000000E+00  0.00000000000E+00  0.64473340421E+03  0.64473340421E+03  0.00000000000E+00 0. -1.
         -2   -1    0    0    0  501 -0.00000000000E+00 -0.00000000000E+00 -0.22665782622E+02  0.22665782622E+02  0.00000000000E+00 0.  1.
         25    2    1    2    0    0  0.33525211018E+02 -0.20329478161E+02  0.44907038822E+03  0.46781326242E+03  0.12509119660E+03 0.  0.
          5    1    3    3  502    0  0.61770966298E+02  0.19854231725E+02  0.36168672926E+03  0.36748415655E+03  0.41800000000E+01 0. -1.
         -5    1    3    3    0  502 -0.28245755280E+02 -0.40183709886E+02  0.87383658959E+02  0.10032910587E+03  0.41800000000E+01 0. -1.
        -11    1    1    2    0    0 -0.18156927453E+02 -0.34604815196E+02  0.45952815770E+02  0.60322703243E+02  0.00000000000E+00 0.  1.
         11    1    1    2    0    0 -0.15368283565E+02  0.54934293357E+02  0.12704441760E+03  0.13926322116E+03  0.00000000000E+00 0. -1.
</event>
<event>
 7    1  0.2644565E-009  0.7059569E+02  0.7561462E-02  0.1358079E+00
          2   -1    0    0  501    0  0.00000000000E+00  0.00000000000E+00  0.96770410119E+02  0.96770410119E+02  0.00000000000E+00 0. -1.
         -2   -1    0    0    0  501 -0.00000000000E+00 -0.00000000000E+00 -0.15006712798E+03  0.15006712798E+03  0.00000000000E+00 0.  1.
         25    2    1    2    0    0  0.17741404837E+02 -0.36270713925E+02 -0.63761062083E+02  0.14609174362E+03  0.12508797857E+03 0.  0.
          5    1    3    3  502    0  0.10319472718E+02 -0.23267799217E+02 -0.10179056623E+03  0.10500797003E+03  0.41800000000E+01 0.  1.
         -5    1    3    3    0  502  0.74219321193E+01 -0.13002914708E+02  0.38029504142E+02  0.41083773592E+02  0.41800000000E+01 0.  1.
        -11    1    1    2    0    0 -0.15191963738E+02 -0.29949940915E+02 -0.43663086757E+00  0.33585493439E+02  0.00000000000E+00 0.  1.
         11    1    1    2    0    0 -0.25494410988E+01  0.66220654840E+02  0.10900975089E+02  0.67160301036E+02  0.00000000000E+00 0. -1.
</event>
<event>
 7    1  0.2644565E-009  0.1958715E+03  0.7561462E-02  0.1153270E+00
         -2   -1    0    0    0  501 -0.00000000000E+00  0.00000000000E+00  0.56488321289E+02  0.56488321289E+02  0.00000000000E+00 0.  1.
          2   -1    0    0  501    0  0.00000000000E+00 -0.00000000000E+00 -0.76955765025E+03  0.76955765025E+03  0.00000000000E+00 0. -1.
         25    2    1    2    0    0 -0.13663878743E+03  0.10971903436E+03 -0.43025582766E+03  0.48111444222E+03  0.12507039837E+03 0.  0.
          5    1    3    3  502    0 -0.15022191891E+03  0.10830907180E+03 -0.31852090875E+03  0.36847051669E+03  0.41800000000E+01 0. -1.
         -5    1    3    3    0  502  0.13583131488E+02  0.14099625526E+01 -0.11173491891E+03  0.11264392553E+03  0.41800000000E+01 0. -1.
        -11    1    1    2    0    0  0.12529381841E+03 -0.55867459660E+02 -0.23459737488E+03  0.27176394588E+03  0.00000000000E+00 0.  1.
         11    1    1    2    0    0  0.11344969013E+02 -0.53851574696E+02 -0.48216126427E+02  0.73167583442E+02  0.00000000000E+00 0. -1.
</event>
<event>
 7    1  0.2644565E-009  0.1382839E+03  0.7561462E-02  0.1215657E+00
         -3   -1    0    0    0  501 -0.00000000000E+00  0.00000000000E+00  0.25513092742E+03  0.25513092742E+03  0.00000000000E+00 0.  1.
          3   -1    0    0  501    0  0.00000000000E+00 -0.00000000000E+00 -0.13771295099E+03  0.13771295099E+03  0.00000000000E+00 0. -1.
         25    2    1    2    0    0 -0.10401522109E+03 -0.65415475980E+02  0.15659022311E+03  0.23508760848E+03  0.12508930798E+03 0.  0.
          5    1    3    3  502    0 -0.69458903047E+02  0.97460815342E+01  0.13055491003E+03  0.14826187052E+03  0.41800000000E+01 0. -1.
         -5    1    3    3    0  502 -0.34556318040E+02 -0.75161557514E+02  0.26035313081E+02  0.86825737956E+02  0.41800000000E+01 0. -1.
        -11    1    1    2    0    0  0.53220283288E+02  0.26305411873E+02  0.27357033215E+02  0.65366509111E+02  0.00000000000E+00 0.  1.
         11    1    1    2    0    0  0.50794937799E+02  0.39110064107E+02 -0.66529279902E+02  0.92389760822E+02  0.00000000000E+00 0. -1.
</event>
<event>
 7    1  0.2644565E-009  0.7751640E+02  0.7561462E-02  0.1336251E+00
         -2   -1    0    0    0  501 -0.00000000000E+00  0.00000000000E+00  0.48275757854E+02  0.48275757854E+02  0.00000000000E+00 0. -1.
          2   -1    0    0  501    0  0.00000000000E+00 -0.00000000000E+00 -0.32779338024E+03  0.32779338024E+03  0.00000000000E+00 0.  1.
         25    2    1    2    0    0 -0.42583953854E+02 -0.10405585244E+02 -0.22576704878E+03  0.26178824678E+03  0.12506261034E+03 0.  0.
          5    1    3    3  502    0 -0.66314870871E+02 -0.22838370381E+02 -0.55941943053E+02  0.89812174302E+02  0.41800000000E+01 0. -1.
         -5    1    3    3    0  502  0.23730917017E+02  0.12432785137E+02 -0.16982510573E+03  0.17197607248E+03  0.41800000000E+01 0. -1.
        -11    1    1    2    0    0  0.96145769747E+01  0.20942550326E+02 -0.71685223402E+02  0.75298086024E+02  0.00000000000E+00 0.  1.
         11    1    1    2    0    0  0.32969376879E+02 -0.10536965082E+02  0.17934649799E+02  0.38982805291E+02  0.00000000000E+00 0. -1.
</event>
<event>
 7    1  0.2644565E-009  0.8689187E+02  0.7561462E-02  0.1310558E+00
         -2   -1    0    0    0  501 -0.00000000000E+00  0.00000000000E+00  0.61362329639E+02  0.61362329639E+02  0.00000000000E+00 0.  1.
          2   -1    0    0  501    0  0.00000000000E+00 -0.00000000000E+00 -0.20815343005E+03  0.20815343005E+03  0.00000000000E+00 0. -1.
         25    2    1    2    0    0 -0.24120145973E+02 -0.10622174707E+02 -0.57317596170E+02  0.14009521920E+03  0.12508697604E+03 0.  0.
          5    1    3    3  502    0 -0.48018948662E+02 -0.22702840537E+02  0.20963225757E+02  0.57255284762E+02  0.41800000000E+01 0. -1.
         -5    1    3    3    0  502  0.23898802689E+02  0.12080665831E+02 -0.78280821927E+02  0.82839934443E+02  0.41800000000E+01 0. -1.
        -11    1    1    2    0    0  0.55430124067E+02 -0.94215766998E+01 -0.56897125977E+02  0.79990922647E+02  0.00000000000E+00 0.  1.
         11    1    1    2    0    0 -0.31309978094E+02  0.20043751406E+02 -0.32576378265E+02  0.49429617837E+02  0.00000000000E+00 0. -1.
</event>
<event>
 7    1  0.2644565E-009  0.8659957E+02  0.7561462E-02  0.1311302E+00
          1   -1    0    0  501    0  0.00000000000E+00  0.00000000000E+00  0.95628338545E+02  0.95628338545E+02  0.00000000000E+00 0. -1.
         -1   -1    0    0    0  501 -0.00000000000E+00 -0.00000000000E+00 -0.15774219828E+03  0.15774219828E+03  0.00000000000E+00 0.  1.
         25    2    1    2    0    0 -0.34914903071E+02  0.89841957131E+01  0.12450058495E+02  0.13077549365E+03  0.12508980596E+03 0.  0.
          5    1    3    3  502    0  0.38287937819E+02  0.22394334596E+02 -0.20786000178E+02  0.49163020736E+02  0.41800000000E+01 0. -1.
         -5    1    3    3    0  502 -0.73202840891E+02 -0.13410138883E+02  0.33236058673E+02  0.81612472916E+02  0.41800000000E+01 0. -1.
        -11    1    1    2    0    0  0.28162038031E+02 -0.24410236553E+02 -0.91446941753E+02  0.98749699699E+02  0.00000000000E+00 0.  1.
         11    1    1    2    0    0  0.67528650406E+01  0.15426040840E+02  0.16883023522E+02  0.23845343477E+02  0.00000000000E+00 0. -1.
</event>
<event>
 7    1  0.2644565E-009  0.8958428E+02  0.7561462E-02  0.1303862E+00
          2   -1    0    0  501    0  0.00000000000E+00  0.00000000000E+00  0.73295622952E+03  0.73295622952E+03  0.00000000000E+00 0. -1.
         -2   -1    0    0    0  501 -0.00000000000E+00 -0.00000000000E+00 -0.19591083276E+02  0.19591083276E+02  0.00000000000E+00 0.  1.
         25    2    1    2    0    0 -0.23706330729E+02 -0.44063516115E+02  0.40221591063E+03  0.42418040038E+03  0.12509112575E+03 0.  0.
          5    1    3    3  502    0  0.17435008648E+02 -0.18072084478E+02  0.35609315130E+03  0.35700193916E+03  0.41800000000E+01 0.  1.
         -5    1    3    3    0  502 -0.41141339377E+02 -0.25991431637E+02  0.46122759325E+02  0.67178461221E+02  0.41800000000E+01 0.  1.
        -11    1    1    2    0    0 -0.23530136514E+02  0.51901613475E+02  0.16332904801E+03  0.17298503615E+03  0.00000000000E+00 0. -1.
         11    1    1    2    0    0  0.47236467244E+02 -0.78380973609E+01  0.14782018761E+03  0.15538187627E+03  0.00000000000E+00 0.  1.
</event>
<event>
 7    1  0.2644565E-009  0.1752031E+03  0.7561462E-02  0.1172528E+00
         -2   -1    0    0    0  501 -0.00000000000E+00  0.00000000000E+00  0.39902316612E+02  0.39902316612E+02  0.00000000000E+00 0.  1.
          2   -1    0    0  501    0  0.00000000000E+00 -0.00000000000E+00 -0.15234639701E+04  0.15234639701E+04  0.00000000000E+00 0. -1.
         25    2    1    2    0    0 -0.14955209521E+03 -0.17001995069E+02 -0.12777202809E+04  0.12926218614E+04  0.12508902249E+03 0.  0.
          5    1    3    3  502    0 -0.22115363556E+02  0.42416117891E+02 -0.49838647221E+03  0.50069428242E+03  0.41800000000E+01 0.  1.
         -5    1    3    3    0  502 -0.12743673165E+03 -0.59418112960E+02 -0.77933380864E+03  0.79192757902E+03  0.41800000000E+01 0.  1.
        -11    1    1    2    0    0  0.24192863206E+02  0.26644024308E+02 -0.10039432417E+03  0.10664998353E+03  0.00000000000E+00 0. -1.
         11    1    1    2    0    0  0.12535923200E+03 -0.96420292391E+01 -0.10544704842E+03  0.16409444170E+03  0.00000000000E+00 0.  1.
</event>
<event>
 7    1  0.2644565E-009  0.2167961E+03  0.7561462E-02  0.1136294E+00
          1   -1    0    0  501    0  0.00000000000E+00  0.00000000000E+00  0.13994918023E+04  0.13994918023E+04  0.00000000000E+00 0. -1.
         -1   -1    0    0    0  501 -0.00000000000E+00 -0.00000000000E+00 -0.33729635441E+02  0.33729635441E+02  0.00000000000E+00 0.  1.
         25    2    1    2    0    0 -0.10281506097E+03  0.15753529553E+03  0.73778345976E+03  0.77159540503E+03  0.12508688769E+03 0.  0.
          5    1    3    3  502    0  0.28906832342E+02  0.26193646866E+02  0.15141862009E+03  0.15641861463E+03  0.41800000000E+01 0.  1.
         -5    1    3    3    0  502 -0.13172189331E+03  0.13134164867E+03  0.58636483967E+03  0.61517679040E+03  0.41800000000E+01 0.  1.
        -11    1    1    2    0    0  0.64281010154E+01 -0.90884843064E+02  0.27176493202E+03  0.28663138952E+03  0.00000000000E+00 0.  1.
         11    1    1    2    0    0  0.96386959957E+02 -0.66650452471E+02  0.35621377509E+03  0.37499464320E+03  0.00000000000E+00 0. -1.
</event>
<event>
 7    1  0.2644565E-009  0.2417986E+03  0.7561462E-02  0.1118600E+00
          1   -1    0    0  501    0  0.00000000000E+00  0.00000000000E+00  0.35945164102E+03  0.35945164102E+03  0.00000000000E+00 0. -1.
         -1   -1    0    0    0  501 -0.00000000000E+00 -0.00000000000E+00 -0.21400210376E+03  0.21400210376E+03  0.00000000000E+00 0.  1.
         25    2    1    2    0    0 -0.21170108856E+03  0.83504747585E+02  0.19293569879E+03  0.32351502363E+03  0.12508953944E+03 0.  0.
          5    1    3    3  502    0 -0.74285893474E+02 -0.22442122543E+02  0.99957955490E+02  0.12661401225E+03  0.41800000000E+01 0.  1.
         -5    1    3    3    0  502 -0.13741519509E+03  0.10594687013E+03  0.92977743303E+02  0.19690101138E+03  0.41800000000E+01 0.  1.
        -11    1    1    2    0    0  0.17619894108E+03 -0.49177245993E+02 -0.22181816806E+01  0.18294640934E+03  0.00000000000E+00 0. -1.
         11    1    1    2    0    0  0.35502147481E+02 -0.34327501592E+02 -0.45267979850E+02  0.66992311805E+02  0.00000000000E+00 0.  1.
</event>
<event>
 7    1  0.2644565E-009  0.1262783E+03  0.7561462E-02  0.1233085E+00
         -1   -1    0    0    0  501 -0.00000000000E+00  0.00000000000E+00  0.22915328124E+03  0.22915328124E+03  0.00000000000E+00 0.  1.
          1   -1    0    0  501    0  0.00000000000E+00 -0.00000000000E+00 -0.93002047141E+02  0.93002047141E+02  0.00000000000E+00 0. -1.
         25    2    1    2    0    0 -0.95413444096E+02 -0.15606688456E+02  0.91805459434E+02  0.18282015114E+03  0.12509065210E+03 0.  0.
          5    1    3    3  502    0  0.57145638537E+01 -0.43910825802E+02  0.19066855641E+01  0.44518813017E+02  0.41800000000E+01 0. -1.
         -5    1    3    3    0  502 -0.10112800795E+03  0.28304137346E+02  0.89898773870E+02  0.13830133812E+03  0.41800000000E+01 0. -1.
        -11    1    1    2    0    0  0.77859603791E+02 -0.23161722044E+01 -0.10906803217E+02  0.78653931323E+02  0.00000000000E+00 0. -1.
         11    1    1    2    0    0  0.17553840305E+02  0.17922860660E+02  0.55252577881E+02  0.60681245918E+02  0.00000000000E+00 0.  1.
</event>
<event>
 7    1  0.2644565E-009  0.1070131E+03  0.7561462E-02  0.1266203E+00
         -3   -1    0    0    0  501 -0.00000000000E+00  0.00000000000E+00  0.10158325690E+03  0.10158325690E+03  0.00000000000E+00 0.  1.
          3   -1    0    0  501    0  0.00000000000E+00 -0.00000000000E+00 -0.14968433495E+03  0.14968433495E+03  0.00000000000E+00 0. -1.
         25    2    1    2    0    0  0.44036754469E+02  0.62924183061E+01 -0.60960260209E+02  0.14608975897E+03  0.12508890470E+03 0.  0.
          5    1    3    3  502    0 -0.25882787831E+02  0.34887226592E+02 -0.54983771370E+02  0.70197754945E+02  0.41800000000E+01 0.  1.
         -5    1    3    3    0  502  0.69919542300E+02 -0.28594808286E+02 -0.59764888388E+01  0.75892004026E+02  0.41800000000E+01 0.  1.
        -11    1    1    2    0    0 -0.65638296117E+02  0.11630047770E+02  0.29115377779E+02  0.72741660357E+02  0.00000000000E+00 0.  1.
         11    1    1    2    0    0  0.21601541648E+02 -0.17922466076E+02 -0.16256195626E+02  0.32436172524E+02  0.00000000000E+00 0. -1.
</event>
<event>
 7    1  0.2644565E-009  0.1129842E+03  0.7561462E-02  0.1255141E+00
          2   -1    0    0  501    0  0.00000000000E+00  0.00000000000E+00  0.57938182248E+03  0.57938182248E+03  0.00000000000E+00 0. -1.
         -2   -1    0    0    0  501 -0.00000000000E+00 -0.00000000000E+00 -0.27516562491E+02  0.27516562491E+02  0.00000000000E+00 0.  1.
         25    2    1    2    0    0  0.57711861418E+02  0.24688945409E+02  0.25468668680E+03  0.29061082507E+03  0.12509652368E+03 0.  0.
          5    1    3    3  502    0  0.89087429244E+02  0.29350191779E+02  0.23495743538E+03  0.25302267220E+03  0.41800000000E+01 0.  1.
         -5    1    3    3    0  502 -0.31375567826E+02 -0.46612463697E+01  0.19729251417E+02  0.37588152862E+02  0.41800000000E+01 0.  1.
        -11    1    1    2    0    0 -0.71129602523E+02  0.96092289356E+00  0.14654851402E+03  0.16290122986E+03  0.00000000000E+00 0.  1.
         11    1    1    2    0    0  0.13417741105E+02 -0.25649868303E+02  0.15063005917E+03  0.15338633005E+03  0.00000000000E+00 0. -1.
</event>
<event>
 7    1  0.2644565E-009  0.6900298E+02  0.7561462E-02  0.1363517E+00
         -2   -1    0    0    0  501 -0.00000000000E+00  0.00000000000E+00  0.16408415585E+03  0.16408415585E+03  0.00000000000E+00 0.  1.
          2   -1    0    0  501    0  0.00000000000E+00 -0.00000000000E+00 -0.89816647042E+02  0.89816647042E+02  0.00000000000E+00 0. -1.
         25    2    1    2    0    0  0.41242304154E+02 -0.20369682714E+02  0.68908047837E+02  0.15004881609E+03  0.12510186460E+03 0.  0.
          5    1    3    3  502    0  0.68779241531E-01  0.16636770464E+02  0.89278830503E+02  0.90911874021E+02  0.41800000000E+01 0.  1.
         -5    1    3    3    0  502  0.41173524913E+02 -0.37006453179E+02 -0.20370782666E+02  0.59136942067E+02  0.41800000000E+01 0.  1.
        -11    1    1    2    0    0 -0.40241391739E+02 -0.44570145707E+01 -0.36932088562E+02  0.54801585319E+02  0.00000000000E+00 0. -1.
         11    1    1    2    0    0 -0.10009124152E+01  0.24826697285E+02  0.42291549528E+02  0.49050401479E+02  0.00000000000E+00 0.  1.
</event>
<event>
 7    1  0.2644565E-009  0.1287022E+03  0.7561462E-02  0.1229394E+00
         -1   -1    0    0    0  501 -0.00000000000E+00  0.00000000000E+00  0.64118859959E+02  0.64118859959E+02  0.00000000000E+00 0.  1.
          1   -1    0    0  501    0  0.00000000000E+00 -0.00000000000E+00 -0.42888993672E+03  0.42888993672E+03  0.00000000000E+00 0. -1.
         25    2    1    2    0    0 -0.37335262381E+02 -0.75581582860E+02 -0.47511588294E+02  0.15815292021E+03  0.12509395535E+03 0.  0.
          5    1    3    3  502    0 -0.76488401061E+02 -0.14999857320E+02 -0.18007157603E+02  0.80107436243E+02  0.41800000000E+01 0. -1.
         -5    1    3    3    0  502  0.39153138680E+02 -0.60581725540E+02 -0.29504430691E+02  0.78045483971E+02  0.41800000000E+01 0. -1.
        -11    1    1    2    0    0 -0.44025148253E+01  0.63485996250E+02 -0.18479956929E+03  0.19545008229E+03  0.00000000000E+00 0.  1.
         11    1    1    2    0    0  0.41737777207E+02  0.12095586610E+02 -0.13245991918E+03  0.13940579418E+03  0.00000000000E+00 0. -1.
</event>
<event>
 7    1  0.2644565E-009  0.1169859E+03  0.7561462E-02  0.1248154E+00
          2   -1    0    0  501    0  0.00000000000E+00  0.00000000000E+00  0.35466300839E+02  0.35466300839E+02  0.00000000000E+00 0.  1.
         -2   -1    0    0    0  501 -0.00000000000E+00 -0.00000000000E+00 -0.41552846339E+03  0.41552846339E+03  0.00000000000E+00 0. -1.
         25    2    1    2    0    0  0.46480098198E+02 -0.22148348814E+02 -0.26754521085E+03  0.29980051538E+03  0.12509580442E+03 0.  0.
          5    1    3    3  502    0  0.59242918021E+02 -0.65952949312E+02 -0.16148718500E+03  0.18426909176E+03  0.41800000000E+01 0.  1.
         -5    1    3    3    0  502 -0.12762819824E+02  0.43804600498E+02 -0.10605802585E+03  0.11553142361E+03  0.41800000000E+01 0.  1.
        -11    1    1    2    0    0 -0.62309634179E+02  0.41149753741E+02 -0.72022550450E+02  0.10374507467E+03  0.00000000000E+00 0.  1.
         11    1    1    2    0    0  0.15829535981E+02 -0.19001404926E+02 -0.40494401247E+02  0.47449174186E+02  0.00000000000E+00 0. -1.
</event>
<event>
 7    1  0.2644565E-009  0.8254667E+02  0.7561462E-02  0.1321976E+00
          2   -1    0    0  501    0  0.00000000000E+00  0.00000000000E+00  0.55873466228E+02  0.55873466228E+02  0.00000000000E+00 0. -1.
         -2   -1    0    0    0  501 -0.00000000000E+00 -0.00000000000E+00 -0.20676753477E+03  0.20676753477E+03  0.00000000000E+00 0.  1.
         25    2    1    2    0    0 -0.76195475346E+01  0.15119051851E+02 -0.94440167059E+02  0.15767200878E+03  0.12511943880E+03 0.  0.
          5    1    3    3  502    0 -0.10718954065E+02  0.55158984418E+02 -0.10206155582E+03  0.11658234478E+03  0.41800000000E+01 0.  1.
         -5    1    3    3    0  502  0.30994065305E+01 -0.40039932567E+02  0.76213887634E+01  0.41089663998E+02  0.41800000000E+01 0.  1.
        -11    1    1    2    0    0 -0.22888868642E+02  0.13471731667E+02 -0.57292466851E+02  0.63149145835E+02  0.00000000000E+00 0.  1.
         11    1    1    2    0    0  0.30508416176E+02 -0.28590783518E+02  0.83856536420E+00  0.41819846385E+02  0.00000000000E+00 0. -1.
</event>
<event>
 7    1  0.2644565E-009  0.1726261E+03  0.7561462E-02  0.1175137E+00
          1   -1    0    0  501    0  0.00000000000E+00  0.00000000000E+00  0.67925616579E+02  0.67925616579E+02  0.00000000000E+00 0. -1.
         -1   -1    0    0    0  501 -0.00000000000E+00 -0.00000000000E+00 -0.56974712765E+03  0.56974712765E+03  0.00000000000E+00 0.  1.
         25    2    1    2    0    0  0.29239787109E+02  0.15893697264E+03 -0.29306373885E+03  0.35728159653E+03  0.12509139767E+03 0.  0.
          5    1    3    3  502    0  0.12582297747E+02  0.28942943241E+02  0.44590069385E+01  0.32145969000E+02  0.41800000000E+01 0.  1.
         -5    1    3    3    0  502  0.16657489362E+02  0.12999402940E+03 -0.29752274578E+03  0.32513562753E+03  0.41800000000E+01 0.  1.
        -11    1    1    2    0    0 -0.59069425711E+02 -0.11327556548E+03 -0.11482114099E+03  0.17176858038E+03  0.00000000000E+00 0. -1.
         11    1    1    2    0    0  0.29829638602E+02 -0.45661407162E+02 -0.93936631228E+02  0.10862256731E+03  0.00000000000E+00 0.  1.
</event>
<event>
 7    1  0.2644565E-009  0.1396042E+03  0.7561462E-02  0.1213863E+00
          2   -1    0    0  501    0  0.00000000000E+00  0.00000000000E+00  0.10200163439E+03  0.10200163439E+03  0.00000000000E+00 0. -1.
         -2   -1    0    0    0  501 -0.00000000000E+00 -0.00000000000E+00 -0.23629521564E+03  0.23629521564E+03  0.00000000000E+00 0.  1.
         25    2    1    2    0    0 -0.10485604775E+03 -0.12560314193E+02 -0.34689749019E+02  0.16734386676E+03  0.12509212130E+03 0.  0.
          5    1    3    3  502    0  0.16039475581E+02 -0.11661472888E+02  0.25217282104E+02  0.32351791968E+02  0.41800000000E+01 0.  1.
         -5    1    3    3    0  502 -0.12089552333E+03 -0.89884130433E+00 -0.59907031123E+02  0.13499207479E+03  0.41800000000E+01 0.  1.
        -11    1    1    2    0    0  0.50565510871E+02  0.50713243907E+02 -0.61738655962E+02  0.94553506742E+02  0.00000000000E+00 0.  1.
         11    1    1    2    0    0  0.54290536882E+02 -0.38152929714E+02 -0.37865176265E+02  0.76399476531E+02  0.00000000000E+00 0. -1.
</event>
<event>
 7    1  0.2644565E-009  0.9418578E+02  0.7561462E-02  0.1293021E+00
          2   -1    0    0  501    0  0.00000000000E+00  0.00000000000E+00  0.33208898997E+03  0.33208898997E+03  0.00000000000E+00 0. -1.
         -2   -1    0    0    0  501 -0.00000000000E+00 -0.00000000000E+00 -0.39883016995E+02  0.39883016995E+02  0.00000000000E+00 0.  1.
         25    2    1    2    0    0 -0.38297036161E+00  0.21575569332E+02  0.20389242228E+03  0.24017421155E+03  0.12508349280E+03 0.  0.
          5    1    3    3  502    0  0.44915722466E+02  0.46008509311E+02  0.62989728817E+02  0.90107621154E+02  0.41800000000E+01 0. -1.
         -5    1    3    3    0  502 -0.45298692827E+02 -0.24432939979E+02  0.14090269346E+03  0.15006659040E+03  0.41800000000E+01 0. -1.
        -11    1    1    2    0    0  0.32618892633E+02 -0.23193654179E+02  0.24853916978E+01  0.40101308241E+02  0.00000000000E+00 0.  1.
         11    1    1    2    0    0 -0.32235922271E+02  0.16180848465E+01  0.85828158993E+02  0.91696487171E+02  0.00000000000E+00 0. -1.
</event>
<event>
 7    1  0.2644565E-009  0.1642387E+03  0.7561462E-02  0.1183993E+00
         -1   -1    0    0    0  501 -0.00000000000E+00  0.00000000000E+00  0.99479177273E+02  0.99479177273E+02  0.00000000000E+00 0.  1.
          1   -1    0    0  501    0  0.00000000000E+00 -0.00000000000E+00 -0.32458086901E+03  0.32458086901E+03  0.00000000000E+00 0. -1.
         25    2    1    2    0    0  0.10032391221E+03  0.77506740159E+02 -0.41024124845E+02  0.18276643916E+03  0.12509360629E+03 0.  0.
          5    1    3    3  502    0  0.10907557080E+03  0.10336909741E+03 -0.31930987773E+02  0.15368705484E+03  0.41800000000E+01 0.  1.
         -5    1    3    3    0  502 -0.87516585959E+01 -0.25862357250E+02 -0.90931370724E+01  0.29079384322E+02  0.41800000000E+01 0.  1.
        -11    1    1    2    0    0  0.11492895137E+02 -0.23900858864E+02 -0.11794864575E+02  0.29025101609E+02  0.00000000000E+00 0.  1.
         11    1    1    2    0    0 -0.11181680735E+03 -0.53605881295E+02 -0.17228270232E+03  0.21226850551E+03  0.00000000000E+00 0. -1.
</event>
<event>
 7    1  0.2644565E-009  0.1561547E+03  0.7561462E-02  0.1193108E+00
          2   -1    0    0  501    0  0.00000000000E+00  0.00000000000E+00  0.93895913053E+03  0.93895913053E+03  0.00000000000E+00 0. -1.
         -2   -1    0    0    0  501 -0.00000000000E+00 -0.00000000000E+00 -0.39322723626E+02  0.39322723626E+02  0.00000000000E+00 0.  1.
         25    2    1    2    0    0 -0.60865556506E+02 -0.13601080269E+03  0.60381685829E+03  0.63438906125E+03  0.12510446937E+03 0.  0.
          5    1    3    3  502    0  0.11327988940E+02 -0.39144828909E+01  0.65357988734E+00  0.12710077750E+02  0.41800000000E+01 0. -1.
         -5    1    3    3    0  502 -0.72193545446E+02 -0.13209631980E+03  0.60316327840E+03  0.62167898350E+03  0.41800000000E+01 0. -1.
        -11    1    1    2    0    0  0.28100682281E+02  0.65164246062E+02  0.52260597274E+02  0.88131704493E+02  0.00000000000E+00 0.  1.
         11    1    1    2    0    0  0.32764874225E+02  0.70846556631E+02  0.24355895134E+03  0.25576108842E+03  0.00000000000E+00 0. -1.
</event>
<event>
 7    1  0.2644565E-009  0.6988910E+02  0.7561462E-02  0.1360471E+00
         -2   -1    0    0    0  501 -0.00000000000E+00  0.00000000000E+00  0.79904586777E+02  0.79904586777E+02  0.00000000000E+00 0.  1.
          2   -1    0    0  501    0  0.00000000000E+00 -0.00000000000E+00 -0.15324204913E+03  0.15324204913E+03  0.00000000000E+00 0. -1.
         25    2    1    2    0    0 -0.49116618159E+01 -0.16810728336E+00 -0.77937857951E+02  0.14745370517E+03  0.12507650773E+03 0.  0.
          5    1    3    3  502    0  0.10970423049E+02  0.32191113621E+02 -0.99505586415E+02  0.10523997390E+03  0.41800000000E+01 0. -1.
         -5    1    3    3    0  502 -0.15882084865E+02 -0.32359220904E+02  0.21567728464E+02  0.42213731277E+02  0.41800000000E+01 0. -1.
        -11    1    1    2    0    0  0.32320923142E+02  0.17540718586E+02 -0.22759574495E+02  0.43247163057E+02  0.00000000000E+00 0. -1.
         11    1    1    2    0    0 -0.27409261326E+02 -0.17372611303E+02  0.27359970095E+02  0.42445767675E+02  0.00000000000E+00 0.  1.
</event>
<event>
 7    1  0.2644565E-009  0.9321312E+02  0.7561462E-02  0.1295252E+00
          2   -1    0    0  501    0  0.00000000000E+00  0.00000000000E+00  0.17422354025E+03  0.17422354025E+03  0.00000000000E+00 0. -1.
         -2   -1    0    0    0  501 -0.00000000000E+00 -0.00000000000E+00 -0.11805950873E+03  0.11805950873E+03  0.00000000000E+00 0.  1.
         25    2    1    2    0    0  0.39681185110E+02  0.57159334122E+02 -0.34089406663E+02  0.14714158681E+03  0.12508706165E+03 0.  0.
          5    1    3    3  502    0 -0.18468555440E+02  0.21224923461E+02 -0.65790256073E+02  0.71675763757E+02  0.41800000000E+01 0. -1.
         -5    1    3    3    0  502  0.58149740550E+02  0.35934410660E+02  0.31700849409E+02  0.75465823051E+02  0.41800000000E+01 0. -1.
        -11    1    1    2    0    0  0.10240990989E+02 -0.31990542463E+02 -0.57179921109E+01  0.34072982512E+02  0.00000000000E+00 0.  1.
         11    1    1    2    0    0 -0.49922176099E+02 -0.25168791659E+02  0.95971430292E+02  0.11106847965E+03  0.00000000000E+00 0. -1.
</event>
<event>
 7    1  0.2644565E-009  0.1004898E+03  0.7561462E-02  0.1279269E+00
         -1   -1    0    0    0  501 -0.00000000000E+00  0.00000000000E+00  0.86383202745E+02  0.86383202745E+02  0.00000000000E+00 0.  1.
          1   -1    0    0  501    0  0.00000000000E+00 -0.00000000000E+00 -0.18624081750E+03  0.18624081750E+03  0.00000000000E+00 0. -1.
         25    2    1    2    0    0 -0.17687442916E+02 -0.62215334934E+02 -0.68661662410E+02  0.15667413707E+03  0.12509503509E+03 0.  0.
          5    1    3    3  502    0 -0.53292193930E+02 -0.65924269732E+02 -0.68844092387E+01  0.85152420776E+02  0.41800000000E+01 0.  1.
         -5    1    3    3    0  502  0.35604751014E+02  0.37089347975E+01 -0.61777253171E+02  0.71521716293E+02  0.41800000000E+01 0.  1.
        -11    1    1    2    0    0 -0.13731077651E+02  0.37978922570E+02  0.24746307165E+02  0.47363707323E+02  0.00000000000E+00 0.  1.
         11    1    1    2    0    0  0.31418520567E+02  0.24236412364E+02 -0.55942259507E+02  0.68586175850E+02  0.00000000000E+00 0. -1.
</event>
<event>
 7    1  0.2644565E-009  0.1069492E+03  0.7561462E-02  0.1266326E+00
          2   -1    0    0  501    0  0.00000000000E+00  0.00000000000E+00  0.81885375429E+02  0.81885375429E+02  0.00000000000E+00 0. -1.
         -2   -1    0    0    0  501 -0.00000000000E+00 -0.00000000000E+00 -0.16062400085E+03  0.16062400085E+03  0.00000000000E+00 0.  1.
         25    2    1    2    0    0 -0.18799163258E+02  0.46969890285E+02 -0.44968829504E+02  0.14223033165E+03  0.12509073699E+03 0.  0.
          5    1    3    3  502    0  0.50682863058E+02  0.47012346098E+01 -0.30596719049E+02  0.59535584579E+02  0.41800000000E+01 0. -1.
         -5    1    3    3    0  502 -0.69482026316E+02  0.42268655675E+02 -0.14372110455E+02  0.82694747067E+02  0.41800000000E+01 0. -1.
        -11    1    1    2    0    0 -0.16246426964E+02 -0.43186245967E+02  0.66838622810E+01  0.46622658062E+02  0.00000000000E+00 0.  1.
         11    1    1    2    0    0  0.35045590221E+02 -0.37836443181E+01 -0.40453658201E+02  0.53656386574E+02  0.00000000000E+00 0. -1.
</event>
<event>
 7    1  0.2962031E-009  0.1542722E+03  0.7561462E-02  0.1195320E+00
          1   -1    0    0  501    0  0.00000000000E+00  0.00000000000E+00  0.95251641923E+03  0.95251641923E+03  0.00000000000E+00 0. -1.
         -1   -1    0    0    0  501 -0.00000000000E+00 -0.00000000000E+00 -0.31715455469E+02  0.31715455469E+02  0.00000000000E+00 0.  1.
         25    2    1    2    0    0  0.90461873537E+02  0.10047993152E+03  0.48524656536E+03  0.51902997919E+03  0.12509325682E+03 0.  0.
          5    1    3    3  502    0  0.53374539169E+01  0.41224290594E+02  0.32775819546E+03  0.33041010523E+03  0.41800000000E+01 0. -1.
         -5    1    3    3    0  502  0.85124419620E+02  0.59255640928E+02  0.15748836990E+03  0.18861987396E+03  0.41800000000E+01 0. -1.
        -11    1    1    2    0    0 -0.27119221475E+02  0.15191923347E+02  0.70203755697E+02  0.76777692219E+02  0.00000000000E+00 0.  1.
         11    1    1    2    0    0 -0.63342652061E+02 -0.11567185487E+03  0.36535064270E+03  0.38842420329E+03  0.00000000000E+00 0. -1.
</event>
<event>
 7    1  0.2644565E-009  0.1284287E+03  0.7561462E-02  0.1229806E+00
         -2   -1    0    0    0  501 -0.00000000000E+00  0.00000000000E+00  0.70966875294E+03  0.70966875294E+03  0.00000000000E+00 0.  1.
          2   -1    0    0  501    0  0.00000000000E+00 -0.00000000000E+00 -0.38817820601E+02  0.38817820601E+02  0.00000000000E+00 0. -1.
         25    2    1    2    0    0  0.84946423427E+02  0.14954607239E+02  0.55081300181E+03  0.57138587162E+03  0.12508923292E+03 0.  0.
          5    1    3    3  502    0  0.60017870100E+02 -0.36193231899E+02  0.45087839117E+03  0.45631227333E+03  0.41800000000E+01 0.  1.
         -5    1    3    3    0  502  0.24928553326E+02  0.51147839138E+02  0.99934610635E+02  0.11507359828E+03  0.41800000000E+01 0.  1.
        -11    1    1    2    0    0 -0.63882281897E+02  0.36795269715E+02  0.76753039088E+02  0.10642305588E+03  0.00000000000E+00 0. -1.
         11    1    1    2    0    0 -0.21064141529E+02 -0.51749876954E+02  0.43284891445E+02  0.70677646045E+02  0.00000000000E+00 0.  1.
</event>
<event>
 7    1  0.2644565E-009  0.1029010E+03  0.7561462E-02  0.1274311E+00
          4   -1    0    0  501    0  0.00000000000E+00  0.00000000000E+00  0.50737346118E+03  0.50737346118E+03  0.00000000000E+00 0. -1.
         -4   -1    0    0    0  501 -0.00000000000E+00 -0.00000000000E+00 -0.28744126767E+02  0.28744126767E+02  0.00000000000E+00 0.  1.
         25    2    1    2    0    0  0.71884847058E+00  0.19617224775E+02  0.39109164014E+03  0.41107956643E+03  0.12509351182E+03 0.  0.
          5    1    3    3  502    0  0.46148152932E+02  0.48286997839E+02  0.27602591906E+03  0.28402300360E+03  0.41800000000E+01 0.  1.
         -5    1    3    3    0  502 -0.45429304462E+02 -0.28669773064E+02  0.11506572108E+03  0.12705656283E+03  0.41800000000E+01 0.  1.
        -11    1    1    2    0    0 -0.13981628995E+01 -0.52294105341E+02  0.34256711579E+02  0.62531197023E+02  0.00000000000E+00 0.  1.
         11    1    1    2    0    0  0.67931442893E+00  0.32676880566E+02  0.53280982701E+02  0.62506824501E+02  0.00000000000E+00 0. -1.
</event>
<event>
 7    1  0.2644565E-009  0.1175017E+03  0.7561462E-02  0.1247276E+00
          2   -1    0    0  501    0  0.00000000000E+00  0.00000000000E+00  0.66583718331E+03  0.66583718331E+03  0.00000000000E+00 0. -1.
         -2   -1    0    0    0  501 -0.00000000000E+00 -0.00000000000E+00 -0.29068423974E+02  0.29068423974E+02  0.00000000000E+00 0.  1.
         25    2    1    2    0    0 -0.82829906364E+02  0.22488652754E+02  0.33185809524E+03  0.36488716113E+03  0.12508521933E+03 0.  0.
          5    1    3    3  502    0  0.30805285778E+02  0.13641477521E+01  0.11474691075E+03  0.11889134728E+03  0.41800000000E+01 0. -1.
         -5    1    3    3    0  502 -0.11363519214E+03  0.21124505002E+02  0.21711118448E+03  0.24599581385E+03  0.41800000000E+01 0. -1.
        -11    1    1    2    0    0  0.36183928723E+02 -0.20393764024E+02  0.30165067854E+02  0.51333357844E+02  0.00000000000E+00 0.  1.
         11    1    1    2    0    0  0.46645977641E+02 -0.20948887296E+01  0.27474559624E+03  0.27868508830E+03  0.00000000000E+00 0. -1.
</event>
<event>
 7    1  0.2644565E-009  0.1170909E+03  0.7561462E-02  0.1247975E+00
          2   -1    0    0  501    0  0.00000000000E+00  0.00000000000E+00  0.28094214427E+02  0.28094214427E+02  0.00000000000E+00 0.  1.
         -2   -1    0    0    0  501 -0.00000000000E+00 -0.00000000000E+00 -0.54145690426E+03  0.54145690426E+03  0.00000000000E+00 0. -1.
         25    2    1    2    0    0 -0.27378532177E+02 -0.51986318672E+02 -0.31010028105E+03  0.33950008615E+03  0.12508382324E+03 0.  0.
          5    1    3    3  502    0  0.14385307325E+02 -0.76936430147E+02 -0.25036519443E+03  0.26234777363E+03  0.41800000000E+01 0.  1.
         -5    1    3    3    0  502 -0.41763839502E+02  0.24950111475E+02 -0.59735086622E+02  0.77152312514E+02  0.41800000000E+01 0.  1.
        -11    1    1    2    0    0 -0.30379882056E+02  0.17615076131E+01 -0.70832935446E+02  0.77093092341E+02  0.00000000000E+00 0. -1.
         11    1    1    2    0    0  0.57758414233E+02  0.50224811058E+02 -0.13242947334E+03  0.15295794020E+03  0.00000000000E+00 0.  1.
</event>
<event>
 7    1  0.2644565E-009  0.7304161E+02  0.7561462E-02  0.1350045E+00
          1   -1    0    0  501    0  0.00000000000E+00  0.00000000000E+00  0.22113222843E+03  0.22113222843E+03  0.00000000000E+00 0.  1.
         -1   -1    0    0    0  501 -0.00000000000E+00 -0.00000000000E+00 -0.60886744947E+02  0.60886744947E+02  0.00000000000E+00 0. -1.
         25    2    1    2    0    0 -0.24977754196E+02  0.17927787028E+02  0.54818184260E+02  0.13999226299E+03  0.12508999408E+03 0.  0.
          5    1    3    3  502    0  0.36240933219E+01  0.47190040042E+02 -0.22379937735E+02  0.52520167027E+02  0.41800000000E+01 0.  1.
         -5    1    3    3    0  502 -0.28601847518E+02 -0.29262253014E+02  0.77198121995E+02  0.87472095964E+02  0.41800000000E+01 0.  1.
        -11    1    1    2    0    0  0.29588646403E+02  0.83617405382E+01  0.11063882892E+03  0.11483186476E+03  0.00000000000E+00 0.  1.
         11    1    1    2    0    0 -0.46108922077E+01 -0.26289527566E+02 -0.52115296951E+01  0.27194845621E+02  0.00000000000E+00 0. -1.
</event>
<event>
 7    1  0.2644565E-009  0.1233241E+03  0.7561462E-02  0.1237712E+00
          1   -1    0    0  501    0  0.00000000000E+00  0.00000000000E+00  0.42308959426E+03  0.42308959426E+03  0.00000000000E+00 0. -1.
         -1   -1    0    0    0  501 -0.00000000000E+00 -0.00000000000E+00 -0.51841693488E+02  0.51841693488E+02  0.00000000000E+00 0.  1.
         25    2    1    2    0    0 -0.78037605269E+02  0.53267822703E+02  0.23756420091E+03  0.28462264784E+03  0.12508386521E+03 0.  0.
          5    1    3    3  502    0  0.11194090235E+02 -0.14130958377E+02 -0.35161242728E+01  0.18836856711E+02  0.41800000000E+01 0.  1.
         -5    1    3    3    0  502 -0.89231695503E+02  0.67398781080E+02  0.24108032519E+03  0.26578579113E+03  0.41800000000E+01 0.  1.
        -11    1    1    2    0    0  0.38284380120E+02 -0.64432084452E+02  0.33781071235E+02  0.82209172491E+02  0.00000000000E+00 0.  1.
         11    1    1    2    0    0  0.39753225149E+02  0.11164261749E+02  0.99902628625E+02  0.10809946742E+03  0.00000000000E+00 0. -1.
</event>
<event>
 7    1  0.2644565E-009  0.6905390E+02  0.7561462E-02  0.1363340E+00
         -1   -1    0    0    0  501 -0.00000000000E+00  0.00000000000E+00  0.89605949899E+02  0.89605949899E+02  0.00000000000E+00 0.  1.
          1   -1    0    0  501    0  0.00000000000E+00 -0.00000000000E+00 -0.21215385804E+03  0.21215385804E+03  0.00000000000E+00 0. -1.
         25    2    1    2    0    0 -0.16793891965E+02  0.41079375359E+02  0.12518016540E+02  0.13331799952E+03  0.12508972128E+03 0.  0.
          5    1    3    3  502    0 -0.10027719133E+02  0.47703776085E+02  0.64139288915E+02  0.80669239405E+02  0.41800000000E+01 0. -1.
         -5    1    3    3    0  502 -0.67661728324E+01 -0.66244007256E+01 -0.51621272375E+02  0.52648760113E+02  0.41800000000E+01 0. -1.
        -11    1    1    2    0    0  0.54660701788E+01  0.17930211324E+02 -0.93544933063E+02  0.95404532928E+02  0.00000000000E+00 0. -1.
         11    1    1    2    0    0  0.11327821786E+02 -0.59009586683E+02 -0.41520991621E+02  0.73037275498E+02  0.00000000000E+00 0.  1.
</event>
<event>
 7    1  0.2644565E-009  0.1398034E+03  0.7561462E-02  0.1213594E+00
          1   -1    0    0  501    0  0.00000000000E+00  0.00000000000E+00  0.13548496103E+03  0.13548496103E+03  0.00000000000E+00 0. -1.
         -1   -1    0    0    0  501 -0.00000000000E+00 -0.00000000000E+00 -0.16062455706E+03  0.16062455706E+03  0.00000000000E+00 0.  1.
         25    2    1    2    0    0 -0.77312651603E+02  0.56576927903E+02 -0.11584953215E+02  0.15798326080E+03  0.12508518971E+03 0.  0.
          5    1    3    3  502    0 -0.10609338431E+03  0.66445422227E+02 -0.18198031764E+02  0.12656793073E+03  0.41800000000E+01 0. -1.
         -5    1    3    3    0  502  0.28780732710E+02 -0.98684943236E+01  0.66130785493E+01  0.31415330070E+02  0.41800000000E+01 0. -1.
        -11    1    1    2    0    0  0.14239303517E+02 -0.58830179432E+02 -0.36834960910E+02  0.70855925101E+02  0.00000000000E+00 0.  1.
         11    1    1    2    0    0  0.63073348087E+02  0.22532515288E+01  0.23280318094E+02  0.67270332182E+02  0.00000000000E+00 0. -1.
</event>
<event>
 7    1  0.2644565E-009  0.9703483E+02  0.7561462E-02  0.1286658E+00
         -1   -1    0    0    0  501 -0.00000000000E+00  0.00000000000E+00  0.13649642730E+03  0.13649642730E+03  0.00000000000E+00 0.  1.
          1   -1    0    0  501    0  0.00000000000E+00 -0.00000000000E+00 -0.11502993317E+03  0.11502993317E+03  0.00000000000E+00 0. -1.
         25    2    1    2    0    0  0.96417235363E+01  0.11346179738E+02  0.72391731268E+02  0.14529373761E+03  0.12509200137E+03 0.  0.
          5    1    3    3  502    0  0.55556935434E+02 -0.89988147825E+01  0.76122890710E+02  0.94761377324E+02  0.41800000000E+01 0.  1.
         -5    1    3    3    0  502 -0.45915211897E+02  0.20344994521E+02 -0.37311594418E+01  0.50532360289E+02  0.41800000000E+01 0.  1.
        -11    1    1    2    0    0  0.11866091730E+02 -0.45420391510E+02 -0.45849045844E+02  0.65619746286E+02  0.00000000000E+00 0. -1.
         11    1    1    2    0    0 -0.21507815266E+02  0.34074211771E+02 -0.50761912878E+01  0.40612876571E+02  0.00000000000E+00 0.  1.
</event>
<event>
 7    1  0.2644565E-009  0.1109111E+03  0.7561462E-02  0.1258892E+00
          3   -1    0    0  501    0  0.00000000000E+00  0.00000000000E+00  0.51278252424E+02  0.51278252424E+02  0.00000000000E+00 0. -1.
         -3   -1    0    0    0  501 -0.00000000000E+00 -0.00000000000E+00 -0.27876887685E+03  0.27876887685E+03  0.00000000000E+00 0.  1.
         25    2    1    2    0    0  0.39362308848E+02  0.17203360615E+02 -0.87860596394E+02  0.15874610895E+03  0.12504197588E+03 0.  0.
          5    1    3    3  502    0 -0.40275658538E+02  0.30347523995E+02 -0.25517077046E+02  0.56671814020E+02  0.41800000000E+01 0. -1.
         -5    1    3    3    0  502  0.79637967386E+02 -0.13144163381E+02 -0.62343519348E+02  0.10207429493E+03  0.41800000000E+01 0. -1.
        -11    1    1    2    0    0 -0.31214641918E+01  0.30404486330E+02 -0.84820354780E+02  0.90159131055E+02  0.00000000000E+00 0.  1.
         11    1    1    2    0    0 -0.36240844656E+02 -0.47607846945E+02 -0.54809673249E+02  0.81141889267E+02  0.00000000000E+00 0. -1.
</event>
<event>
 7    1  0.2644565E-009  0.1971084E+03  0.7561462E-02  0.1152202E+00
          2   -1    0    0  501    0  0.00000000000E+00  0.00000000000E+00  0.20364819852E+03  0.20364819852E+03  0.00000000000E+00 0. -1.
         -2   -1    0    0    0  501 -0.00000000000E+00 -0.00000000000E+00 -0.33092837617E+03  0.33092837617E+03  0.00000000000E+00 0.  1.
         25    2    1    2    0    0 -0.20469627571E+02 -0.18240153626E+03 -0.21763120148E+03  0.31096558759E+03  0.12508769214E+03 0.  0.
          5    1    3    3  502    0 -0.17715325740E+02 -0.18724559814E+03 -0.22977488602E+03  0.29696585230E+03  0.41800000000E+01 0.  1.
         -5    1    3    3    0  502 -0.27543018309E+01  0.48440618771E+01  0.12143684538E+02  0.13999735291E+02  0.41800000000E+01 0.  1.
        -11    1    1    2    0    0 -0.27529860614E+02  0.10039939933E+03  0.21582598446E+02  0.10631905364E+03  0.00000000000E+00 0.  1.
         11    1    1    2    0    0  0.47999488185E+02  0.82002136931E+02  0.68768425375E+02  0.11729193346E+03  0.00000000000E+00 0. -1.
</event>
<event>
 7    1  0.2644565E-009  0.1838934E+03  0.7561462E-02  0.1164087E+00
         -1   -1    0    0    0  501 -0.00000000000E+00  0.00000000000E+00  0.37738818462E+02  0.37738818462E+02  0.00000000000E+00 0.  1.
          1   -1    0    0  501    0  0.00000000000E+00 -0.00000000000E+00 -0.10645024154E+04  0.10645024154E+04  0.00000000000E+00 0. -1.
         25    2    1    2    0    0  0.11254228571E+02  0.16692565893E+03 -0.57880793108E+03  0.61535108770E+03  0.12508999470E+03 0.  0.
          5    1    3    3  502    0 -0.24666547148E+02  0.13546007952E+03 -0.27274666692E+03  0.30555864970E+03  0.41800000000E+01 0. -1.
         -5    1    3    3    0  502  0.35920775719E+02  0.31465579407E+02 -0.30606126417E+03  0.30979243800E+03  0.41800000000E+01 0. -1.
        -11    1    1    2    0    0  0.29162918674E+02 -0.44763148243E+02 -0.20637288230E+03  0.21317594099E+03  0.00000000000E+00 0. -1.
         11    1    1    2    0    0 -0.40417147245E+02 -0.12216251069E+03 -0.24158278357E+03  0.27371420520E+03  0.00000000000E+00 0.  1.
</event>
<event>
 7    1  0.2644565E-009  0.9499224E+02  0.7561462E-02  0.1291194E+00
          3   -1    0    0  501    0  0.00000000000E+00  0.00000000000E+00  0.38023463288E+02  0.38023463288E+02  0.00000000000E+00 0. -1.
         -3   -1    0    0    0  501 -0.00000000000E+00 -0.00000000000E+00 -0.36149306102E+03  0.36149306102E+03  0.00000000000E+00 0.  1.
         25    2    1    2    0    0 -0.32484258929E+02  0.27581054104E+02 -0.16668015069E+03  0.21271117208E+03  0.12509128055E+03 0.  0.
          5    1    3    3  502    0  0.40156543188E+02 -0.20150379989E+02 -0.58032227518E+02  0.73510527172E+02  0.41800000000E+01 0. -1.
         -5    1    3    3    0  502 -0.72640802116E+02  0.47731434093E+02 -0.10864792317E+03  0.13920064491E+03  0.41800000000E+01 0. -1.
        -11    1    1    2    0    0  0.21616380295E+01 -0.27433946038E+02 -0.41921550538E+00  0.27522169533E+02  0.00000000000E+00 0. -1.
         11    1    1    2    0    0  0.30322620899E+02 -0.14710806643E+00 -0.15637023153E+03  0.15928318269E+03  0.00000000000E+00 0.  1.
</event>
<event>
 7    1  0.2644565E-009  0.1163459E+03  0.7561462E-02  0.1249250E+00
         -2   -1    0    0    0  501 -0.00000000000E+00  0.00000000000E+00  0.16417258956E+03  0.16417258956E+03  0.00000000000E+00 0.  1.
          2   -1    0    0  501    0  0.00000000000E+00 -0.00000000000E+00 -0.14676919226E+03  0.14676919226E+03  0.00000000000E+00 0. -1.
         25    2    1    2    0    0 -0.10854476874E+03  0.17217407039E+02  0.53934731143E+01  0.16660026234E+03  0.12509257346E+03 0.  0.
          5    1    3    3  502    0 -0.40082015251E+02  0.20952043042E+02 -0.57629897873E+02  0.73377336985E+02  0.41800000000E+01 0. -1.
         -5    1    3    3    0  502 -0.68462753486E+02 -0.37346360038E+01  0.63023370987E+02  0.93222925354E+02  0.41800000000E+01 0. -1.
        -11    1    1    2    0    0  0.15191400246E+02  0.13478561746E+02  0.37652626861E+02  0.42780492958E+02  0.00000000000E+00 0.  1.
         11    1    1    2    0    0  0.93353368492E+02 -0.30695968784E+02 -0.25642702680E+02  0.10156102653E+03  0.00000000000E+00 0. -1.
</event>
<event>
 7    1  0.2644565E-009  0.1970482E+03  0.7561462E-02  0.1152254E+00
          1   -1    0    0  501    0  0.00000000000E+00  0.00000000000E+00  0.57436740084E+02  0.57436740084E+02  0.00000000000E+00 0. -1.
         -1   -1    0    0    0  501 -0.00000000000E+00 -0.00000000000E+00 -0.86917462953E+03  0.86917462953E+03  0.00000000000E+00 0.  1.
         25    2    1    2    0    0 -0.44445739530E+01 -0.18990106555E+03 -0.33068084523E+03  0.40133774940E+03  0.12505998064E+03 0.  0.
          5    1    3    3  502    0 -0.21428761810E+02 -0.18451344944E+03 -0.33450295429E+03  0.38264095924E+03  0.41800000000E+01 0. -1.
         -5    1    3    3    0  502  0.16984187857E+02 -0.53876161126E+01  0.38221090663E+01  0.18696790159E+02  0.41800000000E+01 0. -1.
        -11    1    1    2    0    0  0.36273013944E+01  0.73216134720E+02 -0.84308810890E+02  0.11172168676E+03  0.00000000000E+00 0.  1.
         11    1    1    2    0    0  0.81727255860E+00  0.11668493083E+03 -0.39674823333E+03  0.41355193345E+03  0.00000000000E+00 0. -1.
</event>
<event>
 7    1  0.2644565E-009  0.8374602E+02  0.7561462E-02  0.1318745E+00
         -4   -1    0    0    0  501 -0.00000000000E+00  0.00000000000E+00  0.34246841403E+02  0.34246841403E+02  0.00000000000E+00 0.  1.
          4   -1    0    0  501    0  0.00000000000E+00 -0.00000000000E+00 -0.37845335025E+03  0.37845335025E+03  0.00000000000E+00 0. -1.
         25    2    1    2    0    0  0.75116998752E+01 -0.73580371949E+01 -0.24895387532E+03  0.27881207949E+03  0.12509027655E+03 0.  0.
          5    1    3    3  502    0 -0.36897236407E+02 -0.24002410993E+02 -0.21703482804E+03  0.22149291359E+03  0.41800000000E+01 0.  1.
         -5    1    3    3    0  502  0.44408936283E+02  0.16644373798E+02 -0.31919047285E+02  0.57319165909E+02  0.41800000000E+01 0.  1.
        -11    1    1    2    0    0  0.21534852065E+02 -0.24457255139E+02 -0.38141478707E+01  0.32809372234E+02  0.00000000000E+00 0.  1.
         11    1    1    2    0    0 -0.29046551941E+02  0.31815292334E+02 -0.91438485653E+02  0.10107873992E+03  0.00000000000E+00 0. -1.
</event>
<event>
 7    1  0.2644565E-009  0.1282807E+03  0.7561462E-02  0.1230029E+00
          2   -1    0    0  501    0  0.00000000000E+00  0.00000000000E+00  0.20646984120E+03  0.20646984120E+03  0.00000000000E+00 0.  1.
         -2   -1    0    0    0  501 -0.00000000000E+00 -0.00000000000E+00 -0.12823903962E+03  0.12823903962E+03  0.00000000000E+00 0. -1.
         25    2    1    2    0    0 -0.11838906907E+03 -0.96822991817E+01  0.24723200452E+02  0.17426225885E+03  0.12508548927E+03 0.  0.
          5    1    3    3  502    0 -0.26949569942E+02 -0.59212805424E+01  0.67584294587E+02  0.73119423946E+02  0.41800000000E+01 0.  1.
         -5    1    3    3    0  502 -0.91439499131E+02 -0.37610186392E+01 -0.42861094135E+02  0.10114283491E+03  0.41800000000E+01 0.  1.
        -11    1    1    2    0    0  0.85904009260E+02 -0.25053688875E+02  0.84433970703E+00  0.89486865197E+02  0.00000000000E+00 0. -1.
         11    1    1    2    0    0  0.32485059812E+02  0.34735988057E+02  0.52663261425E+02  0.70959756773E+02  0.00000000000E+00 0.  1.
</event>
<event>
 7    1  0.2644565E-009  0.1088749E+03  0.7561462E-02  0.1262668E+00
         -2   -1    0    0    0  501 -0.00000000000E+00  0.00000000000E+00  0.10289638950E+03  0.10289638950E+03  0.00000000000E+00 0.  1.
          2   -1    0    0  501    0  0.00000000000E+00 -0.00000000000E+00 -0.14355080532E+03  0.14355080532E+03  0.00000000000E+00 0. -1.
         25    2    1    2    0    0 -0.75354618959E+01  0.39968699272E+02 -0.39421946252E+02  0.13731630661E+03  0.12508956034E+03 0.  0.
          5    1    3    3  502    0  0.52978795226E+02 -0.65962206049E+01 -0.26544513636E+02  0.59769109697E+02  0.41800000000E+01 0. -1.
         -5    1    3    3    0  502 -0.60514257121E+02  0.46564919877E+02 -0.12877432616E+02  0.77547196912E+02  0.41800000000E+01 0. -1.
        -11    1    1    2    0    0  0.39317781240E+02 -0.36804897661E+01 -0.32923335952E+02  0.51413811148E+02  0.00000000000E+00 0. -1.
         11    1    1    2    0    0 -0.31782319344E+02 -0.36288209506E+02  0.31690866387E+02  0.57717077061E+02  0.00000000000E+00 0.  1.
</event>
<event>
 7    1  0.2644565E-009  0.1292416E+03  0.7561462E-02  0.1228585E+00
          1   -1    0    0  501    0  0.00000000000E+00  0.00000000000E+00  0.43483895578E+02  0.43483895578E+02  0.00000000000E+00 0. -1.
         -1   -1    0    0    0  501 -0.00000000000E+00 -0.00000000000E+00 -0.65161729938E+03  0.65161729938E+03  0.00000000000E+00 0.  1.
         25    2    1    2    0    0  0.89220212624E+02  0.26748578443E+01 -0.51443632077E+03  0.53689764766E+03  0.12508778810E+03 0.  0.
          5    1    3    3  502    0  0.68403856750E+02  0.60807565252E+02 -0.31900415375E+03  0.33190024121E+03  0.41800000000E+01 0.  1.
         -5    1    3    3    0  502  0.20816355874E+02 -0.58132707407E+02 -0.19543216702E+03  0.20499740644E+03  0.41800000000E+01 0.  1.
        -11    1    1    2    0    0 -0.28186452361E+02 -0.27226170497E+02 -0.82684918206E+02  0.91501563677E+02  0.00000000000E+00 0.  1.
         11    1    1    2    0    0 -0.61033760262E+02  0.24551312653E+02 -0.11012164827E+02  0.66701983620E+02  0.00000000000E+00 0. -1.
</event>
<event>
 7    1  0.2644565E-009  0.9127967E+02  0.7561462E-02  0.1299782E+00
          2   -1    0    0  501    0  0.00000000000E+00  0.00000000000E+00  0.13727100486E+03  0.13727100486E+03  0.00000000000E+00 0. -1.
         -2   -1    0    0    0  501 -0.00000000000E+00 -0.00000000000E+00 -0.11100424885E+03  0.11100424885E+03  0.00000000000E+00 0.  1.
         25    2    1    2    0    0  0.17726781434E+02  0.61617462385E+01  0.75809413628E+02  0.14746622338E+03  0.12508802480E+03 0.  0.
          5    1    3    3  502    0  0.57972978987E+02  0.48414507863E+01 -0.34914317324E+01  0.58429174509E+02  0.41800000000E+01 0.  1.
         -5    1    3    3    0  502 -0.40246197552E+02  0.13202954521E+01  0.79300845360E+02  0.89037048875E+02  0.41800000000E+01 0.  1.
        -11    1    1    2    0    0  0.13397220798E+02  0.31890703657E+02 -0.35763210502E+02  0.49754494573E+02  0.00000000000E+00 0.  1.
         11    1    1    2    0    0 -0.31124002232E+02 -0.38052449896E+02 -0.13779447110E+02  0.51054535750E+02  0.00000000000E+00 0. -1.
</event>
<event>
 7    1  0.2644565E-009  0.1434918E+03  0.7561462E-02  0.1208706E+00
         -1   -1    0    0    0  501 -0.00000000000E+00  0.00000000000E+00  0.77651918497E+02  0.77651918497E+02  0.00000000000E+00 0.  1.
          1   -1    0    0  501    0  0.00000000000E+00 -0.00000000000E+00 -0.42155871181E+03  0.42155871181E+03  0.00000000000E+00 0. -1.
         25    2    1    2    0    0  0.88211622159E+02  0.57472245687E+02 -0.36198702622E+02  0.16745664887E+03  0.12508810444E+03 0.  0.
          5    1    3    3  502    0 -0.31923049766E+02  0.76381445149E+01 -0.34310508571E+01  0.33266602892E+02  0.41800000000E+01 0. -1.
         -5    1    3    3    0  502  0.12013467192E+03  0.49834101172E+02 -0.32767651765E+02  0.13419004598E+03  0.41800000000E+01 0. -1.
        -11    1    1    2    0    0 -0.50190453790E+02  0.52041278889E+01 -0.13559413980E+03  0.14467873150E+03  0.00000000000E+00 0. -1.
         11    1    1    2    0    0 -0.38021168369E+02 -0.62676373576E+02 -0.17211395088E+03  0.18707524993E+03  0.00000000000E+00 0.  1.
</event>
<event>
 7    1  0.2644565E-009  0.1783041E+03  0.7561462E-02  0.1169454E+00
         -1   -1    0    0    0  501 -0.00000000000E+00  0.00000000000E+00  0.62004188296E+02  0.62004188296E+02  0.00000000000E+00 0.  1.
          1   -1    0    0  501    0  0.00000000000E+00 -0.00000000000E+00 -0.80295376532E+03  0.80295376532E+03  0.00000000000E+00 0. -1.
         25    2    1    2    0    0  0.28629318265E+02  0.16414972923E+03 -0.58288133846E+03  0.61900035663E+03  0.12508403300E+03 0.  0.
          5    1    3    3  502    0  0.33689001072E+02  0.16543613065E+03 -0.37801877085E+03  0.41402865316E+03  0.41800000000E+01 0. -1.
         -5    1    3    3    0  502 -0.50596828074E+01 -0.12864014130E+01 -0.20486256761E+03  0.20497170348E+03  0.41800000000E+01 0. -1.
        -11    1    1    2    0    0  0.10107726878E+02 -0.12688099434E+03 -0.14008671436E+03  0.18927556739E+03  0.00000000000E+00 0. -1.
         11    1    1    2    0    0 -0.38737045143E+02 -0.37268734889E+02 -0.17981524194E+02  0.56682029595E+02  0.00000000000E+00 0.  1.
</event>
<event>
 7    1  0.2990992E-009  0.1900287E+03  0.7561462E-02  0.1158435E+00
          1   -1    0    0  501    0  0.00000000000E+00  0.00000000000E+00  0.66539854650E+03  0.66539854650E+03  0.00000000000E+00 0. -1.
         -1   -1    0    0    0  501 -0.00000000000E+00 -0.00000000000E+00 -0.66124383159E+02  0.66124383159E+02  0.00000000000E+00 0.  1.
         25    2    1    2    0    0  0.10726943517E+03 -0.14040369809E+03  0.36144180743E+03  0.42131686141E+03  0.12509111636E+03 0.  0.
          5    1    3    3  502    0  0.27870681153E+02 -0.72508682263E+02  0.49224831122E+02  0.92058895662E+02  0.41800000000E+01 0.  1.
         -5    1    3    3    0  502  0.79398754014E+02 -0.67895015822E+02  0.31221697631E+03  0.32925796575E+03  0.41800000000E+01 0.  1.
        -11    1    1    2    0    0 -0.57962877612E+02  0.10687251636E+02  0.54503647073E+02  0.80278017369E+02  0.00000000000E+00 0.  1.
         11    1    1    2    0    0 -0.49306557556E+02  0.12971644645E+03  0.18332870883E+03  0.22992805088E+03  0.00000000000E+00 0. -1.
</event>
<event>
 7    1  0.2644565E-009  0.1217029E+03  0.7561462E-02  0.1240314E+00
         -2   -1    0    0    0  501 -0.00000000000E+00  0.00000000000E+00  0.10198575604E+02  0.10198575604E+02  0.00000000000E+00 0.  1.
          2   -1    0    0  501    0  0.00000000000E+00 -0.00000000000E+00 -0.18060693934E+04  0.18060693934E+04  0.00000000000E+00 0. -1.
         25    2    1    2    0    0 -0.67074503509E+02  0.10138301368E+02 -0.13133837406E+04  0.13210701576E+04  0.12509091510E+03 0.  0.
          5    1    3    3  502    0 -0.99099180888E+02  0.18229672791E+01 -0.11527632916E+04  0.11570240489E+04  0.41800000000E+01 0.  1.
         -5    1    3    3    0  502  0.32024677379E+02  0.83153340887E+01 -0.16062044896E+03  0.16404610866E+03  0.41800000000E+01 0.  1.
        -11    1    1    2    0    0  0.85926271137E+02  0.58616295709E+01 -0.39521895541E+03  0.40449438252E+03  0.00000000000E+00 0.  1.
         11    1    1    2    0    0 -0.18851767628E+02 -0.15999930939E+02 -0.87268121786E+02  0.90703428892E+02  0.00000000000E+00 0. -1.
</event>
<event>
 7    1  0.2644565E-009  0.1084385E+03  0.7561462E-02  0.1263489E+00
         -3   -1    0    0    0  501 -0.00000000000E+00  0.00000000000E+00  0.94824801293E+02  0.94824801293E+02  0.00000000000E+00 0.  1.
          3   -1    0    0  501    0  0.00000000000E+00 -0.00000000000E+00 -0.20065005142E+03  0.20065005142E+03  0.00000000000E+00 0. -1.
         25    2    1    2    0    0 -0.18161437704E+01  0.49735121778E+02 -0.13174910362E+03  0.18836931537E+03  0.12509313312E+03 0.  0.
          5    1    3    3  502    0  0.23583400043E+02  0.74762010172E+02 -0.36493263664E+02  0.86572314370E+02  0.41800000000E+01 0. -1.
         -5    1    3    3    0  502 -0.25399543813E+02 -0.25026888393E+02 -0.95255839952E+02  0.10179700100E+03  0.41800000000E+01 0. -1.
        -11    1    1    2    0    0  0.28426909124E+02  0.15241750835E+02  0.16594345313E+02  0.36273577536E+02  0.00000000000E+00 0.  1.
         11    1    1    2    0    0 -0.26610765353E+02 -0.64976872613E+02  0.93295081728E+01  0.70831959807E+02  0.00000000000E+00 0. -1.
</event>
<event>
 7    1  0.2644565E-009  0.1486358E+03  0.7561462E-02  0.1202159E+00
         -2   -1    0    0    0  501 -0.00000000000E+00  0.00000000000E+00  0.44428219912E+02  0.44428219912E+02  0.00000000000E+00 0. -1.
          2   -1    0    0  501    0  0.00000000000E+00 -0.00000000000E+00 -0.58032596186E+03  0.58032596186E+03  0.00000000000E+00 0.  1.
         25    2    1    2    0    0 -0.10802621936E+03  0.41672342761E+02 -0.22709511071E+03  0.28396811846E+03  0.12513774318E+03 0.  0.
          5    1    3    3  502    0 -0.90058608988E+02  0.74819470683E+02 -0.10934032896E+03  0.16025381800E+03  0.41800000000E+01 0. -1.
         -5    1    3    3    0  502 -0.17967610374E+02 -0.33147127922E+02 -0.11775478175E+03  0.12371430045E+03  0.41800000000E+01 0. -1.
        -11    1    1    2    0    0  0.12100235833E+03 -0.29861593917E+02 -0.24880623345E+03  0.27827653030E+03  0.00000000000E+00 0. -1.
         11    1    1    2    0    0 -0.12976138967E+02 -0.11810748844E+02 -0.59996397789E+02  0.62509533020E+02  0.00000000000E+00 0.  1.
</event>
<event>
 7    1  0.2644565E-009  0.1538328E+03  0.7561462E-02  0.1195841E+00
         -2   -1    0    0    0  501 -0.00000000000E+00  0.00000000000E+00  0.11528357019E+03  0.11528357019E+03  0.00000000000E+00 0. -1.
          2   -1    0    0  501    0  0.00000000000E+00 -0.00000000000E+00 -0.30250425108E+03  0.30250425108E+03  0.00000000000E+00 0.  1.
         25    2    1    2    0    0 -0.48627338364E+02  0.11822641481E+03 -0.21484280716E+03  0.27954806509E+03  0.12509031022E+03 0.  0.
          5    1    3    3  502    0  0.35113186106E+02  0.73472367799E+02 -0.77249754955E+02  0.11232151045E+03  0.41800000000E+01 0. -1.
         -5    1    3    3    0  502 -0.83740524470E+02  0.44754047016E+02 -0.13759305220E+03  0.16722655464E+03  0.41800000000E+01 0. -1.
        -11    1    1    2    0    0  0.10710955546E+02 -0.64164921304E+02  0.31122916534E+02  0.72114475858E+02  0.00000000000E+00 0. -1.
         11    1    1    2    0    0  0.37916382818E+02 -0.54061493511E+02 -0.35007902668E+01  0.66125280333E+02  0.00000000000E+00 0.  1.
</event>
<event>
 7    1  0.2644565E-009  0.8527625E+02  0.7561462E-02  0.1314712E+00
          1   -1    0    0  501    0  0.00000000000E+00  0.00000000000E+00  0.28732205909E+02  0.28732205909E+02  0.00000000000E+00 0. -1.
         -1   -1    0    0    0  501 -0.00000000000E+00 -0.00000000000E+00 -0.59301052108E+03  0.59301052108E+03  0.00000000000E+00 0.  1.
         25    2    1    2    0    0 -0.26440411957E+02 -0.12722034620E+02 -0.15431322831E+03  0.20080245899E+03  0.12509240407E+03 0.  0.
          5    1    3    3  502    0 -0.25011989822E+02 -0.40051176231E+02 -0.16458397819E+03  0.17127479274E+03  0.41800000000E+01 0. -1.
         -5    1    3    3    0  502 -0.14284221349E+01  0.27329141611E+02  0.10270749880E+02  0.29527666248E+02  0.41800000000E+01 0. -1.
        -11    1    1    2    0    0 -0.19058952951E+02 -0.28355491449E+02 -0.15188964542E+03  0.15568475188E+03  0.00000000000E+00 0.  1.
         11    1    1    2    0    0  0.45499364908E+02  0.41077526069E+02 -0.25807544145E+03  0.26525551613E+03  0.00000000000E+00 0. -1.
</event>
<event>
 7    1  0.2644565E-009  0.9295331E+02  0.7561462E-02  0.1295853E+00
         -2   -1    0    0    0  501 -0.00000000000E+00  0.00000000000E+00  0.12308374582E+02  0.12308374582E+02  0.00000000000E+00 0.  1.
          2   -1    0    0  501    0  0.00000000000E+00 -0.00000000000E+00 -0.93415241664E+03  0.93415241664E+03  0.00000000000E+00 0. -1.
         25    2    1    2    0    0 -0.21807703380E+02 -0.81759460836E+01 -0.54980103285E+03  0.56433186520E+03  0.12508739477E+03 0.  0.
          5    1    3    3  502    0 -0.34413531203E+02 -0.49349126675E+02 -0.46730355645E+03  0.47117906756E+03  0.41800000000E+01 0.  1.
         -5    1    3    3    0  502  0.12605827822E+02  0.41173180592E+02 -0.82497476400E+02  0.93152797636E+02  0.41800000000E+01 0.  1.
        -11    1    1    2    0    0  0.38716675079E+02 -0.24307889482E+02 -0.26699935868E+03  0.27088468387E+03  0.00000000000E+00 0. -1.
         11    1    1    2    0    0 -0.16908971699E+02  0.32483835565E+02 -0.10504365053E+03  0.11124424216E+03  0.00000000000E+00 0.  1.
</event>
<event>
 7    1  0.2644565E-009  0.1568498E+03  0.7561462E-02  0.1192300E+00
          2   -1    0    0  501    0  0.00000000000E+00  0.00000000000E+00  0.25597405701E+03  0.25597405701E+03  0.00000000000E+00 0.  1.
         -2   -1    0    0    0  501 -0.00000000000E+00 -0.00000000000E+00 -0.25179993574E+03  0.25179993574E+03  0.00000000000E+00 0. -1.
         25    2    1    2    0    0  0.73096717506E+02  0.98078926922E+02 -0.19153308341E+03  0.25941381018E+03  0.12509195359E+03 0.  0.
          5    1    3    3  502    0 -0.25109154588E+02  0.37800594856E+02 -0.10742586873E+03  0.11669252027E+03  0.41800000000E+01 0.  1.
         -5    1    3    3    0  502  0.98205872094E+02  0.60278332066E+02 -0.84107214687E+02  0.14272128991E+03  0.41800000000E+01 0.  1.
        -11    1    1    2    0    0 -0.18676668389E+02 -0.96592455512E+02  0.12999548948E+03  0.16302683120E+03  0.00000000000E+00 0.  1.
         11    1    1    2    0    0 -0.54420049117E+02 -0.14864714098E+01  0.65711715197E+02  0.85333351377E+02  0.00000000000E+00 0. -1.
</event>
<event>
 7    1  0.2644565E-009  0.2223881E+03  0.7561462E-02  0.1132115E+00
          1   -1    0    0  501    0  0.00000000000E+00  0.00000000000E+00  0.77927595586E+02  0.77927595586E+02  0.00000000000E+00 0. -1.
         -1   -1    0    0    0  501 -0.00000000000E+00 -0.00000000000E+00 -0.83161070108E+03  0.83161070108E+03  0.00000000000E+00 0.  1.
         25    2    1    2    0    0  0.15973546762E+03 -0.15331858094E+03 -0.27153765479E+03  0.37202500093E+03  0.12509155236E+03 0.  0.
          5    1    3    3  502    0  0.12224986615E+03 -0.12285374955E+03 -0.11472472547E+03  0.20788773073E+03  0.41800000000E+01 0. -1.
         -5    1    3    3    0  502  0.37485601467E+02 -0.30464831391E+02 -0.15681292931E+03  0.16413727020E+03  0.41800000000E+01 0. -1.
        -11    1    1    2    0    0 -0.56670005698E+02  0.37833710501E+02 -0.24518531669E+03  0.25447734421E+03  0.00000000000E+00 0.  1.
         11    1    1    2    0    0 -0.10306546192E+03  0.11548487044E+03 -0.23696013401E+03  0.28303595152E+03  0.00000000000E+00 0. -1.
</event>
<event>
 7    1  0.2644565E-009  0.1065282E+03  0.7561462E-02  0.1267138E+00
         -1   -1    0    0    0  501 -0.00000000000E+00  0.00000000000E+00  0.92524257454E+02  0.92524257454E+02  0.00000000000E+00 0.  1.
          1   -1    0    0  501    0  0.00000000000E+00 -0.00000000000E+00 -0.15169049906E+03  0.15169049906E+03  0.00000000000E+00 0. -1.
         25    2    1    2    0    0  0.17326301300E+02 -0.21918397170E+02 -0.73976302876E+02  0.14798688853E+03  0.12508800477E+03 0.  0.
          5    1    3    3  502    0 -0.50946439329E+02 -0.27949921731E+02 -0.44266303860E+02  0.73169090895E+02  0.41800000000E+01 0.  1.
         -5    1    3    3    0  502  0.68272740628E+02  0.60315245611E+01 -0.29709999015E+02  0.74817797635E+02  0.41800000000E+01 0.  1.
        -11    1    1    2    0    0 -0.15884445984E+02  0.52839719553E+02  0.28821255695E+02  0.62249629449E+02  0.00000000000E+00 0.  1.
         11    1    1    2    0    0 -0.14418553155E+01 -0.30921322384E+02 -0.14011194424E+02  0.33978238534E+02  0.00000000000E+00 0. -1.
</event>
<event>
 7    1  0.2644565E-009  0.1538338E+03  0.7561462E-02  0.1195840E+00
         -2   -1    0    0    0  501 -0.00000000000E+00  0.00000000000E+00  0.27867238079E+02  0.27867238079E+02  0.00000000000E+00 0.  1.
          2   -1    0    0  501    0  0.00000000000E+00 -0.00000000000E+00 -0.12764459638E+04  0.12764459638E+04  0.00000000000E+00 0. -1.
         25    2    1    2    0    0 -0.13898198201E+03  0.39597589896E+02 -0.83705440286E+03  0.85859848418E+03  0.12508926111E+03 0.  0.
          5    1    3    3  502    0 -0.82038349162E+02  0.52395692881E+02 -0.73107256697E+03  0.73753655499E+03  0.41800000000E+01 0. -1.
         -5    1    3    3    0  502 -0.56943632847E+02 -0.12798102985E+02 -0.10598183588E+03  0.12106192919E+03  0.41800000000E+01 0. -1.
        -11    1    1    2    0    0  0.62982501654E+01  0.85088072147E+01  0.79086450023E-01  0.10586501312E+02  0.00000000000E+00 0.  1.
         11    1    1    2    0    0  0.13268373184E+03 -0.48106397111E+02 -0.41160340936E+03  0.43512821643E+03  0.00000000000E+00 0. -1.
</event>
<event>
 7    1  0.2644565E-009  0.1088234E+03  0.7561462E-02  0.1262764E+00
         -2   -1    0    0    0  501 -0.00000000000E+00  0.00000000000E+00  0.16612529092E+02  0.16612529092E+02  0.00000000000E+00 0. -1.
          2   -1    0    0  501    0  0.00000000000E+00 -0.00000000000E+00 -0.12355653400E+04  0.12355653400E+04  0.00000000000E+00 0.  1.
         25    2    1    2    0    0 -0.36134748850E+01 -0.55943800084E+02 -0.99030582273E+03  0.99974707596E+03  0.12508328182E+03 0.  0.
          5    1    3    3  502    0  0.45233645355E+02 -0.18732081867E+02 -0.16530223485E+03  0.17245078953E+03  0.41800000000E+01 0. -1.
         -5    1    3    3    0  502 -0.48847120240E+02 -0.37211718217E+02 -0.82500358787E+03  0.82729628643E+03  0.41800000000E+01 0. -1.
        -11    1    1    2    0    0 -0.35121052221E+02 -0.42543827525E+01 -0.76826229072E+02  0.84580479752E+02  0.00000000000E+00 0.  1.
         11    1    1    2    0    0  0.38734527106E+02  0.60198182837E+02 -0.15182075915E+03  0.16785031342E+03  0.00000000000E+00 0. -1.
</event>
<event>
 7    1  0.2644565E-009  0.9213183E+02  0.7561462E-02  0.1297770E+00
          1   -1    0    0  501    0  0.00000000000E+00  0.00000000000E+00  0.73506496128E+03  0.73506496128E+03  0.00000000000E+00 0. -1.
         -1   -1    0    0    0  501 -0.00000000000E+00 -0.00000000000E+00 -0.22046850819E+02  0.22046850819E+02  0.00000000000E+00 0.  1.
         25    2    1    2    0    0  0.79717454896E+01 -0.19267592179E+02  0.58637455632E+03  0.59993094250E+03  0.12508887494E+03 0.  0.
          5    1    3    3  502    0 -0.95837475280E+01  0.51007875734E+02  0.19185305885E+03  0.19879315932E+03  0.41800000000E+01 0.  1.
         -5    1    3    3    0  502  0.17555493018E+02 -0.70275467912E+02  0.39452149747E+03  0.40113778318E+03  0.41800000000E+01 0.  1.
        -11    1    1    2    0    0 -0.22973665260E+02  0.32388752127E+02  0.12970533309E+02  0.41773858981E+02  0.00000000000E+00 0.  1.
         11    1    1    2    0    0  0.15001919770E+02 -0.13121159948E+02  0.11367302084E+03  0.11540701063E+03  0.00000000000E+00 0. -1.
</event>
<event>
 7    1  0.2644565E-009  0.9471126E+02  0.7561462E-02  0.1291828E+00
          2   -1    0    0  501    0  0.00000000000E+00  0.00000000000E+00  0.10490058686E+03  0.10490058686E+03  0.00000000000E+00 0. -1.
         -2   -1    0    0    0  501 -0.00000000000E+00 -0.00000000000E+00 -0.14493039328E+03  0.14493039328E+03  0.00000000000E+00 0.  1.
         25    2    1    2    0    0 -0.57457206347E+02 -0.57127982054E+01 -0.16137416627E+02  0.13871617385E+03  0.12509114296E+03 0.  0.
          5    1    3    3  502    0 -0.73529204469E+02  0.27666862190E+02 -0.45835197287E+02  0.91051287106E+02  0.41800000000E+01 0. -1.
         -5    1    3    3    0  502  0.16071998122E+02 -0.33379660396E+02  0.29697780660E+02  0.47664886740E+02  0.41800000000E+01 0. -1.
        -11    1    1    2    0    0  0.78129655980E+00 -0.13576036763E+02  0.28487619530E+02  0.31566812715E+02  0.00000000000E+00 0. -1.
         11    1    1    2    0    0  0.56675909787E+02  0.19288834969E+02 -0.52380009324E+02  0.79547993573E+02  0.00000000000E+00 0.  1.
</event>
<event>
 7    1  0.2644565E-009  0.1134344E+03  0.7561462E-02  0.1254339E+00
          2   -1    0    0  501    0  0.00000000000E+00  0.00000000000E+00  0.36989336820E+02  0.36989336820E+02  0.00000000000E+00 0. -1.
         -2   -1    0    0    0  501 -0.00000000000E+00 -0.00000000000E+00 -0.35447586832E+03  0.35447586832E+03  0.00000000000E+00 0.  1.
         25    2    1    2    0    0  0.34723141595E+02 -0.17993764531E+02 -0.17956170545E+03  0.22230888720E+03  0.12509741460E+03 0.  0.
          5    1    3    3  502    0  0.25792538374E+02  0.52192496619E+02 -0.99731836996E+02  0.11555614847E+03  0.41800000000E+01 0.  1.
         -5    1    3    3    0  502  0.89306032214E+01 -0.70186261150E+02 -0.79829868457E+02  0.10675273873E+03  0.41800000000E+01 0.  1.
        -11    1    1    2    0    0 -0.57209104605E+02  0.37043653535E+02 -0.89981572023E+02  0.11287956955E+03  0.00000000000E+00 0.  1.
         11    1    1    2    0    0  0.22485963010E+02 -0.19049889005E+02 -0.47943254028E+02  0.56276748399E+02  0.00000000000E+00 0. -1.
</event>
<event>
 7    1  0.2644565E-009  0.9082573E+02  0.7561462E-02  0.1300864E+00
         -1   -1    0    0    0  501 -0.00000000000E+00  0.00000000000E+00  0.78435193469E+03  0.78435193469E+03  0.00000000000E+00 0.  1.
          1   -1    0    0  501    0  0.00000000000E+00 -0.00000000000E+00 -0.18412943494E+02  0.18412943494E+02  0.00000000000E+00 0. -1.
         25    2    1    2    0    0 -0.28596433688E+02 -0.39988119566E+02  0.47368430134E+03  0.49238374035E+03  0.12509246460E+03 0.  0.
          5    1    3    3  502    0  0.15109966414E+02 -0.29368471407E+02  0.25515957527E+02  0.41944662192E+02  0.41800000000E+01 0.  1.
         -5    1    3    3    0  502 -0.43706400102E+02 -0.10619648159E+02  0.44816834382E+03  0.45043907816E+03  0.41800000000E+01 0.  1.
        -11    1    1    2    0    0 -0.15766560677E+02 -0.21935389948E+02  0.10002660066E+03  0.10361016652E+03  0.00000000000E+00 0.  1.
         11    1    1    2    0    0  0.44362994365E+02  0.61923509514E+02  0.19222808920E+03  0.20677097131E+03  0.00000000000E+00 0. -1.
</event>
<event>
 7    1  0.2644565E-009  0.9076597E+02  0.7561462E-02  0.1301007E+00
          2   -1    0    0  501    0  0.00000000000E+00  0.00000000000E+00  0.37846173563E+03  0.37846173563E+03  0.00000000000E+00 0.  1.
         -2   -1    0    0    0  501 -0.00000000000E+00 -0.00000000000E+00 -0.36210897617E+02  0.36210897617E+02  0.00000000000E+00 0. -1.
         25    2    1    2    0    0  0.33329677473E+02  0.10173779298E+02  0.29851753851E+03  0.32553444768E+03  0.12508230349E+03 0.  0.
          5    1    3    3  502    0  0.60039980141E+02 -0.20596507018E+02  0.75221424677E+02  0.98512691807E+02  0.41800000000E+01 0. -1.
         -5    1    3    3    0  502 -0.26710302667E+02  0.30770286316E+02  0.22329611383E+03  0.22702175587E+03  0.41800000000E+01 0. -1.
        -11    1    1    2    0    0 -0.54636132993E+02 -0.40261350536E+01  0.36429304838E+02  0.65790660757E+02  0.00000000000E+00 0. -1.
         11    1    1    2    0    0  0.21306455519E+02 -0.61476442443E+01  0.73039946664E+01  0.23347524808E+02  0.00000000000E+00 0.  1.
</event>
<event>
 7    1  0.2644565E-009  0.1996013E+03  0.7561462E-02  0.1150076E+00
          1   -1    0    0  501    0  0.00000000000E+00  0.00000000000E+00  0.12313935372E+03  0.12313935372E+03  0.00000000000E+00 0. -1.
         -1   -1    0    0    0  501 -0.00000000000E+00 -0.00000000000E+00 -0.36514542734E+03  0.36514542734E+03  0.00000000000E+00 0.  1.
         25    2    1    2    0    0  0.13963596347E+03  0.11502572570E+03 -0.13408904854E+03  0.25759758106E+03  0.12509005142E+03 0.  0.
          5    1    3    3  502    0  0.24668779774E+02 -0.17298855309E+02 -0.59951008444E+02  0.67226444975E+02  0.41800000000E+01 0. -1.
         -5    1    3    3    0  502  0.11496718370E+03  0.13232458101E+03 -0.74138040093E+02  0.19037113608E+03  0.41800000000E+01 0. -1.
        -11    1    1    2    0    0 -0.47412397278E+01  0.90157200453E+01 -0.29769345087E+02  0.31463891511E+02  0.00000000000E+00 0.  1.
         11    1    1    2    0    0 -0.13489472374E+03 -0.12404144574E+03 -0.78147680003E+02  0.19922330849E+03  0.00000000000E+00 0. -1.
</event>
<event>
 7    1  0.2644565E-009  0.1695828E+03  0.7561462E-02  0.1178284E+00
         -2   -1    0    0    0  501 -0.00000000000E+00  0.00000000000E+00  0.66700310324E+02  0.66700310324E+02  0.00000000000E+00 0.  1.
          2   -1    0    0  501    0  0.00000000000E+00 -0.00000000000E+00 -0.55701058612E+03  0.55701058612E+03  0.00000000000E+00 0. -1.
         25    2    1    2    0    0  0.15739320275E+03  0.25699807791E+02 -0.24894326240E+03  0.32101916133E+03  0.12508978238E+03 0.  0.
          5    1    3    3  502    0  0.78992910936E+02  0.31847365730E+02 -0.33472550408E+02  0.91607962060E+02  0.41800000000E+01 0.  1.
         -5    1    3    3    0  502  0.78400291814E+02 -0.61475579390E+01 -0.21547071199E+03  0.22941119927E+03  0.41800000000E+01 0.  1.
        -11    1    1    2    0    0 -0.37021672315E+02  0.24846485278E+02 -0.10414126161E+03  0.11328439620E+03  0.00000000000E+00 0. -1.
         11    1    1    2    0    0 -0.12037153043E+03 -0.50546293069E+02 -0.13722575179E+03  0.18940733892E+03  0.00000000000E+00 0.  1.
</event>
<event>
 7    1  0.2644565E-009  0.9730765E+02  0.7561462E-02  0.1286062E+00
         -3   -1    0    0    0  501 -0.00000000000E+00  0.00000000000E+00  0.70131446277E+02  0.70131446277E+02  0.00000000000E+00 0.  1.
          3   -1    0    0  501    0  0.00000000000E+00 -0.00000000000E+00 -0.20400659921E+03  0.20400659921E+03  0.00000000000E+00 0. -1.
         25    2    1    2    0    0 -0.51191517867E+02  0.14894188512E+00 -0.76772652317E+02  0.15542979703E+03  0.12507512932E+03 0.  0.
          5    1    3    3  502    0 -0.79548294158E+01 -0.58277218777E+02 -0.17384442774E+02  0.61475237210E+02  0.41800000000E+01 0. -1.
         -5    1    3    3    0  502 -0.43236688451E+02  0.58426160662E+02 -0.59388209542E+02  0.93954559818E+02  0.41800000000E+01 0. -1.
        -11    1    1    2    0    0  0.11053848288E+02  0.16111192660E+02  0.21446509513E+02  0.29012253638E+02  0.00000000000E+00 0.  1.
         11    1    1    2    0    0  0.40137669579E+02 -0.16260134545E+02 -0.78549010131E+02  0.89695994823E+02  0.00000000000E+00 0. -1.
</event>
<event>
 7    1  0.4206038E-009  0.1046172E+03  0.7561462E-02  0.1270876E+00
          1   -1    0    0  501    0  0.00000000000E+00  0.00000000000E+00  0.13969517368E+03  0.13969517368E+03  0.00000000000E+00 0. -1.
         -1   -1    0    0    0  501 -0.00000000000E+00 -0.00000000000E+00 -0.15756885797E+03  0.15756885797E+03  0.00000000000E+00 0.  1.
         25    2    1    2    0    0 -0.10035582235E+03 -0.81357628667E+01 -0.81558460098E+01  0.16078486948E+03  0.12509106568E+03 0.  0.
          5    1    3    3  502    0 -0.10236775123E+03 -0.51717103303E+01 -0.53095165542E+02  0.11550961901E+03  0.41800000000E+01 0.  1.
         -5    1    3    3    0  502  0.20119288849E+01 -0.29640525364E+01  0.44939319532E+02  0.45275250472E+02  0.41800000000E+01 0.  1.
        -11    1    1    2    0    0  0.24516974539E+02 -0.21567209777E+01 -0.45702050670E+02  0.51907715432E+02  0.00000000000E+00 0.  1.
         11    1    1    2    0    0  0.75838847807E+02  0.10292483844E+02  0.35984212390E+02  0.84571446728E+02  0.00000000000E+00 0. -1.
</event>
<event>
 7    1  0.2644565E-009  0.1772962E+03  0.7561462E-02  0.1170446E+00
          2   -1    0    0  501    0  0.00000000000E+00  0.00000000000E+00  0.67436978466E+02  0.67436978466E+02  0.00000000000E+00 0. -1.
         -2   -1    0    0    0  501 -0.00000000000E+00 -0.00000000000E+00 -0.48278338415E+03  0.48278338415E+03  0.00000000000E+00 0.  1.
         25    2    1    2    0    0 -0.93626060144E+02  0.10872268705E+03 -0.19872427743E+03  0.27518134484E+03  0.12508785828E+03 0.  0.
          5    1    3    3  502    0 -0.98091293566E+02  0.13289001364E+03 -0.16828978509E+03  0.23584016148E+03  0.41800000000E+01 0. -1.
         -5    1    3    3    0  502  0.44652334213E+01 -0.24167326596E+02 -0.30434492341E+02  0.39341183363E+02  0.41800000000E+01 0. -1.
        -11    1    1    2    0    0  0.10572797837E+03 -0.77905343934E+02 -0.14210606497E+03  0.19349878999E+03  0.00000000000E+00 0. -1.
         11    1    1    2    0    0 -0.12101918227E+02 -0.30817343114E+02 -0.74516063277E+02  0.81540227787E+02  0.00000000000E+00 0.  1.
</event>
<event>
 7    1  0.2644565E-009  0.1078985E+03  0.7561462E-02  0.1264512E+00
         -1   -1    0    0    0  501 -0.00000000000E+00  0.00000000000E+00  0.18910175796E+02  0.18910175796E+02  0.00000000000E+00 0.  1.
          1   -1    0    0  501    0  0.00000000000E+00 -0.00000000000E+00 -0.76943573026E+03  0.76943573026E+03  0.00000000000E+00 0. -1.
         25    2    1    2    0    0 -0.25943928050E+02 -0.41448904380E+02 -0.50988046098E+03  0.52727275772E+03  0.12508947781E+03 0.  0.
          5    1    3    3  502    0  0.29262600344E+02 -0.50459844909E+02 -0.12126316371E+03  0.13462809142E+03  0.41800000000E+01 0. -1.
         -5    1    3    3    0  502 -0.55206528394E+02  0.90109405290E+01 -0.38861729728E+03  0.39264466629E+03  0.41800000000E+01 0. -1.
        -11    1    1    2    0    0 -0.23885893940E+02  0.45334778650E+02 -0.11961064729E+03  0.13012488243E+03  0.00000000000E+00 0.  1.
         11    1    1    2    0    0  0.49829821990E+02 -0.38858742700E+01 -0.12103444620E+03  0.13094826591E+03  0.00000000000E+00 0. -1.
</event>
<event>
 7    1  0.2644565E-009  0.9061889E+02  0.7561462E-02  0.1301360E+00
         -1   -1    0    0    0  501 -0.00000000000E+00  0.00000000000E+00  0.60901717072E+03  0.60901717072E+03  0.00000000000E+00 0.  1.
          1   -1    0    0  501    0  0.00000000000E+00 -0.00000000000E+00 -0.39767571199E+02  0.39767571199E+02  0.00000000000E+00 0. -1.
         25    2    1    2    0    0 -0.55542519413E+02 -0.36259710267E+02  0.49182653890E+03  0.51179917703E+03  0.12508123435E+03 0.  0.
          5    1    3    3  502    0 -0.22746644795E+02  0.51157599308E+01  0.42889011270E+03  0.42954369047E+03  0.41800000000E+01 0. -1.
         -5    1    3    3    0  502 -0.32795874618E+02 -0.41375470198E+02  0.62936426206E+02  0.82255486562E+02  0.41800000000E+01 0. -1.
        -11    1    1    2    0    0 -0.26135923716E+01  0.45611245130E+02  0.60283569571E+02  0.75639442804E+02  0.00000000000E+00 0.  1.
         11    1    1    2    0    0  0.58156111785E+02 -0.93515348632E+01  0.17139491050E+02  0.61346122091E+02  0.00000000000E+00 0. -1.
</event>
<event>
 7    1  0.2644565E-009  0.1073691E+03  0.7561462E-02  0.1265521E+00
         -1   -1    0    0    0  501 -0.00000000000E+00  0.00000000000E+00  0.24924533430E+02  0.24924533430E+02  0.00000000000E+00 0.  1.
          1   -1    0    0  501    0  0.00000000000E+00 -0.00000000000E+00 -0.48023140708E+03  0.48023140708E+03  0.00000000000E+00 0. -1.
         25    2    1    2    0    0  0.53709191176E+00 -0.15169797774E+02 -0.26664011920E+03  0.29491386521E+03  0.12508726352E+03 0.  0.
          5    1    3    3  502    0 -0.60566884954E+02  0.55178552685E+01 -0.14112998220E+03  0.15373333587E+03  0.41800000000E+01 0. -1.
         -5    1    3    3    0  502  0.61103976866E+02 -0.20687653042E+02 -0.12551013699E+03  0.14118052934E+03  0.41800000000E+01 0. -1.
        -11    1    1    2    0    0  0.42519346337E+02 -0.24925593258E+01 -0.61343672868E+02  0.74680344575E+02  0.00000000000E+00 0.  1.
         11    1    1    2    0    0 -0.43056438249E+02  0.17662357100E+02 -0.12732308158E+03  0.13556173072E+03  0.00000000000E+00 0. -1.
</event>
<event>
 7    1  0.2644565E-009  0.1081536E+03  0.7561462E-02  0.1264028E+00
         -2   -1    0    0    0  501 -0.00000000000E+00  0.00000000000E+00  0.17512375148E+03  0.17512375148E+03  0.00000000000E+00 0.  1.
          2   -1    0    0  501    0  0.00000000000E+00 -0.00000000000E+00 -0.91073839512E+02  0.91073839512E+02  0.00000000000E+00 0. -1.
         25    2    1    2    0    0  0.35710655926E+02  0.17828915099E+02  0.10411728631E+03  0.16758719919E+03  0.12510770905E+03 0.  0.
          5    1    3    3  502    0 -0.34819626761E+02 -0.29670828819E+02  0.41447701489E+02  0.61872036085E+02  0.41800000000E+01 0. -1.
         -5    1    3    3    0  502  0.70530282687E+02  0.47499743918E+02  0.62669584819E+02  0.10571516310E+03  0.41800000000E+01 0. -1.
        -11    1    1    2    0    0 -0.36100515853E+02  0.24033732787E+02  0.12984804493E+02  0.45271102309E+02  0.00000000000E+00 0.  1.
         11    1    1    2    0    0  0.38985992709E+00 -0.41862647887E+02 -0.33052178831E+02  0.53339289500E+02  0.00000000000E+00 0. -1.
</event>
<event>
 7    1  0.2644565E-009  0.1241038E+03  0.7561462E-02  0.1236477E+00
         -2   -1    0    0    0  501 -0.00000000000E+00  0.00000000000E+00  0.19492067595E+03  0.19492067595E+03  0.00000000000E+00 0. -1.
          2   -1    0    0  501    0  0.00000000000E+00 -0.00000000000E+00 -0.10100432042E+03  0.10100432042E+03  0.00000000000E+00 0.  1.
         25    2    1    2    0    0 -0.62858720000E+00 -0.82683989550E+02  0.76519887403E+02  0.16834420081E+03  0.12508972591E+03 0.  0.
          5    1    3    3  502    0  0.11046963483E+02  0.31446262116E+02  0.27917186790E+02  0.43677734849E+02  0.41800000000E+01 0.  1.
         -5    1    3    3    0  502 -0.11675550683E+02 -0.11413025167E+03  0.48602700612E+02  0.12466646596E+03  0.41800000000E+01 0.  1.
        -11    1    1    2    0    0 -0.21040200543E+02  0.87792110146E+01 -0.29597033105E+02  0.37359723682E+02  0.00000000000E+00 0.  1.
         11    1    1    2    0    0  0.21668787743E+02  0.73904778535E+02  0.46993501234E+02  0.90221071878E+02  0.00000000000E+00 0. -1.
</event>
<event>
 7    1  0.2644565E-009  0.1639470E+03  0.7561462E-02  0.1184311E+00
         -2   -1    0    0    0  501 -0.00000000000E+00  0.00000000000E+00  0.18257804532E+02  0.18257804532E+02  0.00000000000E+00 0. -1.
          2   -1    0    0  501    0  0.00000000000E+00 -0.00000000000E+00 -0.16477628346E+04  0.16477628346E+04  0.00000000000E+00 0.  1.
         25    2    1    2    0    0  0.12895537541E+03 -0.44039694960E+02 -0.84582700337E+03  0.86581757145E+03  0.12509102212E+03 0.  0.
          5    1    3    3  502    0  0.26564549294E+02 -0.57072360393E+02 -0.52481867732E+03  0.52859724371E+03  0.41800000000E+01 0.  1.
         -5    1    3    3    0  502  0.10239082612E+03  0.13032665433E+02 -0.32100832605E+03  0.33722032774E+03  0.41800000000E+01 0.  1.
        -11    1    1    2    0    0 -0.34893660480E+02  0.56715692810E+02 -0.30016264051E+03  0.30746031957E+03  0.00000000000E+00 0.  1.
         11    1    1    2    0    0 -0.94061714934E+02 -0.12675997851E+02 -0.48351538614E+03  0.49274274807E+03  0.00000000000E+00 0. -1.
</event>
<event>
 7    1  0.2644565E-009  0.1051605E+03  0.7561462E-02  0.1269804E+00
         -1   -1    0    0    0  501 -0.00000000000E+00  0.00000000000E+00  0.18489860581E+03  0.18489860581E+03  0.00000000000E+00 0.  1.
          1   -1    0    0  501    0  0.00000000000E+00 -0.00000000000E+00 -0.67112595142E+02  0.67112595142E+02  0.00000000000E+00 0. -1.
         25    2    1    2    0    0  0.49101673104E+02  0.53432437180E+01  0.65625751460E+02  0.14964412430E+03  0.12508836927E+03 0.  0.
          5    1    3    3  502    0  0.86273376148E+02  0.25663284189E+02  0.32807040154E+02  0.95893033485E+02  0.41800000000E+01 0. -1.
         -5    1    3    3    0  502 -0.37171703044E+02 -0.20320040471E+02  0.32818711305E+02  0.53751090814E+02  0.41800000000E+01 0. -1.
        -11    1    1    2    0    0 -0.19131199522E+02 -0.32165848911E+02  0.49504383458E+02  0.62059073574E+02  0.00000000000E+00 0.  1.
         11    1    1    2    0    0 -0.29970473582E+02  0.26822605193E+02  0.26558757483E+01  0.40308003077E+02  0.00000000000E+00 0. -1.
</event>
<event>
 7    1  0.2644565E-009  0.1080756E+03  0.7561462E-02  0.1264176E+00
          2   -1    0    0  501    0  0.00000000000E+00  0.00000000000E+00  0.21297145714E+04  0.21297145714E+04  0.00000000000E+00 0. -1.
         -2   -1    0    0    0  501 -0.00000000000E+00 -0.00000000000E+00 -0.88215167087E+01  0.88215167087E+01  0.00000000000E+00 0.  1.
         25    2    1    2    0    0  0.16353926686E+02 -0.73610304540E+01  0.18097309248E+04  0.18141376204E+04  0.12509056735E+03 0.  0.
          5    1    3    3  502    0  0.67916961327E+02  0.12362534298E+02  0.11557383048E+04  0.11578057036E+04  0.41800000000E+01 0.  1.
         -5    1    3    3    0  502 -0.51563034641E+02 -0.19723564752E+02  0.65399262002E+03  0.65633191678E+03  0.41800000000E+01 0.  1.
        -11    1    1    2    0    0 -0.25304940088E+02  0.45710343525E+02  0.17018147732E+03  0.17802109628E+03  0.00000000000E+00 0.  1.
         11    1    1    2    0    0  0.89510134024E+01 -0.38349313071E+02  0.14098065254E+03  0.14637737135E+03  0.00000000000E+00 0. -1.
</event>
<event>
 7    1  0.2644565E-009  0.2344767E+03  0.7561462E-02  0.1123528E+00
         -1   -1    0    0    0  501 -0.00000000000E+00  0.00000000000E+00  0.80188159778E+02  0.80188159778E+02  0.00000000000E+00 0.  1.
          1   -1    0    0  501    0  0.00000000000E+00 -0.00000000000E+00 -0.96841505707E+03  0.96841505707E+03  0.00000000000E+00 0. -1.
         25    2    1    2    0    0 -0.21727320538E+02 -0.22544318054E+03 -0.68269776914E+03  0.73008286714E+03  0.12509214523E+03 0.  0.
          5    1    3    3  502    0 -0.37015973370E+02 -0.35540238352E+02 -0.27845909338E+03  0.28317879496E+03  0.41800000000E+01 0.  1.
         -5    1    3    3    0  502  0.15288652832E+02 -0.18990294219E+03 -0.40423867576E+03  0.44690407218E+03  0.41800000000E+01 0.  1.
        -11    1    1    2    0    0  0.27138025323E+01  0.99240320162E+02 -0.14874136686E+03  0.17882952801E+03  0.00000000000E+00 0. -1.
         11    1    1    2    0    0  0.19013518006E+02  0.12620286038E+03 -0.56787761289E+02  0.13969082170E+03  0.00000000000E+00 0.  1.
</event>
<event>
 7    1  0.2644565E-009  0.1637810E+03  0.7561462E-02  0.1184493E+00
         -1   -1    0    0    0  501 -0.00000000000E+00  0.00000000000E+00  0.52859192604E+02  0.52859192604E+02  0.00000000000E+00 0.  1.
          1   -1    0    0  501    0  0.00000000000E+00 -0.00000000000E+00 -0.59742901014E+03  0.59742901014E+03  0.00000000000E+00 0. -1.
         25    2    1    2    0    0 -0.89831750805E+01 -0.13903041232E+03 -0.31131088529E+03  0.36325867977E+03  0.12502898922E+03 0.  0.
          5    1    3    3  502    0  0.56308163498E+02 -0.50989247507E+02 -0.14995192618E+03  0.16814745078E+03  0.41800000000E+01 0. -1.
         -5    1    3    3    0  502 -0.65291338579E+02 -0.88041164811E+02 -0.16135895911E+03  0.19511122899E+03  0.41800000000E+01 0. -1.
        -11    1    1    2    0    0  0.18409617717E+02  0.94660790168E+02 -0.21930632829E+03  0.23957221218E+03  0.00000000000E+00 0.  1.
         11    1    1    2    0    0 -0.94264426367E+01  0.44369622150E+02 -0.13952603954E+02  0.47457310792E+02  0.00000000000E+00 0. -1.
</event>
<event>
 7    1  0.2644565E-009  0.9864857E+02  0.7561462E-02  0.1283164E+00
         -1   -1    0    0    0  501 -0.00000000000E+00  0.00000000000E+00  0.35889713503E+03  0.35889713503E+03  0.00000000000E+00 0.  1.
          1   -1    0    0  501    0  0.00000000000E+00 -0.00000000000E+00 -0.53553694904E+02  0.53553694904E+02  0.00000000000E+00 0. -1.
         25    2    1    2    0    0  0.80851058652E+02 -0.11592457404E+02  0.21064293738E+03  0.25823955797E+03  0.12508374585E+03 0.  0.
          5    1    3    3  502    0  0.76315029985E+02 -0.26009559633E+02  0.22370712654E+03  0.23782941757E+03  0.41800000000E+01 0.  1.
         -5    1    3    3    0  502  0.45360286668E+01  0.14417102229E+02 -0.13064189162E+02  0.20410140401E+02  0.41800000000E+01 0.  1.
        -11    1    1    2    0    0  0.11560221672E+01 -0.14713703609E+02 -0.10604204008E+02  0.18173568824E+02  0.00000000000E+00 0. -1.
         11    1    1    2    0    0 -0.82007080819E+02  0.26306161013E+02  0.10530470675E+03  0.13603770314E+03  0.00000000000E+00 0.  1.
</event>
<event>
 7    1  0.2644565E-009  0.1122861E+03  0.7561462E-02  0.1256394E+00
          1   -1    0    0  501    0  0.00000000000E+00  0.00000000000E+00  0.13881436831E+04  0.13881436831E+04  0.00000000000E+00 0. -1.
         -1   -1    0    0    0  501 -0.00000000000E+00 -0.00000000000E+00 -0.11055349976E+02  0.11055349976E+02  0.00000000000E+00 0.  1.
         25    2    1    2    0    0  0.45362223139E+02  0.10861745384E+02  0.97908354140E+03  0.98814320251E+03  0.12508676521E+03 0.  0.
          5    1    3    3  502    0  0.23586403864E+02 -0.54427814702E+02  0.32138867388E+03  0.32684378158E+03  0.41800000000E+01 0. -1.
         -5    1    3    3    0  502  0.21775819275E+02  0.65289560087E+02  0.65769486752E+03  0.66129942093E+03  0.41800000000E+01 0. -1.
        -11    1    1    2    0    0 -0.30623606549E+02  0.35863773125E+02  0.26815152818E+03  0.27226688665E+03  0.00000000000E+00 0. -1.
         11    1    1    2    0    0 -0.14738616589E+02 -0.46725518509E+02  0.12985326350E+03  0.13878894387E+03  0.00000000000E+00 0.  1.
</event>
<event>
 7    1  0.2644565E-009  0.1080164E+03  0.7561462E-02  0.1264288E+00
         -2   -1    0    0    0  501 -0.00000000000E+00  0.00000000000E+00  0.33905781626E+02  0.33905781626E+02  0.00000000000E+00 0.  1.
          2   -1    0    0  501    0  0.00000000000E+00 -0.00000000000E+00 -0.61283825918E+03  0.61283825918E+03  0.00000000000E+00 0. -1.
         25    2    1    2    0    0  0.85371842460E+02 -0.17057257703E+02 -0.22482959172E+03  0.27161565204E+03  0.12508963024E+03 0.  0.
          5    1    3    3  502    0  0.95527895812E+02 -0.37695534291E+02 -0.22593093225E+03  0.24821118172E+03  0.41800000000E+01 0. -1.
         -5    1    3    3    0  502 -0.10156053352E+02  0.20638276588E+02  0.11013405240E+01  0.23404470324E+02  0.41800000000E+01 0. -1.
        -11    1    1    2    0    0 -0.23963488479E+02 -0.52617946016E+01 -0.12886861400E+02  0.27712929460E+02  0.00000000000E+00 0.  1.
         11    1    1    2    0    0 -0.61408353981E+02  0.22319052305E+02 -0.34121602444E+03  0.34741545931E+03  0.00000000000E+00 0. -1.
</event>
<event>
 7    1  0.2644565E-009  0.1205841E+03  0.7561462E-02  0.1242137E+00
         -2   -1    0    0    0  501 -0.00000000000E+00  0.00000000000E+00  0.29931577505E+02  0.29931577505E+02  0.00000000000E+00 0.  1.
          2   -1    0    0  501    0  0.00000000000E+00 -0.00000000000E+00 -0.63471330030E+03  0.63471330030E+03  0.00000000000E+00 0. -1.
         25    2    1    2    0    0  0.22740591262E+02 -0.56470782885E+02 -0.46449811144E+03  0.48487975753E+03  0.12507517707E+03 0.  0.
          5    1    3    3  502    0 -0.29290059589E+02  0.26621843347E+02 -0.10713719041E+03  0.11429120746E+03  0.41800000000E+01 0.  1.
         -5    1    3    3    0  502  0.52030650851E+02 -0.83092626232E+02 -0.35736092104E+03  0.37058855008E+03  0.41800000000E+01 0.  1.
        -11    1    1    2    0    0 -0.45645727565E+02  0.37994178156E+01 -0.28108527580E+02  0.53740648893E+02  0.00000000000E+00 0.  1.
         11    1    1    2    0    0  0.22905136304E+02  0.52671365069E+02 -0.11217508377E+03  0.12602447138E+03  0.00000000000E+00 0. -1.
</event>
<event>
 7    1  0.2644565E-009  0.7576736E+02  0.7561462E-02  0.1341511E+00
          1   -1    0    0  501    0  0.00000000000E+00  0.00000000000E+00  0.13337132696E+03  0.13337132696E+03  0.00000000000E+00 0. -1.
         -1   -1    0    0    0  501 -0.00000000000E+00 -0.00000000000E+00 -0.14005712425E+03  0.14005712425E+03  0.00000000000E+00 0.  1.
         25    2    1    2    0    0 -0.17706524029E+02  0.44572609552E+02 -0.55737069289E+02  0.14510290775E+03  0.12509194390E+03 0.  0.
          5    1    3    3  502    0  0.37528469936E+02  0.22045726666E+02  0.20433532474E+02  0.48263876444E+02  0.41800000000E+01 0.  1.
         -5    1    3    3    0  502 -0.55234993965E+02  0.22526882886E+02 -0.76170601763E+02  0.96839031304E+02  0.41800000000E+01 0.  1.
        -11    1    1    2    0    0  0.11458124642E+02 -0.31580187467E+02 -0.31764468306E+02  0.46233951892E+02  0.00000000000E+00 0.  1.
         11    1    1    2    0    0  0.62483993874E+01 -0.12992422085E+02  0.80815740304E+02  0.82091591576E+02  0.00000000000E+00 0. -1.
</event>
<event>
 7    1  0.2644565E-009  0.6963192E+02  0.7561462E-02  0.1361349E+00
         -1   -1    0    0    0  501 -0.00000000000E+00  0.00000000000E+00  0.37424270613E+03  0.37424270613E+03  0.00000000000E+00 0.  1.
          1   -1    0    0  501    0  0.00000000000E+00 -0.00000000000E+00 -0.38999672463E+02  0.38999672463E+02  0.00000000000E+00 0. -1.
         25    2    1    2    0    0 -0.14541780756E+01  0.34110797056E+02  0.14511351829E+03  0.19460522569E+03  0.12509036560E+03 0.  0.
          5    1    3    3  502    0 -0.12084946379E+02 -0.35780859436E+01  0.15372113803E+03  0.15429358154E+03  0.41800000000E+01 0. -1.
         -5    1    3    3    0  502  0.10630768303E+02  0.37688883000E+02 -0.86076197385E+01  0.40311644150E+02  0.41800000000E+01 0. -1.
        -11    1    1    2    0    0 -0.18800463919E+02  0.20822950532E+02  0.13612237940E+03  0.13898328995E+03  0.00000000000E+00 0.  1.
         11    1    1    2    0    0  0.20254641995E+02 -0.54933747588E+02  0.54007135978E+02  0.79653862951E+02  0.00000000000E+00 0. -1.
</event>
<event>
 7    1  0.2644565E-009  0.1242146E+03  0.7561462E-02  0.1236302E+00
         -1   -1    0    0    0  501 -0.00000000000E+00  0.00000000000E+00  0.46260156305E+02  0.46260156305E+02  0.00000000000E+00 0.  1.
          1   -1    0    0  501    0  0.00000000000E+00 -0.00000000000E+00 -0.48507577756E+03  0.48507577756E+03  0.00000000000E+00 0. -1.
         25    2    1    2    0    0 -0.10227762292E+03 -0.43766588132E+00 -0.24337821198E+03  0.29212623303E+03  0.12507549024E+03 0.  0.
          5    1    3    3  502    0 -0.83071773019E+02 -0.17205784415E+02 -0.53247861831E+02  0.10024851959E+03  0.41800000000E+01 0.  1.
         -5    1    3    3    0  502 -0.19205849899E+02  0.16768118534E+02 -0.19013035014E+03  0.19187771344E+03  0.41800000000E+01 0.  1.
        -11    1    1    2    0    0 -0.16859791742E+02 -0.70684003328E+01 -0.21082654340E+02  0.27905074357E+02  0.00000000000E+00 0. -1.
         11    1    1    2    0    0  0.11913741466E+03  0.75060662142E+01 -0.17435475494E+03  0.21130462648E+03  0.00000000000E+00 0.  1.
</event>
<event>
 7    1  0.2644565E-009  0.1078154E+03  0.7561462E-02  0.1264670E+00
         -1   -1    0    0    0  501 -0.00000000000E+00  0.00000000000E+00  0.27720640890E+02  0.27720640890E+02  0.00000000000E+00 0.  1.
          1   -1    0    0  501    0  0.00000000000E+00 -0.00000000000E+00 -0.74760460188E+03  0.74760460188E+03  0.00000000000E+00 0. -1.
         25    2    1    2    0    0  0.33197543237E+02  0.24425972934E+02 -0.61942456014E+03  0.63327222925E+03  0.12509286788E+03 0.  0.
          5    1    3    3  502    0  0.55931167686E+02 -0.35917446979E+02 -0.28716591896E+03  0.29478822217E+03  0.41800000000E+01 0. -1.
         -5    1    3    3    0  502 -0.22733624450E+02  0.60343419913E+02 -0.33225864118E+03  0.33848400708E+03  0.41800000000E+01 0. -1.
        -11    1    1    2    0    0 -0.11975188588E+01 -0.45872128113E+02 -0.14940972245E+02  0.48258873180E+02  0.00000000000E+00 0.  1.
         11    1    1    2    0    0 -0.32000024378E+02  0.21446155178E+02 -0.85518428603E+02  0.93794140344E+02  0.00000000000E+00 0. -1.
</event>
<event>
 7    1  0.2779861E-009  0.2046185E+03  0.7561462E-02  0.1145900E+00
          2   -1    0    0  501    0  0.00000000000E+00  0.00000000000E+00  0.11490278680E+04  0.11490278680E+04  0.00000000000E+00 0. -1.
         -2   -1    0    0    0  501 -0.00000000000E+00 -0.00000000000E+00 -0.41247141489E+02  0.41247141489E+02  0.00000000000E+00 0.  1.
         25    2    1    2    0    0 -0.12137256858E+03  0.13781921004E+03  0.45858885714E+03  0.50958512857E+03  0.12509127988E+03 0.  0.
          5    1    3    3  502    0  0.17535265913E+02  0.30830568168E+01  0.10408622714E+03  0.10568067879E+03  0.41800000000E+01 0.  1.
         -5    1    3    3    0  502 -0.13890783449E+03  0.13473615322E+03  0.35450263000E+03  0.40390444978E+03  0.41800000000E+01 0.  1.
        -11    1    1    2    0    0  0.38791064194E+01 -0.51367188210E+02  0.10042725394E+03  0.11286836946E+03  0.00000000000E+00 0.  1.
         11    1    1    2    0    0  0.11749346216E+03 -0.86452021830E+02  0.54876461548E+03  0.56782151151E+03  0.00000000000E+00 0. -1.
</event>
<event>
 7    1  0.2644565E-009  0.1582823E+03  0.7561462E-02  0.1190650E+00
         -2   -1    0    0    0  501 -0.00000000000E+00  0.00000000000E+00  0.19328812648E+02  0.19328812648E+02  0.00000000000E+00 0.  1.
          2   -1    0    0  501    0  0.00000000000E+00 -0.00000000000E+00 -0.15286158114E+04  0.15286158114E+04  0.00000000000E+00 0. -1.
         25    2    1    2    0    0  0.12661138145E+03 -0.35600947345E+02 -0.89014166011E+03  0.90845881450E+03  0.12508946087E+03 0.  0.
          5    1    3    3  502    0  0.34075172014E+02  0.40346997236E+02 -0.41867113831E+03  0.42200946907E+03  0.41800000000E+01 0. -1.
         -5    1    3    3    0  502  0.92536209432E+02 -0.75947944580E+02 -0.47147052180E+03  0.48644934543E+03  0.41800000000E+01 0. -1.
        -11    1    1    2    0    0 -0.17949667647E+02  0.30046344475E+02 -0.56845990719E+02  0.66756573053E+02  0.00000000000E+00 0.  1.
         11    1    1    2    0    0 -0.10866171380E+03  0.55546028694E+01 -0.56229934788E+03  0.57272923645E+03  0.00000000000E+00 0. -1.
</event>
<event>
 7    1  0.2644565E-009  0.3012137E+03  0.7561462E-02  0.1084635E+00
         -1   -1    0    0    0  501 -0.00000000000E+00  0.00000000000E+00  0.13800668870E+03  0.13800668870E+03  0.00000000000E+00 0.  1.
          1   -1    0    0  501    0  0.00000000000E+00 -0.00000000000E+00 -0.71973582373E+03  0.71973582373E+03  0.00000000000E+00 0. -1.
         25    2    1    2    0    0 -0.21509402809E+03 -0.19531652048E+03 -0.22072893868E+03  0.38572383687E+03  0.12509048674E+03 0.  0.
          5    1    3    3  502    0 -0.14097953715E+03 -0.18324253828E+03 -0.12149886917E+03  0.26121352442E+03  0.41800000000E+01 0.  1.
         -5    1    3    3    0  502 -0.74114490933E+02 -0.12073982199E+02 -0.99230069510E+02  0.12451031245E+03  0.41800000000E+01 0.  1.
        -11    1    1    2    0    0  0.10710278134E+03  0.59685396355E+02 -0.20460039104E+03  0.23852604119E+03  0.00000000000E+00 0.  1.
         11    1    1    2    0    0  0.10799124674E+03  0.13563112412E+03 -0.15639980531E+03  0.23349263437E+03  0.00000000000E+00 0. -1.
</event>
<event>
 7    1  0.2644565E-009  0.9645651E+02  0.7561462E-02  0.1287929E+00
          1   -1    0    0  501    0  0.00000000000E+00  0.00000000000E+00  0.89091370974E+03  0.89091370974E+03  0.00000000000E+00 0. -1.
         -1   -1    0    0    0  501 -0.00000000000E+00 -0.00000000000E+00 -0.26932984272E+02  0.26932984272E+02  0.00000000000E+00 0.  1.
         25    2    1    2    0    0 -0.18156296798E+02  0.22344671844E+02  0.78321196714E+03  0.79366099827E+03  0.12509140352E+03 0.  0.
          5    1    3    3  502    0  0.26233638722E+02  0.56478084548E+02  0.56112169486E+03  0.56458215228E+03  0.41800000000E+01 0.  1.
         -5    1    3    3    0  502 -0.44389935520E+02 -0.34133412704E+02  0.22209027228E+03  0.22907884599E+03  0.41800000000E+01 0.  1.
        -11    1    1    2    0    0 -0.26227769573E+02 -0.11617994827E+02 -0.29367532633E+01  0.28835710851E+02  0.00000000000E+00 0.  1.
         11    1    1    2    0    0  0.44384066371E+02 -0.10726677018E+02  0.83705511598E+02  0.95349984894E+02  0.00000000000E+00 0. -1.
</event>
<event>
 7    1  0.2644565E-009  0.1150600E+03  0.7561462E-02  0.1251476E+00
         -1   -1    0    0    0  501 -0.00000000000E+00  0.00000000000E+00  0.40258067691E+03  0.40258067691E+03  0.00000000000E+00 0.  1.
          1   -1    0    0  501    0  0.00000000000E+00 -0.00000000000E+00 -0.52025468836E+02  0.52025468836E+02  0.00000000000E+00 0. -1.
         25    2    1    2    0    0  0.33317826898E+02 -0.83743149165E+02  0.18997913728E+03  0.24467536114E+03  0.12510382539E+03 0.  0.
          5    1    3    3  502    0  0.26870458534E+02  0.13815260291E+01  0.14606872037E+03  0.14858490377E+03  0.41800000000E+01 0.  1.
         -5    1    3    3    0  502  0.64473683647E+01 -0.85124675194E+02  0.43910416907E+02  0.96090457375E+02  0.41800000000E+01 0.  1.
        -11    1    1    2    0    0 -0.57099674450E+02  0.48573780269E+02  0.14758405690E+03  0.16553198725E+03  0.00000000000E+00 0.  1.
         11    1    1    2    0    0  0.23781847552E+02  0.35169368895E+02  0.12992013894E+02  0.44398797354E+02  0.00000000000E+00 0. -1.
</event>
<event>
 7    1  0.2644565E-009  0.2066952E+03  0.7561462E-02  0.1144210E+00
         -2   -1    0    0    0  501 -0.00000000000E+00  0.00000000000E+00  0.72010514891E+03  0.72010514891E+03  0.00000000000E+00 0.  1.
          2   -1    0    0  501    0  0.00000000000E+00 -0.00000000000E+00 -0.12170528962E+03  0.12170528962E+03  0.00000000000E+00 0. -1.
         25    2    1    2    0    0  0.97980416625E+01 -0.17914526301E+03  0.87875844240E+01  0.21889770596E+03  0.12509978879E+03 0.  0.
          5    1    3    3  502    0 -0.42840402155E+02 -0.14725018294E+03  0.24206870169E+02  0.15531053215E+03  0.41800000000E+01 0. -1.
         -5    1    3    3    0  502  0.52638443817E+02 -0.31895080070E+02 -0.15419285745E+02  0.63587173809E+02  0.41800000000E+01 0. -1.
        -11    1    1    2    0    0 -0.25638549580E+02  0.18057276376E+03  0.56407635845E+03  0.59282880868E+03  0.00000000000E+00 0.  1.
         11    1    1    2    0    0  0.15840507918E+02 -0.14275007484E+01  0.25535916417E+02  0.30083923892E+02  0.00000000000E+00 0. -1.
</event>
<event>
 7    1  0.2644565E-009  0.1585073E+03  0.7561462E-02  0.1190392E+00
          1   -1    0    0  501    0  0.00000000000E+00  0.00000000000E+00  0.45008123752E+03  0.45008123752E+03  0.00000000000E+00 0. -1.
         -1   -1    0    0    0  501 -0.00000000000E+00 -0.00000000000E+00 -0.12002345779E+03  0.12002345779E+03  0.00000000000E+00 0.  1.
         25    2    1    2    0    0  0.10314596418E+03  0.11115451891E+03  0.34147708453E+03  0.39401507292E+03  0.12508741514E+03 0.  0.
          5    1    3    3  502    0  0.10233086951E+03  0.97574482332E+02  0.16657099705E+03  0.21853090380E+03  0.41800000000E+01 0.  1.
         -5    1    3    3    0  502  0.81509466583E+00  0.13580036580E+02  0.17490608748E+03  0.17548416912E+03  0.41800000000E+01 0.  1.
        -11    1    1    2    0    0 -0.83419968786E+02 -0.50431122239E+02 -0.40965815914E+02  0.10573735081E+03  0.00000000000E+00 0.  1.
         11    1    1    2    0    0 -0.19725995389E+02 -0.60723396673E+02  0.29546511117E+02  0.70352271582E+02  0.00000000000E+00 0. -1.
</event>
<event>
 7    1  0.2644565E-009  0.1548748E+03  0.7561462E-02  0.1194608E+00
         -1   -1    0    0    0  501 -0.00000000000E+00  0.00000000000E+00  0.13728800448E+03  0.13728800448E+03  0.00000000000E+00 0.  1.
          1   -1    0    0  501    0  0.00000000000E+00 -0.00000000000E+00 -0.20081497750E+03  0.20081497750E+03  0.00000000000E+00 0. -1.
         25    2    1    2    0    0  0.11903916132E+03  0.41244978185E+02 -0.47191828394E+02  0.18370246716E+03  0.12509219648E+03 0.  0.
          5    1    3    3  502    0 -0.23584909917E+02 -0.95781358132E+01 -0.33134360381E+01  0.26008458620E+02  0.41800000000E+01 0.  1.
         -5    1    3    3    0  502  0.14262407124E+03  0.50823113998E+02 -0.43878392356E+02  0.15769400854E+03  0.41800000000E+01 0.  1.
        -11    1    1    2    0    0 -0.30338392372E+02 -0.30699554589E+02  0.31159551404E+02  0.53233432610E+02  0.00000000000E+00 0.  1.
         11    1    1    2    0    0 -0.88700768950E+02 -0.10545423596E+02 -0.47494696035E+02  0.10116708221E+03  0.00000000000E+00 0. -1.
</event>
<event>
 7    1  0.2644565E-009  0.1133303E+03  0.7561462E-02  0.1254524E+00
         -3   -1    0    0    0  501 -0.00000000000E+00  0.00000000000E+00  0.26659241069E+03  0.26659241069E+03  0.00000000000E+00 0.  1.
          3   -1    0    0  501    0  0.00000000000E+00 -0.00000000000E+00 -0.59258390766E+02  0.59258390766E+02  0.00000000000E+00 0. -1.
         25    2    1    2    0    0 -0.38127296699E+02 -0.10347988124E+01  0.48640415147E+02  0.13952649957E+03  0.12508793920E+03 0.  0.
          5    1    3    3  502    0 -0.34135818139E+02  0.59500540211E+02  0.35339638963E+02  0.77278268921E+02  0.41800000000E+01 0.  1.
         -5    1    3    3    0  502 -0.39914785592E+01 -0.60535339023E+02  0.13300776184E+02  0.62248230648E+02  0.41800000000E+01 0.  1.
        -11    1    1    2    0    0  0.15931920605E+00 -0.40702348560E+02  0.76040810959E+02  0.86249124588E+02  0.00000000000E+00 0.  1.
         11    1    1    2    0    0  0.37967977492E+02  0.41737147372E+02  0.82652793823E+02  0.10007517730E+03  0.00000000000E+00 0. -1.
</event>
<event>
 7    1  0.2644565E-009  0.1504201E+03  0.7561462E-02  0.1199958E+00
         -2   -1    0    0    0  501 -0.00000000000E+00  0.00000000000E+00  0.13746457802E+03  0.13746457802E+03  0.00000000000E+00 0. -1.
          2   -1    0    0  501    0  0.00000000000E+00 -0.00000000000E+00 -0.18586611395E+03  0.18586611395E+03  0.00000000000E+00 0.  1.
         25    2    1    2    0    0  0.10133881097E+03 -0.58583048603E+02 -0.16170464001E+02  0.17207637078E+03  0.12508902943E+03 0.  0.
          5    1    3    3  502    0 -0.19689946315E+02 -0.52999116509E+01 -0.32679799528E+02  0.38745641647E+02  0.41800000000E+01 0. -1.
         -5    1    3    3    0  502  0.12102875728E+03 -0.53283136952E+02  0.16509335527E+02  0.13333072914E+03  0.41800000000E+01 0. -1.
        -11    1    1    2    0    0 -0.11532307236E+03  0.35377684831E+02 -0.27972948296E+02  0.12382841935E+03  0.00000000000E+00 0.  1.
         11    1    1    2    0    0  0.13984261394E+02  0.23205363772E+02 -0.42581236307E+01  0.27425901833E+02  0.00000000000E+00 0. -1.
</event>
<event>
 7    1  0.2644565E-009  0.9883559E+02  0.7561462E-02  0.1282764E+00
         -3   -1    0    0    0  501 -0.00000000000E+00  0.00000000000E+00  0.13821032558E+02  0.13821032558E+02  0.00000000000E+00 0.  1.
          3   -1    0    0  501    0  0.00000000000E+00 -0.00000000000E+00 -0.10997181587E+04  0.10997181587E+04  0.00000000000E+00 0. -1.
         25    2    1    2    0    0  0.25769496480E+01 -0.44104646000E+02 -0.58376879254E+03  0.59865146143E+03  0.12508280722E+03 0.  0.
          5    1    3    3  502    0 -0.23264490840E+02  0.97253988045E+01 -0.22061684123E+02  0.33764037411E+02  0.41800000000E+01 0. -1.
         -5    1    3    3    0  502  0.25841440488E+02 -0.53830044805E+02 -0.56170710842E+03  0.56488742402E+03  0.41800000000E+01 0. -1.
        -11    1    1    2    0    0  0.22476203611E+02  0.71606855177E+02 -0.29195832519E+03  0.30145046871E+03  0.00000000000E+00 0. -1.
         11    1    1    2    0    0 -0.25053153259E+02 -0.27502209177E+02 -0.21017000844E+03  0.21343726115E+03  0.00000000000E+00 0.  1.
</event>
<event>
 7    1  0.2644565E-009  0.1330037E+03  0.7561462E-02  0.1223066E+00
          1   -1    0    0  501    0  0.00000000000E+00  0.00000000000E+00  0.74265160436E+02  0.74265160436E+02  0.00000000000E+00 0. -1.
         -1   -1    0    0    0  501 -0.00000000000E+00 -0.00000000000E+00 -0.34631031094E+03  0.34631031094E+03  0.00000000000E+00 0.  1.
         25    2    1    2    0    0  0.11364140654E+03 -0.33866403104E+02 -0.17582328224E+03  0.24621528548E+03  0.12508732024E+03 0.  0.
          5    1    3    3  502    0  0.39155117416E+02  0.18818093749E+02 -0.14243735968E+03  0.14897354700E+03  0.41800000000E+01 0.  1.
         -5    1    3    3    0  502  0.74486289128E+02 -0.52684496852E+02 -0.33385922555E+02  0.97241738474E+02  0.41800000000E+01 0.  1.
        -11    1    1    2    0    0 -0.57859257917E+02 -0.11670690270E+02 -0.65984741053E+01  0.59392243589E+02  0.00000000000E+00 0. -1.
         11    1    1    2    0    0 -0.55782148627E+02  0.45537093374E+02 -0.89623394159E+02  0.11496794231E+03  0.00000000000E+00 0.  1.
</event>
<event>
 7    1  0.2644565E-009  0.7662277E+02  0.7561462E-02  0.1338918E+00
         -3   -1    0    0    0  501 -0.00000000000E+00  0.00000000000E+00  0.40220981284E+03  0.40220981284E+03  0.00000000000E+00 0.  1.
          3   -1    0    0  501    0  0.00000000000E+00 -0.00000000000E+00 -0.40447137933E+02  0.40447137933E+02  0.00000000000E+00 0. -1.
         25    2    1    2    0    0  0.51516141103E+02  0.17484623027E+02  0.26661188680E+03  0.29948217107E+03  0.12509215712E+03 0.  0.
          5    1    3    3  502    0  0.43315092593E+02 -0.19361209410E+02  0.22934845152E+02  0.52863344562E+02  0.41800000000E+01 0.  1.
         -5    1    3    3    0  502  0.82010485096E+01  0.36845832438E+02  0.24367704165E+03  0.24661882651E+03  0.41800000000E+01 0.  1.
        -11    1    1    2    0    0 -0.19550851362E+02 -0.27856281976E+02  0.10315918280E+03  0.10862792104E+03  0.00000000000E+00 0.  1.
         11    1    1    2    0    0 -0.31965289741E+02  0.10371658949E+02 -0.80083946881E+01  0.34546858657E+02  0.00000000000E+00 0. -1.
</event>
<event>
 7    1  0.2644565E-009  0.1287678E+03  0.7561462E-02  0.1229296E+00
         -2   -1    0    0    0  501 -0.00000000000E+00  0.00000000000E+00  0.40002193945E+03  0.40002193945E+03  0.00000000000E+00 0.  1.
          2   -1    0    0  501    0  0.00000000000E+00 -0.00000000000E+00 -0.12139095594E+03  0.12139095594E+03  0.00000000000E+00 0. -1.
         25    2    1    2    0    0  0.58229815051E+02 -0.31305868786E+02  0.35485460721E+03  0.38202286234E+03  0.12509558869E+03 0.  0.
          5    1    3    3  502    0 -0.28206639062E+02 -0.44945029893E+02  0.11667021952E+03  0.12823838240E+03  0.41800000000E+01 0.  1.
         -5    1    3    3    0  502  0.86436454114E+02  0.13639161107E+02  0.23818438769E+03  0.25378447993E+03  0.41800000000E+01 0.  1.
        -11    1    1    2    0    0  0.26515485491E+02  0.46385730160E+00 -0.17236743330E+02  0.31628965444E+02  0.00000000000E+00 0.  1.
         11    1    1    2    0    0 -0.84745300542E+02  0.30842011485E+02 -0.58986880363E+02  0.10776106761E+03  0.00000000000E+00 0. -1.
</event>
<event>
 7    1  0.3040790E-009  0.2073819E+03  0.7561462E-02  0.1143656E+00
          1   -1    0    0  501    0  0.00000000000E+00  0.00000000000E+00  0.59314866131E+03  0.59314866131E+03  0.00000000000E+00 0. -1.
         -1   -1    0    0    0  501 -0.00000000000E+00 -0.00000000000E+00 -0.81509342636E+02  0.81509342636E+02  0.00000000000E+00 0.  1.
         25    2    1    2    0    0 -0.36436097024E+02  0.17364846737E+03  0.37341053545E+03  0.43192997635E+03  0.12508675827E+03 0.  0.
          5    1    3    3  502    0 -0.81118487219E+02  0.13620966985E+03  0.27718528176E+03  0.31934688969E+03  0.41800000000E+01 0. -1.
         -5    1    3    3    0  502  0.44682390195E+02  0.37438797524E+02  0.96225253692E+02  0.11258308666E+03  0.41800000000E+01 0. -1.
        -11    1    1    2    0    0  0.63808710010E+02 -0.14328106057E+03  0.12213448679E+03  0.19879096221E+03  0.00000000000E+00 0.  1.
         11    1    1    2    0    0 -0.27372612985E+02 -0.30367406802E+02  0.16094296424E+02  0.43937065388E+02  0.00000000000E+00 0. -1.
</event>
<event>
 6    1  0.2644565E-009  0.1238162E+03  0.7561462E-02  0.1236931E+00
         -2   -1    0    0    0  501 -0.00000000000E+00  0.00000000000E+00  0.91746200941E+02  0.91746200941E+02  0.00000000000E+00 0.  1.
          2   -1    0    0  501    0  0.00000000000E+00 -0.00000000000E+00 -0.37878258427E+03  0.37878258427E+03  0.00000000000E+00 0. -1.
          5    1    1    2  502    0  0.26672081910E+02  0.30452092189E+02 -0.99252461288E+01  0.41889291983E+02  0.41800000000E+01 0.  1.
         -5    1    1    2    0  502 -0.96783806706E+02 -0.18863914721E+02  0.25962292929E+02  0.10205128893E+03  0.41800000000E+01 0.  1.
        -11    1    1    2    0    0  0.75103418709E+02  0.18821385785E+02 -0.27207866202E+03  0.28288083425E+03  0.00000000000E+00 0. -1.
         11    1    1    2    0    0 -0.49916939128E+01 -0.30409563252E+02 -0.30994768112E+02  0.43707370038E+02  0.00000000000E+00 0.  1.
</event>
<event>
 7    1  0.2644565E-009  0.5021862E+02  0.7561462E-02  0.1444166E+00
          1   -1    0    0  501    0  0.00000000000E+00  0.00000000000E+00  0.17574081087E+03  0.17574081087E+03  0.00000000000E+00 0. -1.
         -1   -1    0    0    0  501 -0.00000000000E+00 -0.00000000000E+00 -0.91410411727E+02  0.91410411727E+02  0.00000000000E+00 0.  1.
         25    2    1    2    0    0  0.22065908120E+01 -0.21309419293E+02 -0.19802336914E+02  0.12845003438E+03  0.12509323879E+03 0.  0.
          5    1    3    3  502    0 -0.28850511555E+02 -0.16435377274E+02 -0.65074214621E+02  0.73175128641E+02  0.41800000000E+01 0.  1.
         -5    1    3    3    0  502  0.31057102367E+02 -0.48740420190E+01  0.45271877707E+02  0.55274905736E+02  0.41800000000E+01 0.  1.
        -11    1    1    2    0    0 -0.14683721085E+02  0.15945420471E+02  0.11759629897E+03  0.11957741271E+03  0.00000000000E+00 0. -1.
         11    1    1    2    0    0  0.12477130273E+02  0.53639988222E+01 -0.13463562917E+02  0.19123775507E+02  0.00000000000E+00 0.  1.
</event>
<event>
 7    1  0.2644565E-009  0.1088073E+03  0.7561462E-02  0.1262795E+00
         -1   -1    0    0    0  501 -0.00000000000E+00  0.00000000000E+00  0.57906838881E+02  0.57906838881E+02  0.00000000000E+00 0.  1.
          1   -1    0    0  501    0  0.00000000000E+00 -0.00000000000E+00 -0.26241819455E+03  0.26241819455E+03  0.00000000000E+00 0. -1.
         25    2    1    2    0    0 -0.83267481019E+01  0.53082694204E+01 -0.40137939379E+02  0.13176967493E+03  0.12511866605E+03 0.  0.
          5    1    3    3  502    0  0.21947190717E+02 -0.54051016031E+02 -0.22950691045E+02  0.62828322704E+02  0.41800000000E+01 0.  1.
         -5    1    3    3    0  502 -0.30273938819E+02  0.59359285451E+02 -0.17187248335E+02  0.68941352222E+02  0.41800000000E+01 0.  1.
        -11    1    1    2    0    0  0.41997607476E+02  0.23434332645E+02 -0.87482736658E+02  0.99830837887E+02  0.00000000000E+00 0.  1.
         11    1    1    2    0    0 -0.33670859374E+02 -0.28742602065E+02 -0.76890679633E+02  0.88724520618E+02  0.00000000000E+00 0. -1.
</event>
<event>
 7    1  0.2644565E-009  0.1251457E+03  0.7561462E-02  0.1234842E+00
         -2   -1    0    0    0  501 -0.00000000000E+00  0.00000000000E+00  0.29355357729E+02  0.29355357729E+02  0.00000000000E+00 0.  1.
          2   -1    0    0  501    0  0.00000000000E+00 -0.00000000000E+00 -0.70150661280E+03  0.70150661280E+03  0.00000000000E+00 0. -1.
         25    2    1    2    0    0  0.29444632390E+02  0.86315915751E+02 -0.42027607677E+03  0.44788051678E+03  0.12509017915E+03 0.  0.
          5    1    3    3  502    0 -0.40957044200E+02  0.59689031246E+01 -0.18241221914E+03  0.18709569040E+03  0.41800000000E+01 0.  1.
         -5    1    3    3    0  502  0.70401676590E+02  0.80347012627E+02 -0.23786385762E+03  0.26078482638E+03  0.41800000000E+01 0.  1.
        -11    1    1    2    0    0 -0.12838859223E+02 -0.84047354642E+02 -0.25227470293E+03  0.26621667842E+03  0.00000000000E+00 0. -1.
         11    1    1    2    0    0 -0.16605773167E+02 -0.22685611098E+01  0.39952462960E+00  0.16764775331E+02  0.00000000000E+00 0.  1.
</event>
<event>
 7    1  0.2644565E-009  0.1046796E+03  0.7561462E-02  0.1270752E+00
          1   -1    0    0  501    0  0.00000000000E+00  0.00000000000E+00  0.75991958720E+02  0.75991958720E+02  0.00000000000E+00 0.  1.
         -1   -1    0    0    0  501 -0.00000000000E+00 -0.00000000000E+00 -0.28517041633E+03  0.28517041633E+03  0.00000000000E+00 0. -1.
         25    2    1    2    0    0  0.26667858675E+02 -0.21599402545E+02 -0.22761458185E+03  0.26197907296E+03  0.12508768093E+03 0.  0.
          5    1    3    3  502    0  0.22513259140E+02  0.43451597781E+02 -0.16245681252E+03  0.16971911065E+03  0.41800000000E+01 0.  1.
         -5    1    3    3    0  502  0.41545995353E+01 -0.65051000326E+02 -0.65157769337E+02  0.92259962311E+02  0.41800000000E+01 0.  1.
        -11    1    1    2    0    0 -0.23296910947E+02  0.55847749822E+02  0.22436583476E+02  0.64537721511E+02  0.00000000000E+00 0.  1.
         11    1    1    2    0    0 -0.33709477283E+01 -0.34248347276E+02 -0.40004592386E+01  0.34645580582E+02  0.00000000000E+00 0. -1.
</event>
<event>
 7    1  0.2644565E-009  0.1191521E+03  0.7561462E-02  0.1244502E+00
          1   -1    0    0  501    0  0.00000000000E+00  0.00000000000E+00  0.59578256027E+02  0.59578256027E+02  0.00000000000E+00 0. -1.
         -1   -1    0    0    0  501 -0.00000000000E+00 -0.00000000000E+00 -0.25172693370E+03  0.25172693370E+03  0.00000000000E+00 0.  1.
         25    2    1    2    0    0  0.30777220081E+02  0.40188765268E+02 -0.14015870923E+03  0.19456198115E+03  0.12509007397E+03 0.  0.
          5    1    3    3  502    0 -0.43083046059E+02  0.41610924151E+02 -0.51668485890E+02  0.79213147271E+02  0.41800000000E+01 0.  1.
         -5    1    3    3    0  502  0.73860266140E+02 -0.14221588828E+01 -0.88490223339E+02  0.11534883388E+03  0.41800000000E+01 0.  1.
        -11    1    1    2    0    0 -0.50567942625E+02 -0.58486631706E+02 -0.34897459403E+02  0.84827092267E+02  0.00000000000E+00 0. -1.
         11    1    1    2    0    0  0.19790722544E+02  0.18297866438E+02 -0.17092509040E+02  0.31916116310E+02  0.00000000000E+00 0.  1.
</event>
<event>
 6    1  0.2644565E-009  0.1090451E+03  0.7561462E-02  0.1262349E+00
         -1   -1    0    0    0  501 -0.00000000000E+00  0.00000000000E+00  0.13968131981E+03  0.13968131981E+03  0.00000000000E+00 0.  1.
          1   -1    0    0  501    0  0.00000000000E+00 -0.00000000000E+00 -0.12851520404E+03  0.12851520404E+03  0.00000000000E+00 0. -1.
          5    1    1    2  502    0 -0.17148609511E+02 -0.30211275998E+02  0.37548215475E+02  0.51323843299E+02  0.41800000000E+01 0.  1.
         -5    1    1    2    0  502  0.34393198444E+02  0.89256629575E+02  0.19326183996E+02  0.97676055460E+02  0.41800000000E+01 0.  1.
        -11    1    1    2    0    0 -0.38154540474E+02 -0.20035742611E+02  0.13603022508E+02  0.45191173498E+02  0.00000000000E+00 0.  1.
         11    1    1    2    0    0  0.20909951540E+02 -0.39009610967E+02 -0.59311306214E+02  0.74005451596E+02  0.00000000000E+00 0. -1.
</event>
<event>
 7    1  0.2644565E-009  0.9991192E+02  0.7561462E-02  0.1280481E+00
          1   -1    0    0  501    0  0.00000000000E+00  0.00000000000E+00  0.59305915682E+03  0.59305915682E+03  0.00000000000E+00 0. -1.
         -1   -1    0    0    0  501 -0.00000000000E+00 -0.00000000000E+00 -0.26455237255E+02  0.26455237255E+02  0.00000000000E+00 0.  1.
         25    2    1    2    0    0 -0.44103751064E+02  0.41725186132E+02  0.36097474289E+03  0.38682775781E+03  0.12508723835E+03 0.  0.
          5    1    3    3  502    0  0.77187216486E+01 -0.32019222935E+02  0.19598727342E+03  0.19877950861E+03  0.41800000000E+01 0. -1.
         -5    1    3    3    0  502 -0.51822472712E+02  0.73744409067E+02  0.16498746946E+03  0.18804824920E+03  0.41800000000E+01 0. -1.
        -11    1    1    2    0    0  0.25041048333E+02  0.53496525155E+01  0.54691104199E+01  0.26183660027E+02  0.00000000000E+00 0.  1.
         11    1    1    2    0    0  0.19062702731E+02 -0.47074838648E+02  0.20016006626E+03  0.20650297623E+03  0.00000000000E+00 0. -1.
</event>
<event>
 7    1  0.2644565E-009  0.9342728E+02  0.7561462E-02  0.1294758E+00
         -2   -1    0    0    0  501 -0.00000000000E+00  0.00000000000E+00  0.20775454373E+02  0.20775454373E+02  0.00000000000E+00 0.  1.
          2   -1    0    0  501    0  0.00000000000E+00 -0.00000000000E+00 -0.73663349773E+03  0.73663349773E+03  0.00000000000E+00 0. -1.
         25    2    1    2    0    0 -0.56091718444E+02 -0.86969743836E+01 -0.36803508886E+03  0.39283409343E+03  0.12508748974E+03 0.  0.
          5    1    3    3  502    0  0.18289042384E+02 -0.72149234523E+00 -0.26378984653E+03  0.26445711402E+03  0.41800000000E+01 0.  1.
         -5    1    3    3    0  502 -0.74380760828E+02 -0.79754820384E+01 -0.10424524232E+03  0.12837697941E+03  0.41800000000E+01 0.  1.
        -11    1    1    2    0    0  0.42714151230E+02 -0.30010164704E+02 -0.28389034290E+03  0.28865002251E+03  0.00000000000E+00 0. -1.
         11    1    1    2    0    0  0.13377567214E+02  0.38707139088E+02 -0.63932611608E+02  0.75924836173E+02  0.00000000000E+00 0.  1.
</event>
<event>
 6    1  0.2644565E-009  0.1076514E+03  0.7561462E-02  0.1264982E+00
          1   -1    0    0  501    0  0.00000000000E+00  0.00000000000E+00  0.20093508012E+02  0.20093508012E+02  0.00000000000E+00 0. -1.
         -1   -1    0    0    0  501 -0.00000000000E+00 -0.00000000000E+00 -0.76597177406E+03  0.76597177406E+03  0.00000000000E+00 0.  1.
          5    1    1    2  502    0 -0.21135640790E+02  0.20140327638E+02 -0.22965294844E+02  0.37379476671E+02  0.41800000000E+01 0.  1.
         -5    1    1    2    0  502  0.34857050706E+02 -0.76767829837E+02 -0.35673620001E+03  0.36658764638E+03  0.41800000000E+01 0.  1.
        -11    1    1    2    0    0 -0.95681010016E+01  0.78525995388E+02 -0.33200902126E+03  0.34130319470E+03  0.00000000000E+00 0.  1.
         11    1    1    2    0    0 -0.41533089150E+01 -0.21898493189E+02 -0.34167749932E+02  0.40794964325E+02  0.00000000000E+00 0. -1.
</event>
<event>
 7    1  0.2644565E-009  0.1075175E+03  0.7561462E-02  0.1265237E+00
         -2   -1    0    0    0  501 -0.00000000000E+00  0.00000000000E+00  0.20045396263E+03  0.20045396263E+03  0.00000000000E+00 0.  1.
          2   -1    0    0  501    0  0.00000000000E+00 -0.00000000000E+00 -0.61872048511E+02  0.61872048511E+02  0.00000000000E+00 0. -1.
         25    2    1    2    0    0 -0.26850349292E+02 -0.77961927948E+01  0.78137423976E+02  0.15011427486E+03  0.12508843516E+03 0.  0.
          5    1    3    3  502    0  0.48077169935E+02 -0.19822426318E+02  0.32262027224E+02  0.61340473219E+02  0.41800000000E+01 0. -1.
         -5    1    3    3    0  502 -0.74927519227E+02  0.12026233523E+02  0.45875396752E+02  0.88773801639E+02  0.41800000000E+01 0. -1.
        -11    1    1    2    0    0  0.30802868860E+02  0.42192351515E+02  0.57157130193E+02  0.77433512049E+02  0.00000000000E+00 0.  1.
         11    1    1    2    0    0 -0.39525195685E+01 -0.34396158720E+02  0.32873599537E+01  0.34778224237E+02  0.00000000000E+00 0. -1.
</event>
<event>
 7    1  0.3004267E-009  0.8923244E+02  0.7561462E-02  0.1304721E+00
          1   -1    0    0  501    0  0.00000000000E+00  0.00000000000E+00  0.22545387910E+03  0.22545387910E+03  0.00000000000E+00 0. -1.
         -1   -1    0    0    0  501 -0.00000000000E+00 -0.00000000000E+00 -0.61520699152E+02  0.61520699152E+02  0.00000000000E+00 0.  1.
         25    2    1    2    0    0 -0.39097033913E+01  0.46896731962E+02  0.95508073591E+02  0.16427005419E+03  0.12509304271E+03 0.  0.
          5    1    3    3  502    0  0.33311841759E+02 -0.29805767237E+02  0.51203241746E+02  0.68097774760E+02  0.41800000000E+01 0.  1.
         -5    1    3    3    0  502 -0.37221545150E+02  0.76702499198E+02  0.44304831844E+02  0.96172279433E+02  0.41800000000E+01 0.  1.
        -11    1    1    2    0    0  0.74493670967E+01 -0.27350055902E+02 -0.18295500010E+02  0.33737871133E+02  0.00000000000E+00 0.  1.
         11    1    1    2    0    0 -0.35396637054E+01 -0.19546676060E+02  0.86720606366E+02  0.88966652924E+02  0.00000000000E+00 0. -1.
</event>
<event>
 7    1  0.2644565E-009  0.9354314E+02  0.7561462E-02  0.1294491E+00
          1   -1    0    0  501    0  0.00000000000E+00  0.00000000000E+00  0.24501794552E+03  0.24501794552E+03  0.00000000000E+00 0. -1.
         -1   -1    0    0    0  501 -0.00000000000E+00 -0.00000000000E+00 -0.81049708848E+02  0.81049708848E+02  0.00000000000E+00 0.  1.
         25    2    1    2    0    0  0.77424793391E+02 -0.93455756763E+01  0.14391652405E+03  0.20601286621E+03  0.12508955484E+03 0.  0.
          5    1    3    3  502    0  0.59148383598E+02 -0.23643384657E+02  0.16339971617E+03  0.17542656745E+03  0.41800000000E+01 0. -1.
         -5    1    3    3    0  502  0.18276409792E+02  0.14297808981E+02 -0.19483192122E+02  0.30586298760E+02  0.41800000000E+01 0. -1.
        -11    1    1    2    0    0 -0.58642451897E+02 -0.22409547484E+02  0.43466914932E+02  0.76357695595E+02  0.00000000000E+00 0. -1.
         11    1    1    2    0    0 -0.18782341494E+02  0.31755123161E+02 -0.23415202316E+02  0.43697092563E+02  0.00000000000E+00 0.  1.
</event>
<event>
 7    1  0.2644565E-009  0.9733852E+02  0.7561462E-02  0.1285994E+00
         -2   -1    0    0    0  501 -0.00000000000E+00  0.00000000000E+00  0.14732177731E+03  0.14732177731E+03  0.00000000000E+00 0.  1.
          2   -1    0    0  501    0  0.00000000000E+00 -0.00000000000E+00 -0.89643012560E+02  0.89643012560E+02  0.00000000000E+00 0. -1.
         25    2    1    2    0    0 -0.66234285216E+01 -0.11132356993E+02  0.69231748622E+02  0.14355190952E+03  0.12508523706E+03 0.  0.
          5    1    3    3  502    0 -0.40833588485E+02  0.31726203109E+02 -0.39264359231E+01  0.52027139181E+02  0.41800000000E+01 0.  1.
         -5    1    3    3    0  502  0.34210159964E+02 -0.42858560102E+02  0.73158184545E+02  0.91524770334E+02  0.41800000000E+01 0.  1.
        -11    1    1    2    0    0 -0.13465195776E+02  0.45797563460E+02  0.86955317487E+01  0.48521547673E+02  0.00000000000E+00 0. -1.
         11    1    1    2    0    0  0.20088624298E+02 -0.34665206468E+02 -0.20248515617E+02  0.44891332686E+02  0.00000000000E+00 0.  1.
</event>
<event>
 7    1  0.2644565E-009  0.9556640E+02  0.7561462E-02  0.1289905E+00
          2   -1    0    0  501    0  0.00000000000E+00  0.00000000000E+00  0.10985467981E+04  0.10985467981E+04  0.00000000000E+00 0. -1.
         -2   -1    0    0    0  501 -0.00000000000E+00 -0.00000000000E+00 -0.25902797152E+02  0.25902797152E+02  0.00000000000E+00 0.  1.
         25    2    1    2    0    0  0.25056099843E+02 -0.43840289251E+02  0.96659978930E+03  0.97596883444E+03  0.12510089542E+03 0.  0.
          5    1    3    3  502    0 -0.34987480134E+02 -0.24086561932E+02  0.12695500192E+03  0.13393778833E+03  0.41800000000E+01 0.  1.
         -5    1    3    3    0  502  0.60043579977E+02 -0.19753727320E+02  0.83964478738E+03  0.84203104611E+03  0.41800000000E+01 0.  1.
        -11    1    1    2    0    0 -0.25699197665E+02  0.61904781175E+02  0.35881844529E+02  0.76027346789E+02  0.00000000000E+00 0.  1.
         11    1    1    2    0    0  0.64309782158E+00 -0.18064491923E+02  0.70162367150E+02  0.72453414049E+02  0.00000000000E+00 0. -1.
</event>
<event>
 7    1  0.2644565E-009  0.1157585E+03  0.7561462E-02  0.1250263E+00
         -2   -1    0    0    0  501 -0.00000000000E+00  0.00000000000E+00  0.39364716793E+03  0.39364716793E+03  0.00000000000E+00 0.  1.
          2   -1    0    0  501    0  0.00000000000E+00 -0.00000000000E+00 -0.34370484068E+02  0.34370484068E+02  0.00000000000E+00 0. -1.
         25    2    1    2    0    0 -0.12210666926E+02 -0.40247426034E+02  0.18620432790E+03  0.22822515246E+03  0.12508282375E+03 0.  0.
          5    1    3    3  502    0  0.42942178624E+02 -0.59196292608E+02  0.96580236684E+02  0.12121652644E+03  0.41800000000E+01 0. -1.
         -5    1    3    3    0  502 -0.55152845550E+02  0.18948866574E+02  0.89624091215E+02  0.10700862602E+03  0.41800000000E+01 0. -1.
        -11    1    1    2    0    0  0.49207779084E+02  0.38987396675E+02  0.11056997100E+03  0.12715007317E+03  0.00000000000E+00 0.  1.
         11    1    1    2    0    0 -0.36997112158E+02  0.12600293597E+01  0.62502384969E+02  0.72642426370E+02  0.00000000000E+00 0. -1.
</event>
<event>
 7    1  0.2644565E-009  0.1140516E+03  0.7561462E-02  0.1253246E+00
         -2   -1    0    0    0  501 -0.00000000000E+00  0.00000000000E+00  0.50491932897E+02  0.50491932897E+02  0.00000000000E+00 0. -1.
          2   -1    0    0  501    0  0.00000000000E+00 -0.00000000000E+00 -0.48246022192E+03  0.48246022192E+03  0.00000000000E+00 0.  1.
         25    2    1    2    0    0 -0.10381535905E+03 -0.24473146039E+02 -0.17130053372E+03  0.23741951407E+03  0.12509032398E+03 0.  0.
          5    1    3    3  502    0 -0.11226608696E+02 -0.28307086044E+01 -0.13499294817E+03  0.13555300849E+03  0.41800000000E+01 0.  1.
         -5    1    3    3    0  502 -0.92588750357E+02 -0.21642437434E+02 -0.36307585555E+02  0.10186650558E+03  0.41800000000E+01 0.  1.
        -11    1    1    2    0    0  0.90069101107E+02 -0.27602376441E+01 -0.24539540390E+03  0.26141722617E+03  0.00000000000E+00 0.  1.
         11    1    1    2    0    0  0.13746257946E+02  0.27233383683E+02 -0.15272351398E+02  0.34115414574E+02  0.00000000000E+00 0. -1.
</event>
<event>
 7    1  0.2644565E-009  0.9794123E+02  0.7561462E-02  0.1284686E+00
          2   -1    0    0  501    0  0.00000000000E+00  0.00000000000E+00  0.81225709900E+03  0.81225709900E+03  0.00000000000E+00 0. -1.
         -2   -1    0    0    0  501 -0.00000000000E+00 -0.00000000000E+00 -0.16771335425E+02  0.16771335425E+02  0.00000000000E+00 0.  1.
         25    2    1    2    0    0 -0.33062729589E+02 -0.19643202617E+01  0.56466051922E+03  0.57929713074E+03  0.12508661432E+03 0.  0.
          5    1    3    3  502    0  0.14048433425E+02  0.51530326445E+02  0.31908378397E+03  0.32355009909E+03  0.41800000000E+01 0.  1.
         -5    1    3    3    0  502 -0.47111163014E+02 -0.53494646707E+02  0.24557673524E+03  0.25574703166E+03  0.41800000000E+01 0.  1.
        -11    1    1    2    0    0  0.10003007339E+02 -0.29923718761E+02  0.25215286203E+02  0.40389352045E+02  0.00000000000E+00 0.  1.
         11    1    1    2    0    0  0.23059722250E+02  0.31888039023E+02  0.20560995816E+03  0.20934195164E+03  0.00000000000E+00 0. -1.
</event>
<event>
 7    1  0.2644565E-009  0.9758889E+02  0.7561462E-02  0.1285449E+00
         -1   -1    0    0    0  501 -0.00000000000E+00  0.00000000000E+00  0.22852922505E+03  0.22852922505E+03  0.00000000000E+00 0.  1.
          1   -1    0    0  501    0  0.00000000000E+00 -0.00000000000E+00 -0.71819090761E+02  0.71819090761E+02  0.00000000000E+00 0. -1.
         25    2    1    2    0    0 -0.37519993694E+02  0.25678377096E+02  0.14674546222E+03  0.19811125159E+03  0.12508680324E+03 0.  0.
          5    1    3    3  502    0  0.16959580027E+00 -0.40617856717E+02  0.10134326468E+03  0.10926009675E+03  0.41800000000E+01 0. -1.
         -5    1    3    3    0  502 -0.37689589494E+02  0.66296233812E+02  0.45402197549E+02  0.88851154839E+02  0.41800000000E+01 0. -1.
        -11    1    1    2    0    0 -0.14546976945E+02  0.73625808998E+01  0.32679403074E+02  0.36520754661E+02  0.00000000000E+00 0.  1.
         11    1    1    2    0    0  0.52066970639E+02 -0.33040957995E+02 -0.22714731013E+02  0.65716309557E+02  0.00000000000E+00 0. -1.
</event>
<event>
 7    1  0.2644565E-009  0.1212863E+03  0.7561462E-02  0.1240990E+00
          2   -1    0    0  501    0  0.00000000000E+00  0.00000000000E+00  0.38182137686E+03  0.38182137686E+03  0.00000000000E+00 0. -1.
         -2   -1    0    0    0  501 -0.00000000000E+00 -0.00000000000E+00 -0.46779434394E+02  0.46779434394E+02  0.00000000000E+00 0.  1.
         25    2    1    2    0    0  0.19905674665E+02  0.74531453330E+02  0.17370590387E+03  0.22753177566E+03  0.12508315024E+03 0.  0.
          5    1    3    3  502    0  0.43213380195E+02 -0.37303588032E+01  0.12495687420E+03  0.13233670924E+03  0.41800000000E+01 0.  1.
         -5    1    3    3    0  502 -0.23307705529E+02  0.78261812133E+02  0.48749029677E+02  0.95195066416E+02  0.41800000000E+01 0.  1.
        -11    1    1    2    0    0  0.31102975317E+02 -0.53856136069E+02  0.10678800277E+03  0.12357813724E+03  0.00000000000E+00 0. -1.
         11    1    1    2    0    0 -0.51008649983E+02 -0.20675317261E+02  0.54548035821E+02  0.77490898361E+02  0.00000000000E+00 0.  1.
</event>
<event>
 7    1  0.2644565E-009  0.9225286E+02  0.7561462E-02  0.1297486E+00
          3   -1    0    0  501    0  0.00000000000E+00  0.00000000000E+00  0.10779822536E+03  0.10779822536E+03  0.00000000000E+00 0. -1.
         -3   -1    0    0    0  501 -0.00000000000E+00 -0.00000000000E+00 -0.12591454957E+03  0.12591454957E+03  0.00000000000E+00 0.  1.
         25    2    1    2    0    0  0.24115850632E+02 -0.42348399811E+02  0.12628707909E+02  0.13485412143E+03  0.12510471048E+03 0.  0.
          5    1    3    3  502    0  0.55048848908E+02 -0.12959583851E+02  0.51782516922E+02  0.76793411426E+02  0.41800000000E+01 0.  1.
         -5    1    3    3    0  502 -0.30932998275E+02 -0.29388815960E+02 -0.39153809013E+02  0.58060710003E+02  0.41800000000E+01 0.  1.
        -11    1    1    2    0    0 -0.34736971087E+02  0.57047146881E+02 -0.44795862411E+01  0.66941024944E+02  0.00000000000E+00 0. -1.
         11    1    1    2    0    0  0.10621120455E+02 -0.14698747070E+02 -0.26265445876E+02  0.31917628550E+02  0.00000000000E+00 0.  1.
</event>
<event>
 7    1  0.2644565E-009  0.1362369E+03  0.7561462E-02  0.1218484E+00
          1   -1    0    0  501    0  0.00000000000E+00  0.00000000000E+00  0.25356540880E+03  0.25356540880E+03  0.00000000000E+00 0. -1.
         -1   -1    0    0    0  501 -0.00000000000E+00 -0.00000000000E+00 -0.82024578794E+02  0.82024578794E+02  0.00000000000E+00 0.  1.
         25    2    1    2    0    0 -0.89159732501E+02  0.11350280584E+02  0.12861880943E+03  0.20067135631E+03  0.12509159978E+03 0.  0.
          5    1    3    3  502    0  0.22661565511E+02 -0.26629915856E+02  0.37567171595E+02  0.51492365954E+02  0.41800000000E+01 0.  1.
         -5    1    3    3    0  502 -0.11182129801E+03  0.37980196440E+02  0.91051637839E+02  0.14917899036E+03  0.41800000000E+01 0.  1.
        -11    1    1    2    0    0  0.99556201210E+02  0.50348515639E+01  0.14836741677E+02  0.10078152526E+03  0.00000000000E+00 0.  1.
         11    1    1    2    0    0 -0.10396468709E+02 -0.16385132148E+02  0.28085278893E+02  0.34137106023E+02  0.00000000000E+00 0. -1.
</event>
<event>
 7    1  0.2644565E-009  0.1090009E+03  0.7561462E-02  0.1262431E+00
          1   -1    0    0  501    0  0.00000000000E+00  0.00000000000E+00  0.99686524905E+02  0.99686524905E+02  0.00000000000E+00 0. -1.
         -1   -1    0    0    0  501 -0.00000000000E+00 -0.00000000000E+00 -0.20261013927E+03  0.20261013927E+03  0.00000000000E+00 0.  1.
         25    2    1    2    0    0 -0.68390754491E+02  0.44158671337E+02 -0.13108030679E+02  0.14982124428E+03  0.12508917305E+03 0.  0.
          5    1    3    3  502    0 -0.12698390768E+02 -0.35995333194E+02  0.24042359853E+02  0.45303648939E+02  0.41800000000E+01 0.  1.
         -5    1    3    3    0  502 -0.55692363723E+02  0.80154004531E+02 -0.37150390532E+02  0.10451759534E+03  0.41800000000E+01 0.  1.
        -11    1    1    2    0    0  0.53446953690E+02 -0.38762981291E+02 -0.50312283908E+01  0.66215246254E+02  0.00000000000E+00 0. -1.
         11    1    1    2    0    0  0.14943800801E+02 -0.53956900458E+01 -0.84784355300E+02  0.86260173644E+02  0.00000000000E+00 0.  1.
</event>
<event>
 7    1  0.2644565E-009  0.1582618E+03  0.7561462E-02  0.1190673E+00
          1   -1    0    0  501    0  0.00000000000E+00  0.00000000000E+00  0.77817697717E+02  0.77817697717E+02  0.00000000000E+00 0. -1.
         -1   -1    0    0    0  501 -0.00000000000E+00 -0.00000000000E+00 -0.34158107769E+03  0.34158107769E+03  0.00000000000E+00 0.  1.
         25    2    1    2    0    0  0.18835236044E+02 -0.11648838004E+03 -0.10115765696E+03  0.19951102084E+03  0.12508983602E+03 0.  0.
          5    1    3    3  502    0  0.64680808171E+02 -0.31085403430E+02 -0.24784881955E+02  0.76037306801E+02  0.41800000000E+01 0.  1.
         -5    1    3    3    0  502 -0.45845572127E+02 -0.85402976611E+02 -0.76372775004E+02  0.12347371404E+03  0.41800000000E+01 0.  1.
        -11    1    1    2    0    0  0.31243092334E+02  0.15457822020E+02 -0.45510108440E+02  0.57325779981E+02  0.00000000000E+00 0.  1.
         11    1    1    2    0    0 -0.50078328378E+02  0.10103055802E+03 -0.11709561457E+03  0.16256197458E+03  0.00000000000E+00 0. -1.
</event>
<event>
 7    1  0.2644565E-009  0.9783736E+02  0.7561462E-02  0.1284911E+00
          2   -1    0    0  501    0  0.00000000000E+00  0.00000000000E+00  0.82498351926E+03  0.82498351926E+03  0.00000000000E+00 0. -1.
         -2   -1    0    0    0  501 -0.00000000000E+00 -0.00000000000E+00 -0.17153059636E+02  0.17153059636E+02  0.00000000000E+00 0.  1.
         25    2    1    2    0    0  0.19075318950E+02  0.40435438926E+02  0.56268977708E+03  0.57815654474E+03  0.12508522090E+03 0.  0.
          5    1    3    3  502    0 -0.31694954601E+02 -0.26108628500E+02  0.28873001997E+03  0.29166543755E+03  0.41800000000E+01 0.  1.
         -5    1    3    3    0  502  0.50770273552E+02  0.66544067426E+02  0.27395975711E+03  0.28649110719E+03  0.41800000000E+01 0.  1.
        -11    1    1    2    0    0  0.16221163427E+02 -0.29460148490E+02  0.28131302064E+02  0.43845143948E+02  0.00000000000E+00 0.  1.
         11    1    1    2    0    0 -0.35296482378E+02 -0.10975290437E+02  0.21700938048E+03  0.22013489020E+03  0.00000000000E+00 0. -1.
</event>
<event>
 7    1  0.2644565E-009  0.1016367E+03  0.7561462E-02  0.1276891E+00
          1   -1    0    0  501    0  0.00000000000E+00  0.00000000000E+00  0.44817186608E+02  0.44817186608E+02  0.00000000000E+00 0. -1.
         -1   -1    0    0    0  501 -0.00000000000E+00 -0.00000000000E+00 -0.29526369977E+03  0.29526369977E+03  0.00000000000E+00 0.  1.
         25    2    1    2    0    0  0.11968825345E+01 -0.35376470040E+02 -0.11922461754E+03  0.17639189503E+03  0.12508662616E+03 0.  0.
          5    1    3    3  502    0  0.43964298487E+02 -0.48528931063E+02 -0.21867270290E+02  0.69163332783E+02  0.41800000000E+01 0.  1.
         -5    1    3    3    0  502 -0.42767415953E+02  0.13152461024E+02 -0.97357347249E+02  0.10722856225E+03  0.41800000000E+01 0.  1.
        -11    1    1    2    0    0 -0.43300841762E+02  0.14058766347E+02 -0.90706237174E+02  0.10149006489E+03  0.00000000000E+00 0.  1.
         11    1    1    2    0    0  0.42103959227E+02  0.21317703693E+02 -0.40515658449E+02  0.62198926461E+02  0.00000000000E+00 0. -1.
</event>
<event>
 7    1  0.2644565E-009  0.1961405E+03  0.7561462E-02  0.1153037E+00
         -1   -1    0    0    0  501 -0.00000000000E+00  0.00000000000E+00  0.12153611885E+03  0.12153611885E+03  0.00000000000E+00 0.  1.
          1   -1    0    0  501    0  0.00000000000E+00 -0.00000000000E+00 -0.37640508037E+03  0.37640508037E+03  0.00000000000E+00 0. -1.
         25    2    1    2    0    0  0.17875038661E+03  0.42753273242E+02 -0.12321410694E+03  0.25418263245E+03  0.12509017308E+03 0.  0.
          5    1    3    3  502    0  0.18627894677E+03  0.48202727365E+02 -0.77718340315E+02  0.20755953786E+03  0.41800000000E+01 0. -1.
         -5    1    3    3    0  502 -0.75285601568E+01 -0.54494541230E+01 -0.45495766624E+02  0.46623094589E+02  0.41800000000E+01 0. -1.
        -11    1    1    2    0    0 -0.82509101211E+02  0.40577202700E+01 -0.12418619257E+02  0.83537051544E+02  0.00000000000E+00 0.  1.
         11    1    1    2    0    0 -0.96241285403E+02 -0.46810993512E+02 -0.11923623531E+03  0.16022151523E+03  0.00000000000E+00 0. -1.
</event>
<event>
 7    1  0.2644565E-009  0.9790883E+02  0.7561462E-02  0.1284756E+00
         -3   -1    0    0    0  501 -0.00000000000E+00  0.00000000000E+00  0.14463481410E+03  0.14463481410E+03  0.00000000000E+00 0.  1.
          3   -1    0    0  501    0  0.00000000000E+00 -0.00000000000E+00 -0.94365269585E+02  0.94365269585E+02  0.00000000000E+00 0. -1.
         25    2    1    2    0    0 -0.38016019151E+02  0.39846351682E+01  0.56347823053E+02  0.14242095443E+03  0.12509019174E+03 0.  0.
          5    1    3    3  502    0 -0.11791822355E+02  0.50605318845E+02 -0.13973243571E+02  0.53969151426E+02  0.41800000000E+01 0. -1.
         -5    1    3    3    0  502 -0.26224196796E+02 -0.46620683676E+02  0.70321066624E+02  0.88451803007E+02  0.41800000000E+01 0. -1.
        -11    1    1    2    0    0  0.10884311549E+02 -0.41968459039E+02  0.14288566294E+02  0.45650661756E+02  0.00000000000E+00 0.  1.
         11    1    1    2    0    0  0.27131707602E+02  0.37983823871E+02 -0.20366844830E+02  0.50928467497E+02  0.00000000000E+00 0. -1.
</event>
<event>
 7    1  0.2644565E-009  0.1840875E+03  0.7561462E-02  0.1163905E+00
          2   -1    0    0  501    0  0.00000000000E+00  0.00000000000E+00  0.33538786632E+03  0.33538786632E+03  0.00000000000E+00 0. -1.
         -2   -1    0    0    0  501 -0.00000000000E+00 -0.00000000000E+00 -0.13602847131E+03  0.13602847131E+03  0.00000000000E+00 0.  1.
         25    2    1    2    0    0 -0.16709255552E+03 -0.18561350390E+02  0.21624631144E+02  0.21066475680E+03  0.12509024442E+03 0.  0.
          5    1    3    3  502    0 -0.11185502921E+03  0.19936678831E+02  0.64516454875E+02  0.13072438209E+03  0.41800000000E+01 0.  1.
         -5    1    3    3    0  502 -0.55237526304E+02 -0.38498029221E+02 -0.42891823731E+02  0.79940374712E+02  0.41800000000E+01 0.  1.
        -11    1    1    2    0    0  0.14519288442E+03  0.45638041623E+02  0.12212060647E+03  0.19513392082E+03  0.00000000000E+00 0.  1.
         11    1    1    2    0    0  0.21899671097E+02 -0.27076691233E+02  0.55614157391E+02  0.65617660005E+02  0.00000000000E+00 0. -1.
</event>
<event>
 7    1  0.2644565E-009  0.5368278E+02  0.7561462E-02  0.1426433E+00
         -4   -1    0    0    0  501 -0.00000000000E+00  0.00000000000E+00  0.65573627078E+02  0.65573627078E+02  0.00000000000E+00 0. -1.
          4   -1    0    0  501    0  0.00000000000E+00 -0.00000000000E+00 -0.18234366236E+03  0.18234366236E+03  0.00000000000E+00 0.  1.
         25    2    1    2    0    0  0.76701720057E+01 -0.87079687041E+01 -0.80531796783E+02  0.14922160815E+03  0.12508820003E+03 0.  0.
          5    1    3    3  502    0  0.97198869115E+01 -0.30190002239E+02 -0.10880435332E+03  0.11340975328E+03  0.41800000000E+01 0.  1.
         -5    1    3    3    0  502 -0.20497149059E+01  0.21482033535E+02  0.28272556538E+02  0.35811854869E+02  0.41800000000E+01 0.  1.
        -11    1    1    2    0    0  0.20504689797E+02  0.13863844036E+02  0.22433803736E+02  0.33405449035E+02  0.00000000000E+00 0. -1.
         11    1    1    2    0    0 -0.28174861803E+02 -0.51558753316E+01 -0.58672042234E+02  0.65290232255E+02  0.00000000000E+00 0.  1.
</event>
<event>
 7    1  0.2644565E-009  0.1105915E+03  0.7561462E-02  0.1259478E+00
         -1   -1    0    0    0  501 -0.00000000000E+00  0.00000000000E+00  0.90345452504E+02  0.90345452504E+02  0.00000000000E+00 0.  1.
          1   -1    0    0  501    0  0.00000000000E+00 -0.00000000000E+00 -0.28046411332E+03  0.28046411332E+03  0.00000000000E+00 0. -1.
         25    2    1    2    0    0 -0.17896490792E+02  0.10597923618E+03 -0.15542135526E+03  0.22661558301E+03  0.12508773684E+03 0.  0.
          5    1    3    3  502    0  0.42638661532E+01  0.34579217268E+02 -0.14715835439E+03  0.15128435639E+03  0.41800000000E+01 0. -1.
         -5    1    3    3    0  502 -0.22160356946E+02  0.71400018914E+02 -0.82630008738E+01  0.75331226621E+02  0.41800000000E+01 0. -1.
        -11    1    1    2    0    0 -0.49627175445E+01 -0.56425788835E+02 -0.61316690000E+02  0.83475952727E+02  0.00000000000E+00 0. -1.
         11    1    1    2    0    0  0.22859208337E+02 -0.49553447347E+02  0.26619384444E+02  0.60718030089E+02  0.00000000000E+00 0.  1.
</event>
<event>
 7    1  0.2644565E-009  0.1021948E+03  0.7561462E-02  0.1275747E+00
         -1   -1    0    0    0  501 -0.00000000000E+00  0.00000000000E+00  0.14637041561E+03  0.14637041561E+03  0.00000000000E+00 0.  1.
          1   -1    0    0  501    0  0.00000000000E+00 -0.00000000000E+00 -0.12158784700E+03  0.12158784700E+03  0.00000000000E+00 0. -1.
         25    2    1    2    0    0  0.42180946863E+02 -0.61659921178E+02  0.37128320418E+02  0.15035878089E+03  0.12509225657E+03 0.  0.
          5    1    3    3  502    0  0.31581472371E+02  0.13867719006E+02 -0.32077227037E+02  0.47287671987E+02  0.41800000000E+01 0. -1.
         -5    1    3    3    0  502  0.10599474491E+02 -0.75527640184E+02  0.69205547455E+02  0.10307110890E+03  0.41800000000E+01 0. -1.
        -11    1    1    2    0    0 -0.29886630144E+02  0.71513358900E+02  0.21356934786E+02  0.80395832143E+02  0.00000000000E+00 0.  1.
         11    1    1    2    0    0 -0.12294316718E+02 -0.98534377221E+01 -0.33702686589E+02  0.37203649577E+02  0.00000000000E+00 0. -1.
</event>
<event>
 7    1  0.2644565E-009  0.8502260E+02  0.7561462E-02  0.1315373E+00
         -2   -1    0    0    0  501 -0.00000000000E+00  0.00000000000E+00  0.14439151609E+02  0.14439151609E+02  0.00000000000E+00 0.  1.
          2   -1    0    0  501    0  0.00000000000E+00 -0.00000000000E+00 -0.21269327628E+04  0.21269327628E+04  0.00000000000E+00 0. -1.
         25    2    1    2    0    0 -0.60839000589E+02  0.31720137619E+02 -0.19093345132E+04  0.19146571433E+04  0.12508453912E+03 0.  0.
          5    1    3    3  502    0 -0.57033382933E+02 -0.35292743626E+01 -0.33122761356E+03  0.33614649623E+03  0.41800000000E+01 0. -1.
         -5    1    3    3    0  502 -0.38056176556E+01  0.35249411982E+02 -0.15781068996E+04  0.15785106471E+04  0.41800000000E+01 0. -1.
        -11    1    1    2    0    0  0.18019323961E+02 -0.29002488464E+02 -0.16744256888E+03  0.17088842631E+03  0.00000000000E+00 0. -1.
         11    1    1    2    0    0  0.42819676628E+02 -0.27176491555E+01 -0.35716529116E+02  0.55826344816E+02  0.00000000000E+00 0.  1.
</event>
<event>
 7    1  0.2644565E-009  0.9828601E+02  0.7561462E-02  0.1283942E+00
         -1   -1    0    0    0  501 -0.00000000000E+00  0.00000000000E+00  0.60351185648E+02  0.60351185648E+02  0.00000000000E+00 0.  1.
          1   -1    0    0  501    0  0.00000000000E+00 -0.00000000000E+00 -0.20012184569E+03  0.20012184569E+03  0.00000000000E+00 0. -1.
         25    2    1    2    0    0 -0.33496029687E+01 -0.13112497397E+02 -0.63851218273E+02  0.14109383113E+03  0.12508930282E+03 0.  0.
          5    1    3    3  502    0  0.27104626056E+02  0.48502575923E+02 -0.38461008621E+02  0.67704373632E+02  0.41800000000E+01 0. -1.
         -5    1    3    3    0  502 -0.30454229025E+02 -0.61615073320E+02 -0.25390209652E+02  0.73389457498E+02  0.41800000000E+01 0. -1.
        -11    1    1    2    0    0 -0.32682033737E+02  0.14902301273E+02 -0.66622507851E+00  0.35925447364E+02  0.00000000000E+00 0.  1.
         11    1    1    2    0    0  0.36031636706E+02 -0.17898038759E+01 -0.75253216693E+02  0.83453752848E+02  0.00000000000E+00 0. -1.
</event>
<event>
 7    1  0.2644565E-009  0.1161600E+03  0.7561462E-02  0.1249570E+00
          1   -1    0    0  501    0  0.00000000000E+00  0.00000000000E+00  0.18296027529E+03  0.18296027529E+03  0.00000000000E+00 0. -1.
         -1   -1    0    0    0  501 -0.00000000000E+00 -0.00000000000E+00 -0.80556095914E+02  0.80556095914E+02  0.00000000000E+00 0.  1.
         25    2    1    2    0    0 -0.46987026509E+02 -0.11858597026E+01  0.38394348403E+02  0.13903017589E+03  0.12508427917E+03 0.  0.
          5    1    3    3  502    0 -0.76266489184E+02 -0.33506916754E+02  0.43036969763E+01  0.83518171978E+02  0.41800000000E+01 0. -1.
         -5    1    3    3    0  502  0.29279462675E+02  0.32321057051E+02  0.34090651426E+02  0.55512003910E+02  0.41800000000E+01 0. -1.
        -11    1    1    2    0    0  0.74838357044E+02  0.10851220929E+02  0.35739916344E+02  0.83641319341E+02  0.00000000000E+00 0. -1.
         11    1    1    2    0    0 -0.27851330535E+02 -0.96653612261E+01  0.28269914627E+02  0.40844875973E+02  0.00000000000E+00 0.  1.
</event>
<event>
 7    1  0.2644565E-009  0.3916708E+03  0.7561462E-02  0.1046703E+00
         -2   -1    0    0    0  501 -0.00000000000E+00  0.00000000000E+00  0.50335302247E+03  0.50335302247E+03  0.00000000000E+00 0.  1.
          2   -1    0    0  501    0  0.00000000000E+00 -0.00000000000E+00 -0.32384098756E+03  0.32384098756E+03  0.00000000000E+00 0. -1.
         25    2    1    2    0    0  0.38416885943E+03 -0.36567477708E+02  0.13816926644E+03  0.42855680923E+03  0.12508916646E+03 0.  0.
          5    1    3    3  502    0  0.34126388745E+03 -0.60683674313E+02  0.86910887545E+02  0.35737168883E+03  0.41800000000E+01 0. -1.
         -5    1    3    3    0  502  0.42904971988E+02  0.24116196605E+02  0.51258378894E+02  0.71185120403E+02  0.41800000000E+01 0. -1.
        -11    1    1    2    0    0 -0.30401780625E+03  0.42307542733E+02 -0.27882118636E+01  0.30696014206E+03  0.00000000000E+00 0.  1.
         11    1    1    2    0    0 -0.80151053181E+02 -0.57400650250E+01  0.44130980331E+02  0.91677058731E+02  0.00000000000E+00 0. -1.
</event>
<event>
 7    1  0.2644565E-009  0.1237207E+03  0.7561462E-02  0.1237082E+00
         -1   -1    0    0    0  501 -0.00000000000E+00  0.00000000000E+00  0.10805372439E+03  0.10805372439E+03  0.00000000000E+00 0.  1.
          1   -1    0    0  501    0  0.00000000000E+00 -0.00000000000E+00 -0.16449600432E+03  0.16449600432E+03  0.00000000000E+00 0. -1.
         25    2    1    2    0    0  0.29670479962E+02  0.67777219379E+02 -0.54310102314E+02  0.15514900931E+03  0.12509012363E+03 0.  0.
          5    1    3    3  502    0 -0.40539508339E+02  0.17515000491E+02  0.12280703976E+02  0.46027329585E+02  0.41800000000E+01 0.  1.
         -5    1    3    3    0  502  0.70209988302E+02  0.50262218887E+02 -0.66590806289E+02  0.10912167973E+03  0.41800000000E+01 0.  1.
        -11    1    1    2    0    0  0.30545008589E+02 -0.39980368581E+02 -0.74688637637E+01  0.50864637495E+02  0.00000000000E+00 0. -1.
         11    1    1    2    0    0 -0.60215488551E+02 -0.27796850798E+02  0.53366861514E+01  0.66536081901E+02  0.00000000000E+00 0.  1.
</event>
<event>
 7    1  0.2644565E-009  0.9151281E+02  0.7561462E-02  0.1299229E+00
          1   -1    0    0  501    0  0.00000000000E+00  0.00000000000E+00  0.61296100306E+03  0.61296100306E+03  0.00000000000E+00 0. -1.
         -1   -1    0    0    0  501 -0.00000000000E+00 -0.00000000000E+00 -0.31085342642E+02  0.31085342642E+02  0.00000000000E+00 0.  1.
         25    2    1    2    0    0 -0.65233926890E+02  0.46267628712E+02  0.26370043442E+03  0.30262470950E+03  0.12509051524E+03 0.  0.
          5    1    3    3  502    0 -0.59857467810E+02  0.47072392510E+02  0.27719115658E+03  0.28749110643E+03  0.41800000000E+01 0. -1.
         -5    1    3    3    0  502 -0.53764590795E+01 -0.80476379736E+00 -0.13490722170E+02  0.15133603063E+02  0.41800000000E+01 0. -1.
        -11    1    1    2    0    0  0.17325187382E+02 -0.48944684410E+02  0.62359332437E+02  0.81144504385E+02  0.00000000000E+00 0.  1.
         11    1    1    2    0    0  0.47908739508E+02  0.26770556980E+01  0.25581589356E+03  0.26027713182E+03  0.00000000000E+00 0. -1.
</event>
<event>
 7    1  0.2644565E-009  0.1113939E+03  0.7561462E-02  0.1258010E+00
         -1   -1    0    0    0  501 -0.00000000000E+00  0.00000000000E+00  0.20458418678E+03  0.20458418678E+03  0.00000000000E+00 0.  1.
          1   -1    0    0  501    0  0.00000000000E+00 -0.00000000000E+00 -0.81346736557E+02  0.81346736557E+02  0.00000000000E+00 0. -1.
         25    2    1    2    0    0  0.56049308813E+02 -0.19215607187E+02  0.10565916546E+03  0.17413005869E+03  0.12508658408E+03 0.  0.
          5    1    3    3  502    0  0.56495254467E+02 -0.68212423592E+02  0.60310129179E+02  0.10723540736E+03  0.41800000000E+01 0.  1.
         -5    1    3    3    0  502 -0.44594565395E+00  0.48996816405E+02  0.45349036277E+02  0.66894651330E+02  0.41800000000E+01 0.  1.
        -11    1    1    2    0    0 -0.37191628261E+02 -0.19415295683E+02 -0.26984474346E+02  0.49883191306E+02  0.00000000000E+00 0. -1.
         11    1    1    2    0    0 -0.18857680553E+02  0.38630902870E+02  0.44562759109E+02  0.61917673339E+02  0.00000000000E+00 0.  1.
</event>
<event>
 7    1  0.2644565E-009  0.1031351E+03  0.7561462E-02  0.1273838E+00
          1   -1    0    0  501    0  0.00000000000E+00  0.00000000000E+00  0.16177988380E+03  0.16177988380E+03  0.00000000000E+00 0. -1.
         -1   -1    0    0    0  501 -0.00000000000E+00 -0.00000000000E+00 -0.10680301195E+03  0.10680301195E+03  0.00000000000E+00 0.  1.
         25    2    1    2    0    0 -0.18099246156E+02 -0.18357611011E+02 -0.42984853338E+02  0.13475976889E+03  0.12509161883E+03 0.  0.
          5    1    3    3  502    0  0.27329136803E+02  0.42377251601E+02 -0.83755626995E+01  0.51286797738E+02  0.41800000000E+01 0.  1.
         -5    1    3    3    0  502 -0.45428382959E+02 -0.60734862612E+02 -0.34609290638E+02  0.83472971154E+02  0.41800000000E+01 0.  1.
        -11    1    1    2    0    0 -0.22649901247E+02  0.29758576694E+02  0.79100910483E+02  0.87495971065E+02  0.00000000000E+00 0. -1.
         11    1    1    2    0    0  0.40749147402E+02 -0.11400965683E+02  0.18860814699E+02  0.46327155791E+02  0.00000000000E+00 0.  1.
</event>
<event>
 7    1  0.2644565E-009  0.2241098E+03  0.7561462E-02  0.1130856E+00
          1   -1    0    0  501    0  0.00000000000E+00  0.00000000000E+00  0.30833882569E+03  0.30833882569E+03  0.00000000000E+00 0. -1.
         -1   -1    0    0    0  501 -0.00000000000E+00 -0.00000000000E+00 -0.18222071681E+03  0.18222071681E+03  0.00000000000E+00 0.  1.
         25    2    1    2    0    0  0.18983872958E+03  0.85940807326E+02  0.28110452089E+02  0.24466713889E+03  0.12508895125E+03 0.  0.
          5    1    3    3  502    0 -0.70710058250E+01 -0.14460416381E+02  0.16294898795E+02  0.23283017245E+02  0.41800000000E+01 0.  1.
         -5    1    3    3    0  502  0.19690973540E+03  0.10040122371E+03  0.11815553293E+02  0.22138412165E+03  0.41800000000E+01 0.  1.
        -11    1    1    2    0    0 -0.55661463074E+02 -0.40578750998E+02  0.75972674733E+02  0.10255086938E+03  0.00000000000E+00 0. -1.
         11    1    1    2    0    0 -0.13417726650E+03 -0.45362056328E+02  0.22034982055E+02  0.14334153423E+03  0.00000000000E+00 0.  1.
</event>
<event>
 7    1  0.2644565E-009  0.1882585E+03  0.7561462E-02  0.1160041E+00
         -2   -1    0    0    0  501 -0.00000000000E+00  0.00000000000E+00  0.10779490486E+04  0.10779490486E+04  0.00000000000E+00 0.  1.
          2   -1    0    0  501    0  0.00000000000E+00 -0.00000000000E+00 -0.33189147129E+02  0.33189147129E+02  0.00000000000E+00 0. -1.
         25    2    1    2    0    0  0.15355044213E+03 -0.17775188908E+02  0.54138255545E+03  0.57674620742E+03  0.12508965106E+03 0.  0.
          5    1    3    3  502    0  0.10603866658E+02 -0.49655859368E+02  0.11171223646E+03  0.12278127924E+03  0.41800000000E+01 0. -1.
         -5    1    3    3    0  502  0.14294657547E+03  0.31880670460E+02  0.42967031899E+03  0.45396492817E+03  0.41800000000E+01 0. -1.
        -11    1    1    2    0    0 -0.38236804439E+02 -0.35363824583E+02  0.16206422870E+03  0.17022769318E+03  0.00000000000E+00 0. -1.
         11    1    1    2    0    0 -0.11531363769E+03  0.53139013490E+02  0.34131311734E+03  0.36416429514E+03  0.00000000000E+00 0.  1.
</event>
<event>
 7    1  0.2644565E-009  0.1630122E+03  0.7561462E-02  0.1185337E+00
          2   -1    0    0  501    0  0.00000000000E+00  0.00000000000E+00  0.13922566363E+04  0.13922566363E+04  0.00000000000E+00 0. -1.
         -2   -1    0    0    0  501 -0.00000000000E+00 -0.00000000000E+00 -0.27075495140E+02  0.27075495140E+02  0.00000000000E+00 0.  1.
         25    2    1    2    0    0  0.11047014487E+03  0.83771941607E+02  0.10187116856E+04  0.10356841975E+04  0.12508743928E+03 0.  0.
          5    1    3    3  502    0  0.90582987964E+02  0.11683987984E+03  0.80111131068E+03  0.81464939681E+03  0.41800000000E+01 0. -1.
         -5    1    3    3    0  502  0.19887156902E+02 -0.33067938237E+02  0.21760037489E+03  0.22103480065E+03  0.41800000000E+01 0. -1.
        -11    1    1    2    0    0 -0.51407510640E+02 -0.30505314219E+02  0.53997370468E+02  0.80554468301E+02  0.00000000000E+00 0.  1.
         11    1    1    2    0    0 -0.59062634227E+02 -0.53266627388E+02  0.29247208510E+03  0.30309346565E+03  0.00000000000E+00 0. -1.
</event>
<event>
 7    1  0.2644565E-009  0.8861744E+02  0.7561462E-02  0.1306235E+00
          1   -1    0    0  501    0  0.00000000000E+00  0.00000000000E+00  0.64973366470E+02  0.64973366470E+02  0.00000000000E+00 0. -1.
         -1   -1    0    0    0  501 -0.00000000000E+00 -0.00000000000E+00 -0.30565576603E+03  0.30565576603E+03  0.00000000000E+00 0.  1.
         25    2    1    2    0    0  0.30825723122E+01 -0.58454207148E+02 -0.22353106409E+03  0.26275403664E+03  0.12508857092E+03 0.  0.
          5    1    3    3  502    0  0.25601000524E+02 -0.27503466336E+02 -0.19543784674E+01  0.37856886870E+02  0.41800000000E+01 0.  1.
         -5    1    3    3    0  502 -0.22518428211E+02 -0.30950740813E+02 -0.22157668562E+03  0.22489714977E+03  0.41800000000E+01 0.  1.
        -11    1    1    2    0    0  0.23644646699E+01  0.79322513789E+02 -0.27454957075E+02  0.83972772701E+02  0.00000000000E+00 0.  1.
         11    1    1    2    0    0 -0.54470369821E+01 -0.20868306641E+02  0.10303621606E+02  0.23902323154E+02  0.00000000000E+00 0. -1.
</event>
<event>
 7    1  0.2644565E-009  0.9457467E+02  0.7561462E-02  0.1292137E+00
         -2   -1    0    0    0  501 -0.00000000000E+00  0.00000000000E+00  0.12239537501E+03  0.12239537501E+03  0.00000000000E+00 0.  1.
          2   -1    0    0  501    0  0.00000000000E+00 -0.00000000000E+00 -0.12855383892E+03  0.12855383892E+03  0.00000000000E+00 0. -1.
         25    2    1    2    0    0 -0.28417517561E+01  0.60064948480E+02  0.17193866242E+02  0.13985703708E+03  0.12509391751E+03 0.  0.
          5    1    3    3  502    0 -0.52407427081E+02  0.46285472720E+02 -0.23763014778E+02  0.73966456380E+02  0.41800000000E+01 0. -1.
         -5    1    3    3    0  502  0.49565675325E+02  0.13779475760E+02  0.40956881020E+02  0.65890580704E+02  0.41800000000E+01 0. -1.
        -11    1    1    2    0    0  0.16343902882E+02 -0.24538179548E+02 -0.54493102425E+02  0.61957595409E+02  0.00000000000E+00 0. -1.
         11    1    1    2    0    0 -0.13502151126E+02 -0.35526768932E+02  0.31140772266E+02  0.49134581438E+02  0.00000000000E+00 0.  1.
</event>
<event>
 7    1  0.2644565E-009  0.1393519E+03  0.7561462E-02  0.1214204E+00
          2   -1    0    0  501    0  0.00000000000E+00  0.00000000000E+00  0.10023161148E+04  0.10023161148E+04  0.00000000000E+00 0. -1.
         -2   -1    0    0    0  501 -0.00000000000E+00 -0.00000000000E+00 -0.22226605272E+02  0.22226605272E+02  0.00000000000E+00 0.  1.
         25    2    1    2    0    0  0.98417201721E+02 -0.21554307803E+02  0.46699455583E+03  0.49384397339E+03  0.12508965223E+03 0.  0.
          5    1    3    3  502    0  0.83680752418E+02 -0.63200421566E+02  0.39960796404E+03  0.41315948366E+03  0.41800000000E+01 0. -1.
         -5    1    3    3    0  502  0.14736449303E+02  0.41646113763E+02  0.67386591791E+02  0.80684489729E+02  0.41800000000E+01 0. -1.
        -11    1    1    2    0    0  0.14257618673E+02  0.66249713765E+01  0.24903269988E+02  0.29450684068E+02  0.00000000000E+00 0.  1.
         11    1    1    2    0    0 -0.11267482039E+03  0.14929336427E+02  0.48819168375E+03  0.50124806266E+03  0.00000000000E+00 0. -1.
</event>
<event>
 7    1  0.2644565E-009  0.1251296E+03  0.7561462E-02  0.1234867E+00
         -3   -1    0    0    0  501 -0.00000000000E+00  0.00000000000E+00  0.30628313429E+02  0.30628313429E+02  0.00000000000E+00 0.  1.
          3   -1    0    0  501    0  0.00000000000E+00 -0.00000000000E+00 -0.58858004843E+03  0.58858004843E+03  0.00000000000E+00 0. -1.
         25    2    1    2    0    0  0.14329845068E+01  0.65600712372E+02 -0.20550738530E+03  0.24937269664E+03  0.12509176436E+03 0.  0.
          5    1    3    3  502    0  0.61934333698E+02  0.21412187904E+02 -0.84939684626E+02  0.10736184567E+03  0.41800000000E+01 0.  1.
         -5    1    3    3    0  502 -0.60501349191E+02  0.44188524468E+02 -0.12056770067E+03  0.14201085097E+03  0.41800000000E+01 0.  1.
        -11    1    1    2    0    0  0.25708411758E+02  0.11244995384E+02 -0.59817808336E+02  0.66072252500E+02  0.00000000000E+00 0. -1.
         11    1    1    2    0    0 -0.27141396265E+02 -0.76845707756E+02 -0.29262654136E+03  0.30376341271E+03  0.00000000000E+00 0.  1.
</event>
<event>
 6    1  0.2644565E-009  0.6807892E+02  0.7561462E-02  0.1366750E+00
          1   -1    0    0  501    0  0.00000000000E+00  0.00000000000E+00  0.33419519903E+03  0.33419519903E+03  0.00000000000E+00 0. -1.
         -1   -1    0    0    0  501 -0.00000000000E+00 -0.00000000000E+00 -0.57603514078E+02  0.57603514078E+02  0.00000000000E+00 0.  1.
          5    1    1    2  502    0 -0.81630526313E+01  0.16196863206E+02 -0.91467519227E+01  0.20739076081E+02  0.41800000000E+01 0. -1.
         -5    1    1    2    0  502 -0.37488107833E+02 -0.50964027641E+01  0.26654076544E+03  0.26924483949E+03  0.41800000000E+01 0. -1.
        -11    1    1    2    0    0 -0.11642630245E+02  0.12888437949E+02 -0.21437506488E+02  0.27590385213E+02  0.00000000000E+00 0.  1.
         11    1    1    2    0    0  0.57293790710E+02 -0.23988898391E+02  0.40635177919E+02  0.74224412321E+02  0.00000000000E+00 0. -1.
</event>
<event>
 7    1  0.2644565E-009  0.7832012E+02  0.7561462E-02  0.1333887E+00
         -2   -1    0    0    0  501 -0.00000000000E+00  0.00000000000E+00  0.50273890158E+02  0.50273890158E+02  0.00000000000E+00 0.  1.
          2   -1    0    0  501    0  0.00000000000E+00 -0.00000000000E+00 -0.25208718899E+03  0.25208718899E+03  0.00000000000E+00 0. -1.
         25    2    1    2    0    0 -0.16564233570E+02  0.57475145925E+00 -0.14937808211E+03  0.19554073991E+03  0.12509062865E+03 0.  0.
          5    1    3    3  502    0  0.36396198866E+00 -0.51195672990E+02 -0.12609801383E+03  0.13615913812E+03  0.41800000000E+01 0.  1.
         -5    1    3    3    0  502 -0.16928195558E+02  0.51770424449E+02 -0.23280068282E+02  0.59381601795E+02  0.41800000000E+01 0.  1.
        -11    1    1    2    0    0 -0.11781699987E+02  0.14384726152E+02 -0.68492759103E+02  0.70971732758E+02  0.00000000000E+00 0. -1.
         11    1    1    2    0    0  0.28345933557E+02 -0.14959477612E+02  0.16057542377E+02  0.35848606484E+02  0.00000000000E+00 0.  1.
</event>
<event>
 7    1  0.2644565E-009  0.9352684E+02  0.7561462E-02  0.1294529E+00
         -3   -1    0    0    0  501 -0.00000000000E+00  0.00000000000E+00  0.43195068637E+02  0.43195068637E+02  0.00000000000E+00 0.  1.
          3   -1    0    0  501    0  0.00000000000E+00 -0.00000000000E+00 -0.27368504256E+03  0.27368504256E+03  0.00000000000E+00 0. -1.
         25    2    1    2    0    0 -0.14565496478E+02  0.31187325801E+01 -0.14918885068E+03  0.19526019742E+03  0.12508937345E+03 0.  0.
          5    1    3    3  502    0 -0.67643865241E+01  0.60340762632E+02 -0.43704298588E+02  0.74928650563E+02  0.41800000000E+01 0.  1.
         -5    1    3    3    0  502 -0.78011099538E+01 -0.57222030052E+02 -0.10548455209E+03  0.12033154686E+03  0.41800000000E+01 0.  1.
        -11    1    1    2    0    0 -0.22622125248E+02  0.14775486556E+02  0.35625811836E+01  0.27253761913E+02  0.00000000000E+00 0.  1.
         11    1    1    2    0    0  0.37187621726E+02 -0.17894219137E+02 -0.84863704426E+02  0.94366151861E+02  0.00000000000E+00 0. -1.
</event>
<event>
 7    1  0.2644565E-009  0.1565979E+03  0.7561462E-02  0.1192592E+00
          4   -1    0    0  501    0  0.00000000000E+00  0.00000000000E+00  0.54811466943E+03  0.54811466943E+03  0.00000000000E+00 0. -1.
         -4   -1    0    0    0  501 -0.00000000000E+00 -0.00000000000E+00 -0.73242303404E+02  0.73242303404E+02  0.00000000000E+00 0.  1.
         25    2    1    2    0    0 -0.85494549782E+02  0.10462585621E+03  0.39651523837E+03  0.43718026671E+03  0.12508542485E+03 0.  0.
          5    1    3    3  502    0  0.12587425738E+02 -0.10766211078E+02  0.56704218394E+01  0.17999463090E+02  0.41800000000E+01 0. -1.
         -5    1    3    3    0  502 -0.98081975520E+02  0.11539206729E+03  0.39084481653E+03  0.41918080362E+03  0.41800000000E+01 0. -1.
        -11    1    1    2    0    0  0.69730719739E+01 -0.46235924040E+02 -0.14827193370E+02  0.49053339007E+02  0.00000000000E+00 0.  1.
         11    1    1    2    0    0  0.78521477808E+02 -0.58389932169E+02  0.93184321026E+02  0.13512336712E+03  0.00000000000E+00 0. -1.
</event>
<event>
 7    1  0.2644565E-009  0.7166538E+02  0.7561462E-02  0.1354520E+00
          1   -1    0    0  501    0  0.00000000000E+00  0.00000000000E+00  0.86641002558E+02  0.86641002558E+02  0.00000000000E+00 0. -1.
         -1   -1    0    0    0  501 -0.00000000000E+00 -0.00000000000E+00 -0.15204754038E+03  0.15204754038E+03  0.00000000000E+00 0.  1.
         25    2    1    2    0    0  0.24539591894E+01  0.29583387174E+02 -0.58021115321E+02  0.14105392312E+03  0.12509420727E+03 0.  0.
          5    1    3    3  502    0  0.43564899990E+02  0.88032860772E+01 -0.78628466038E+02  0.90417401137E+02  0.41800000000E+01 0.  1.
         -5    1    3    3    0  502 -0.41110940800E+02  0.20780101097E+02  0.20607350717E+02  0.50636521984E+02  0.41800000000E+01 0.  1.
        -11    1    1    2    0    0 -0.10235285938E+02  0.86607845462E+01 -0.42851024815E+02  0.44899672548E+02  0.00000000000E+00 0.  1.
         11    1    1    2    0    0  0.77813267484E+01 -0.38244171720E+02  0.35465602311E+02  0.52734947272E+02  0.00000000000E+00 0. -1.
</event>
<event>
 7    1  0.2644565E-009  0.1284596E+03  0.7561462E-02  0.1229759E+00
          2   -1    0    0  501    0  0.00000000000E+00  0.00000000000E+00  0.53484939495E+03  0.53484939495E+03  0.00000000000E+00 0. -1.
         -2   -1    0    0    0  501 -0.00000000000E+00 -0.00000000000E+00 -0.46718542141E+02  0.46718542141E+02  0.00000000000E+00 0.  1.
         25    2    1    2    0    0  0.60634022539E+02 -0.35689156476E+02  0.42634403777E+03  0.44985182763E+03  0.12508887920E+03 0.  0.
          5    1    3    3  502    0 -0.34360861879E+02  0.97300482975E+01  0.14584705359E+03  0.15021377470E+03  0.41800000000E+01 0. -1.
         -5    1    3    3    0  502  0.94994884418E+02 -0.45419204774E+02  0.28049698418E+03  0.29963805293E+03  0.41800000000E+01 0. -1.
        -11    1    1    2    0    0 -0.11027629530E+02  0.59533699242E+02  0.24942926062E+02  0.65482971214E+02  0.00000000000E+00 0. -1.
         11    1    1    2    0    0 -0.49606393009E+02 -0.23844542766E+02  0.36843888970E+02  0.66233138244E+02  0.00000000000E+00 0.  1.
</event>
<event>
 7    1  0.2644565E-009  0.6949750E+02  0.7561462E-02  0.1361810E+00
          2   -1    0    0  501    0  0.00000000000E+00  0.00000000000E+00  0.38481943753E+02  0.38481943753E+02  0.00000000000E+00 0. -1.
         -2   -1    0    0    0  501 -0.00000000000E+00 -0.00000000000E+00 -0.35952556164E+03  0.35952556164E+03  0.00000000000E+00 0.  1.
         25    2    1    2    0    0  0.10985047540E+02 -0.28784751127E+02 -0.24482426469E+03  0.27664046739E+03  0.12506715976E+03 0.  0.
          5    1    3    3  502    0  0.18798220634E+02  0.26193361980E+02 -0.81685573372E+01  0.33521083512E+02  0.41800000000E+01 0.  1.
         -5    1    3    3    0  502 -0.78131730947E+01 -0.54978113107E+02 -0.23665570735E+03  0.24311938388E+03  0.41800000000E+01 0.  1.
        -11    1    1    2    0    0 -0.23178042039E+02  0.44827894518E+01 -0.88455299712E+02  0.91551390384E+02  0.00000000000E+00 0.  1.
         11    1    1    2    0    0  0.12192994499E+02  0.24301961675E+02  0.12235946511E+02  0.29815647622E+02  0.00000000000E+00 0. -1.
</event>
<event>
 7    1  0.2644565E-009  0.1704955E+03  0.7561462E-02  0.1177332E+00
          1   -1    0    0  501    0  0.00000000000E+00  0.00000000000E+00  0.30402745774E+03  0.30402745774E+03  0.00000000000E+00 0. -1.
         -1   -1    0    0    0  501 -0.00000000000E+00 -0.00000000000E+00 -0.11728771555E+03  0.11728771555E+03  0.00000000000E+00 0.  1.
         25    2    1    2    0    0 -0.82393599316E+02  0.12764370126E+03  0.84446318199E+02  0.21415202965E+03  0.12509313116E+03 0.  0.
          5    1    3    3  502    0  0.19550697758E+02  0.58377275667E+02 -0.48503778422E+01  0.61896160320E+02  0.41800000000E+01 0.  1.
         -5    1    3    3    0  502 -0.10194429707E+03  0.69266425595E+02  0.89296696042E+02  0.15225586933E+03  0.41800000000E+01 0.  1.
        -11    1    1    2    0    0  0.81089363733E+02 -0.10208164487E+03  0.11906884466E+03  0.17656029254E+03  0.00000000000E+00 0. -1.
         11    1    1    2    0    0  0.13042355829E+01 -0.25562056388E+02 -0.16775420668E+02  0.30602851106E+02  0.00000000000E+00 0.  1.
</event>
<event>
 7    1  0.2644565E-009  0.3087057E+03  0.7561462E-02  0.1080968E+00
         -2   -1    0    0    0  501 -0.00000000000E+00  0.00000000000E+00  0.25082780772E+03  0.25082780772E+03  0.00000000000E+00 0.  1.
          2   -1    0    0  501    0  0.00000000000E+00 -0.00000000000E+00 -0.57178104524E+03  0.57178104524E+03  0.00000000000E+00 0. -1.
         25    2    1    2    0    0  0.11452800276E+03  0.26978273821E+03  0.69524881727E+02  0.32616062531E+03  0.12509058745E+03 0.  0.
          5    1    3    3  502    0  0.48657461992E+02  0.16480544554E+02 -0.10172333346E+02  0.52536708328E+02  0.41800000000E+01 0. -1.
         -5    1    3    3    0  502  0.65870540769E+02  0.25330219366E+03  0.79697215073E+02  0.27362391698E+03  0.41800000000E+01 0. -1.
        -11    1    1    2    0    0  0.79548274828E+00 -0.93201182284E+02 -0.91876813125E+02  0.13087567368E+03  0.00000000000E+00 0. -1.
         11    1    1    2    0    0 -0.11532348551E+03 -0.17658155593E+03 -0.29860130612E+03  0.36557255398E+03  0.00000000000E+00 0.  1.
</event>
<event>
 7    1  0.2644565E-009  0.6593398E+02  0.7561462E-02  0.1374492E+00
         -1   -1    0    0    0  501 -0.00000000000E+00  0.00000000000E+00  0.47140368881E+02  0.47140368881E+02  0.00000000000E+00 0.  1.
          1   -1    0    0  501    0  0.00000000000E+00 -0.00000000000E+00 -0.27511333380E+03  0.27511333380E+03  0.00000000000E+00 0. -1.
         25    2    1    2    0    0 -0.35303862915E+02  0.11993520494E+01 -0.11886552357E+03  0.17613439776E+03  0.12508601920E+03 0.  0.
          5    1    3    3  502    0 -0.80968406110E+01 -0.28583866472E+02 -0.13053124591E+03  0.13393459153E+03  0.41800000000E+01 0. -1.
         -5    1    3    3    0  502 -0.27207022304E+02  0.29783218521E+02  0.11665722338E+02  0.42199806229E+02  0.41800000000E+01 0. -1.
        -11    1    1    2    0    0 -0.98672292343E+01  0.10744634906E+02  0.10325333771E+02  0.17872378395E+02  0.00000000000E+00 0.  1.
         11    1    1    2    0    0  0.45171092149E+02 -0.11943986956E+02 -0.11943277512E+03  0.12824692653E+03  0.00000000000E+00 0. -1.
</event>
<event>
 7    1  0.3315840E-009  0.2449598E+03  0.7561462E-02  0.1116532E+00
         -2   -1    0    0    0  501 -0.00000000000E+00  0.00000000000E+00  0.16188593280E+03  0.16188593280E+03  0.00000000000E+00 0.  1.
          2   -1    0    0  501    0  0.00000000000E+00 -0.00000000000E+00 -0.42704861401E+03  0.42704861401E+03  0.00000000000E+00 0. -1.
         25    2    1    2    0    0  0.20477492140E+03  0.11300142392E+03 -0.19190472402E+03  0.32737864782E+03  0.12508903110E+03 0.  0.
          5    1    3    3  502    0  0.15088710401E+03  0.11217203904E+03 -0.19788420298E+03  0.27299288395E+03  0.41800000000E+01 0.  1.
         -5    1    3    3    0  502  0.53887817392E+02  0.82938488191E+00  0.59794789581E+01  0.54385763865E+02  0.41800000000E+01 0.  1.
        -11    1    1    2    0    0 -0.71961800130E+02 -0.86239696572E+02 -0.54288363011E+02  0.12475180280E+03  0.00000000000E+00 0.  1.
         11    1    1    2    0    0 -0.13281312127E+03 -0.26761727348E+02 -0.18969594177E+02  0.13680409620E+03  0.00000000000E+00 0. -1.
</event>
<event>
 7    1  0.2644565E-009  0.1111085E+03  0.7561462E-02  0.1258531E+00
          2   -1    0    0  501    0  0.00000000000E+00  0.00000000000E+00  0.41889872045E+03  0.41889872045E+03  0.00000000000E+00 0. -1.
         -2   -1    0    0    0  501 -0.00000000000E+00 -0.00000000000E+00 -0.86582703731E+02  0.86582703731E+02  0.00000000000E+00 0.  1.
         25    2    1    2    0    0 -0.38979249528E+02  0.64961693635E+02 -0.72458928700E+01  0.14642022820E+03  0.12508787603E+03 0.  0.
          5    1    3    3  502    0  0.14457183344E+02  0.86815287016E+02 -0.20692341239E+00  0.88110268568E+02  0.41800000000E+01 0. -1.
         -5    1    3    3    0  502 -0.53436432872E+02 -0.21853593381E+02 -0.70389694576E+01  0.58309959636E+02  0.41800000000E+01 0. -1.
        -11    1    1    2    0    0  0.35025296255E+02 -0.52189097539E+02  0.33992371316E+03  0.34568570125E+03  0.00000000000E+00 0. -1.
         11    1    1    2    0    0  0.39539532728E+01 -0.12772596096E+02 -0.36180356600E+00  0.13375494732E+02  0.00000000000E+00 0.  1.
</event>
<event>
 7    1  0.2644565E-009  0.3066431E+03  0.7561462E-02  0.1081966E+00
         -2   -1    0    0    0  501 -0.00000000000E+00  0.00000000000E+00  0.12913148215E+03  0.12913148215E+03  0.00000000000E+00 0. -1.
          2   -1    0    0  501    0  0.00000000000E+00 -0.00000000000E+00 -0.87049186235E+03  0.87049186235E+03  0.00000000000E+00 0.  1.
         25    2    1    2    0    0  0.20835178844E+03 -0.19722009752E+03 -0.57814642081E+03  0.65741919863E+03  0.12506192154E+03 0.  0.
          5    1    3    3  502    0 -0.42396827941E+01  0.12588931026E+02 -0.32458849830E+02  0.35320042849E+02  0.41800000000E+01 0. -1.
         -5    1    3    3    0  502  0.21259147123E+03 -0.20980902854E+03 -0.54568757098E+03  0.62209915578E+03  0.41800000000E+01 0. -1.
        -11    1    1    2    0    0 -0.68297823271E+02  0.12646855915E+03 -0.83083922550E+02  0.16601755119E+03  0.00000000000E+00 0.  1.
         11    1    1    2    0    0 -0.14005396517E+03  0.70751538369E+02 -0.80130036844E+02  0.17618659468E+03  0.00000000000E+00 0. -1.
</event>
<event>
 7    1  0.2644565E-009  0.1859758E+03  0.7561462E-02  0.1162142E+00
          1   -1    0    0  501    0  0.00000000000E+00  0.00000000000E+00  0.60739184530E+02  0.60739184530E+02  0.00000000000E+00 0. -1.
         -1   -1    0    0    0  501 -0.00000000000E+00 -0.00000000000E+00 -0.66018151859E+03  0.66018151859E+03  0.00000000000E+00 0.  1.
         25    2    1    2    0    0  0.87741132395E+02  0.13645252191E+03 -0.24273271202E+03  0.31762375077E+03  0.12509148860E+03 0.  0.
          5    1    3    3  502    0  0.35398584878E+02  0.12562305686E+03 -0.97958144027E+02  0.16324056668E+03  0.41800000000E+01 0. -1.
         -5    1    3    3    0  502  0.52342547517E+02  0.10829465041E+02 -0.14477456799E+03  0.15438318409E+03  0.41800000000E+01 0. -1.
        -11    1    1    2    0    0 -0.10808047066E+03 -0.10810956913E+03 -0.30032469615E+03  0.33699256697E+03  0.00000000000E+00 0. -1.
         11    1    1    2    0    0  0.20339338261E+02 -0.28342952775E+02 -0.56384925889E+02  0.66304385378E+02  0.00000000000E+00 0.  1.
</event>
<event>
 7    1  0.2644565E-009  0.5701307E+02  0.7561462E-02  0.1410812E+00
         -2   -1    0    0    0  501 -0.00000000000E+00  0.00000000000E+00  0.13119288593E+02  0.13119288593E+02  0.00000000000E+00 0.  1.
          2   -1    0    0  501    0  0.00000000000E+00 -0.00000000000E+00 -0.10635691601E+04  0.10635691601E+04  0.00000000000E+00 0. -1.
         25    2    1    2    0    0  0.30747925099E+02  0.15567024867E+02 -0.92098811293E+03  0.93008296616E+03  0.12508977826E+03 0.  0.
          5    1    3    3  502    0  0.16892599855E+02  0.34706543214E+02 -0.81741155257E+02  0.90493054620E+02  0.41800000000E+01 0.  1.
         -5    1    3    3    0  502  0.13855325244E+02 -0.19139518347E+02 -0.83924695767E+03  0.83958991154E+03  0.41800000000E+01 0.  1.
        -11    1    1    2    0    0 -0.10213920300E+02 -0.26172608664E+02 -0.11704566032E+03  0.12037032945E+03  0.00000000000E+00 0. -1.
         11    1    1    2    0    0 -0.20534004800E+02  0.10605583797E+02 -0.12416098241E+02  0.26235153065E+02  0.00000000000E+00 0.  1.
</event>
<event>
 7    1  0.2644565E-009  0.1330831E+03  0.7561462E-02  0.1222951E+00
         -1   -1    0    0    0  501 -0.00000000000E+00  0.00000000000E+00  0.28405824314E+03  0.28405824314E+03  0.00000000000E+00 0.  1.
          1   -1    0    0  501    0  0.00000000000E+00 -0.00000000000E+00 -0.78242094242E+02  0.78242094242E+02  0.00000000000E+00 0. -1.
         25    2    1    2    0    0 -0.80565407074E+02  0.69118698558E+02  0.93459816124E+02  0.18881392459E+03  0.12509109313E+03 0.  0.
          5    1    3    3  502    0 -0.79237321942E+02  0.92798007616E+02  0.10597578824E+03  0.16167363266E+03  0.41800000000E+01 0. -1.
         -5    1    3    3    0  502 -0.13280851329E+01 -0.23679309058E+02 -0.12515972116E+02  0.27140291921E+02  0.41800000000E+01 0. -1.
        -11    1    1    2    0    0  0.65929224074E+01 -0.39920781738E+02  0.75880145114E+02  0.85993789677E+02  0.00000000000E+00 0.  1.
         11    1    1    2    0    0  0.73972484667E+02 -0.29197916820E+02  0.36476187661E+02  0.87492623122E+02  0.00000000000E+00 0. -1.
</event>
<event>
 7    1  0.2647937E-009  0.1346180E+03  0.7561462E-02  0.1220760E+00
          2   -1    0    0  501    0  0.00000000000E+00  0.00000000000E+00  0.25028478620E+03  0.25028478620E+03  0.00000000000E+00 0. -1.
         -2   -1    0    0    0  501 -0.00000000000E+00 -0.00000000000E+00 -0.91570513507E+02  0.91570513507E+02  0.00000000000E+00 0.  1.
         25    2    1    2    0    0 -0.98916870722E+02 -0.34787827316E+02  0.97600364757E+02  0.19017196108E+03  0.12507918827E+03 0.  0.
          5    1    3    3  502    0 -0.47711983648E+02  0.30998334378E+02  0.89731089566E+02  0.10633189057E+03  0.41800000000E+01 0.  1.
         -5    1    3    3    0  502 -0.51204887074E+02 -0.65786161694E+02  0.78692751914E+01  0.83840070508E+02  0.41800000000E+01 0.  1.
        -11    1    1    2    0    0  0.10389572212E+01  0.30735907735E+02 -0.80216526179E+01  0.31782422298E+02  0.00000000000E+00 0.  1.
         11    1    1    2    0    0  0.97877913501E+02  0.40519195805E+01  0.69135560551E+02  0.11990091633E+03  0.00000000000E+00 0. -1.
</event>
<event>
 7    1  0.2644565E-009  0.1708510E+03  0.7561462E-02  0.1176963E+00
         -1   -1    0    0    0  501 -0.00000000000E+00  0.00000000000E+00  0.14696663046E+03  0.14696663046E+03  0.00000000000E+00 0.  1.
          1   -1    0    0  501    0  0.00000000000E+00 -0.00000000000E+00 -0.24837504021E+03  0.24837504021E+03  0.00000000000E+00 0. -1.
         25    2    1    2    0    0  0.57374409698E+02 -0.14134908890E+03 -0.94793772935E+02  0.21887210087E+03  0.12509096421E+03 0.  0.
          5    1    3    3  502    0  0.16394675028E+01  0.15468116649E+02  0.12865924023E+02  0.20614433956E+02  0.41800000000E+01 0. -1.
         -5    1    3    3    0  502  0.55734942195E+02 -0.15681720555E+03 -0.10765969696E+03  0.19825766691E+03  0.41800000000E+01 0. -1.
        -11    1    1    2    0    0 -0.42140934615E+02  0.13690964718E+03  0.20843132588E+02  0.14475685144E+03  0.00000000000E+00 0.  1.
         11    1    1    2    0    0 -0.15233475082E+02  0.44394417206E+01 -0.27457769398E+02  0.31712718366E+02  0.00000000000E+00 0. -1.
</event>
<event>
 7    1  0.2644565E-009  0.1190927E+03  0.7561462E-02  0.1244601E+00
          1   -1    0    0  501    0  0.00000000000E+00  0.00000000000E+00  0.11405565236E+03  0.11405565236E+03  0.00000000000E+00 0. -1.
         -1   -1    0    0    0  501 -0.00000000000E+00 -0.00000000000E+00 -0.20133741505E+03  0.20133741505E+03  0.00000000000E+00 0.  1.
         25    2    1    2    0    0 -0.75215302045E+02 -0.72139316960E+02 -0.39790141446E+02  0.16760787057E+03  0.12509084782E+03 0.  0.
          5    1    3    3  502    0 -0.83782195467E+02 -0.61653495702E+02 -0.75886989533E+02  0.12882902386E+03  0.41800000000E+01 0. -1.
         -5    1    3    3    0  502  0.85668934216E+01 -0.10485821258E+02  0.36096848086E+02  0.38778846710E+02  0.41800000000E+01 0. -1.
        -11    1    1    2    0    0  0.75437052257E+01 -0.10605690276E+02 -0.38353959348E+02  0.40502028991E+02  0.00000000000E+00 0.  1.
         11    1    1    2    0    0  0.67671596819E+02  0.82745007235E+02 -0.91376618907E+01  0.10728316785E+03  0.00000000000E+00 0. -1.
</event>
<event>
 7    1  0.2644565E-009  0.9725318E+02  0.7561462E-02  0.1286180E+00
         -1   -1    0    0    0  501 -0.00000000000E+00  0.00000000000E+00  0.44406054252E+02  0.44406054252E+02  0.00000000000E+00 0.  1.
          1   -1    0    0  501    0  0.00000000000E+00 -0.00000000000E+00 -0.30929008516E+03  0.30929008516E+03  0.00000000000E+00 0. -1.
         25    2    1    2    0    0 -0.20129478026E+02  0.31900936506E+02 -0.18624570614E+03  0.22750528271E+03  0.12509326509E+03 0.  0.
          5    1    3    3  502    0 -0.19382826653E+02  0.69718107248E+02 -0.17238700062E+03  0.18700550482E+03  0.41800000000E+01 0. -1.
         -5    1    3    3    0  502 -0.74665137334E+00 -0.37817170742E+02 -0.13858705516E+02  0.40499777898E+02  0.41800000000E+01 0. -1.
        -11    1    1    2    0    0 -0.28733576456E+02 -0.13615520413E+02 -0.64852696296E+02  0.72227924163E+02  0.00000000000E+00 0. -1.
         11    1    1    2    0    0  0.48863054483E+02 -0.18285416093E+02 -0.13785628470E+02  0.53962932531E+02  0.00000000000E+00 0.  1.
</event>
<event>
 7    1  0.2644565E-009  0.1181346E+03  0.7561462E-02  0.1246207E+00
          2   -1    0    0  501    0  0.00000000000E+00  0.00000000000E+00  0.98678767998E+02  0.98678767998E+02  0.00000000000E+00 0. -1.
         -2   -1    0    0    0  501 -0.00000000000E+00 -0.00000000000E+00 -0.16346515896E+03  0.16346515896E+03  0.00000000000E+00 0.  1.
         25    2    1    2    0    0  0.23805547838E+02  0.50695691810E+02 -0.72639745850E+02  0.15511681285E+03  0.12509170906E+03 0.  0.
          5    1    3    3  502    0 -0.30587180776E+02  0.66484956968E+02 -0.16245280747E+02  0.75081333748E+02  0.41800000000E+01 0.  1.
         -5    1    3    3    0  502  0.54392728614E+02 -0.15789265158E+02 -0.56394465103E+02  0.80035479098E+02  0.41800000000E+01 0.  1.
        -11    1    1    2    0    0 -0.37364419293E+02  0.14129108719E+02  0.82914928989E+01  0.40798044032E+02  0.00000000000E+00 0. -1.
         11    1    1    2    0    0  0.13558871455E+02 -0.64824800530E+02 -0.43813801119E+00  0.66229070081E+02  0.00000000000E+00 0.  1.
</event>
<event>
 7    1  0.2644565E-009  0.8533866E+02  0.7561462E-02  0.1314549E+00
         -1   -1    0    0    0  501 -0.00000000000E+00  0.00000000000E+00  0.43105420450E+03  0.43105420450E+03  0.00000000000E+00 0.  1.
          1   -1    0    0  501    0  0.00000000000E+00 -0.00000000000E+00 -0.37417530313E+02  0.37417530313E+02  0.00000000000E+00 0. -1.
         25    2    1    2    0    0 -0.21442316905E+02  0.56921068403E+02  0.18760934803E+03  0.23354745257E+03  0.12508942462E+03 0.  0.
          5    1    3    3  502    0 -0.33129955300E+02  0.58805907159E+02  0.20283606698E+03  0.21381223333E+03  0.41800000000E+01 0. -1.
         -5    1    3    3    0  502  0.11687638394E+02 -0.18848387560E+01 -0.15226718952E+02  0.19735219239E+02  0.41800000000E+01 0. -1.
        -11    1    1    2    0    0  0.42440967087E+02 -0.17650970596E+02  0.33857861627E+02  0.57088941522E+02  0.00000000000E+00 0. -1.
         11    1    1    2    0    0 -0.20998650181E+02 -0.39270097807E+02  0.17216946454E+03  0.17783534072E+03  0.00000000000E+00 0.  1.
</event>
<event>
 7    1  0.2644565E-009  0.1380099E+03  0.7561462E-02  0.1216032E+00
         -1   -1    0    0    0  501 -0.00000000000E+00  0.00000000000E+00  0.13631234475E+03  0.13631234475E+03  0.00000000000E+00 0.  1.
          1   -1    0    0  501    0  0.00000000000E+00 -0.00000000000E+00 -0.20401287634E+03  0.20401287634E+03  0.00000000000E+00 0. -1.
         25    2    1    2    0    0 -0.11324183505E+03  0.12543776726E+02 -0.98489354775E+02  0.19579356804E+03  0.12511558153E+03 0.  0.
          5    1    3    3  502    0  0.97634085050E+01 -0.23622822473E+02  0.10024375694E+02  0.27772691538E+02  0.41800000000E+01 0. -1.
         -5    1    3    3    0  502 -0.12300524355E+03  0.36166599198E+02 -0.10851373047E+03  0.16802087650E+03  0.41800000000E+01 0. -1.
        -11    1    1    2    0    0  0.76423607785E+02 -0.28696418317E+02 -0.15635405312E+02  0.83117496054E+02  0.00000000000E+00 0. -1.
         11    1    1    2    0    0  0.36818227261E+02  0.16152641591E+02  0.46424228493E+02  0.61414157002E+02  0.00000000000E+00 0.  1.
</event>
<event>
 7    1  0.2644565E-009  0.1021473E+03  0.7561462E-02  0.1275844E+00
          2   -1    0    0  501    0  0.00000000000E+00  0.00000000000E+00  0.16655742626E+03  0.16655742626E+03  0.00000000000E+00 0. -1.
         -2   -1    0    0    0  501 -0.00000000000E+00 -0.00000000000E+00 -0.82438975772E+02  0.82438975772E+02  0.00000000000E+00 0.  1.
         25    2    1    2    0    0  0.24020832467E+01 -0.14625774468E-01  0.99508307103E+02  0.15986232401E+03  0.12509312226E+03 0.  0.
          5    1    3    3  502    0  0.22851554086E+02  0.58342983188E+02  0.55971397247E+02  0.84121144317E+02  0.41800000000E+01 0.  1.
         -5    1    3    3    0  502 -0.20449470839E+02 -0.58357608962E+02  0.43536909856E+02  0.75741179693E+02  0.41800000000E+01 0.  1.
        -11    1    1    2    0    0 -0.58539912375E+01 -0.39460803619E+02 -0.26606212722E+02  0.47951170904E+02  0.00000000000E+00 0.  1.
         11    1    1    2    0    0  0.34519079908E+01  0.39475429394E+02  0.11216356108E+02  0.41182907121E+02  0.00000000000E+00 0. -1.
</event>
<event>
 7    1  0.2644565E-009  0.8707257E+02  0.7561462E-02  0.1310100E+00
          3   -1    0    0  501    0  0.00000000000E+00  0.00000000000E+00  0.16433591077E+02  0.16433591077E+02  0.00000000000E+00 0. -1.
         -3   -1    0    0    0  501 -0.00000000000E+00 -0.00000000000E+00 -0.11307144395E+04  0.11307144395E+04  0.00000000000E+00 0.  1.
         25    2    1    2    0    0 -0.19508799715E+02  0.68831341470E+02 -0.78901272604E+03  0.80205845801E+03  0.12505335413E+03 0.  0.
          5    1    3    3  502    0  0.63091996151E+01  0.35055087748E+02 -0.48522984514E+02  0.60337530633E+02  0.41800000000E+01 0. -1.
         -5    1    3    3    0  502 -0.25817999330E+02  0.33776253722E+02 -0.74048974152E+03  0.74172092738E+03  0.41800000000E+01 0. -1.
        -11    1    1    2    0    0 -0.66830478318E+01  0.10262120337E+02 -0.35393568185E+01  0.12747599336E+02  0.00000000000E+00 0. -1.
         11    1    1    2    0    0  0.26191847547E+02 -0.79093461807E+02 -0.32172876557E+03  0.33234197324E+03  0.00000000000E+00 0.  1.
</event>
<event>
 7    1  0.2644565E-009  0.1101947E+03  0.7561462E-02  0.1260210E+00
          2   -1    0    0  501    0  0.00000000000E+00  0.00000000000E+00  0.13853994380E+03  0.13853994380E+03  0.00000000000E+00 0. -1.
         -2   -1    0    0    0  501 -0.00000000000E+00 -0.00000000000E+00 -0.10059455568E+03  0.10059455568E+03  0.00000000000E+00 0.  1.
         25    2    1    2    0    0 -0.45706737230E+02 -0.17305933157E+01  0.30176966518E+02  0.13656953451E+03  0.12509391538E+03 0.  0.
          5    1    3    3  502    0 -0.81461985203E+02  0.27025075305E+02  0.10871278225E+02  0.86614472340E+02  0.41800000000E+01 0.  1.
         -5    1    3    3    0  502  0.35755247973E+02 -0.28755668621E+02  0.19305688293E+02  0.49955062165E+02  0.41800000000E+01 0.  1.
        -11    1    1    2    0    0  0.64664023449E+01 -0.34425903427E+02 -0.22098847215E+02  0.41416376402E+02  0.00000000000E+00 0.  1.
         11    1    1    2    0    0  0.39240334885E+02  0.36156496743E+02  0.29867268818E+02  0.61148588579E+02  0.00000000000E+00 0. -1.
</event>
<event>
 7    1  0.2644565E-009  0.1235009E+03  0.7561462E-02  0.1237431E+00
         -1   -1    0    0    0  501 -0.00000000000E+00  0.00000000000E+00  0.38276663905E+02  0.38276663905E+02  0.00000000000E+00 0.  1.
          1   -1    0    0  501    0  0.00000000000E+00 -0.00000000000E+00 -0.48349276905E+03  0.48349276905E+03  0.00000000000E+00 0. -1.
         25    2    1    2    0    0 -0.71662455553E+02 -0.13194130265E+02 -0.32556939616E+03  0.35629340625E+03  0.12505985372E+03 0.  0.
          5    1    3    3  502    0 -0.78351474508E+02 -0.58734061607E+02 -0.23479322112E+03  0.25442871818E+03  0.41800000000E+01 0.  1.
         -5    1    3    3    0  502  0.66890189556E+01  0.45539931341E+02 -0.90776175040E+02  0.10186468807E+03  0.41800000000E+01 0.  1.
        -11    1    1    2    0    0  0.21756253641E+02  0.40434807863E+02 -0.18618186754E+02  0.49547402933E+02  0.00000000000E+00 0. -1.
         11    1    1    2    0    0  0.49906201912E+02 -0.27240677598E+02 -0.10102852223E+03  0.11592862377E+03  0.00000000000E+00 0.  1.
</event>
<event>
 7    1  0.2644565E-009  0.1038123E+03  0.7561462E-02  0.1272478E+00
          1   -1    0    0  501    0  0.00000000000E+00  0.00000000000E+00  0.22385617849E+03  0.22385617849E+03  0.00000000000E+00 0. -1.
         -1   -1    0    0    0  501 -0.00000000000E+00 -0.00000000000E+00 -0.59238886849E+02  0.59238886849E+02  0.00000000000E+00 0.  1.
         25    2    1    2    0    0  0.19533139851E+02 -0.21538199747E+02  0.63067474232E+02  0.14307842352E+03  0.12509393019E+03 0.  0.
          5    1    3    3  502    0  0.37803062688E+02 -0.68088636013E+02  0.33941534820E+02  0.85056652230E+02  0.41800000000E+01 0.  1.
         -5    1    3    3    0  502 -0.18269922837E+02  0.46550436266E+02  0.29125939413E+02  0.58021771291E+02  0.41800000000E+01 0.  1.
        -11    1    1    2    0    0 -0.46850244393E+02  0.22803962941E+02  0.23209868515E+02  0.57040898678E+02  0.00000000000E+00 0.  1.
         11    1    1    2    0    0  0.27317104542E+02 -0.12657631937E+01  0.78339948898E+02  0.82975743144E+02  0.00000000000E+00 0. -1.
</event>
<event>
 7    1  0.2644565E-009  0.1263286E+03  0.7561462E-02  0.1233007E+00
         -1   -1    0    0    0  501 -0.00000000000E+00  0.00000000000E+00  0.34822745806E+03  0.34822745806E+03  0.00000000000E+00 0.  1.
          1   -1    0    0  501    0  0.00000000000E+00 -0.00000000000E+00 -0.64276503718E+02  0.64276503718E+02  0.00000000000E+00 0. -1.
         25    2    1    2    0    0  0.71599684584E+02  0.63054493986E+02  0.14681675227E+03  0.21518142798E+03  0.12508198974E+03 0.  0.
          5    1    3    3  502    0  0.12387087256E+02  0.50245562282E+02 -0.45206593813E+01  0.52114923208E+02  0.41800000000E+01 0. -1.
         -5    1    3    3    0  502  0.59212597328E+02  0.12808931704E+02  0.15133741165E+03  0.16306650477E+03  0.41800000000E+01 0. -1.
        -11    1    1    2    0    0  0.13502660351E+02 -0.52558571214E+02  0.69117336062E+02  0.87874520704E+02  0.00000000000E+00 0. -1.
         11    1    1    2    0    0 -0.85102344935E+02 -0.10495922772E+02  0.68016866009E+02  0.10944801309E+03  0.00000000000E+00 0.  1.
</event>
<event>
 7    1  0.2644565E-009  0.1121795E+03  0.7561462E-02  0.1256586E+00
         -1   -1    0    0    0  501 -0.00000000000E+00  0.00000000000E+00  0.25102960733E+03  0.25102960733E+03  0.00000000000E+00 0.  1.
          1   -1    0    0  501    0  0.00000000000E+00 -0.00000000000E+00 -0.73429474750E+02  0.73429474750E+02  0.00000000000E+00 0. -1.
         25    2    1    2    0    0  0.54126479980E+02 -0.51220185715E+01  0.25190281091E+02  0.13870101455E+03  0.12509000866E+03 0.  0.
          5    1    3    3  502    0 -0.21547197795E+02  0.41826530436E+02  0.93578227294E+01  0.48153729112E+02  0.41800000000E+01 0. -1.
         -5    1    3    3    0  502  0.75673677775E+02 -0.46948549008E+02  0.15832458361E+02  0.90547285435E+02  0.41800000000E+01 0. -1.
        -11    1    1    2    0    0 -0.61766558449E+02 -0.17414603886E+02  0.14832610846E+03  0.16161376991E+03  0.00000000000E+00 0.  1.
         11    1    1    2    0    0  0.76400784690E+01  0.22536622458E+02  0.40837430272E+01  0.24144297628E+02  0.00000000000E+00 0. -1.
</event>
<event>
 7    1  0.2644565E-009  0.1046100E+03  0.7561462E-02  0.1270890E+00
         -2   -1    0    0    0  501 -0.00000000000E+00  0.00000000000E+00  0.23576804555E+02  0.23576804555E+02  0.00000000000E+00 0. -1.
          2   -1    0    0  501    0  0.00000000000E+00 -0.00000000000E+00 -0.55856661368E+03  0.55856661368E+03  0.00000000000E+00 0.  1.
         25    2    1    2    0    0 -0.27133022313E+02 -0.23952784922E+02 -0.31401728914E+03  0.33994196038E+03  0.12507494449E+03 0.  0.
          5    1    3    3  502    0 -0.11173375363E+02  0.44475250870E+02 -0.20549530491E+03  0.21059127474E+03  0.41800000000E+01 0.  1.
         -5    1    3    3    0  502 -0.15959646951E+02 -0.68428035792E+02 -0.10852198423E+03  0.12935068564E+03  0.41800000000E+01 0.  1.
        -11    1    1    2    0    0  0.54562482225E+02  0.33161933898E+02 -0.18687665258E+03  0.19748331982E+03  0.00000000000E+00 0.  1.
         11    1    1    2    0    0 -0.27429459912E+02 -0.92091489755E+01 -0.34095867404E+02  0.44718138042E+02  0.00000000000E+00 0. -1.
</event>
<event>
 7    1  0.2644565E-009  0.7580028E+02  0.7561462E-02  0.1341411E+00
         -1   -1    0    0    0  501 -0.00000000000E+00  0.00000000000E+00  0.78147279900E+02  0.78147279900E+02  0.00000000000E+00 0. -1.
          1   -1    0    0  501    0  0.00000000000E+00 -0.00000000000E+00 -0.15808421133E+03  0.15808421133E+03  0.00000000000E+00 0.  1.
         25    2    1    2    0    0  0.18489336714E+02  0.10159143407E+02 -0.68988960220E+02  0.14440701005E+03  0.12509534025E+03 0.  0.
          5    1    3    3  502    0 -0.25552605288E+02 -0.15272705845E+02 -0.85614040341E+02  0.90738236066E+02  0.41800000000E+01 0. -1.
         -5    1    3    3    0  502  0.44041942002E+02  0.25431849252E+02  0.16625080121E+02  0.53668773982E+02  0.41800000000E+01 0. -1.
        -11    1    1    2    0    0  0.19774364146E+02 -0.22830376186E+02  0.23920390648E+02  0.38528387495E+02  0.00000000000E+00 0. -1.
         11    1    1    2    0    0 -0.38263700860E+02  0.12671232779E+02 -0.34868361861E+02  0.53296093690E+02  0.00000000000E+00 0.  1.
</event>
<event>
 7    1  0.2644565E-009  0.5680490E+02  0.7561462E-02  0.1411751E+00
          1   -1    0    0  501    0  0.00000000000E+00  0.00000000000E+00  0.13039245620E+03  0.13039245620E+03  0.00000000000E+00 0. -1.
         -1   -1    0    0    0  501 -0.00000000000E+00 -0.00000000000E+00 -0.12464536667E+03  0.12464536667E+03  0.00000000000E+00 0.  1.
         25    2    1    2    0    0  0.10146569222E+02  0.10582239968E+02  0.68160418368E+02  0.14320742192E+03  0.12509031294E+03 0.  0.
          5    1    3    3  502    0  0.13217486310E+02 -0.29089930795E+02  0.91416457089E+02  0.96929701562E+02  0.41800000000E+01 0. -1.
         -5    1    3    3    0  502 -0.30709170886E+01  0.39672170763E+02 -0.23256038721E+02  0.46277720361E+02  0.41800000000E+01 0. -1.
        -11    1    1    2    0    0  0.86339102357E+01 -0.18943410287E+02  0.18803026871E+02  0.28052647268E+02  0.00000000000E+00 0. -1.
         11    1    1    2    0    0 -0.18780479457E+02  0.83611703191E+01 -0.81216355708E+02  0.83777753683E+02  0.00000000000E+00 0.  1.
</event>
<event>
 7    1  0.2644565E-009  0.1030261E+03  0.7561462E-02  0.1274058E+00
         -2   -1    0    0    0  501 -0.00000000000E+00  0.00000000000E+00  0.20511495995E+02  0.20511495995E+02  0.00000000000E+00 0.  1.
          2   -1    0    0  501    0  0.00000000000E+00 -0.00000000000E+00 -0.67652802172E+03  0.67652802172E+03  0.00000000000E+00 0. -1.
         25    2    1    2    0    0 -0.43818354358E+02  0.28416757986E+01 -0.37973556271E+03  0.40221172965E+03  0.12508818722E+03 0.  0.
          5    1    3    3  502    0  0.16699487129E+02  0.36036262231E+02 -0.26690939230E+03  0.26988067949E+03  0.41800000000E+01 0.  1.
         -5    1    3    3    0  502 -0.60517841486E+02 -0.33194586432E+02 -0.11282617042E+03  0.13233105016E+03  0.41800000000E+01 0.  1.
        -11    1    1    2    0    0  0.58915000634E+02 -0.29833587407E+02 -0.13609413991E+03  0.15127007357E+03  0.00000000000E+00 0.  1.
         11    1    1    2    0    0 -0.15096646276E+02  0.26991911609E+02 -0.14018682309E+03  0.14355771449E+03  0.00000000000E+00 0. -1.
</event>
<event>
 7    1  0.2644565E-009  0.7744617E+02  0.7561462E-02  0.1336459E+00
         -3   -1    0    0    0  501 -0.00000000000E+00  0.00000000000E+00  0.43340433855E+02  0.43340433855E+02  0.00000000000E+00 0.  1.
          3   -1    0    0  501    0  0.00000000000E+00 -0.00000000000E+00 -0.36303323767E+03  0.36303323767E+03  0.00000000000E+00 0. -1.
         25    2    1    2    0    0  0.83817276820E+01 -0.19293904861E+02 -0.27456995220E+03  0.30245456487E+03  0.12509035548E+03 0.  0.
          5    1    3    3  502    0  0.43761300391E+02  0.13981536821E+02 -0.34814208299E+02  0.57793047015E+02  0.41800000000E+01 0. -1.
         -5    1    3    3    0  502 -0.35379572709E+02 -0.33275441682E+02 -0.23975574391E+03  0.24466151786E+03  0.41800000000E+01 0. -1.
        -11    1    1    2    0    0 -0.28316558527E+02 -0.48225270884E+01 -0.62027423512E+02  0.68355581498E+02  0.00000000000E+00 0. -1.
         11    1    1    2    0    0  0.19934830845E+02  0.24116431949E+02  0.16904571898E+02  0.35563525160E+02  0.00000000000E+00 0.  1.
</event>
<event>
 7    1  0.2644565E-009  0.1050599E+03  0.7561462E-02  0.1270002E+00
          1   -1    0    0  501    0  0.00000000000E+00  0.00000000000E+00  0.26429830438E+02  0.26429830438E+02  0.00000000000E+00 0. -1.
         -1   -1    0    0    0  501 -0.00000000000E+00 -0.00000000000E+00 -0.48986674998E+03  0.48986674998E+03  0.00000000000E+00 0.  1.
         25    2    1    2    0    0  0.32403097838E+02 -0.10778671456E+02 -0.25407745804E+03  0.28525325622E+03  0.12509166636E+03 0.  0.
          5    1    3    3  502    0  0.17192638813E+02  0.48847182592E+02 -0.50173188267E+02  0.72225032346E+02  0.41800000000E+01 0. -1.
         -5    1    3    3    0  502  0.15210459024E+02 -0.59625854048E+02 -0.20390426977E+03  0.21302822387E+03  0.41800000000E+01 0. -1.
        -11    1    1    2    0    0 -0.58107427790E+02 -0.15076593209E+02 -0.11186362958E+03  0.12695372563E+03  0.00000000000E+00 0.  1.
         11    1    1    2    0    0  0.25704329952E+02  0.25855264665E+02 -0.97495831915E+02  0.10408959857E+03  0.00000000000E+00 0. -1.
</event>
<event>
 7    1  0.2644565E-009  0.1056756E+03  0.7561462E-02  0.1268794E+00
         -2   -1    0    0    0  501 -0.00000000000E+00  0.00000000000E+00  0.37576957394E+02  0.37576957394E+02  0.00000000000E+00 0.  1.
          2   -1    0    0  501    0  0.00000000000E+00 -0.00000000000E+00 -0.45464367622E+03  0.45464367622E+03  0.00000000000E+00 0. -1.
         25    2    1    2    0    0  0.26828348432E+02 -0.82935547242E+01 -0.10476518412E+03  0.16556556418E+03  0.12509064277E+03 0.  0.
          5    1    3    3  502    0  0.10349755475E+02  0.56775601297E+02 -0.66649362670E+02  0.88262088607E+02  0.41800000000E+01 0.  1.
         -5    1    3    3    0  502  0.16478592958E+02 -0.65069156021E+02 -0.38115821453E+02  0.77303475576E+02  0.41800000000E+01 0.  1.
        -11    1    1    2    0    0 -0.53615844909E+02 -0.89783536553E+01 -0.25821758176E+03  0.26387798163E+03  0.00000000000E+00 0. -1.
         11    1    1    2    0    0  0.26787496477E+02  0.17271908379E+02 -0.54083952945E+02  0.62777087801E+02  0.00000000000E+00 0.  1.
</event>
<event>
 7    1  0.2644565E-009  0.1058454E+03  0.7561462E-02  0.1268463E+00
          4   -1    0    0  501    0  0.00000000000E+00  0.00000000000E+00  0.15457190921E+02  0.15457190921E+02  0.00000000000E+00 0. -1.
         -4   -1    0    0    0  501 -0.00000000000E+00 -0.00000000000E+00 -0.95277270758E+03  0.95277270758E+03  0.00000000000E+00 0.  1.
         25    2    1    2    0    0 -0.30527529966E+02  0.63629512767E+01 -0.67193365095E+03  0.68418180346E+03  0.12504995672E+03 0.  0.
          5    1    3    3  502    0  0.36231392844E+02  0.20926546095E+02 -0.10463751653E+03  0.11277019298E+03  0.41800000000E+01 0.  1.
         -5    1    3    3    0  502 -0.66758922809E+02 -0.14563594818E+02 -0.56729613442E+03  0.57141161048E+03  0.41800000000E+01 0.  1.
        -11    1    1    2    0    0  0.16190909066E+02 -0.51416540859E+02 -0.14719361633E+03  0.15675384173E+03  0.00000000000E+00 0. -1.
         11    1    1    2    0    0  0.14336620899E+02  0.45053589582E+02 -0.11818824938E+03  0.12729425330E+03  0.00000000000E+00 0.  1.
</event>
<event>
 7    1  0.2644565E-009  0.1575765E+03  0.7561462E-02  0.1191460E+00
          1   -1    0    0  501    0  0.00000000000E+00  0.00000000000E+00  0.14281466705E+04  0.14281466705E+04  0.00000000000E+00 0. -1.
         -1   -1    0    0    0  501 -0.00000000000E+00 -0.00000000000E+00 -0.26601371664E+02  0.26601371664E+02  0.00000000000E+00 0.  1.
         25    2    1    2    0    0 -0.14103123293E+03  0.47485543321E+01  0.10357076428E+04  0.10527341742E+04  0.12508622078E+03 0.  0.
          5    1    3    3  502    0 -0.70005067249E+01  0.24839288338E+02  0.39670756556E+02  0.47510405863E+02  0.41800000000E+01 0.  1.
         -5    1    3    3    0  502 -0.13403072620E+03 -0.20090734006E+02  0.99603688626E+03  0.10052237683E+04  0.41800000000E+01 0.  1.
        -11    1    1    2    0    0  0.60917809121E+02  0.27778523479E+02  0.24120777946E+03  0.25032742300E+03  0.00000000000E+00 0. -1.
         11    1    1    2    0    0  0.80113423807E+02 -0.32527077812E+02  0.12462987655E+03  0.15168644499E+03  0.00000000000E+00 0.  1.
</event>
<event>
 7    1  0.2644565E-009  0.1338850E+03  0.7561462E-02  0.1221802E+00
          1   -1    0    0  501    0  0.00000000000E+00  0.00000000000E+00  0.68759485401E+03  0.68759485401E+03  0.00000000000E+00 0.  1.
         -1   -1    0    0    0  501 -0.00000000000E+00 -0.00000000000E+00 -0.14888637519E+03  0.14888637519E+03  0.00000000000E+00 0. -1.
         25    2    1    2    0    0 -0.70496641876E+02  0.73941812889E+02  0.64424106086E+03  0.66417736497E+03  0.12509140430E+03 0.  0.
          5    1    3    3  502    0 -0.27226226493E+02  0.91702613537E+02  0.55633221359E+03  0.56451186083E+03  0.41800000000E+01 0.  1.
         -5    1    3    3    0  502 -0.43270415383E+02 -0.17760800649E+02  0.87908847265E+02  0.99665504135E+02  0.41800000000E+01 0.  1.
        -11    1    1    2    0    0 -0.14301564846E+02 -0.19896022970E+02 -0.54027056083E+02  0.59323766536E+02  0.00000000000E+00 0. -1.
         11    1    1    2    0    0  0.84798206722E+02 -0.54045789918E+02 -0.51505525955E+02  0.11298009769E+03  0.00000000000E+00 0.  1.
</event>
<event>
 7    1  0.2644565E-009  0.1677961E+03  0.7561462E-02  0.1180166E+00
          2   -1    0    0  501    0  0.00000000000E+00  0.00000000000E+00  0.48408127836E+03  0.48408127836E+03  0.00000000000E+00 0. -1.
         -2   -1    0    0    0  501 -0.00000000000E+00 -0.00000000000E+00 -0.77597997815E+02  0.77597997815E+02  0.00000000000E+00 0.  1.
         25    2    1    2    0    0 -0.99855958359E+02 -0.12160193959E+03  0.25538346519E+03  0.32500127967E+03  0.12508746286E+03 0.  0.
          5    1    3    3  502    0 -0.35926277202E+02 -0.61785072575E+02  0.20762923729E+02  0.74543034473E+02  0.41800000000E+01 0. -1.
         -5    1    3    3    0  502 -0.63929681157E+02 -0.59816867016E+02  0.23462054146E+03  0.25045824520E+03  0.41800000000E+01 0. -1.
        -11    1    1    2    0    0  0.76288874141E+02  0.30352081157E+02  0.10028221019E+03  0.12960618360E+03  0.00000000000E+00 0. -1.
         11    1    1    2    0    0  0.23567084218E+02  0.91249858434E+02  0.50817605167E+02  0.10707181290E+03  0.00000000000E+00 0.  1.
</event>
<event>
 7    1  0.2741153E-009  0.1680978E+03  0.7561462E-02  0.1179846E+00
         -2   -1    0    0    0  501 -0.00000000000E+00  0.00000000000E+00  0.62381748237E+02  0.62381748237E+02  0.00000000000E+00 0.  1.
          2   -1    0    0  501    0  0.00000000000E+00 -0.00000000000E+00 -0.50018293673E+03  0.50018293673E+03  0.00000000000E+00 0. -1.
         25    2    1    2    0    0 -0.12532310200E+02  0.13737274023E+03 -0.25737516811E+03  0.31767152172E+03  0.12507953468E+03 0.  0.
          5    1    3    3  502    0 -0.54992109877E+02  0.26766337862E+02 -0.51326018030E+02  0.79952495384E+02  0.41800000000E+01 0. -1.
         -5    1    3    3    0  502  0.42459799678E+02  0.11060640237E+03 -0.20604915008E+03  0.23771902633E+03  0.41800000000E+01 0. -1.
        -11    1    1    2    0    0 -0.27297167315E+02 -0.92019725462E+02 -0.69141637654E+02  0.11829341180E+03  0.00000000000E+00 0.  1.
         11    1    1    2    0    0  0.39829477514E+02 -0.45353014767E+02 -0.11128438273E+03  0.12659975145E+03  0.00000000000E+00 0. -1.
</event>
<event>
 7    1  0.2644565E-009  0.8893808E+02  0.7561462E-02  0.1305444E+00
         -3   -1    0    0    0  501 -0.00000000000E+00  0.00000000000E+00  0.17424761127E+02  0.17424761127E+02  0.00000000000E+00 0.  1.
          3   -1    0    0  501    0  0.00000000000E+00 -0.00000000000E+00 -0.78460637094E+03  0.78460637094E+03  0.00000000000E+00 0. -1.
         25    2    1    2    0    0 -0.59791034700E+00  0.14738137326E+02 -0.57692614116E+03  0.59051805388E+03  0.12510087692E+03 0.  0.
          5    1    3    3  502    0  0.34201878278E+02 -0.40342560608E+02 -0.16145089853E+03  0.16994456658E+03  0.41800000000E+01 0. -1.
         -5    1    3    3    0  502 -0.34799788625E+02  0.55080697934E+02 -0.41547524263E+03  0.42057348729E+03  0.41800000000E+01 0. -1.
        -11    1    1    2    0    0  0.29137886251E+02 -0.70967220946E+01 -0.14535495512E+02  0.33326573623E+02  0.00000000000E+00 0.  1.
         11    1    1    2    0    0 -0.28539975904E+02 -0.76414152317E+01 -0.17571997314E+03  0.17818650457E+03  0.00000000000E+00 0. -1.
</event>
<event>
 7    1  0.2644565E-009  0.1133309E+03  0.7561462E-02  0.1254523E+00
         -3   -1    0    0    0  501 -0.00000000000E+00  0.00000000000E+00  0.16017297264E+02  0.16017297264E+02  0.00000000000E+00 0.  1.
          3   -1    0    0  501    0  0.00000000000E+00 -0.00000000000E+00 -0.12457135489E+04  0.12457135489E+04  0.00000000000E+00 0. -1.
         25    2    1    2    0    0 -0.61952116741E+02  0.55257080880E+01 -0.95299373913E+03  0.96317853188E+03  0.12508884535E+03 0.  0.
          5    1    3    3  502    0 -0.62748894769E+02  0.52578047704E+02 -0.40876928017E+03  0.41690726991E+03  0.41800000000E+01 0.  1.
         -5    1    3    3    0  502  0.79677802767E+00 -0.47052339616E+02 -0.54422445896E+03  0.54627126197E+03  0.41800000000E+01 0.  1.
        -11    1    1    2    0    0 -0.17549871703E+02 -0.36289893871E+01 -0.10600835047E+02  0.20821749793E+02  0.00000000000E+00 0.  1.
         11    1    1    2    0    0  0.79501988444E+02 -0.18967187009E+01 -0.26610167750E+03  0.27773056453E+03  0.00000000000E+00 0. -1.
</event>
<event>
 7    1  0.2644565E-009  0.1066940E+03  0.7561462E-02  0.1266817E+00
         -1   -1    0    0    0  501 -0.00000000000E+00  0.00000000000E+00  0.49533856866E+02  0.49533856866E+02  0.00000000000E+00 0.  1.
          1   -1    0    0  501    0  0.00000000000E+00 -0.00000000000E+00 -0.27697979133E+03  0.27697979133E+03  0.00000000000E+00 0. -1.
         25    2    1    2    0    0  0.19801821866E+02  0.17530685086E+01 -0.74262954099E+02  0.14682689487E+03  0.12509182750E+03 0.  0.
          5    1    3    3  502    0  0.70696918076E+02  0.51312177568E+01 -0.23630279624E+02  0.74834792284E+02  0.41800000000E+01 0.  1.
         -5    1    3    3    0  502 -0.50895096210E+02 -0.33781492482E+01 -0.50632674475E+02  0.71992102588E+02  0.41800000000E+01 0.  1.
        -11    1    1    2    0    0 -0.45867591641E+02 -0.28383928714E+02 -0.11093080852E+03  0.12334961553E+03  0.00000000000E+00 0. -1.
         11    1    1    2    0    0  0.26065769775E+02  0.26630860205E+02 -0.42252171840E+02  0.56337137790E+02  0.00000000000E+00 0.  1.
</event>
<event>
 7    1  0.2644565E-009  0.1621114E+03  0.7561462E-02  0.1186333E+00
         -2   -1    0    0    0  501 -0.00000000000E+00  0.00000000000E+00  0.19929343596E+02  0.19929343596E+02  0.00000000000E+00 0.  1.
          2   -1    0    0  501    0  0.00000000000E+00 -0.00000000000E+00 -0.16010138844E+04  0.16010138844E+04  0.00000000000E+00 0. -1.
         25    2    1    2    0    0  0.13273137137E+03  0.48296741614E+02 -0.80301599608E+03  0.82488318027E+03  0.12508948369E+03 0.  0.
          5    1    3    3  502    0  0.45685979362E+02 -0.23110854100E+02 -0.95370940832E+02  0.10832547735E+03  0.41800000000E+01 0. -1.
         -5    1    3    3    0  502  0.87045392007E+02  0.71407595714E+02 -0.70764505525E+03  0.71655770292E+03  0.41800000000E+01 0. -1.
        -11    1    1    2    0    0  0.78956492496E+01 -0.12983000165E+02 -0.25770371651E+02  0.29916744900E+02  0.00000000000E+00 0.  1.
         11    1    1    2    0    0 -0.14062702062E+03 -0.35313741450E+02 -0.75229817308E+03  0.76614330283E+03  0.00000000000E+00 0. -1.
</event>
<event>
 7    1  0.2644565E-009  0.8945123E+02  0.7561462E-02  0.1304186E+00
          3   -1    0    0  501    0  0.00000000000E+00  0.00000000000E+00  0.13349979966E+03  0.13349979966E+03  0.00000000000E+00 0. -1.
         -3   -1    0    0    0  501 -0.00000000000E+00 -0.00000000000E+00 -0.24907920037E+03  0.24907920037E+03  0.00000000000E+00 0.  1.
         25    2    1    2    0    0  0.59708012028E+02  0.43921975978E+02 -0.19458133571E+03  0.24290621661E+03  0.12508935682E+03 0.  0.
          5    1    3    3  502    0  0.68332832988E+02  0.15333739667E+02 -0.31227208280E+02  0.76792646609E+02  0.41800000000E+01 0. -1.
         -5    1    3    3    0  502 -0.86248209599E+01  0.28588236311E+02 -0.16335412743E+03  0.16611357000E+03  0.41800000000E+01 0. -1.
        -11    1    1    2    0    0 -0.22163392567E+02 -0.32522762108E+02 -0.11524132830E+02  0.41009165595E+02  0.00000000000E+00 0.  1.
         11    1    1    2    0    0 -0.37544619460E+02 -0.11399213870E+02  0.90526067823E+02  0.98663617827E+02  0.00000000000E+00 0. -1.
</event>
<event>
 7    1  0.2644565E-009  0.6899169E+02  0.7561462E-02  0.1363556E+00
          1   -1    0    0  501    0  0.00000000000E+00  0.00000000000E+00  0.32346636716E+03  0.32346636716E+03  0.00000000000E+00 0. -1.
         -1   -1    0    0    0  501 -0.00000000000E+00 -0.00000000000E+00 -0.53138726652E+02  0.53138726652E+02  0.00000000000E+00 0.  1.
         25    2    1    2    0    0 -0.13192073936E+02  0.33084904316E+02  0.20847523730E+03  0.24571950068E+03  0.12508999456E+03 0.  0.
          5    1    3    3  502    0  0.19540145795E+02  0.19790563087E+02 -0.56273612158E+01  0.28681409994E+02  0.41800000000E+01 0. -1.
         -5    1    3    3    0  502 -0.32732219731E+02  0.13294341229E+02  0.21410259852E+03  0.21703809069E+03  0.41800000000E+01 0. -1.
        -11    1    1    2    0    0  0.59389842616E+01  0.19919324870E+02  0.73288191451E+02  0.76178803112E+02  0.00000000000E+00 0. -1.
         11    1    1    2    0    0  0.72530896744E+01 -0.53004229187E+02 -0.11435788244E+02  0.54706790020E+02  0.00000000000E+00 0.  1.
</event>
<event>
 7    1  0.2644565E-009  0.2084790E+03  0.7561462E-02  0.1142776E+00
         -2   -1    0    0    0  501 -0.00000000000E+00  0.00000000000E+00  0.48707128299E+02  0.48707128299E+02  0.00000000000E+00 0. -1.
          2   -1    0    0  501    0  0.00000000000E+00 -0.00000000000E+00 -0.93286811215E+03  0.93286811215E+03  0.00000000000E+00 0.  1.
         25    2    1    2    0    0 -0.17052477276E+03 -0.61163820695E+02 -0.41017182940E+03  0.46551828840E+03  0.12508651450E+03 0.  0.
          5    1    3    3  502    0 -0.13698446293E+03  0.93401093652E+01 -0.30464200405E+03  0.33417989730E+03  0.41800000000E+01 0. -1.
         -5    1    3    3    0  502 -0.33540309824E+02 -0.70503930060E+02 -0.10552982535E+03  0.13133839110E+03  0.41800000000E+01 0. -1.
        -11    1    1    2    0    0  0.12668633927E+03  0.83970742614E+02 -0.31854024128E+03  0.35294248751E+03  0.00000000000E+00 0. -1.
         11    1    1    2    0    0  0.43838433484E+02 -0.22806921919E+02 -0.15544891316E+03  0.16311446454E+03  0.00000000000E+00 0.  1.
</event>
<event>
 7    1  0.2644565E-009  0.9682711E+02  0.7561462E-02  0.1287113E+00
          1   -1    0    0  501    0  0.00000000000E+00  0.00000000000E+00  0.67252155217E+03  0.67252155217E+03  0.00000000000E+00 0. -1.
         -1   -1    0    0    0  501 -0.00000000000E+00 -0.00000000000E+00 -0.29160958753E+02  0.29160958753E+02  0.00000000000E+00 0.  1.
         25    2    1    2    0    0  0.26252294798E+02  0.48945721787E+02  0.52308869645E+03  0.54069881721E+03  0.12509420416E+03 0.  0.
          5    1    3    3  502    0  0.57061920864E+02  0.26010267940E+01  0.41615895035E+03  0.42008162601E+03  0.41800000000E+01 0. -1.
         -5    1    3    3    0  502 -0.30809626066E+02  0.46344694993E+02  0.10692974610E+03  0.12061719120E+03  0.41800000000E+01 0. -1.
        -11    1    1    2    0    0 -0.42528884296E+02 -0.48197728362E+02  0.12778512707E+03  0.14304113296E+03  0.00000000000E+00 0. -1.
         11    1    1    2    0    0  0.16276589498E+02 -0.74799342496E+00 -0.75132301007E+01  0.17942560754E+02  0.00000000000E+00 0.  1.
</event>
<event>
 7    1  0.2644565E-009  0.1106921E+03  0.7561462E-02  0.1259294E+00
         -3   -1    0    0    0  501 -0.00000000000E+00  0.00000000000E+00  0.15635222801E+02  0.15635222801E+02  0.00000000000E+00 0.  1.
          3   -1    0    0  501    0  0.00000000000E+00 -0.00000000000E+00 -0.90819052692E+03  0.90819052692E+03  0.00000000000E+00 0. -1.
         25    2    1    2    0    0  0.44045423223E+02  0.34492110363E+01 -0.67991650252E+03  0.69273786385E+03  0.12508957289E+03 0.  0.
          5    1    3    3  502    0  0.73297394056E+02  0.41337920819E+02 -0.40799013486E+03  0.41659903291E+03  0.41800000000E+01 0. -1.
         -5    1    3    3    0  502 -0.29251970832E+02 -0.37888709783E+02 -0.27192636766E+03  0.27613883095E+03  0.41800000000E+01 0. -1.
        -11    1    1    2    0    0 -0.50753680330E+02 -0.31836040404E+02 -0.12286114422E+03  0.13669063719E+03  0.00000000000E+00 0.  1.
         11    1    1    2    0    0  0.67082571068E+01  0.28386829368E+02 -0.89777657369E+02  0.94397248676E+02  0.00000000000E+00 0. -1.
</event>
<event>
 7    1  0.2644565E-009  0.2296030E+03  0.7561462E-02  0.1126920E+00
         -1   -1    0    0    0  501 -0.00000000000E+00  0.00000000000E+00  0.12894047526E+04  0.12894047526E+04  0.00000000000E+00 0.  1.
          1   -1    0    0  501    0  0.00000000000E+00 -0.00000000000E+00 -0.56360458361E+02  0.56360458361E+02  0.00000000000E+00 0. -1.
         25    2    1    2    0    0 -0.18783924529E+03  0.11415801213E+03  0.35570262856E+03  0.43644393325E+03  0.12507323093E+03 0.  0.
          5    1    3    3  502    0 -0.93999107266E+02  0.38635611270E+02  0.62370973973E+02  0.11931535282E+03  0.41800000000E+01 0. -1.
         -5    1    3    3    0  502 -0.93840138028E+02  0.75522400856E+02  0.29333165459E+03  0.31712858042E+03  0.41800000000E+01 0. -1.
        -11    1    1    2    0    0  0.80381639368E+02 -0.10042184980E+03  0.41609878788E+03  0.43552721745E+03  0.00000000000E+00 0.  1.
         11    1    1    2    0    0  0.10745760593E+03 -0.13736162327E+02  0.46124287782E+03  0.47379406029E+03  0.00000000000E+00 0. -1.
</event>
<event>
 7    1  0.2644565E-009  0.9855323E+02  0.7561462E-02  0.1283368E+00
          2   -1    0    0  501    0  0.00000000000E+00  0.00000000000E+00  0.15242985618E+04  0.15242985618E+04  0.00000000000E+00 0. -1.
         -2   -1    0    0    0  501 -0.00000000000E+00 -0.00000000000E+00 -0.17662797124E+02  0.17662797124E+02  0.00000000000E+00 0.  1.
         25    2    1    2    0    0 -0.52618675591E+02 -0.59876563878E+01  0.13205153500E+04  0.13274839547E+04  0.12509309773E+03 0.  0.
          5    1    3    3  502    0  0.16845124793E+02 -0.20276502766E+02  0.69432751489E+02  0.74385981025E+02  0.41800000000E+01 0. -1.
         -5    1    3    3    0  502 -0.69463800383E+02  0.14288846378E+02  0.12510825986E+04  0.12530979736E+04  0.41800000000E+01 0. -1.
        -11    1    1    2    0    0  0.23796420300E+02 -0.39153112971E+02  0.12542146475E+03  0.13352819813E+03  0.00000000000E+00 0. -1.
         11    1    1    2    0    0  0.28822255290E+02  0.45140769359E+02  0.60698949855E+02  0.80949206123E+02  0.00000000000E+00 0.  1.
</event>
<event>
 7    1  0.2644565E-009  0.1041705E+03  0.7561462E-02  0.1271763E+00
          2   -1    0    0  501    0  0.00000000000E+00  0.00000000000E+00  0.52719265259E+02  0.52719265259E+02  0.00000000000E+00 0.  1.
         -2   -1    0    0    0  501 -0.00000000000E+00 -0.00000000000E+00 -0.23134782511E+03  0.23134782511E+03  0.00000000000E+00 0. -1.
         25    2    1    2    0    0  0.19953867921E+02 -0.22627454336E+02 -0.12080232618E+03  0.17648141329E+03  0.12506929556E+03 0.  0.
          5    1    3    3  502    0  0.72569155221E+02 -0.18646278173E+02 -0.61784766169E+02  0.97204916078E+02  0.41800000000E+01 0. -1.
         -5    1    3    3    0  502 -0.52615287299E+02 -0.39811761633E+01 -0.59017560011E+02  0.79276497217E+02  0.41800000000E+01 0. -1.
        -11    1    1    2    0    0 -0.10351877864E+02 -0.27471065746E+02  0.14375597681E+01  0.29391961598E+02  0.00000000000E+00 0.  1.
         11    1    1    2    0    0 -0.96019900568E+01  0.50098520082E+02 -0.59263793441E+02  0.78193715479E+02  0.00000000000E+00 0. -1.
</event>
<event>
 7    1  0.2644565E-009  0.2286838E+03  0.7561462E-02  0.1127570E+00
         -2   -1    0    0    0  501 -0.00000000000E+00  0.00000000000E+00  0.52408423107E+02  0.52408423107E+02  0.00000000000E+00 0.  1.
          2   -1    0    0  501    0  0.00000000000E+00 -0.00000000000E+00 -0.14020800075E+04  0.14020800075E+04  0.00000000000E+00 0. -1.
         25    2    1    2    0    0 -0.17407326088E+03 -0.10787465849E+03 -0.10660773744E+04  0.10927516425E+04  0.12508693775E+03 0.  0.
          5    1    3    3  502    0  0.17585692171E+02  0.19551337451E+01 -0.10884738614E+03  0.11035535776E+03  0.41800000000E+01 0. -1.
         -5    1    3    3    0  502 -0.19165895306E+03 -0.10982979224E+03 -0.95722998821E+03  0.98239628475E+03  0.41800000000E+01 0. -1.
        -11    1    1    2    0    0  0.60846832386E+02  0.81990839625E+02 -0.90679523291E+02  0.13655625485E+03  0.00000000000E+00 0.  1.
         11    1    1    2    0    0  0.11322642850E+03  0.25883818866E+02 -0.19291468671E+03  0.22518053321E+03  0.00000000000E+00 0. -1.
</event>
<event>
 7    1  0.2644565E-009  0.1188055E+03  0.7561462E-02  0.1245081E+00
         -1   -1    0    0    0  501 -0.00000000000E+00  0.00000000000E+00  0.57438612361E+03  0.57438612361E+03  0.00000000000E+00 0.  1.
          1   -1    0    0  501    0  0.00000000000E+00 -0.00000000000E+00 -0.30010956687E+02  0.30010956687E+02  0.00000000000E+00 0. -1.
         25    2    1    2    0    0 -0.68477279298E+02 -0.48546527093E+01  0.23838660357E+03  0.27782745687E+03  0.12508883882E+03 0.  0.
          5    1    3    3  502    0 -0.91219028068E+02 -0.34312619615E+02  0.12588698154E+03  0.15925850517E+03  0.41800000000E+01 0. -1.
         -5    1    3    3    0  502  0.22741748770E+02  0.29457966906E+02  0.11249962203E+03  0.11856895170E+03  0.41800000000E+01 0. -1.
        -11    1    1    2    0    0  0.74555608485E+01  0.34128303248E+02  0.18190041321E+03  0.18522442279E+03  0.00000000000E+00 0.  1.
         11    1    1    2    0    0  0.61021718450E+02 -0.29273650539E+02  0.12408815014E+03  0.14134520064E+03  0.00000000000E+00 0. -1.
</event>
<event>
 7    1  0.2644565E-009  0.3468350E+03  0.7561462E-02  0.1063922E+00
          2   -1    0    0  501    0  0.00000000000E+00  0.00000000000E+00  0.90342660437E+02  0.90342660437E+02  0.00000000000E+00 0.  1.
         -2   -1    0    0    0  501 -0.00000000000E+00 -0.00000000000E+00 -0.14706520822E+04  0.14706520822E+04  0.00000000000E+00 0. -1.
         25    2    1    2    0    0  0.32792201325E+03  0.74417904000E+02 -0.50802154033E+03  0.62193457283E+03  0.12508339714E+03 0.  0.
          5    1    3    3  502    0  0.14274091824E+03 -0.25174489905E+02 -0.16584735058E+03  0.22029875346E+03  0.41800000000E+01 0. -1.
         -5    1    3    3    0  502  0.18518109500E+03  0.99592393904E+02 -0.34217418975E+03  0.40163581937E+03  0.41800000000E+01 0. -1.
        -11    1    1    2    0    0 -0.13383723257E+03 -0.49433744355E+02 -0.26422046186E+03  0.30028078921E+03  0.00000000000E+00 0. -1.
         11    1    1    2    0    0 -0.19408478068E+03 -0.24984159645E+02 -0.60806741958E+03  0.63877938060E+03  0.00000000000E+00 0.  1.
</event>
<event>
 7    1  0.2644565E-009  0.7061509E+02  0.7561462E-02  0.1358014E+00
         -1   -1    0    0    0  501 -0.00000000000E+00  0.00000000000E+00  0.17650752406E+03  0.17650752406E+03  0.00000000000E+00 0.  1.
          1   -1    0    0  501    0  0.00000000000E+00 -0.00000000000E+00 -0.83652055191E+02  0.83652055191E+02  0.00000000000E+00 0. -1.
         25    2    1    2    0    0  0.57519578346E+01  0.54170273390E+02  0.39603238295E+02  0.14206916851E+03  0.12509088144E+03 0.  0.
          5    1    3    3  502    0  0.67350051072E+01  0.38412464135E+02 -0.42805606964E+02  0.58057472234E+02  0.41800000000E+01 0.  1.
         -5    1    3    3    0  502 -0.98304727256E+00  0.15757809255E+02  0.82408845259E+02  0.84011696277E+02  0.41800000000E+01 0.  1.
        -11    1    1    2    0    0 -0.33994347109E+02 -0.44122914493E+02  0.65260335129E+02  0.85798359891E+02  0.00000000000E+00 0.  1.
         11    1    1    2    0    0  0.28242389275E+02 -0.10047358897E+02 -0.12008104558E+02  0.32292050846E+02  0.00000000000E+00 0. -1.
</event>
<event>
 7    1  0.2644565E-009  0.1651321E+03  0.7561462E-02  0.1183022E+00
          2   -1    0    0  501    0  0.00000000000E+00  0.00000000000E+00  0.24512872145E+03  0.24512872145E+03  0.00000000000E+00 0. -1.
         -2   -1    0    0    0  501 -0.00000000000E+00 -0.00000000000E+00 -0.12019992442E+03  0.12019992442E+03  0.00000000000E+00 0.  1.
         25    2    1    2    0    0 -0.19238396601E+02 -0.13130627205E+03  0.69142607197E+02  0.19503843628E+03  0.12509132070E+03 0.  0.
          5    1    3    3  502    0  0.41691311505E+02 -0.82132073838E+02  0.71370053861E+02  0.11659759859E+03  0.41800000000E+01 0. -1.
         -5    1    3    3    0  502 -0.60929708106E+02 -0.49174198214E+02 -0.22274466634E+01  0.78440837697E+02  0.41800000000E+01 0. -1.
        -11    1    1    2    0    0  0.38856003875E+02  0.14916279427E+02  0.24036554311E+02  0.48062879359E+02  0.00000000000E+00 0.  1.
         11    1    1    2    0    0 -0.19617607274E+02  0.11638999263E+03  0.31749635518E+02  0.12222733023E+03  0.00000000000E+00 0. -1.
</event>
<event>
 7    1  0.2644565E-009  0.1189310E+03  0.7561462E-02  0.1244871E+00
          1   -1    0    0  501    0  0.00000000000E+00  0.00000000000E+00  0.15643965053E+03  0.15643965053E+03  0.00000000000E+00 0. -1.
         -1   -1    0    0    0  501 -0.00000000000E+00 -0.00000000000E+00 -0.12513481396E+03  0.12513481396E+03  0.00000000000E+00 0.  1.
         25    2    1    2    0    0 -0.38215556200E+02  0.79402758212E+02  0.15614875856E+02  0.15380728440E+03  0.12509048581E+03 0.  0.
          5    1    3    3  502    0 -0.41560543827E+02  0.11191791431E+02 -0.44991716590E+02  0.62404021989E+02  0.41800000000E+01 0. -1.
         -5    1    3    3    0  502  0.33449876274E+01  0.68210966781E+02  0.60606592446E+02  0.91403262411E+02  0.41800000000E+01 0. -1.
        -11    1    1    2    0    0 -0.29820218018E+02 -0.28254792314E+02 -0.69987602074E+00  0.41086111008E+02  0.00000000000E+00 0. -1.
         11    1    1    2    0    0  0.68035774218E+02 -0.51147965898E+02  0.16389836728E+02  0.86681069080E+02  0.00000000000E+00 0.  1.
</event>
<event>
 7    1  0.2644565E-009  0.1038931E+03  0.7561462E-02  0.1272316E+00
         -1   -1    0    0    0  501 -0.00000000000E+00  0.00000000000E+00  0.44639057758E+02  0.44639057758E+02  0.00000000000E+00 0.  1.
          1   -1    0    0  501    0  0.00000000000E+00 -0.00000000000E+00 -0.27386232966E+03  0.27386232966E+03  0.00000000000E+00 0. -1.
         25    2    1    2    0    0 -0.11018871841E+02  0.63727281487E+01 -0.15614002071E+03  0.20047117113E+03  0.12508779791E+03 0.  0.
          5    1    3    3  502    0  0.73478530393E+01  0.64209933301E+02 -0.85280738207E+02  0.10708493446E+03  0.41800000000E+01 0.  1.
         -5    1    3    3    0  502 -0.18366724880E+02 -0.57837205152E+02 -0.70859282508E+02  0.93386236674E+02  0.41800000000E+01 0.  1.
        -11    1    1    2    0    0  0.45845329316E+02  0.35497096598E+01 -0.12841166994E+02  0.47741912703E+02  0.00000000000E+00 0.  1.
         11    1    1    2    0    0 -0.34826457475E+02 -0.99224378085E+01 -0.60242084189E+02  0.70288303577E+02  0.00000000000E+00 0. -1.
</event>
<event>
 7    1  0.2644565E-009  0.1096161E+03  0.7561462E-02  0.1261282E+00
         -1   -1    0    0    0  501 -0.00000000000E+00  0.00000000000E+00  0.52526297046E+02  0.52526297046E+02  0.00000000000E+00 0.  1.
          1   -1    0    0  501    0  0.00000000000E+00 -0.00000000000E+00 -0.33758944808E+03  0.33758944808E+03  0.00000000000E+00 0. -1.
         25    2    1    2    0    0 -0.38922059206E+02 -0.37491095113E+02 -0.23235675877E+03  0.26935898650E+03  0.12507634211E+03 0.  0.
          5    1    3    3  502    0 -0.93211185398E+01 -0.78689424263E+02 -0.10071032078E+03  0.12821446819E+03  0.41800000000E+01 0.  1.
         -5    1    3    3    0  502 -0.29600940666E+02  0.41198329150E+02 -0.13164643799E+03  0.14114451831E+03  0.41800000000E+01 0.  1.
        -11    1    1    2    0    0  0.48912291301E+02 -0.12942466985E+01  0.64131244641E+01  0.49347902490E+02  0.00000000000E+00 0.  1.
         11    1    1    2    0    0 -0.99902320947E+01  0.38785341811E+02 -0.59119516736E+02  0.71408856144E+02  0.00000000000E+00 0. -1.
</event>
<event>
 7    1  0.2644565E-009  0.9510004E+02  0.7561462E-02  0.1290951E+00
         -3   -1    0    0    0  501 -0.00000000000E+00  0.00000000000E+00  0.25669910593E+02  0.25669910593E+02  0.00000000000E+00 0.  1.
          3   -1    0    0  501    0  0.00000000000E+00 -0.00000000000E+00 -0.56938167974E+03  0.56938167974E+03  0.00000000000E+00 0. -1.
         25    2    1    2    0    0 -0.14362956695E+02  0.32789158768E+02 -0.22183673280E+03  0.25717846560E+03  0.12509118151E+03 0.  0.
          5    1    3    3  502    0 -0.39450310697E+02 -0.21264754060E+02 -0.25024274589E+02  0.51499548523E+02  0.41800000000E+01 0. -1.
         -5    1    3    3    0  502  0.25087354002E+02  0.54053912829E+02 -0.19681245821E+03  0.20567891708E+03  0.41800000000E+01 0. -1.
        -11    1    1    2    0    0  0.44911400170E+02 -0.69624137665E+01 -0.26168557119E+03  0.26560279975E+03  0.00000000000E+00 0. -1.
         11    1    1    2    0    0 -0.30548443475E+02 -0.25826745002E+02 -0.60189465163E+02  0.72270324980E+02  0.00000000000E+00 0.  1.
</event>
<event>
 7    1  0.2644565E-009  0.6863730E+02  0.7561462E-02  0.1364789E+00
          1   -1    0    0  501    0  0.00000000000E+00  0.00000000000E+00  0.19819811188E+03  0.19819811188E+03  0.00000000000E+00 0. -1.
         -1   -1    0    0    0  501 -0.00000000000E+00 -0.00000000000E+00 -0.71859362644E+02  0.71859362644E+02  0.00000000000E+00 0.  1.
         25    2    1    2    0    0  0.18274163767E+02 -0.58472032334E+01  0.12231486526E+03  0.17599885962E+03  0.12508612024E+03 0.  0.
          5    1    3    3  502    0 -0.20323084192E+02  0.29355452265E+02 -0.68613869107E+01  0.36596739733E+02  0.41800000000E+01 0. -1.
         -5    1    3    3    0  502  0.38597247959E+02 -0.35202655498E+02  0.12917625217E+03  0.13940211989E+03  0.41800000000E+01 0. -1.
        -11    1    1    2    0    0 -0.21266697302E+02  0.23106448292E+02 -0.37546642279E+02  0.48948245252E+02  0.00000000000E+00 0.  1.
         11    1    1    2    0    0  0.29925335352E+01 -0.17259245058E+02  0.41570526252E+02  0.45110369648E+02  0.00000000000E+00 0. -1.
</event>
<event>
 7    1  0.3098181E-009  0.1066570E+03  0.7561462E-02  0.1266889E+00
         -1   -1    0    0    0  501 -0.00000000000E+00  0.00000000000E+00  0.28807928177E+02  0.28807928177E+02  0.00000000000E+00 0.  1.
          1   -1    0    0  501    0  0.00000000000E+00 -0.00000000000E+00 -0.72450838518E+03  0.72450838518E+03  0.00000000000E+00 0. -1.
         25    2    1    2    0    0  0.20670476050E+02  0.80219051451E+02 -0.49932374286E+03  0.52137681241E+03  0.12508883063E+03 0.  0.
          5    1    3    3  502    0 -0.97156515366E+01  0.29897691626E+02 -0.18013780809E+02  0.36472380624E+02  0.41800000000E+01 0.  1.
         -5    1    3    3    0  502  0.30386127587E+02  0.50321359826E+02 -0.48130996205E+03  0.48490443179E+03  0.41800000000E+01 0.  1.
        -11    1    1    2    0    0 -0.56449634972E+02 -0.42346336701E+02 -0.10016731165E+03  0.12252862459E+03  0.00000000000E+00 0.  1.
         11    1    1    2    0    0  0.35779158922E+02 -0.37872714750E+02 -0.96209402498E+02  0.10941087636E+03  0.00000000000E+00 0. -1.
</event>
<event>
 7    1  0.2644565E-009  0.1180345E+03  0.7561462E-02  0.1246375E+00
          2   -1    0    0  501    0  0.00000000000E+00  0.00000000000E+00  0.36939929713E+03  0.36939929713E+03  0.00000000000E+00 0. -1.
         -2   -1    0    0    0  501 -0.00000000000E+00 -0.00000000000E+00 -0.66072518912E+02  0.66072518912E+02  0.00000000000E+00 0.  1.
         25    2    1    2    0    0  0.21969660315E+02 -0.92426587898E+02  0.81185604143E+02  0.17680731862E+03  0.12507751785E+03 0.  0.
          5    1    3    3  502    0  0.10945164425E+02  0.59665525563E+00  0.82201460036E+02  0.83034360682E+02  0.41800000000E+01 0.  1.
         -5    1    3    3    0  502  0.11024495891E+02 -0.93023243154E+02 -0.10158558936E+01  0.93772957934E+02  0.41800000000E+01 0.  1.
        -11    1    1    2    0    0 -0.12398666357E+02 -0.16825099836E+02  0.21362054510E+02  0.29885586573E+02  0.00000000000E+00 0.  1.
         11    1    1    2    0    0 -0.95709939588E+01  0.10925168773E+03  0.20077911957E+03  0.22877891085E+03  0.00000000000E+00 0. -1.
</event>
<event>
 7    1  0.2644565E-009  0.1238091E+03  0.7561462E-02  0.1236942E+00
          2   -1    0    0  501    0  0.00000000000E+00  0.00000000000E+00  0.40878930678E+03  0.40878930678E+03  0.00000000000E+00 0. -1.
         -2   -1    0    0    0  501 -0.00000000000E+00 -0.00000000000E+00 -0.49630955506E+02  0.49630955506E+02  0.00000000000E+00 0.  1.
         25    2    1    2    0    0 -0.73897400727E+02 -0.33435909750E+02  0.25108315916E+03  0.29200915637E+03  0.12509120151E+03 0.  0.
          5    1    3    3  502    0  0.22957681037E+02 -0.16050061065E+02  0.14301454078E+03  0.14579194371E+03  0.41800000000E+01 0. -1.
         -5    1    3    3    0  502 -0.96855081763E+02 -0.17385848684E+02  0.10806861839E+03  0.14621721266E+03  0.41800000000E+01 0. -1.
        -11    1    1    2    0    0  0.25996757990E+02  0.60456003840E+02  0.83121744181E+02  0.10601879165E+03  0.00000000000E+00 0.  1.
         11    1    1    2    0    0  0.47900642736E+02 -0.27020094090E+02  0.24953447934E+02  0.60392314270E+02  0.00000000000E+00 0. -1.
</event>
<event>
 7    1  0.2644565E-009  0.9140824E+02  0.7561462E-02  0.1299477E+00
          4   -1    0    0  501    0  0.00000000000E+00  0.00000000000E+00  0.67568881593E+02  0.67568881593E+02  0.00000000000E+00 0. -1.
         -4   -1    0    0    0  501 -0.00000000000E+00 -0.00000000000E+00 -0.16995714905E+03  0.16995714905E+03  0.00000000000E+00 0.  1.
         25    2    1    2    0    0  0.44562803490E+01 -0.16594920146E+02 -0.43860230844E+02  0.13366749632E+03  0.12509208573E+03 0.  0.
          5    1    3    3  502    0 -0.48545042556E+02 -0.37628082283E+02  0.72545410358E-01  0.61562743570E+02  0.41800000000E+01 0.  1.
         -5    1    3    3    0  502  0.53001322905E+02  0.21033162136E+02 -0.43932776254E+02  0.72104752746E+02  0.41800000000E+01 0.  1.
        -11    1    1    2    0    0 -0.23958325125E+01 -0.23654952205E+02 -0.58938924120E+02  0.63553863405E+02  0.00000000000E+00 0.  1.
         11    1    1    2    0    0 -0.20604478365E+01  0.40249872351E+02  0.41088750747E+00  0.40304670922E+02  0.00000000000E+00 0. -1.
</event>
<event>
 7    1  0.2644565E-009  0.2575948E+03  0.7561462E-02  0.1108597E+00
          1   -1    0    0  501    0  0.00000000000E+00  0.00000000000E+00  0.17186642705E+03  0.17186642705E+03  0.00000000000E+00 0. -1.
         -1   -1    0    0    0  501 -0.00000000000E+00 -0.00000000000E+00 -0.44642681766E+03  0.44642681766E+03  0.00000000000E+00 0.  1.
         25    2    1    2    0    0  0.33458917356E+01  0.23591848131E+03 -0.24690896078E+03  0.36370386570E+03  0.12509093572E+03 0.  0.
          5    1    3    3  502    0  0.21119339499E+02 -0.74878530994E+01 -0.24818142896E+02  0.33697285673E+02  0.41800000000E+01 0.  1.
         -5    1    3    3    0  502 -0.17773447764E+02  0.24340633441E+03 -0.22209081788E+03  0.33000658003E+03  0.41800000000E+01 0.  1.
        -11    1    1    2    0    0  0.37020978928E+02 -0.10801273245E+03 -0.37298071283E+02  0.12011848056E+03  0.00000000000E+00 0.  1.
         11    1    1    2    0    0 -0.40366870663E+02 -0.12790574886E+03  0.96466414497E+01  0.13447089845E+03  0.00000000000E+00 0. -1.
</event>
<event>
 7    1  0.2644565E-009  0.9753629E+02  0.7561462E-02  0.1285564E+00
         -1   -1    0    0    0  501 -0.00000000000E+00  0.00000000000E+00  0.82831032415E+02  0.82831032415E+02  0.00000000000E+00 0.  1.
          1   -1    0    0  501    0  0.00000000000E+00 -0.00000000000E+00 -0.16538359716E+03  0.16538359716E+03  0.00000000000E+00 0. -1.
         25    2    1    2    0    0 -0.15930944883E+02 -0.70868884544E+01 -0.97469222237E+01  0.12667522582E+03  0.12509033276E+03 0.  0.
          5    1    3    3  502    0  0.52633823385E+02  0.12754117395E+02  0.12606794745E+01  0.54332757958E+02  0.41800000000E+01 0.  1.
         -5    1    3    3    0  502 -0.68564768267E+02 -0.19841005849E+02 -0.11007601698E+02  0.72342467858E+02  0.41800000000E+01 0.  1.
        -11    1    1    2    0    0 -0.18052722114E+02 -0.19152502966E+02  0.10087942109E+02  0.28186623096E+02  0.00000000000E+00 0.  1.
         11    1    1    2    0    0  0.33983666997E+02  0.26239391420E+02 -0.82893584630E+02  0.93352780662E+02  0.00000000000E+00 0. -1.
</event>
<event>
 7    1  0.2644565E-009  0.1267000E+03  0.7561462E-02  0.1232436E+00
          1   -1    0    0  501    0  0.00000000000E+00  0.00000000000E+00  0.37510742412E+03  0.37510742412E+03  0.00000000000E+00 0. -1.
         -1   -1    0    0    0  501 -0.00000000000E+00 -0.00000000000E+00 -0.65942235379E+02  0.65942235379E+02  0.00000000000E+00 0.  1.
         25    2    1    2    0    0  0.34353016389E+02  0.65504353359E+02  0.45147195565E+02  0.15218720387E+03  0.12510685716E+03 0.  0.
          5    1    3    3  502    0 -0.14299411119E+02 -0.32481230394E+02  0.84390401891E+01  0.36717751641E+02  0.41800000000E+01 0. -1.
         -5    1    3    3    0  502  0.48652427508E+02  0.97985583753E+02  0.36708155376E+02  0.11546945222E+03  0.41800000000E+01 0. -1.
        -11    1    1    2    0    0 -0.57667810720E+02 -0.61889569731E+02  0.14799849631E+03  0.17046832593E+03  0.00000000000E+00 0.  1.
         11    1    1    2    0    0  0.23314794331E+02 -0.36147836280E+01  0.11601949687E+03  0.11839412971E+03  0.00000000000E+00 0. -1.
</event>
<event>
 7    1  0.2644565E-009  0.1491414E+03  0.7561462E-02  0.1201532E+00
          2   -1    0    0  501    0  0.00000000000E+00  0.00000000000E+00  0.12428391773E+04  0.12428391773E+04  0.00000000000E+00 0.  1.
         -2   -1    0    0    0  501 -0.00000000000E+00 -0.00000000000E+00 -0.22565402807E+02  0.22565402807E+02  0.00000000000E+00 0. -1.
         25    2    1    2    0    0 -0.78950923598E+02  0.24814388297E+02  0.77729299553E+03  0.79163040203E+03  0.12508113496E+03 0.  0.
          5    1    3    3  502    0  0.25452468639E+01  0.53535794253E+02  0.44600918174E+03  0.44923737839E+03  0.41800000000E+01 0.  1.
         -5    1    3    3    0  502 -0.81496170462E+02 -0.28721405956E+02  0.33128381379E+03  0.34239302364E+03  0.41800000000E+01 0.  1.
        -11    1    1    2    0    0  0.11430032072E+03 -0.37748272426E+02  0.39414034243E+03  0.41211176265E+03  0.00000000000E+00 0. -1.
         11    1    1    2    0    0 -0.35349397122E+02  0.12933884129E+02  0.48840436583E+02  0.61662415467E+02  0.00000000000E+00 0.  1.
</event>
<event>
 7    1  0.2644565E-009  0.9570642E+02  0.7561462E-02  0.1289593E+00
          1   -1    0    0  501    0  0.00000000000E+00  0.00000000000E+00  0.12856070272E+03  0.12856070272E+03  0.00000000000E+00 0.  1.
         -1   -1    0    0    0  501 -0.00000000000E+00 -0.00000000000E+00 -0.12508451340E+03  0.12508451340E+03  0.00000000000E+00 0. -1.
         25    2    1    2    0    0 -0.58825264559E+02 -0.29266158173E+02  0.22809120909E+01  0.14131201414E+03  0.12508782121E+03 0.  0.
          5    1    3    3  502    0 -0.63766144745E+02  0.21605255296E+02  0.39295628355E+02  0.78067452115E+02  0.41800000000E+01 0. -1.
         -5    1    3    3    0  502  0.49408801858E+01 -0.50871413469E+02 -0.37014716264E+02  0.63244562022E+02  0.41800000000E+01 0. -1.
        -11    1    1    2    0    0  0.52108415892E+02  0.11060010930E+02  0.41548391674E+02  0.67556492651E+02  0.00000000000E+00 0.  1.
         11    1    1    2    0    0  0.67168486666E+01  0.18206147243E+02 -0.40353114446E+02  0.44776709336E+02  0.00000000000E+00 0. -1.
</event>
<event>
 7    1  0.2644565E-009  0.1308944E+03  0.7561462E-02  0.1226135E+00
         -2   -1    0    0    0  501 -0.00000000000E+00  0.00000000000E+00  0.96036342307E+02  0.96036342307E+02  0.00000000000E+00 0.  1.
          2   -1    0    0  501    0  0.00000000000E+00 -0.00000000000E+00 -0.24643591437E+03  0.24643591437E+03  0.00000000000E+00 0. -1.
         25    2    1    2    0    0 -0.14667037731E+02  0.94740719224E+02 -0.23348850516E+02  0.15932447024E+03  0.12509273409E+03 0.  0.
          5    1    3    3  502    0 -0.65388407640E+02  0.26417663456E+02  0.12202738276E+01  0.70657612926E+02  0.41800000000E+01 0. -1.
         -5    1    3    3    0  502  0.50721369909E+02  0.68323055768E+02 -0.24569124343E+02  0.88666857314E+02  0.41800000000E+01 0. -1.
        -11    1    1    2    0    0 -0.12719416030E+02 -0.61863303941E+02 -0.17500077804E+02  0.65537047857E+02  0.00000000000E+00 0.  1.
         11    1    1    2    0    0  0.27386453761E+02 -0.32877415284E+02 -0.10955064375E+03  0.11761073858E+03  0.00000000000E+00 0. -1.
</event>
<event>
 7    1  0.2644565E-009  0.2025568E+03  0.7561462E-02  0.1147600E+00
          2   -1    0    0  501    0  0.00000000000E+00  0.00000000000E+00  0.10677764044E+04  0.10677764044E+04  0.00000000000E+00 0. -1.
         -2   -1    0    0    0  501 -0.00000000000E+00 -0.00000000000E+00 -0.41348936661E+02  0.41348936661E+02  0.00000000000E+00 0.  1.
         25    2    1    2    0    0 -0.16559435913E+03  0.55252124620E+02  0.63350751248E+03  0.66891979069E+03  0.12509048307E+03 0.  0.
          5    1    3    3  502    0 -0.18144990196E+03  0.29021522501E+02  0.54559545050E+03  0.57572405169E+03  0.41800000000E+01 0. -1.
         -5    1    3    3    0  502  0.15855542826E+02  0.26230602118E+02  0.87912061984E+02  0.93195739002E+02  0.41800000000E+01 0. -1.
        -11    1    1    2    0    0  0.76723673694E+02  0.13643991494E+02  0.22499383708E+03  0.23810692416E+03  0.00000000000E+00 0. -1.
         11    1    1    2    0    0  0.88870685441E+02 -0.68896116114E+02  0.16792611813E+03  0.20209862616E+03  0.00000000000E+00 0.  1.
</event>
<event>
 7    1  0.2644565E-009  0.1320661E+03  0.7561462E-02  0.1224422E+00
          2   -1    0    0  501    0  0.00000000000E+00  0.00000000000E+00  0.22367682063E+03  0.22367682063E+03  0.00000000000E+00 0. -1.
         -2   -1    0    0    0  501 -0.00000000000E+00 -0.00000000000E+00 -0.11759489622E+03  0.11759489622E+03  0.00000000000E+00 0.  1.
         25    2    1    2    0    0  0.82450162950E+02  0.36585869116E+02  0.14299142593E+03  0.21030611444E+03  0.12508220774E+03 0.  0.
          5    1    3    3  502    0 -0.25360264347E+02  0.92318283951E+01 -0.21555836471E+01  0.27395047073E+02  0.41800000000E+01 0. -1.
         -5    1    3    3    0  502  0.10781042730E+03  0.27354040721E+02  0.14514700958E+03  0.18291106737E+03  0.41800000000E+01 0. -1.
        -11    1    1    2    0    0  0.12464934370E+02  0.13352417451E+02 -0.75816249463E+01  0.19777327359E+02  0.00000000000E+00 0.  1.
         11    1    1    2    0    0 -0.94915097320E+02 -0.49938286567E+02 -0.29327876576E+02  0.11118827505E+03  0.00000000000E+00 0. -1.
</event>
<event>
 7    1  0.2644565E-009  0.2119420E+03  0.7561462E-02  0.1140037E+00
          2   -1    0    0  501    0  0.00000000000E+00  0.00000000000E+00  0.14146369078E+03  0.14146369078E+03  0.00000000000E+00 0.  1.
         -2   -1    0    0    0  501 -0.00000000000E+00 -0.00000000000E+00 -0.31826069333E+03  0.31826069333E+03  0.00000000000E+00 0. -1.
         25    2    1    2    0    0 -0.34071880023E+02 -0.17866858414E+03 -0.10093090650E+03  0.24272934516E+03  0.12508849327E+03 0.  0.
          5    1    3    3  502    0 -0.12557515303E+02 -0.19360877570E+03 -0.91789418481E+02  0.21467375006E+03  0.41800000000E+01 0. -1.
         -5    1    3    3    0  502 -0.21514364721E+02  0.14940191565E+02 -0.91414880233E+01  0.28055595103E+02  0.41800000000E+01 0. -1.
        -11    1    1    2    0    0 -0.19285551012E+02  0.27673270074E+01 -0.75385914754E+01  0.20890690224E+02  0.00000000000E+00 0. -1.
         11    1    1    2    0    0  0.53357431035E+02  0.17590125713E+03 -0.68327504570E+02  0.19610434872E+03  0.00000000000E+00 0.  1.
</event>
<event>
 7    1  0.2644565E-009  0.1868719E+03  0.7561462E-02  0.1161313E+00
          2   -1    0    0  501    0  0.00000000000E+00  0.00000000000E+00  0.11968115015E+04  0.11968115015E+04  0.00000000000E+00 0. -1.
         -2   -1    0    0    0  501 -0.00000000000E+00 -0.00000000000E+00 -0.32936702718E+02  0.32936702718E+02  0.00000000000E+00 0.  1.
         25    2    1    2    0    0  0.16047067018E+03  0.32157499135E+02  0.52855674533E+03  0.56727780008E+03  0.12508768405E+03 0.  0.
          5    1    3    3  502    0  0.17024845287E+02  0.43262681921E+02  0.54030682257E+02  0.71402325096E+02  0.41800000000E+01 0.  1.
         -5    1    3    3    0  502  0.14344582489E+03 -0.11105182786E+02  0.47452606307E+03  0.49587547499E+03  0.41800000000E+01 0.  1.
        -11    1    1    2    0    0 -0.13588409792E+03 -0.57743369836E+02  0.44444368222E+03  0.46832571090E+03  0.00000000000E+00 0.  1.
         11    1    1    2    0    0 -0.24586572257E+02  0.25585870701E+02  0.19087437120E+03  0.19414469320E+03  0.00000000000E+00 0. -1.
</event>
<event>
 7    1  0.2644565E-009  0.1000213E+03  0.7561462E-02  0.1280251E+00
          2   -1    0    0  501    0  0.00000000000E+00  0.00000000000E+00  0.47842275719E+03  0.47842275719E+03  0.00000000000E+00 0. -1.
         -2   -1    0    0    0  501 -0.00000000000E+00 -0.00000000000E+00 -0.34220707782E+02  0.34220707782E+02  0.00000000000E+00 0.  1.
         25    2    1    2    0    0  0.43221306360E+02  0.40000169972E+02  0.28188562530E+03  0.31396970407E+03  0.12509745963E+03 0.  0.
          5    1    3    3  502    0 -0.14870244986E+02  0.31910503084E+02  0.23792682095E+03  0.24055363003E+03  0.41800000000E+01 0.  1.
         -5    1    3    3    0  502  0.58091551345E+02  0.80896668880E+01  0.43958804344E+02  0.73416074040E+02  0.41800000000E+01 0.  1.
        -11    1    1    2    0    0 -0.16324353444E+02 -0.66234704582E+02  0.13794057687E+03  0.15388672248E+03  0.00000000000E+00 0. -1.
         11    1    1    2    0    0 -0.26896952916E+02  0.26234534610E+02  0.24375847241E+02  0.44787038427E+02  0.00000000000E+00 0.  1.
</event>
<event>
 7    1  0.2644565E-009  0.1069274E+03  0.7561462E-02  0.1266368E+00
          3   -1    0    0  501    0  0.00000000000E+00  0.00000000000E+00  0.73345269513E+02  0.73345269513E+02  0.00000000000E+00 0. -1.
         -3   -1    0    0    0  501 -0.00000000000E+00 -0.00000000000E+00 -0.26814493575E+03  0.26814493575E+03  0.00000000000E+00 0.  1.
         25    2    1    2    0    0  0.49224882704E+02 -0.51012635700E+02 -0.41336305231E+02  0.14960213920E+03  0.12508689717E+03 0.  0.
          5    1    3    3  502    0  0.78353091389E+02 -0.52926467887E+02  0.48884141630E+01  0.94772289864E+02  0.41800000000E+01 0.  1.
         -5    1    3    3    0  502 -0.29128208684E+02  0.19138321869E+01 -0.46224719394E+02  0.54829849332E+02  0.41800000000E+01 0.  1.
        -11    1    1    2    0    0 -0.59726146938E+02  0.31410505261E+02 -0.44862481706E+02  0.81033787605E+02  0.00000000000E+00 0. -1.
         11    1    1    2    0    0  0.10501264234E+02  0.19602130439E+02 -0.10860087930E+03  0.11085427846E+03  0.00000000000E+00 0.  1.
</event>
<event>
 7    1  0.2930090E-009  0.9727811E+02  0.7561462E-02  0.1286126E+00
         -1   -1    0    0    0  501 -0.00000000000E+00  0.00000000000E+00  0.44231203559E+03  0.44231203559E+03  0.00000000000E+00 0.  1.
          1   -1    0    0  501    0  0.00000000000E+00 -0.00000000000E+00 -0.28664986273E+02  0.28664986273E+02  0.00000000000E+00 0. -1.
         25    2    1    2    0    0  0.11258657625E+02  0.47141330577E+01  0.29577838482E+03  0.32137782270E+03  0.12509944675E+03 0.  0.
          5    1    3    3  502    0  0.59505471535E+02 -0.10738358536E+02  0.84000396268E+02  0.10358451844E+03  0.41800000000E+01 0. -1.
         -5    1    3    3    0  502 -0.48246813910E+02  0.15452491594E+02  0.21177798855E+03  0.21779330427E+03  0.41800000000E+01 0. -1.
        -11    1    1    2    0    0  0.28345909348E+01 -0.42597779731E+02  0.92502237501E+02  0.10187870085E+03  0.00000000000E+00 0.  1.
         11    1    1    2    0    0 -0.14093248560E+02  0.37883646674E+02  0.25366426994E+02  0.47720498308E+02  0.00000000000E+00 0. -1.
</event>
<event>
 7    1  0.2644565E-009  0.3272953E+03  0.7561462E-02  0.1072340E+00
          2   -1    0    0  501    0  0.00000000000E+00  0.00000000000E+00  0.27068187524E+03  0.27068187524E+03  0.00000000000E+00 0.  1.
         -2   -1    0    0    0  501 -0.00000000000E+00 -0.00000000000E+00 -0.41667602983E+03  0.41667602983E+03  0.00000000000E+00 0. -1.
         25    2    1    2    0    0  0.11903268401E+03 -0.29329181136E+03 -0.50712398952E+02  0.34410387909E+03  0.12508743233E+03 0.  0.
          5    1    3    3  502    0  0.33125453919E+02 -0.20560997935E+03  0.69481534286E+01  0.20841906953E+03  0.41800000000E+01 0.  1.
         -5    1    3    3    0  502  0.85907230095E+02 -0.87681832004E+02 -0.57660552380E+02  0.13568480957E+03  0.41800000000E+01 0.  1.
        -11    1    1    2    0    0 -0.28673930002E+02  0.15924545687E+03 -0.14272351931E+02  0.16243463247E+03  0.00000000000E+00 0.  1.
         11    1    1    2    0    0 -0.90358754012E+02  0.13404635448E+03 -0.81009403706E+02  0.18081939350E+03  0.00000000000E+00 0. -1.
</event>
<event>
 7    1  0.2644565E-009  0.1893765E+03  0.7561462E-02  0.1159025E+00
         -1   -1    0    0    0  501 -0.00000000000E+00  0.00000000000E+00  0.46616135548E+02  0.46616135548E+02  0.00000000000E+00 0.  1.
          1   -1    0    0  501    0  0.00000000000E+00 -0.00000000000E+00 -0.87358979270E+03  0.87358979270E+03  0.00000000000E+00 0. -1.
         25    2    1    2    0    0  0.26542600094E+02 -0.15848371676E+03 -0.55398044621E+03  0.59022303756E+03  0.12508917295E+03 0.  0.
          5    1    3    3  502    0 -0.16828563605E+01 -0.16446297587E+03 -0.38400647180E+03  0.41776709447E+03  0.41800000000E+01 0.  1.
         -5    1    3    3    0  502  0.28225456455E+02  0.59792591104E+01 -0.16997397441E+03  0.17245594309E+03  0.41800000000E+01 0.  1.
        -11    1    1    2    0    0 -0.41984521664E+02  0.16352694555E+03 -0.25398481327E+03  0.30497876542E+03  0.00000000000E+00 0. -1.
         11    1    1    2    0    0  0.15441921570E+02 -0.50432287911E+01 -0.19008397667E+02  0.25004125266E+02  0.00000000000E+00 0.  1.
</event>
<event>
 7    1  0.2644565E-009  0.1914171E+03  0.7561462E-02  0.1157189E+00
          1   -1    0    0  501    0  0.00000000000E+00  0.00000000000E+00  0.56878604788E+03  0.56878604788E+03  0.00000000000E+00 0. -1.
         -1   -1    0    0    0  501 -0.00000000000E+00 -0.00000000000E+00 -0.74462460709E+02  0.74462460709E+02  0.00000000000E+00 0.  1.
         25    2    1    2    0    0  0.58035697511E+02 -0.16078295951E+03  0.21562846453E+03  0.30226286543E+03  0.12509157785E+03 0.  0.
          5    1    3    3  502    0  0.29883188006E+01 -0.14918178612E+03  0.18616934810E+03  0.23862236679E+03  0.41800000000E+01 0. -1.
         -5    1    3    3    0  502  0.55047378710E+02 -0.11601173392E+02  0.29459116430E+02  0.63640498645E+02  0.41800000000E+01 0. -1.
        -11    1    1    2    0    0 -0.62037794761E+02  0.11060904821E+03  0.25616835475E+03  0.28584134673E+03  0.00000000000E+00 0.  1.
         11    1    1    2    0    0  0.40020972501E+01  0.50173911295E+02  0.22526767893E+02  0.55144296430E+02  0.00000000000E+00 0. -1.
</event>
<event>
 7    1  0.2644565E-009  0.8993513E+02  0.7561462E-02  0.1303009E+00
          2   -1    0    0  501    0  0.00000000000E+00  0.00000000000E+00  0.35723656379E+02  0.35723656379E+02  0.00000000000E+00 0. -1.
         -2   -1    0    0    0  501 -0.00000000000E+00 -0.00000000000E+00 -0.38503447099E+03  0.38503447099E+03  0.00000000000E+00 0.  1.
         25    2    1    2    0    0  0.10866377278E+02  0.21164775692E+02 -0.26292275341E+03  0.29213356637E+03  0.12509044909E+03 0.  0.
          5    1    3    3  502    0 -0.49862634175E+02  0.37079879616E+02 -0.10417617304E+03  0.12137276131E+03  0.41800000000E+01 0. -1.
         -5    1    3    3    0  502  0.60729011453E+02 -0.15915103925E+02 -0.15874658037E+03  0.17076080506E+03  0.41800000000E+01 0. -1.
        -11    1    1    2    0    0  0.16738238763E+02  0.41202501101E+01 -0.89420985038E+02  0.91067324892E+02  0.00000000000E+00 0.  1.
         11    1    1    2    0    0 -0.27604616041E+02 -0.25285025802E+02  0.30329238417E+01  0.37557236101E+02  0.00000000000E+00 0. -1.
</event>
<event>
 7    1  0.2644565E-009  0.9252820E+02  0.7561462E-02  0.1296842E+00
          1   -1    0    0  501    0  0.00000000000E+00  0.00000000000E+00  0.77171650760E+03  0.77171650760E+03  0.00000000000E+00 0. -1.
         -1   -1    0    0    0  501 -0.00000000000E+00 -0.00000000000E+00 -0.21210504001E+02  0.21210504001E+02  0.00000000000E+00 0.  1.
         25    2    1    2    0    0  0.10629218295E+02  0.27973384048E+02  0.60321826631E+03  0.61677819955E+03  0.12509028793E+03 0.  0.
          5    1    3    3  502    0 -0.21728384640E+02 -0.37361447045E+02  0.11132802143E+03  0.11949644840E+03  0.41800000000E+01 0.  1.
         -5    1    3    3    0  502  0.32357602935E+02  0.65334831093E+02  0.49189024489E+03  0.49728175116E+03  0.41800000000E+01 0.  1.
        -11    1    1    2    0    0 -0.15153548651E+02 -0.46826673573E+02  0.14877361709E+03  0.15670340308E+03  0.00000000000E+00 0. -1.
         11    1    1    2    0    0  0.45243303558E+01  0.18853289525E+02 -0.14858798048E+01  0.19445408966E+02  0.00000000000E+00 0.  1.
</event>
<event>
 7    1  0.2644565E-009  0.9355826E+02  0.7561462E-02  0.1294457E+00
          2   -1    0    0  501    0  0.00000000000E+00  0.00000000000E+00  0.36534374451E+03  0.36534374451E+03  0.00000000000E+00 0. -1.
         -2   -1    0    0    0  501 -0.00000000000E+00 -0.00000000000E+00 -0.42269151236E+02  0.42269151236E+02  0.00000000000E+00 0.  1.
         25    2    1    2    0    0  0.20188548635E+02 -0.39812722490E+02  0.24434064095E+03  0.27810491598E+03  0.12508942843E+03 0.  0.
          5    1    3    3  502    0 -0.11363667542E+02 -0.69498436017E+02  0.21325545523E+03  0.22462085195E+03  0.41800000000E+01 0.  1.
         -5    1    3    3    0  502  0.31552216176E+02  0.29685713527E+02  0.31085185725E+02  0.53484064026E+02  0.41800000000E+01 0.  1.
        -11    1    1    2    0    0  0.20041605977E+02  0.19572581738E+02 -0.10207271134E+02  0.29815102046E+02  0.00000000000E+00 0.  1.
         11    1    1    2    0    0 -0.40230154612E+02  0.20240140752E+02  0.88941223455E+02  0.99692877717E+02  0.00000000000E+00 0. -1.
</event>
<event>
 7    1  0.2644565E-009  0.1977934E+03  0.7561462E-02  0.1151614E+00
          2   -1    0    0  501    0  0.00000000000E+00  0.00000000000E+00  0.46084081144E+03  0.46084081144E+03  0.00000000000E+00 0.  1.
         -2   -1    0    0    0  501 -0.00000000000E+00 -0.00000000000E+00 -0.10509653706E+03  0.10509653706E+03  0.00000000000E+00 0. -1.
         25    2    1    2    0    0 -0.72320255479E+02 -0.17481861981E+03  0.21641342296E+03  0.31347350375E+03  0.12505638220E+03 0.  0.
          5    1    3    3  502    0  0.88022473112E+01 -0.41996697729E+02 -0.43507128810E+01  0.43331319856E+02  0.41800000000E+01 0.  1.
         -5    1    3    3    0  502 -0.81122502790E+02 -0.13282192208E+03  0.22076413584E+03  0.27014218389E+03  0.41800000000E+01 0.  1.
        -11    1    1    2    0    0  0.35068915147E+01  0.77573219021E+02  0.12841982919E+02  0.78707173261E+02  0.00000000000E+00 0. -1.
         11    1    1    2    0    0  0.68813363964E+02  0.97245400787E+02  0.12648886850E+03  0.17375667149E+03  0.00000000000E+00 0.  1.
</event>
<event>
 7    1  0.2644565E-009  0.1362442E+03  0.7561462E-02  0.1218474E+00
         -2   -1    0    0    0  501 -0.00000000000E+00  0.00000000000E+00  0.57835433755E+02  0.57835433755E+02  0.00000000000E+00 0. -1.
          2   -1    0    0  501    0  0.00000000000E+00 -0.00000000000E+00 -0.42229731385E+03  0.42229731385E+03  0.00000000000E+00 0.  1.
         25    2    1    2    0    0  0.52110744577E+02 -0.89293198746E+02 -0.25940268808E+03  0.30598435383E+03  0.12509142722E+03 0.  0.
          5    1    3    3  502    0 -0.93653431492E+01 -0.73766199390E+02 -0.56838111990E+02  0.93686739720E+02  0.41800000000E+01 0.  1.
         -5    1    3    3    0  502  0.61476087726E+02 -0.15526999356E+02 -0.20256457609E+03  0.21229761411E+03  0.41800000000E+01 0.  1.
        -11    1    1    2    0    0 -0.75734291375E+02  0.58719586922E+02 -0.93333006125E+02  0.13377115837E+03  0.00000000000E+00 0.  1.
         11    1    1    2    0    0  0.23623546799E+02  0.30573611824E+02 -0.11726185886E+02  0.40377235402E+02  0.00000000000E+00 0. -1.
</event>
<event>
 7    1  0.2644565E-009  0.9035395E+02  0.7561462E-02  0.1301997E+00
         -1   -1    0    0    0  501 -0.00000000000E+00  0.00000000000E+00  0.15685508340E+03  0.15685508340E+03  0.00000000000E+00 0. -1.
          1   -1    0    0  501    0  0.00000000000E+00 -0.00000000000E+00 -0.15330602781E+03  0.15330602781E+03  0.00000000000E+00 0.  1.
         25    2    1    2    0    0 -0.29233500278E+02 -0.54021675804E+02  0.93022816203E+02  0.16755226016E+03  0.12509027362E+03 0.  0.
          5    1    3    3  502    0 -0.10523744561E+02 -0.59051291109E+02 -0.11457146759E+02  0.61209009084E+02  0.41800000000E+01 0.  1.
         -5    1    3    3    0  502 -0.18709755717E+02  0.50296153046E+01  0.10447996296E+03  0.10634325108E+03  0.41800000000E+01 0.  1.
        -11    1    1    2    0    0 -0.80657517493E+01  0.62079457232E+02 -0.82909174639E+02  0.10388862595E+03  0.00000000000E+00 0.  1.
         11    1    1    2    0    0  0.37299252027E+02 -0.80577814278E+01 -0.65645859775E+01  0.38720225108E+02  0.00000000000E+00 0. -1.
</event>
<event>
 7    1  0.2644565E-009  0.1443526E+03  0.7561462E-02  0.1207589E+00
         -2   -1    0    0    0  501 -0.00000000000E+00  0.00000000000E+00  0.46019145325E+03  0.46019145325E+03  0.00000000000E+00 0.  1.
          2   -1    0    0  501    0  0.00000000000E+00 -0.00000000000E+00 -0.54066693200E+02  0.54066693200E+02  0.00000000000E+00 0. -1.
         25    2    1    2    0    0  0.59545376324E+02 -0.85925288480E+02  0.29680435765E+03  0.33862773042E+03  0.12508839293E+03 0.  0.
          5    1    3    3  502    0  0.89114013353E+02 -0.24871160516E+02  0.19935938020E+03  0.21982155689E+03  0.41800000000E+01 0.  1.
         -5    1    3    3    0  502 -0.29568637029E+02 -0.61054127964E+02  0.97444977455E+02  0.11880617353E+03  0.41800000000E+01 0.  1.
        -11    1    1    2    0    0 -0.19944818629E+02  0.86247242336E+02  0.10251795619E+03  0.13544856567E+03  0.00000000000E+00 0.  1.
         11    1    1    2    0    0 -0.39600557695E+02 -0.32195385594E+00  0.68024462075E+01  0.40181850361E+02  0.00000000000E+00 0. -1.
</event>
<event>
 7    1  0.2644565E-009  0.8748860E+02  0.7561462E-02  0.1309050E+00
         -2   -1    0    0    0  501 -0.00000000000E+00  0.00000000000E+00  0.32483946895E+02  0.32483946895E+02  0.00000000000E+00 0.  1.
          2   -1    0    0  501    0  0.00000000000E+00 -0.00000000000E+00 -0.36874011056E+03  0.36874011056E+03  0.00000000000E+00 0. -1.
         25    2    1    2    0    0 -0.60798640634E+01  0.13352692788E+02 -0.20329273656E+03  0.23914528872E+03  0.12508906118E+03 0.  0.
          5    1    3    3  502    0 -0.42182528841E+02  0.18539796660E+02 -0.17032953042E+02  0.49301964352E+02  0.41800000000E+01 0. -1.
         -5    1    3    3    0  502  0.36102664778E+02 -0.51871038722E+01 -0.18625978352E+03  0.18984332437E+03  0.41800000000E+01 0. -1.
        -11    1    1    2    0    0 -0.15563172627E+02 -0.48381560624E+02 -0.63571194156E+02  0.81389707439E+02  0.00000000000E+00 0. -1.
         11    1    1    2    0    0  0.21643036690E+02  0.35028867836E+02 -0.69392232946E+02  0.80689061292E+02  0.00000000000E+00 0.  1.
</event>
<event>
 7    1  0.2644565E-009  0.2182728E+03  0.7561462E-02  0.1135177E+00
          2   -1    0    0  501    0  0.00000000000E+00  0.00000000000E+00  0.98440650238E+02  0.98440650238E+02  0.00000000000E+00 0.  1.
         -2   -1    0    0    0  501 -0.00000000000E+00 -0.00000000000E+00 -0.71237291205E+03  0.71237291205E+03  0.00000000000E+00 0. -1.
         25    2    1    2    0    0  0.90422003691E+02  0.17802232371E+03 -0.10020823232E+03  0.25604875891E+03  0.12510471863E+03 0.  0.
          5    1    3    3  502    0 -0.19496862746E+02 -0.62087005845E+01 -0.11717964859E+02  0.23946998149E+02  0.41800000000E+01 0. -1.
         -5    1    3    3    0  502  0.10991886644E+03  0.18423102430E+03 -0.88490267466E+02  0.23210176076E+03  0.41800000000E+01 0. -1.
        -11    1    1    2    0    0 -0.69297479588E+02 -0.11135824475E+03 -0.40299883933E+03  0.42380521924E+03  0.00000000000E+00 0. -1.
         11    1    1    2    0    0 -0.21124524103E+02 -0.66664078963E+02 -0.11072519015E+03  0.13095958413E+03  0.00000000000E+00 0.  1.
</event>
<event>
 7    1  0.2644565E-009  0.1129809E+03  0.7561462E-02  0.1255147E+00
          2   -1    0    0  501    0  0.00000000000E+00  0.00000000000E+00  0.16291114344E+04  0.16291114344E+04  0.00000000000E+00 0. -1.
         -2   -1    0    0    0  501 -0.00000000000E+00 -0.00000000000E+00 -0.12860695344E+02  0.12860695344E+02  0.00000000000E+00 0.  1.
         25    2    1    2    0    0  0.16480157672E+02  0.35537359547E+02  0.13760084146E+04  0.13822349091E+04  0.12505873604E+03 0.  0.
          5    1    3    3  502    0  0.21092765469E+02 -0.43997884114E+02  0.40379328973E+03  0.40675202740E+03  0.41800000000E+01 0. -1.
         -5    1    3    3    0  502 -0.46126077977E+01  0.79535243660E+02  0.97221512485E+03  0.97548288171E+03  0.41800000000E+01 0. -1.
        -11    1    1    2    0    0 -0.52356953992E+02 -0.10333141371E+02  0.15408752458E+03  0.16306743904E+03  0.00000000000E+00 0.  1.
         11    1    1    2    0    0  0.35876796321E+02 -0.25204218176E+02  0.86154799878E+02  0.96669781577E+02  0.00000000000E+00 0. -1.
</event>
<event>
 7    1  0.2644565E-009  0.1113288E+03  0.7561462E-02  0.1258129E+00
          1   -1    0    0  501    0  0.00000000000E+00  0.00000000000E+00  0.15630810175E+03  0.15630810175E+03  0.00000000000E+00 0. -1.
         -1   -1    0    0    0  501 -0.00000000000E+00 -0.00000000000E+00 -0.98061661754E+02  0.98061661754E+02  0.00000000000E+00 0.  1.
         25    2    1    2    0    0  0.58152013493E+02 -0.10964452057E+02  0.32757160929E+02  0.14220550177E+03  0.12508995666E+03 0.  0.
          5    1    3    3  502    0  0.13992239412E+02 -0.65052241791E+02  0.27295439802E+02  0.72042281751E+02  0.41800000000E+01 0. -1.
         -5    1    3    3    0  502  0.44159774081E+02  0.54087789734E+02  0.54617211269E+01  0.70163220015E+02  0.41800000000E+01 0. -1.
        -11    1    1    2    0    0 -0.24126481824E+02 -0.26221569424E+02 -0.22848148118E+02  0.42328426627E+02  0.00000000000E+00 0.  1.
         11    1    1    2    0    0 -0.34025531668E+02  0.37186021482E+02  0.48337427188E+02  0.69835835114E+02  0.00000000000E+00 0. -1.
</event>
<event>
 7    1  0.2644565E-009  0.1085248E+03  0.7561462E-02  0.1263326E+00
         -2   -1    0    0    0  501 -0.00000000000E+00  0.00000000000E+00  0.32855247613E+02  0.32855247613E+02  0.00000000000E+00 0.  1.
          2   -1    0    0  501    0  0.00000000000E+00 -0.00000000000E+00 -0.43813767416E+03  0.43813767416E+03  0.00000000000E+00 0. -1.
         25    2    1    2    0    0 -0.40307005874E+02  0.30545166570E+02 -0.23198424482E+03  0.26836797227E+03  0.12508803608E+03 0.  0.
          5    1    3    3  502    0 -0.16494585389E+02 -0.36788013893E+02 -0.16656236662E+03  0.17142322972E+03  0.41800000000E+01 0.  1.
         -5    1    3    3    0  502 -0.23812420485E+02  0.67333180463E+02 -0.65421878204E+02  0.96944742551E+02  0.41800000000E+01 0.  1.
        -11    1    1    2    0    0  0.34010936055E+02  0.29244174525E+02 -0.76165077027E+02  0.88391653868E+02  0.00000000000E+00 0.  1.
         11    1    1    2    0    0  0.62960698189E+01 -0.59789341095E+02 -0.97133104703E+02  0.11423329564E+03  0.00000000000E+00 0. -1.
</event>
<event>
 7    1  0.2644565E-009  0.1473485E+03  0.7561462E-02  0.1203769E+00
          4   -1    0    0  501    0  0.00000000000E+00  0.00000000000E+00  0.41584640587E+02  0.41584640587E+02  0.00000000000E+00 0. -1.
         -4   -1    0    0    0  501 -0.00000000000E+00 -0.00000000000E+00 -0.76568949812E+03  0.76568949812E+03  0.00000000000E+00 0.  1.
         25    2    1    2    0    0  0.73968304148E+02  0.10662429028E+03 -0.25827499744E+03  0.31495106192E+03  0.12509255696E+03 0.  0.
          5    1    3    3  502    0  0.91793953705E+02  0.52949351216E+02 -0.95993021900E+02  0.14304508515E+03  0.41800000000E+01 0.  1.
         -5    1    3    3    0  502 -0.17825649557E+02  0.53674939063E+02 -0.16228197554E+03  0.17190597678E+03  0.41800000000E+01 0.  1.
        -11    1    1    2    0    0 -0.31754475665E+02 -0.66495734712E+02 -0.38896677595E+03  0.39588531452E+03  0.00000000000E+00 0.  1.
         11    1    1    2    0    0 -0.42213828483E+02 -0.40128555567E+02 -0.76863084140E+02  0.96437762264E+02  0.00000000000E+00 0. -1.
</event>
<event>
 7    1  0.2644565E-009  0.1016857E+03  0.7561462E-02  0.1276791E+00
         -2   -1    0    0    0  501 -0.00000000000E+00  0.00000000000E+00  0.33718583097E+02  0.33718583097E+02  0.00000000000E+00 0.  1.
          2   -1    0    0  501    0  0.00000000000E+00 -0.00000000000E+00 -0.37903728575E+03  0.37903728575E+03  0.00000000000E+00 0. -1.
         25    2    1    2    0    0 -0.20680230916E+02 -0.77040176671E+01 -0.15614199347E+03  0.20128310983E+03  0.12509014484E+03 0.  0.
          5    1    3    3  502    0  0.19263328271E+02  0.42029079320E+02 -0.11809845352E+03  0.12689458794E+03  0.41800000000E+01 0. -1.
         -5    1    3    3    0  502 -0.39943559187E+02 -0.49733096987E+02 -0.38043539953E+02  0.74388521888E+02  0.41800000000E+01 0. -1.
        -11    1    1    2    0    0  0.27689266004E+02  0.46218461224E+02 -0.12756492918E+03  0.13847618122E+03  0.00000000000E+00 0. -1.
         11    1    1    2    0    0 -0.70090350875E+01 -0.38514443557E+02 -0.61611780007E+02  0.72996577803E+02  0.00000000000E+00 0.  1.
</event>
<event>
 7    1  0.2644565E-009  0.2543874E+03  0.7561462E-02  0.1110563E+00
          2   -1    0    0  501    0  0.00000000000E+00  0.00000000000E+00  0.25614960410E+03  0.25614960410E+03  0.00000000000E+00 0. -1.
         -2   -1    0    0    0  501 -0.00000000000E+00 -0.00000000000E+00 -0.34492093493E+03  0.34492093493E+03  0.00000000000E+00 0.  1.
         25    2    1    2    0    0 -0.17487456700E+03  0.18174121339E+03  0.69369361165E+02  0.28994948454E+03  0.12509041725E+03 0.  0.
          5    1    3    3  502    0 -0.12428566733E+03  0.97465992911E+02 -0.17159838037E+02  0.15892916447E+03  0.41800000000E+01 0. -1.
         -5    1    3    3    0  502 -0.50588899678E+02  0.84275220481E+02  0.86529199202E+02  0.13102032007E+03  0.41800000000E+01 0. -1.
        -11    1    1    2    0    0  0.12898579267E+03 -0.13997726944E+03 -0.16056942008E+03  0.24902511788E+03  0.00000000000E+00 0.  1.
         11    1    1    2    0    0  0.45888774338E+02 -0.41763943951E+02  0.24287280785E+01  0.62095936620E+02  0.00000000000E+00 0. -1.
</event>
<event>
 7    1  0.2644565E-009  0.1005351E+03  0.7561462E-02  0.1279175E+00
         -2   -1    0    0    0  501 -0.00000000000E+00  0.00000000000E+00  0.72305624841E+02  0.72305624841E+02  0.00000000000E+00 0.  1.
          2   -1    0    0  501    0  0.00000000000E+00 -0.00000000000E+00 -0.22917811831E+03  0.22917811831E+03  0.00000000000E+00 0. -1.
         25    2    1    2    0    0  0.19974235026E+02 -0.65936106443E+02 -0.88876434035E+02  0.16822750959E+03  0.12511967974E+03 0.  0.
          5    1    3    3  502    0  0.17254508003E+02 -0.86419988531E+02 -0.10821355092E+03  0.13962011842E+03  0.41800000000E+01 0.  1.
         -5    1    3    3    0  502  0.27197270230E+01  0.20483882088E+02  0.19337116884E+02  0.28607391175E+02  0.41800000000E+01 0.  1.
        -11    1    1    2    0    0 -0.32918808923E+02  0.70685554309E+02 -0.16178665397E+02  0.79635700429E+02  0.00000000000E+00 0.  1.
         11    1    1    2    0    0  0.12944573897E+02 -0.47494478659E+01 -0.51817394043E+02  0.53620533136E+02  0.00000000000E+00 0. -1.
</event>
<event>
 7    1  0.2644565E-009  0.2702861E+03  0.7561462E-02  0.1101116E+00
         -1   -1    0    0    0  501 -0.00000000000E+00  0.00000000000E+00  0.12665351999E+03  0.12665351999E+03  0.00000000000E+00 0.  1.
          1   -1    0    0  501    0  0.00000000000E+00 -0.00000000000E+00 -0.63609961330E+03  0.63609961330E+03  0.00000000000E+00 0. -1.
         25    2    1    2    0    0 -0.12587347998E+03 -0.22174295931E+03 -0.33295158100E+03  0.43762918324E+03  0.12509385984E+03 0.  0.
          5    1    3    3  502    0 -0.12988971978E+03 -0.11726209471E+03 -0.24398450888E+03  0.30027928855E+03  0.41800000000E+01 0.  1.
         -5    1    3    3    0  502  0.40162398063E+01 -0.10448086460E+03 -0.88967072125E+02  0.13734989469E+03  0.41800000000E+01 0.  1.
        -11    1    1    2    0    0  0.61810926919E+02  0.56808252201E+02 -0.14431199817E+02  0.85182320542E+02  0.00000000000E+00 0. -1.
         11    1    1    2    0    0  0.64062553057E+02  0.16493470711E+03 -0.16206331249E+03  0.23994162951E+03  0.00000000000E+00 0.  1.
</event>
<event>
 7    1  0.2644565E-009  0.1304198E+03  0.7561462E-02  0.1226834E+00
         -1   -1    0    0    0  501 -0.00000000000E+00  0.00000000000E+00  0.13931850348E+03  0.13931850348E+03  0.00000000000E+00 0.  1.
          1   -1    0    0  501    0  0.00000000000E+00 -0.00000000000E+00 -0.26763744204E+03  0.26763744204E+03  0.00000000000E+00 0. -1.
         25    2    1    2    0    0  0.10099009261E+03  0.73943279196E+01 -0.19777626878E+03  0.25498204129E+03  0.12508682584E+03 0.  0.
          5    1    3    3  502    0 -0.18580750681E+02 -0.21424523592E+02 -0.97820001088E+01  0.30288849981E+02  0.41800000000E+01 0. -1.
         -5    1    3    3    0  502  0.11957084329E+03  0.28818851512E+02 -0.18799426867E+03  0.22469319131E+03  0.41800000000E+01 0. -1.
        -11    1    1    2    0    0 -0.48592530406E+02 -0.23927284217E+02 -0.10288500378E+02  0.55132587290E+02  0.00000000000E+00 0. -1.
         11    1    1    2    0    0 -0.52397562207E+02  0.16532956298E+02  0.79745830595E+02  0.96841316939E+02  0.00000000000E+00 0.  1.
</event>
<event>
 6    1  0.2644565E-009  0.2496950E+03  0.7561462E-02  0.1113498E+00
         -2   -1    0    0    0  501 -0.00000000000E+00  0.00000000000E+00  0.18608098608E+03  0.18608098608E+03  0.00000000000E+00 0.  1.
          2   -1    0    0  501    0  0.00000000000E+00 -0.00000000000E+00 -0.42788759392E+03  0.42788759392E+03  0.00000000000E+00 0. -1.
          5    1    1    2  502    0 -0.17993290362E+03  0.14132085764E+03  0.86054555334E+01  0.22899554771E+03  0.41800000000E+01 0. -1.
         -5    1    1    2    0  502 -0.13468303620E+02  0.14400979650E+02 -0.47757388637E+02  0.51836512100E+02  0.41800000000E+01 0. -1.
        -11    1    1    2    0    0  0.11761853916E+03 -0.74060565025E+02 -0.16454126453E+03  0.21539014782E+03  0.00000000000E+00 0. -1.
         11    1    1    2    0    0  0.75782668075E+02 -0.81661272260E+02 -0.38113410211E+02  0.11774637237E+03  0.00000000000E+00 0.  1.
</event>
<event>
 7    1  0.2644565E-009  0.1654148E+03  0.7561462E-02  0.1182716E+00
         -2   -1    0    0    0  501 -0.00000000000E+00  0.00000000000E+00  0.29443173476E+02  0.29443173476E+02  0.00000000000E+00 0. -1.
          2   -1    0    0  501    0  0.00000000000E+00 -0.00000000000E+00 -0.12060810449E+04  0.12060810449E+04  0.00000000000E+00 0.  1.
         25    2    1    2    0    0 -0.13767948337E+03  0.58987084273E+02 -0.49920609947E+03  0.53599606496E+03  0.12509970284E+03 0.  0.
          5    1    3    3  502    0 -0.10114655636E+03  0.69449758167E+02 -0.47531728484E+03  0.49091535772E+03  0.41800000000E+01 0. -1.
         -5    1    3    3    0  502 -0.36532927010E+02 -0.10462673895E+02 -0.23888814628E+02  0.45080707241E+02  0.41800000000E+01 0. -1.
        -11    1    1    2    0    0  0.12481596853E+03 -0.77774330182E+02 -0.62968118930E+03  0.64662684184E+03  0.00000000000E+00 0. -1.
         11    1    1    2    0    0  0.12863514843E+02  0.18787245909E+02 -0.47750582695E+02  0.52901311616E+02  0.00000000000E+00 0.  1.
</event>
<event>
 7    1  0.2644565E-009  0.1472041E+03  0.7561462E-02  0.1203951E+00
         -1   -1    0    0    0  501 -0.00000000000E+00  0.00000000000E+00  0.99515607449E+02  0.99515607449E+02  0.00000000000E+00 0. -1.
          1   -1    0    0  501    0  0.00000000000E+00 -0.00000000000E+00 -0.24239063123E+03  0.24239063123E+03  0.00000000000E+00 0.  1.
         25    2    1    2    0    0  0.81231044396E+02 -0.78303682640E+02 -0.68291785014E+02  0.18177438304E+03  0.12509280211E+03 0.  0.
          5    1    3    3  502    0  0.11393134415E+03 -0.68696732129E+02 -0.45974789002E+02  0.14082168089E+03  0.41800000000E+01 0.  1.
         -5    1    3    3    0  502 -0.32700299753E+02 -0.96069505107E+01 -0.22316996012E+02  0.40952702146E+02  0.41800000000E+01 0.  1.
        -11    1    1    2    0    0 -0.15868522155E+02  0.55523647421E+02  0.85044961578E+00  0.57752997176E+02  0.00000000000E+00 0. -1.
         11    1    1    2    0    0 -0.65362522241E+02  0.22780035219E+02 -0.75433688384E+02  0.10237885847E+03  0.00000000000E+00 0.  1.
</event>
<event>
 7    1  0.2644565E-009  0.9578017E+02  0.7561462E-02  0.1289429E+00
         -2   -1    0    0    0  501 -0.00000000000E+00  0.00000000000E+00  0.75174631872E+02  0.75174631872E+02  0.00000000000E+00 0.  1.
          2   -1    0    0  501    0  0.00000000000E+00 -0.00000000000E+00 -0.16865164900E+03  0.16865164900E+03  0.00000000000E+00 0. -1.
         25    2    1    2    0    0 -0.30264301803E+02  0.73176667474E+00 -0.50997796115E+02  0.13842315336E+03  0.12507490048E+03 0.  0.
          5    1    3    3  502    0 -0.64370492204E+02  0.22277000374E+02  0.59566235891E+01  0.68503859576E+02  0.41800000000E+01 0. -1.
         -5    1    3    3    0  502  0.34106190400E+02 -0.21545233699E+02 -0.56954419704E+02  0.69919293779E+02  0.41800000000E+01 0. -1.
        -11    1    1    2    0    0 -0.22172013534E+02  0.16418069211E+02  0.99171326660E+01  0.29317242385E+02  0.00000000000E+00 0.  1.
         11    1    1    2    0    0  0.52436315337E+02 -0.17149835886E+02 -0.52396353676E+02  0.76085885127E+02  0.00000000000E+00 0. -1.
</event>
<event>
 7    1  0.2644565E-009  0.1246546E+03  0.7561462E-02  0.1235610E+00
          2   -1    0    0  501    0  0.00000000000E+00  0.00000000000E+00  0.11540737602E+04  0.11540737602E+04  0.00000000000E+00 0. -1.
         -2   -1    0    0    0  501 -0.00000000000E+00 -0.00000000000E+00 -0.19523086020E+02  0.19523086020E+02  0.00000000000E+00 0.  1.
         25    2    1    2    0    0  0.68755415844E+02 -0.39644115542E+02  0.86050313394E+03  0.87316183937E+03  0.12508793348E+03 0.  0.
          5    1    3    3  502    0  0.20983258970E+02  0.39660461092E+02  0.45386068601E+03  0.45609236349E+03  0.41800000000E+01 0. -1.
         -5    1    3    3    0  502  0.47772156873E+02 -0.79304576634E+02  0.40664244793E+03  0.41706947588E+03  0.41800000000E+01 0. -1.
        -11    1    1    2    0    0 -0.53517775555E+02 -0.14397672360E+02  0.19981810869E+03  0.20736133157E+03  0.00000000000E+00 0. -1.
         11    1    1    2    0    0 -0.15237640289E+02  0.54041787901E+02  0.74229431512E+02  0.93073675245E+02  0.00000000000E+00 0.  1.
</event>
<event>
 7    1  0.2644565E-009  0.1285005E+03  0.7561462E-02  0.1229698E+00
          2   -1    0    0  501    0  0.00000000000E+00  0.00000000000E+00  0.59275164947E+02  0.59275164947E+02  0.00000000000E+00 0. -1.
         -2   -1    0    0    0  501 -0.00000000000E+00 -0.00000000000E+00 -0.58095542278E+03  0.58095542278E+03  0.00000000000E+00 0.  1.
         25    2    1    2    0    0  0.29820357441E+02  0.10793540372E+03 -0.44692678311E+03  0.47742049361E+03  0.12508986034E+03 0.  0.
          5    1    3    3  502    0 -0.99257935030E+01  0.15336804316E+02 -0.29173387812E+03  0.29233519628E+03  0.41800000000E+01 0. -1.
         -5    1    3    3    0  502  0.39746150944E+02  0.92598599399E+02 -0.15519290499E+03  0.18508529732E+03  0.41800000000E+01 0. -1.
        -11    1    1    2    0    0 -0.57110025361E+02 -0.64930383088E+02 -0.70736387708E+02  0.11171905026E+03  0.00000000000E+00 0.  1.
         11    1    1    2    0    0  0.27289667920E+02 -0.43005020628E+02 -0.40170870097E+01  0.51091043857E+02  0.00000000000E+00 0. -1.
</event>
<event>
 7    1  0.2644565E-009  0.1483145E+03  0.7561462E-02  0.1202560E+00
          2   -1    0    0  501    0  0.00000000000E+00  0.00000000000E+00  0.37895183176E+03  0.37895183176E+03  0.00000000000E+00 0. -1.
         -2   -1    0    0    0  501 -0.00000000000E+00 -0.00000000000E+00 -0.89185148761E+02  0.89185148761E+02  0.00000000000E+00 0.  1.
         25    2    1    2    0    0 -0.44842407072E+02  0.12333451186E+03  0.65415057078E+02  0.19274458246E+03  0.12509636721E+03 0.  0.
          5    1    3    3  502    0 -0.37230418893E+02  0.35731022184E+02  0.87784859245E+02  0.10191400272E+03  0.41800000000E+01 0. -1.
         -5    1    3    3    0  502 -0.76119881785E+01  0.87603489677E+02 -0.22369802168E+02  0.90830579744E+02  0.41800000000E+01 0. -1.
        -11    1    1    2    0    0  0.13941954048E+02  0.11761132541E+02  0.12046548756E+02  0.21859132148E+02  0.00000000000E+00 0. -1.
         11    1    1    2    0    0  0.30900453024E+02 -0.13509564440E+03  0.21230507716E+03  0.25353326591E+03  0.00000000000E+00 0.  1.
</event>
<event>
 7    1  0.2644565E-009  0.1143508E+03  0.7561462E-02  0.1252718E+00
          1   -1    0    0  501    0  0.00000000000E+00  0.00000000000E+00  0.30848579826E+03  0.30848579826E+03  0.00000000000E+00 0. -1.
         -1   -1    0    0    0  501 -0.00000000000E+00 -0.00000000000E+00 -0.45591333247E+02  0.45591333247E+02  0.00000000000E+00 0.  1.
         25    2    1    2    0    0 -0.23472438849E+02 -0.24388538704E+02  0.19356652627E+03  0.23296223983E+03  0.12513052740E+03 0.  0.
          5    1    3    3  502    0  0.51647828841E+02 -0.13921020357E+02  0.78525496089E+02  0.95105304625E+02  0.41800000000E+01 0. -1.
         -5    1    3    3    0  502 -0.75120267690E+02 -0.10467518347E+02  0.11504103018E+03  0.13785693520E+03  0.41800000000E+01 0. -1.
        -11    1    1    2    0    0  0.81181489503E+01 -0.35934420412E+02  0.29741040661E+02  0.47346767707E+02  0.00000000000E+00 0.  1.
         11    1    1    2    0    0  0.15354289899E+02  0.60322959116E+02  0.39586898085E+02  0.73768123975E+02  0.00000000000E+00 0. -1.
</event>
<event>
 7    1  0.2644565E-009  0.1041434E+03  0.7561462E-02  0.1271817E+00
         -1   -1    0    0    0  501 -0.00000000000E+00  0.00000000000E+00  0.11862741920E+03  0.11862741920E+03  0.00000000000E+00 0.  1.
          1   -1    0    0  501    0  0.00000000000E+00 -0.00000000000E+00 -0.16867743190E+03  0.16867743190E+03  0.00000000000E+00 0. -1.
         25    2    1    2    0    0  0.17868132451E+02 -0.84127580746E+02 -0.12978653557E+01  0.15180306346E+03  0.12508303491E+03 0.  0.
          5    1    3    3  502    0  0.20409443363E+02 -0.94485624511E+02  0.43122317913E+02  0.10592962437E+03  0.41800000000E+01 0.  1.
         -5    1    3    3    0  502 -0.25413109126E+01  0.10358043765E+02 -0.44420183269E+02  0.45873439084E+02  0.41800000000E+01 0.  1.
        -11    1    1    2    0    0 -0.35111038398E+02  0.43225988458E+02  0.15134275188E+02  0.57708902095E+02  0.00000000000E+00 0.  1.
         11    1    1    2    0    0  0.17242905948E+02  0.40901592288E+02 -0.63886422536E+02  0.77792885546E+02  0.00000000000E+00 0. -1.
</event>
<event>
 7    1  0.2644565E-009  0.1373518E+03  0.7561462E-02  0.1216937E+00
          1   -1    0    0  501    0  0.00000000000E+00  0.00000000000E+00  0.98955365251E+02  0.98955365251E+02  0.00000000000E+00 0. -1.
         -1   -1    0    0    0  501 -0.00000000000E+00 -0.00000000000E+00 -0.19723512143E+03  0.19723512143E+03  0.00000000000E+00 0.  1.
         25    2    1    2    0    0  0.26053192875E+02  0.82716065648E+02 -0.60340498124E+02  0.16373506749E+03  0.12508988862E+03 0.  0.
          5    1    3    3  502    0 -0.48502045705E+02  0.27032492209E+02 -0.39535583025E+02  0.68291571938E+02  0.41800000000E+01 0.  1.
         -5    1    3    3    0  502  0.74555238579E+02  0.55683573439E+02 -0.20804915098E+02  0.95443495550E+02  0.41800000000E+01 0.  1.
        -11    1    1    2    0    0  0.40938468577E+01  0.19178559297E+02  0.42029501386E-01  0.19610672740E+02  0.00000000000E+00 0. -1.
         11    1    1    2    0    0 -0.30147039733E+02 -0.10189462495E+03 -0.37981287557E+02  0.11284474645E+03  0.00000000000E+00 0.  1.
</event>
<event>
 7    1  0.2644565E-009  0.1001615E+03  0.7561462E-02  0.1279957E+00
          1   -1    0    0  501    0  0.00000000000E+00  0.00000000000E+00  0.34477690933E+02  0.34477690933E+02  0.00000000000E+00 0. -1.
         -1   -1    0    0    0  501 -0.00000000000E+00 -0.00000000000E+00 -0.40942045697E+03  0.40942045697E+03  0.00000000000E+00 0.  1.
         25    2    1    2    0    0  0.36368357606E+01  0.47876858506E+02 -0.21841076073E+03  0.25624599345E+03  0.12511326310E+03 0.  0.
          5    1    3    3  502    0 -0.25071310966E+02  0.68142094430E+02 -0.20645891148E+03  0.21889419864E+03  0.41800000000E+01 0.  1.
         -5    1    3    3    0  502  0.28708146727E+02 -0.20265235924E+02 -0.11951849244E+02  0.37351794815E+02  0.41800000000E+01 0.  1.
        -11    1    1    2    0    0 -0.17146919799E+01  0.22118607251E+02 -0.83819796268E+02  0.86706004416E+02  0.00000000000E+00 0.  1.
         11    1    1    2    0    0 -0.19221437807E+01 -0.69995465757E+02 -0.72712209045E+02  0.10094615004E+03  0.00000000000E+00 0. -1.
</event>
<event>
 7    1  0.2644565E-009  0.1014388E+03  0.7561462E-02  0.1277299E+00
         -1   -1    0    0    0  501 -0.00000000000E+00  0.00000000000E+00  0.38400124553E+02  0.38400124553E+02  0.00000000000E+00 0.  1.
          1   -1    0    0  501    0  0.00000000000E+00 -0.00000000000E+00 -0.35027998050E+03  0.35027998050E+03  0.00000000000E+00 0. -1.
         25    2    1    2    0    0  0.37865109975E+02 -0.11560359686E+01 -0.20762777587E+03  0.24533918066E+03  0.12508763840E+03 0.  0.
          5    1    3    3  502    0  0.72023442768E+02  0.14687689001E+02 -0.66487243504E+02  0.99202472071E+02  0.41800000000E+01 0.  1.
         -5    1    3    3    0  502 -0.34158332793E+02 -0.15843724970E+02 -0.14114053237E+03  0.14613670859E+03  0.41800000000E+01 0.  1.
        -11    1    1    2    0    0 -0.56431671556E+02  0.24516991585E+02 -0.92872558542E+02  0.11140434714E+03  0.00000000000E+00 0. -1.
         11    1    1    2    0    0  0.18566561580E+02 -0.23360955616E+02 -0.11379521529E+02  0.31936577250E+02  0.00000000000E+00 0.  1.
</event>
<event>
 7    1  0.2644565E-009  0.2722780E+03  0.7561462E-02  0.1099983E+00
          2   -1    0    0  501    0  0.00000000000E+00  0.00000000000E+00  0.52389785621E+03  0.52389785621E+03  0.00000000000E+00 0. -1.
         -2   -1    0    0    0  501 -0.00000000000E+00 -0.00000000000E+00 -0.15290945031E+03  0.15290945031E+03  0.00000000000E+00 0.  1.
         25    2    1    2    0    0 -0.25199879164E+03 -0.69766805355E+02  0.18277857818E+03  0.34268169326E+03  0.12510769813E+03 0.  0.
          5    1    3    3  502    0 -0.23363905869E+03 -0.39446494215E+02  0.19291777152E+03  0.30557809905E+03  0.41800000000E+01 0.  1.
         -5    1    3    3    0  502 -0.18359732955E+02 -0.30320311140E+02 -0.10139193334E+02  0.37103594209E+02  0.41800000000E+01 0.  1.
        -11    1    1    2    0    0  0.11136612526E+03  0.69454282670E+02  0.11994130285E+03  0.17779827717E+03  0.00000000000E+00 0.  1.
         11    1    1    2    0    0  0.14063266638E+03  0.31252268575E+00  0.68268524867E+02  0.15632733610E+03  0.00000000000E+00 0. -1.
</event>
<event>
 7    1  0.2644565E-009  0.2954179E+03  0.7561462E-02  0.1087554E+00
         -1   -1    0    0    0  501 -0.00000000000E+00  0.00000000000E+00  0.59642496953E+02  0.59642496953E+02  0.00000000000E+00 0.  1.
          1   -1    0    0  501    0  0.00000000000E+00 -0.00000000000E+00 -0.21145451989E+04  0.21145451989E+04  0.00000000000E+00 0. -1.
         25    2    1    2    0    0 -0.70294471310E+02  0.26682271054E+03 -0.44709851229E+03  0.54007673116E+03  0.12510045682E+03 0.  0.
          5    1    3    3  502    0 -0.34387400978E+02  0.26405770124E+03 -0.38422226357E+03  0.46749671994E+03  0.41800000000E+01 0.  1.
         -5    1    3    3    0  502 -0.35907070332E+02  0.27650092948E+01 -0.62876248720E+02  0.72580011225E+02  0.41800000000E+01 0.  1.
        -11    1    1    2    0    0  0.89689097805E+02 -0.22006171663E+03 -0.14126193940E+04  0.14324680959E+04  0.00000000000E+00 0. -1.
         11    1    1    2    0    0 -0.19394626495E+02 -0.46760993903E+02 -0.19518479558E+03  0.20164286874E+03  0.00000000000E+00 0.  1.
</event>
<event>
 7    1  0.2644565E-009  0.1035028E+03  0.7561462E-02  0.1273098E+00
          2   -1    0    0  501    0  0.00000000000E+00  0.00000000000E+00  0.93134904934E+03  0.93134904934E+03  0.00000000000E+00 0. -1.
         -2   -1    0    0    0  501 -0.00000000000E+00 -0.00000000000E+00 -0.21229935356E+02  0.21229935356E+02  0.00000000000E+00 0.  1.
         25    2    1    2    0    0  0.36878129993E+02 -0.67316521348E+02  0.65567623860E+03  0.67189614927E+03  0.12506636251E+03 0.  0.
          5    1    3    3  502    0 -0.82843412573E+01  0.10648446768E+01 -0.16357797123E+01  0.94822138512E+01  0.41800000000E+01 0.  1.
         -5    1    3    3    0  502  0.45162471250E+02 -0.68381366025E+02  0.65731201831E+03  0.66241393542E+03  0.41800000000E+01 0.  1.
        -11    1    1    2    0    0  0.22682486379E+02 -0.36362784169E+01  0.29339995167E+02  0.37263293272E+02  0.00000000000E+00 0. -1.
         11    1    1    2    0    0 -0.59560616372E+02  0.70952799765E+02  0.22510288022E+03  0.24341954215E+03  0.00000000000E+00 0.  1.
</event>
<event>
 7    1  0.2644565E-009  0.1145258E+03  0.7561462E-02  0.1252411E+00
         -1   -1    0    0    0  501 -0.00000000000E+00  0.00000000000E+00  0.10781528212E+03  0.10781528212E+03  0.00000000000E+00 0.  1.
          1   -1    0    0  501    0  0.00000000000E+00 -0.00000000000E+00 -0.15979429328E+03  0.15979429328E+03  0.00000000000E+00 0. -1.
         25    2    1    2    0    0 -0.61672677344E+02  0.67252341914E+01  0.14276150394E+02  0.14035609474E+03  0.12508907609E+03 0.  0.
          5    1    3    3  502    0 -0.86181140983E+01  0.58147399893E+02  0.27747320281E+02  0.65136611730E+02  0.41800000000E+01 0.  1.
         -5    1    3    3    0  502 -0.53054563246E+02 -0.51422165702E+02 -0.13471169887E+02  0.75219483013E+02  0.41800000000E+01 0.  1.
        -11    1    1    2    0    0 -0.17090616768E+02 -0.20858651156E+01  0.79289729565E+01  0.18955437925E+02  0.00000000000E+00 0.  1.
         11    1    1    2    0    0  0.78763294112E+02 -0.46393690758E+01 -0.74184134518E+02  0.10829804273E+03  0.00000000000E+00 0. -1.
</event>
<event>
 7    1  0.2644565E-009  0.1068850E+03  0.7561462E-02  0.1266450E+00
          1   -1    0    0  501    0  0.00000000000E+00  0.00000000000E+00  0.74759428550E+02  0.74759428550E+02  0.00000000000E+00 0. -1.
         -1   -1    0    0    0  501 -0.00000000000E+00 -0.00000000000E+00 -0.16418905584E+03  0.16418905584E+03  0.00000000000E+00 0.  1.
         25    2    1    2    0    0 -0.23332677387E+02  0.82788066925E+01 -0.36491866056E+02  0.13263537026E+03  0.12509009825E+03 0.  0.
          5    1    3    3  502    0  0.42687004224E+02  0.35515280520E+02 -0.20422861866E+02  0.59313414729E+02  0.41800000000E+01 0.  1.
         -5    1    3    3    0  502 -0.66019681611E+02 -0.27236473827E+02 -0.16069004190E+02  0.73321955526E+02  0.41800000000E+01 0.  1.
        -11    1    1    2    0    0  0.45481217949E+02 -0.30821775906E+02 -0.15029929866E+02  0.56959826614E+02  0.00000000000E+00 0. -1.
         11    1    1    2    0    0 -0.22148540562E+02  0.22542969214E+02 -0.37907831366E+02  0.49353287518E+02  0.00000000000E+00 0.  1.
</event>
<event>
 7    1  0.2644565E-009  0.2075991E+03  0.7561462E-02  0.1143481E+00
         -2   -1    0    0    0  501 -0.00000000000E+00  0.00000000000E+00  0.35658057590E+03  0.35658057590E+03  0.00000000000E+00 0.  1.
          2   -1    0    0  501    0  0.00000000000E+00 -0.00000000000E+00 -0.13840789031E+03  0.13840789031E+03  0.00000000000E+00 0. -1.
         25    2    1    2    0    0 -0.15920917802E+03  0.10223183899E+03  0.15929614774E+03  0.27717313593E+03  0.12510305082E+03 0.  0.
          5    1    3    3  502    0 -0.16183220039E+03  0.53432550521E+02  0.15037356511E+03  0.22731999477E+03  0.41800000000E+01 0.  1.
         -5    1    3    3    0  502  0.26230223757E+01  0.48799288473E+02  0.89225826306E+01  0.49853141151E+02  0.41800000000E+01 0.  1.
        -11    1    1    2    0    0  0.63465021825E+02 -0.12974631192E+02 -0.16394629054E+02  0.66820160967E+02  0.00000000000E+00 0. -1.
         11    1    1    2    0    0  0.95744156193E+02 -0.89257207802E+02  0.75271166896E+02  0.15099516931E+03  0.00000000000E+00 0.  1.
</event>
<event>
 7    1  0.2644565E-009  0.9122134E+02  0.7561462E-02  0.1299921E+00
          4   -1    0    0  501    0  0.00000000000E+00  0.00000000000E+00  0.26322976221E+03  0.26322976221E+03  0.00000000000E+00 0. -1.
         -4   -1    0    0    0  501 -0.00000000000E+00 -0.00000000000E+00 -0.50540656900E+02  0.50540656900E+02  0.00000000000E+00 0.  1.
         25    2    1    2    0    0  0.19596936478E+02  0.18540519836E+02  0.70789514788E+02  0.14624150279E+03  0.12509049101E+03 0.  0.
          5    1    3    3  502    0 -0.42863488882E+02 -0.25834897677E+02  0.37098626103E+02  0.62437977833E+02  0.41800000000E+01 0.  1.
         -5    1    3    3    0  502  0.62460425360E+02  0.44375417513E+02  0.33690888685E+02  0.83803524962E+02  0.41800000000E+01 0.  1.
        -11    1    1    2    0    0 -0.22155676965E+02  0.11757662084E+02  0.13370597494E+03  0.13603824600E+03  0.00000000000E+00 0. -1.
         11    1    1    2    0    0  0.25587404864E+01 -0.30298181920E+02  0.81936155778E+01  0.31490670313E+02  0.00000000000E+00 0.  1.
</event>
<event>
 7    1  0.2644565E-009  0.1166037E+03  0.7561462E-02  0.1248807E+00
         -1   -1    0    0    0  501 -0.00000000000E+00  0.00000000000E+00  0.20628611673E+03  0.20628611673E+03  0.00000000000E+00 0.  1.
          1   -1    0    0  501    0  0.00000000000E+00 -0.00000000000E+00 -0.78728072315E+02  0.78728072315E+02  0.00000000000E+00 0. -1.
         25    2    1    2    0    0 -0.26754533749E+02 -0.57136081128E+02  0.97305950476E+02  0.17061207183E+03  0.12513869990E+03 0.  0.
          5    1    3    3  502    0  0.35483173178E+02  0.19635337754E+02  0.34786563646E+02  0.53592718515E+02  0.41800000000E+01 0. -1.
         -5    1    3    3    0  502 -0.62237706927E+02 -0.76771418882E+02  0.62519386830E+02  0.11701935332E+03  0.41800000000E+01 0. -1.
        -11    1    1    2    0    0  0.10310790703E+02 -0.15737625229E+02  0.34797338943E+02  0.39558059233E+02  0.00000000000E+00 0.  1.
         11    1    1    2    0    0  0.16443743045E+02  0.72873706357E+02 -0.45452450009E+01  0.74844057985E+02  0.00000000000E+00 0. -1.
</event>
<event>
 7    1  0.2644565E-009  0.3071745E+03  0.7561462E-02  0.1081708E+00
          2   -1    0    0  501    0  0.00000000000E+00  0.00000000000E+00  0.11301894486E+04  0.11301894486E+04  0.00000000000E+00 0. -1.
         -2   -1    0    0    0  501 -0.00000000000E+00 -0.00000000000E+00 -0.10642376434E+03  0.10642376434E+03  0.00000000000E+00 0.  1.
         25    2    1    2    0    0  0.24006585037E+03 -0.18203813480E+03  0.75609844532E+03  0.82346973258E+03  0.12509215175E+03 0.  0.
          5    1    3    3  502    0  0.70472248784E+02 -0.87235633511E+02  0.15238783709E+03  0.18925094160E+03  0.41800000000E+01 0.  1.
         -5    1    3    3    0  502  0.16959360159E+03 -0.94802501286E+02  0.60371060823E+03  0.63421879098E+03  0.41800000000E+01 0.  1.
        -11    1    1    2    0    0 -0.32880950935E+02  0.13926974069E+01  0.56503234894E+01  0.33391955558E+02  0.00000000000E+00 0.  1.
         11    1    1    2    0    0 -0.20718489944E+03  0.18064543739E+03  0.26201691546E+03  0.37975152481E+03  0.00000000000E+00 0. -1.
</event>
<event>
 7    1  0.2644565E-009  0.9939624E+02  0.7561462E-02  0.1281571E+00
          2   -1    0    0  501    0  0.00000000000E+00  0.00000000000E+00  0.11611994538E+03  0.11611994538E+03  0.00000000000E+00 0.  1.
         -2   -1    0    0    0  501 -0.00000000000E+00 -0.00000000000E+00 -0.11491355077E+03  0.11491355077E+03  0.00000000000E+00 0. -1.
         25    2    1    2    0    0 -0.24896021541E+02  0.21924057741E+02  0.21725648908E+02  0.13120086283E+03  0.12506472880E+03 0.  0.
          5    1    3    3  502    0  0.40842963093E+02  0.40116391506E+02 -0.54460593070E+01  0.57659383136E+02  0.41800000000E+01 0.  1.
         -5    1    3    3    0  502 -0.65738984634E+02 -0.18192333765E+02  0.27171708215E+02  0.73541479696E+02  0.41800000000E+01 0.  1.
        -11    1    1    2    0    0 -0.22394827826E+02 -0.70555554641E+01  0.23730358907E+02  0.33383215994E+02  0.00000000000E+00 0.  1.
         11    1    1    2    0    0  0.47290849367E+02 -0.14868502277E+02 -0.44249613208E+02  0.66449417325E+02  0.00000000000E+00 0. -1.
</event>
<event>
 7    1  0.2644565E-009  0.1548814E+03  0.7561462E-02  0.1194600E+00
         -1   -1    0    0    0  501 -0.00000000000E+00  0.00000000000E+00  0.77064772972E+02  0.77064772972E+02  0.00000000000E+00 0.  1.
          1   -1    0    0  501    0  0.00000000000E+00 -0.00000000000E+00 -0.43101470373E+03  0.43101470373E+03  0.00000000000E+00 0. -1.
         25    2    1    2    0    0 -0.12332222798E+03  0.20687937750E+02 -0.28700835387E+03  0.33713168176E+03  0.12509041919E+03 0.  0.
          5    1    3    3  502    0 -0.10775718908E+03  0.50389519498E+02 -0.12889813027E+03  0.17545060804E+03  0.41800000000E+01 0. -1.
         -5    1    3    3    0  502 -0.15565038900E+02 -0.29701581748E+02 -0.15811022359E+03  0.16168107372E+03  0.41800000000E+01 0. -1.
        -11    1    1    2    0    0  0.13029447003E+03  0.49326593169E+01 -0.51200744442E+02  0.14008032081E+03  0.00000000000E+00 0. -1.
         11    1    1    2    0    0 -0.69722420480E+01 -0.25620597067E+02 -0.15740832450E+02  0.30867474135E+02  0.00000000000E+00 0.  1.
</event>
<event>
 7    1  0.2644565E-009  0.7089755E+02  0.7561462E-02  0.1357067E+00
          1   -1    0    0  501    0  0.00000000000E+00  0.00000000000E+00  0.26861272120E+03  0.26861272120E+03  0.00000000000E+00 0. -1.
         -1   -1    0    0    0  501 -0.00000000000E+00 -0.00000000000E+00 -0.50391019896E+02  0.50391019896E+02  0.00000000000E+00 0.  1.
         25    2    1    2    0    0 -0.27665283023E+02  0.25066086731E+02  0.15966371378E+03  0.20623404237E+03  0.12508517956E+03 0.  0.
          5    1    3    3  502    0 -0.56268883498E+02  0.39443982442E+02  0.15974518823E+03  0.17394830429E+03  0.41800000000E+01 0.  1.
         -5    1    3    3    0  502  0.28603600475E+02 -0.14377895711E+02 -0.81474453807E-01  0.32285738079E+02  0.41800000000E+01 0.  1.
        -11    1    1    2    0    0  0.31820452725E+01 -0.12974857231E+02  0.78072456004E+02  0.79207201180E+02  0.00000000000E+00 0. -1.
         11    1    1    2    0    0  0.24483237751E+02 -0.12091229499E+02 -0.19514468481E+02  0.33562497548E+02  0.00000000000E+00 0.  1.
</event>
<event>
 7    1  0.2644565E-009  0.9425709E+02  0.7561462E-02  0.1292858E+00
         -2   -1    0    0    0  501 -0.00000000000E+00  0.00000000000E+00  0.46973186511E+02  0.46973186511E+02  0.00000000000E+00 0.  1.
          2   -1    0    0  501    0  0.00000000000E+00 -0.00000000000E+00 -0.38625289324E+03  0.38625289324E+03  0.00000000000E+00 0. -1.
         25    2    1    2    0    0 -0.73621236835E+02  0.18122647592E+02 -0.20221714801E+03  0.24957560396E+03  0.12509072816E+03 0.  0.
          5    1    3    3  502    0 -0.23619590114E+02 -0.79540963145E+01  0.12032343944E+02  0.27989326289E+02  0.41800000000E+01 0.  1.
         -5    1    3    3    0  502 -0.50001646721E+02  0.26076743907E+02 -0.21424949196E+03  0.22158627767E+03  0.41800000000E+01 0.  1.
        -11    1    1    2    0    0  0.74730015969E+02 -0.40019193651E+02 -0.60856828579E+02  0.10435355639E+03  0.00000000000E+00 0.  1.
         11    1    1    2    0    0 -0.11087791345E+01  0.21896546058E+02 -0.76205730139E+02  0.79296919400E+02  0.00000000000E+00 0. -1.
</event>
<event>
 7    1  0.2644565E-009  0.1036908E+03  0.7561462E-02  0.1272721E+00
         -2   -1    0    0    0  501 -0.00000000000E+00  0.00000000000E+00  0.21824060055E+03  0.21824060055E+03  0.00000000000E+00 0.  1.
          2   -1    0    0  501    0  0.00000000000E+00 -0.00000000000E+00 -0.93645114518E+02  0.93645114518E+02  0.00000000000E+00 0. -1.
         25    2    1    2    0    0 -0.40485211433E+02 -0.28725499932E+02  0.15018824642E+03  0.20166380455E+03  0.12509026346E+03 0.  0.
          5    1    3    3  502    0  0.31276841754E+02 -0.18222786958E+02  0.11559258221E+03  0.12119995156E+03  0.41800000000E+01 0.  1.
         -5    1    3    3    0  502 -0.71762053186E+02 -0.10502712974E+02  0.34595664208E+02  0.80463852998E+02  0.41800000000E+01 0.  1.
        -11    1    1    2    0    0 -0.26626138266E+02  0.11538182015E+02 -0.28781641794E+02  0.40871307632E+02  0.00000000000E+00 0. -1.
         11    1    1    2    0    0  0.67111349699E+02  0.17187317917E+02  0.31888814056E+01  0.69350602883E+02  0.00000000000E+00 0.  1.
</event>
<event>
 7    1  0.2644565E-009  0.4418977E+03  0.7561462E-02  0.1030166E+00
          1   -1    0    0  501    0  0.00000000000E+00  0.00000000000E+00  0.71296615447E+03  0.71296615447E+03  0.00000000000E+00 0. -1.
         -1   -1    0    0    0  501 -0.00000000000E+00 -0.00000000000E+00 -0.30741673165E+03  0.30741673165E+03  0.00000000000E+00 0.  1.
         25    2    1    2    0    0 -0.36907204279E+03  0.22892939428E+03  0.55574241247E+02  0.45536505119E+03  0.12508394470E+03 0.  0.
          5    1    3    3  502    0 -0.16653025662E+03  0.38933232660E+02  0.47350138634E+02  0.17750389011E+03  0.41800000000E+01 0.  1.
         -5    1    3    3    0  502 -0.20254178618E+03  0.18999616162E+03  0.82241026126E+01  0.27786116109E+03  0.41800000000E+01 0.  1.
        -11    1    1    2    0    0  0.21381534654E+03 -0.11846611818E+03  0.25077214590E+03  0.35019693421E+03  0.00000000000E+00 0. -1.
         11    1    1    2    0    0  0.15525669626E+03 -0.11046327610E+03  0.99203035671E+02  0.21482090072E+03  0.00000000000E+00 0.  1.
</event>
<event>
 7    1  0.2644565E-009  0.9529054E+02  0.7561462E-02  0.1290523E+00
          4   -1    0    0  501    0  0.00000000000E+00  0.00000000000E+00  0.39992706375E+02  0.39992706375E+02  0.00000000000E+00 0. -1.
         -4   -1    0    0    0  501 -0.00000000000E+00 -0.00000000000E+00 -0.40721513449E+03  0.40721513449E+03  0.00000000000E+00 0.  1.
         25    2    1    2    0    0  0.29112026002E+02  0.20409692652E+02 -0.30867570356E+03  0.33495063669E+03  0.12508866230E+03 0.  0.
          5    1    3    3  502    0  0.59742613970E+02  0.46834690978E+02 -0.12087433254E+03  0.14279616546E+03  0.41800000000E+01 0.  1.
         -5    1    3    3    0  502 -0.30630587968E+02 -0.26424998326E+02 -0.18780137103E+03  0.19215447123E+03  0.41800000000E+01 0.  1.
        -11    1    1    2    0    0 -0.39519783141E+02  0.10813486090E+02 -0.66764926562E+02  0.78334540017E+02  0.00000000000E+00 0.  1.
         11    1    1    2    0    0  0.10407757139E+02 -0.31223178742E+02  0.82182020080E+01  0.33922664160E+02  0.00000000000E+00 0. -1.
</event>
<event>
 7    1  0.2644565E-009  0.1112192E+03  0.7561462E-02  0.1258329E+00
          2   -1    0    0  501    0  0.00000000000E+00  0.00000000000E+00  0.56168681324E+03  0.56168681324E+03  0.00000000000E+00 0. -1.
         -2   -1    0    0    0  501 -0.00000000000E+00 -0.00000000000E+00 -0.38188638374E+02  0.38188638374E+02  0.00000000000E+00 0.  1.
         25    2    1    2    0    0  0.36695115986E+02  0.57392100568E+01  0.47211442746E+03  0.48981468125E+03  0.12508764638E+03 0.  0.
          5    1    3    3  502    0  0.16547017368E+02 -0.57809598220E+02  0.28013655359E+03  0.28654792703E+03  0.41800000000E+01 0.  1.
         -5    1    3    3    0  502  0.20148098618E+02  0.63548808277E+02  0.19197787388E+03  0.20326675422E+03  0.41800000000E+01 0.  1.
        -11    1    1    2    0    0  0.53838123191E+01 -0.40456311107E+02  0.33029947475E+02  0.52504056735E+02  0.00000000000E+00 0. -1.
         11    1    1    2    0    0 -0.42078928305E+02  0.34717101050E+02  0.18353799932E+02  0.57556713636E+02  0.00000000000E+00 0.  1.
</event>
<event>
 7    1  0.2644565E-009  0.1151467E+03  0.7561462E-02  0.1251325E+00
         -3   -1    0    0    0  501 -0.00000000000E+00  0.00000000000E+00  0.41199105564E+02  0.41199105564E+02  0.00000000000E+00 0.  1.
          3   -1    0    0  501    0  0.00000000000E+00 -0.00000000000E+00 -0.48201132122E+03  0.48201132122E+03  0.00000000000E+00 0. -1.
         25    2    1    2    0    0  0.56590512216E+02  0.41160703045E+02 -0.13834464270E+03  0.19920946372E+03  0.12509388763E+03 0.  0.
          5    1    3    3  502    0 -0.27453079163E+02 -0.83005629961E+01  0.10922950254E+01  0.29004075748E+02  0.41800000000E+01 0.  1.
         -5    1    3    3    0  502  0.84043591378E+02  0.49461266041E+02 -0.13943693773E+03  0.17020538797E+03  0.41800000000E+01 0.  1.
        -11    1    1    2    0    0 -0.34141092936E+02  0.19292811668E+02 -0.50645973793E+02  0.64053426687E+02  0.00000000000E+00 0.  1.
         11    1    1    2    0    0 -0.22449419280E+02 -0.60453514714E+02 -0.25182159915E+03  0.25994753638E+03  0.00000000000E+00 0. -1.
</event>
<event>
 7    1  0.2644565E-009  0.1066490E+03  0.7561462E-02  0.1266904E+00
          2   -1    0    0  501    0  0.00000000000E+00  0.00000000000E+00  0.49474347042E+03  0.49474347042E+03  0.00000000000E+00 0. -1.
         -2   -1    0    0    0  501 -0.00000000000E+00 -0.00000000000E+00 -0.30231633200E+02  0.30231633200E+02  0.00000000000E+00 0.  1.
         25    2    1    2    0    0  0.19730515626E+02 -0.15088827725E+02  0.37154929940E+03  0.39282346103E+03  0.12507767062E+03 0.  0.
          5    1    3    3  502    0 -0.27198121258E+02 -0.52666412140E+02  0.11684445901E+03  0.13108618832E+03  0.41800000000E+01 0. -1.
         -5    1    3    3    0  502  0.46928636884E+02  0.37577584416E+02  0.25470484039E+03  0.26173727271E+03  0.41800000000E+01 0. -1.
        -11    1    1    2    0    0 -0.42304991808E+02  0.41229231708E+02  0.53368003374E+02  0.79609708348E+02  0.00000000000E+00 0.  1.
         11    1    1    2    0    0  0.22574476182E+02 -0.26140403983E+02  0.39594534453E+02  0.52541934241E+02  0.00000000000E+00 0. -1.
</event>
<event>
 7    1  0.2644565E-009  0.2369084E+03  0.7561462E-02  0.1121870E+00
         -3   -1    0    0    0  501 -0.00000000000E+00  0.00000000000E+00  0.38918305050E+03  0.38918305050E+03  0.00000000000E+00 0.  1.
          3   -1    0    0  501    0  0.00000000000E+00 -0.00000000000E+00 -0.21879154854E+03  0.21879154854E+03  0.00000000000E+00 0. -1.
         25    2    1    2    0    0  0.34325028315E+02 -0.21324293035E+03  0.25709512143E+03  0.35832326775E+03  0.12508760067E+03 0.  0.
          5    1    3    3  502    0  0.75659817681E+02 -0.18320318416E+03  0.20076892682E+03  0.28215855307E+03  0.41800000000E+01 0. -1.
         -5    1    3    3    0  502 -0.41334789366E+02 -0.30039746189E+02  0.56326194611E+02  0.76164714681E+02  0.41800000000E+01 0. -1.
        -11    1    1    2    0    0 -0.51460250667E+02  0.17450828295E+03 -0.39397464708E+02  0.18615439410E+03  0.00000000000E+00 0.  1.
         11    1    1    2    0    0  0.17135222352E+02  0.38734647393E+02 -0.47306154758E+02  0.63496937184E+02  0.00000000000E+00 0. -1.
</event>
<event>
 7    1  0.2644565E-009  0.1288462E+03  0.7561462E-02  0.1229178E+00
         -1   -1    0    0    0  501 -0.00000000000E+00  0.00000000000E+00  0.42093004874E+03  0.42093004874E+03  0.00000000000E+00 0.  1.
          1   -1    0    0  501    0  0.00000000000E+00 -0.00000000000E+00 -0.47868831679E+02  0.47868831679E+02  0.00000000000E+00 0. -1.
         25    2    1    2    0    0 -0.64479276399E+02 -0.42560172439E+02  0.28272947660E+03  0.31867168190E+03  0.12508692395E+03 0.  0.
          5    1    3    3  502    0  0.37288117145E+02 -0.28109760902E+01  0.68431242090E+02  0.78093614085E+02  0.41800000000E+01 0. -1.
         -5    1    3    3    0  502 -0.10176739354E+03 -0.39749196349E+02  0.21429823451E+03  0.24057806782E+03  0.41800000000E+01 0. -1.
        -11    1    1    2    0    0 -0.88003542010E+01  0.36111148041E+02  0.59950812943E+02  0.70537658165E+02  0.00000000000E+00 0.  1.
         11    1    1    2    0    0  0.73279630600E+02  0.64490243975E+01  0.30380927512E+02  0.79589540350E+02  0.00000000000E+00 0. -1.
</event>
<event>
 7    1  0.2644565E-009  0.1121543E+03  0.7561462E-02  0.1256632E+00
          2   -1    0    0  501    0  0.00000000000E+00  0.00000000000E+00  0.28765006427E+03  0.28765006427E+03  0.00000000000E+00 0.  1.
         -2   -1    0    0    0  501 -0.00000000000E+00 -0.00000000000E+00 -0.10796463004E+03  0.10796463004E+03  0.00000000000E+00 0. -1.
         25    2    1    2    0    0 -0.95073319686E+02 -0.28800854741E+02  0.20991310679E+03  0.26377999004E+03  0.12509174791E+03 0.  0.
          5    1    3    3  502    0 -0.61104550660E+02 -0.44521896522E+02  0.21293375221E+03  0.22599606326E+03  0.41800000000E+01 0. -1.
         -5    1    3    3    0  502 -0.33968769026E+02  0.15721041780E+02 -0.30206454216E+01  0.37783926775E+02  0.41800000000E+01 0. -1.
        -11    1    1    2    0    0  0.86736827102E+02  0.41168583796E+02 -0.49053659709E+02  0.10781646905E+03  0.00000000000E+00 0.  1.
         11    1    1    2    0    0  0.83364925844E+01 -0.12367729054E+02  0.18825987153E+02  0.24018235216E+02  0.00000000000E+00 0. -1.
</event>
<event>
 7    1  0.2644565E-009  0.1253681E+03  0.7561462E-02  0.1234495E+00
         -1   -1    0    0    0  501 -0.00000000000E+00  0.00000000000E+00  0.43198458933E+03  0.43198458933E+03  0.00000000000E+00 0.  1.
          1   -1    0    0  501    0  0.00000000000E+00 -0.00000000000E+00 -0.59955086832E+02  0.59955086832E+02  0.00000000000E+00 0. -1.
         25    2    1    2    0    0  0.55648956117E+02 -0.28635122035E+02  0.35229369660E+03  0.37904468296E+03  0.12508895429E+03 0.  0.
          5    1    3    3  502    0 -0.31422730488E+02  0.22336519804E+02  0.10467843086E+03  0.11163043669E+03  0.41800000000E+01 0.  1.
         -5    1    3    3    0  502  0.87071686605E+02 -0.50971641839E+02  0.24761526574E+03  0.26741424627E+03  0.41800000000E+01 0.  1.
        -11    1    1    2    0    0 -0.48897865358E+02  0.60850095441E+02  0.10940008364E+02  0.78825244273E+02  0.00000000000E+00 0.  1.
         11    1    1    2    0    0 -0.67510907591E+01 -0.32214973406E+02  0.87957975351E+01  0.34069748932E+02  0.00000000000E+00 0. -1.
</event>
<event>
 6    1  0.2644565E-009  0.1097888E+03  0.7561462E-02  0.1260962E+00
         -4   -1    0    0    0  501 -0.00000000000E+00  0.00000000000E+00  0.19965028695E+03  0.19965028695E+03  0.00000000000E+00 0.  1.
          4   -1    0    0  501    0  0.00000000000E+00 -0.00000000000E+00 -0.77321010160E+02  0.77321010160E+02  0.00000000000E+00 0. -1.
          5    1    1    2  502    0  0.42199845854E+02 -0.32101298449E+02  0.76373413293E+01  0.53731943337E+02  0.41800000000E+01 0. -1.
         -5    1    1    2    0  502 -0.24932516991E+02  0.51882528976E+02  0.90388976767E+02  0.10724302652E+03  0.41800000000E+01 0. -1.
        -11    1    1    2    0    0  0.37722651114E+02 -0.35170070555E+02  0.28163683547E+02  0.58763299268E+02  0.00000000000E+00 0.  1.
         11    1    1    2    0    0 -0.54989979976E+02  0.15388840028E+02 -0.38607248580E+01  0.57233027979E+02  0.00000000000E+00 0. -1.
</event>
<event>
 7    1  0.2644565E-009  0.2237458E+03  0.7561462E-02  0.1131121E+00
          1   -1    0    0  501    0  0.00000000000E+00  0.00000000000E+00  0.23573048412E+03  0.23573048412E+03  0.00000000000E+00 0. -1.
         -1   -1    0    0    0  501 -0.00000000000E+00 -0.00000000000E+00 -0.25597155126E+03  0.25597155126E+03  0.00000000000E+00 0.  1.
         25    2    1    2    0    0 -0.13239314737E+02 -0.20209719274E+03 -0.97272863546E+02  0.25715160401E+03  0.12508550153E+03 0.  0.
          5    1    3    3  502    0  0.38661307099E+02 -0.13792623103E+02 -0.66748283204E+01  0.41796636848E+02  0.41800000000E+01 0. -1.
         -5    1    3    3    0  502 -0.51900621837E+02 -0.18830456964E+03 -0.90598035225E+02  0.21535496716E+03  0.41800000000E+01 0. -1.
        -11    1    1    2    0    0  0.32750354806E+02  0.69432378071E+02 -0.57171329092E+01  0.76981338474E+02  0.00000000000E+00 0.  1.
         11    1    1    2    0    0 -0.19511040069E+02  0.13266481467E+03  0.82748929313E+02  0.15756909290E+03  0.00000000000E+00 0. -1.
</event>
<event>
 7    1  0.2644565E-009  0.1475024E+03  0.7561462E-02  0.1203576E+00
         -2   -1    0    0    0  501 -0.00000000000E+00  0.00000000000E+00  0.24523585950E+02  0.24523585950E+02  0.00000000000E+00 0.  1.
          2   -1    0    0  501    0  0.00000000000E+00 -0.00000000000E+00 -0.94674516081E+03  0.94674516081E+03  0.00000000000E+00 0. -1.
         25    2    1    2    0    0  0.64151000400E+02 -0.81703342045E+02 -0.57527178837E+03  0.59780942063E+03  0.12509071088E+03 0.  0.
          5    1    3    3  502    0 -0.18296871448E+02  0.21219667560E+02 -0.68117532311E+02  0.73773439694E+02  0.41800000000E+01 0. -1.
         -5    1    3    3    0  502  0.82447871849E+02 -0.10292300960E+03 -0.50715425606E+03  0.52403598094E+03  0.41800000000E+01 0. -1.
        -11    1    1    2    0    0 -0.83270608088E+02  0.48347068475E+02 -0.20656067322E+03  0.22790073480E+03  0.00000000000E+00 0.  1.
         11    1    1    2    0    0  0.19119607688E+02  0.33356273569E+02 -0.14038911327E+03  0.14555859133E+03  0.00000000000E+00 0. -1.
</event>
<event>
 7    1  0.2644565E-009  0.1062886E+03  0.7561462E-02  0.1267601E+00
         -2   -1    0    0    0  501 -0.00000000000E+00  0.00000000000E+00  0.87214366958E+02  0.87214366958E+02  0.00000000000E+00 0.  1.
          2   -1    0    0  501    0  0.00000000000E+00 -0.00000000000E+00 -0.14035895282E+03  0.14035895282E+03  0.00000000000E+00 0. -1.
         25    2    1    2    0    0 -0.14804340079E+02 -0.10829871304E+02 -0.13285227113E+02  0.12712652795E+03  0.12509277458E+03 0.  0.
          5    1    3    3  502    0 -0.63395388640E+02  0.15029878590E+02  0.12047806091E+02  0.66388964316E+02  0.41800000000E+01 0.  1.
         -5    1    3    3    0  502  0.48591048562E+02 -0.25859749894E+02 -0.25333033204E+02  0.60737563634E+02  0.41800000000E+01 0.  1.
        -11    1    1    2    0    0 -0.36403130088E+02  0.17601425472E+02 -0.19957070829E+02  0.45091936474E+02  0.00000000000E+00 0.  1.
         11    1    1    2    0    0  0.51207470167E+02 -0.67715541686E+01 -0.19902287918E+02  0.55354855353E+02  0.00000000000E+00 0. -1.
</event>
<event>
 7    1  0.2644565E-009  0.1084210E+03  0.7561462E-02  0.1263522E+00
          1   -1    0    0  501    0  0.00000000000E+00  0.00000000000E+00  0.13677591635E+03  0.13677591635E+03  0.00000000000E+00 0. -1.
         -1   -1    0    0    0  501 -0.00000000000E+00 -0.00000000000E+00 -0.95468893622E+02  0.95468893622E+02  0.00000000000E+00 0.  1.
         25    2    1    2    0    0  0.21044350483E+02  0.18515921237E+02  0.50650288252E+02  0.13783722488E+03  0.12509174567E+03 0.  0.
          5    1    3    3  502    0  0.10536116637E+02  0.72117625552E+02  0.34358964611E+02  0.80684400711E+02  0.41800000000E+01 0. -1.
         -5    1    3    3    0  502  0.10508233846E+02 -0.53601704315E+02  0.16291323641E+02  0.57152824165E+02  0.41800000000E+01 0. -1.
        -11    1    1    2    0    0 -0.44151587636E+02 -0.38444505018E+02 -0.20334663188E+02  0.61974520440E+02  0.00000000000E+00 0.  1.
         11    1    1    2    0    0  0.23107237153E+02  0.19928583781E+02  0.10991397662E+02  0.32433064655E+02  0.00000000000E+00 0. -1.
</event>
<event>
 7    1  0.2644565E-009  0.1072895E+03  0.7561462E-02  0.1265673E+00
          2   -1    0    0  501    0  0.00000000000E+00  0.00000000000E+00  0.19896156015E+03  0.19896156015E+03  0.00000000000E+00 0. -1.
         -2   -1    0    0    0  501 -0.00000000000E+00 -0.00000000000E+00 -0.65867450717E+02  0.65867450717E+02  0.00000000000E+00 0.  1.
         25    2    1    2    0    0 -0.20977565798E+02  0.13585979287E+02  0.11707307683E+03  0.17314065440E+03  0.12508774435E+03 0.  0.
          5    1    3    3  502    0  0.16977273009E+02 -0.48607520421E+02  0.67144742589E+02  0.84716041560E+02  0.41800000000E+01 0. -1.
         -5    1    3    3    0  502 -0.37954838807E+02  0.62193499708E+02  0.49928334245E+02  0.88424612836E+02  0.41800000000E+01 0. -1.
        -11    1    1    2    0    0  0.30421467915E+01 -0.49608693822E+02  0.12772090187E+02  0.51316697551E+02  0.00000000000E+00 0. -1.
         11    1    1    2    0    0  0.17935419007E+02  0.36022714534E+02  0.32489424143E+01  0.40371658923E+02  0.00000000000E+00 0.  1.
</event>
<event>
 7    1  0.2644565E-009  0.1474225E+03  0.7561462E-02  0.1203676E+00
         -2   -1    0    0    0  501 -0.00000000000E+00  0.00000000000E+00  0.17362138613E+02  0.17362138613E+02  0.00000000000E+00 0.  1.
          2   -1    0    0  501    0  0.00000000000E+00 -0.00000000000E+00 -0.15422522494E+04  0.15422522494E+04  0.00000000000E+00 0. -1.
         25    2    1    2    0    0 -0.61211188295E+02 -0.10264773990E+03 -0.93380335299E+03  0.94969351352E+03  0.12508277056E+03 0.  0.
          5    1    3    3  502    0  0.22689549759E+02  0.70147347978E+01 -0.30217592385E+03  0.30313657570E+03  0.41800000000E+01 0.  1.
         -5    1    3    3    0  502 -0.83900738053E+02 -0.10966247470E+03 -0.63162742914E+03  0.64655693782E+03  0.41800000000E+01 0.  1.
        -11    1    1    2    0    0  0.72393149396E+02  0.92748304005E+02 -0.57863771526E+03  0.59047829892E+03  0.00000000000E+00 0. -1.
         11    1    1    2    0    0 -0.11181961102E+02  0.98994358996E+01 -0.12449042575E+02  0.19442575607E+02  0.00000000000E+00 0.  1.
</event>
<event>
 7    1  0.2644565E-009  0.9326058E+02  0.7561462E-02  0.1295142E+00
          2   -1    0    0  501    0  0.00000000000E+00  0.00000000000E+00  0.96586376260E+03  0.96586376260E+03  0.00000000000E+00 0. -1.
         -2   -1    0    0    0  501 -0.00000000000E+00 -0.00000000000E+00 -0.18375014986E+02  0.18375014986E+02  0.00000000000E+00 0.  1.
         25    2    1    2    0    0 -0.13534744003E+02  0.58004325130E+02  0.70515195311E+03  0.71863400564E+03  0.12509143080E+03 0.  0.
          5    1    3    3  502    0  0.52428191740E+01 -0.14802988268E+02  0.93093643501E+01  0.18728381648E+02  0.41800000000E+01 0. -1.
         -5    1    3    3    0  502 -0.18777563177E+02  0.72807313399E+02  0.69584258876E+03  0.69990562399E+03  0.41800000000E+01 0. -1.
        -11    1    1    2    0    0  0.30520004052E+02  0.39037351413E+01  0.15013768374E+03  0.15325806300E+03  0.00000000000E+00 0. -1.
         11    1    1    2    0    0 -0.16985260049E+02 -0.61908060272E+02  0.92199110763E+02  0.11234670895E+03  0.00000000000E+00 0.  1.
</event>
<event>
 7    1  0.2644565E-009  0.1117922E+03  0.7561462E-02  0.1257287E+00
         -4   -1    0    0    0  501 -0.00000000000E+00  0.00000000000E+00  0.11986431550E+03  0.11986431550E+03  0.00000000000E+00 0.  1.
          4   -1    0    0  501    0  0.00000000000E+00 -0.00000000000E+00 -0.19332038641E+03  0.19332038641E+03  0.00000000000E+00 0. -1.
         25    2    1    2    0    0  0.71272431177E+02 -0.79828853198E+02 -0.50443750292E+02  0.17216244296E+03  0.12507169773E+03 0.  0.
          5    1    3    3  502    0  0.49709311555E+02 -0.25292052454E+02 -0.86636623346E+02  0.10312167802E+03  0.41800000000E+01 0. -1.
         -5    1    3    3    0  502  0.21563119621E+02 -0.54536800744E+02  0.36192873054E+02  0.69040764937E+02  0.41800000000E+01 0. -1.
        -11    1    1    2    0    0 -0.13806314121E+02  0.29091486681E+02  0.32978778551E+02  0.46092610488E+02  0.00000000000E+00 0.  1.
         11    1    1    2    0    0 -0.57466117056E+02  0.50737366517E+02 -0.55991099169E+02  0.94929648460E+02  0.00000000000E+00 0. -1.
</event>
<event>
 7    1  0.2644565E-009  0.8624819E+02  0.7561462E-02  0.1312200E+00
         -3   -1    0    0    0  501 -0.00000000000E+00  0.00000000000E+00  0.96547880959E+02  0.96547880959E+02  0.00000000000E+00 0.  1.
          3   -1    0    0  501    0  0.00000000000E+00 -0.00000000000E+00 -0.14170596730E+03  0.14170596730E+03  0.00000000000E+00 0. -1.
         25    2    1    2    0    0  0.43691083536E+02 -0.28063392934E+01 -0.46872051317E+01  0.13261372640E+03  0.12509054408E+03 0.  0.
          5    1    3    3  502    0  0.84901111304E+02 -0.89367050770E+01  0.14259940327E+02  0.86653803704E+02  0.41800000000E+01 0. -1.
         -5    1    3    3    0  502 -0.41210027768E+02  0.61303657836E+01 -0.18947145459E+02  0.45959922697E+02  0.41800000000E+01 0. -1.
        -11    1    1    2    0    0 -0.16759017793E+02 -0.42912377423E+01  0.27328005927E+02  0.32343458484E+02  0.00000000000E+00 0.  1.
         11    1    1    2    0    0 -0.26932065743E+02  0.70975770358E+01 -0.67798887135E+02  0.73296663373E+02  0.00000000000E+00 0. -1.
</event>
<event>
 7    1  0.2644565E-009  0.1074581E+03  0.7561462E-02  0.1265351E+00
          1   -1    0    0  501    0  0.00000000000E+00  0.00000000000E+00  0.75354421127E+02  0.75354421127E+02  0.00000000000E+00 0. -1.
         -1   -1    0    0    0  501 -0.00000000000E+00 -0.00000000000E+00 -0.16593982104E+03  0.16593982104E+03  0.00000000000E+00 0.  1.
         25    2    1    2    0    0  0.64239070551E+01  0.22033673805E+02 -0.39863577917E+02  0.13327879092E+03  0.12508949557E+03 0.  0.
          5    1    3    3  502    0  0.53607554162E+00  0.72272232771E+02 -0.39611450252E+02  0.82523344562E+02  0.41800000000E+01 0. -1.
         -5    1    3    3    0  502  0.58878315135E+01 -0.50238558966E+02 -0.25212766505E+00  0.50755446361E+02  0.41800000000E+01 0. -1.
        -11    1    1    2    0    0  0.20737588529E+02 -0.49174751956E+02 -0.43707667674E+02  0.68982345723E+02  0.00000000000E+00 0. -1.
         11    1    1    2    0    0 -0.27161495584E+02  0.27141078151E+02 -0.70141543171E+01  0.39033105517E+02  0.00000000000E+00 0.  1.
</event>
<event>
 7    1  0.2644565E-009  0.1640388E+03  0.7561462E-02  0.1184211E+00
          2   -1    0    0  501    0  0.00000000000E+00  0.00000000000E+00  0.14683771783E+03  0.14683771783E+03  0.00000000000E+00 0. -1.
         -2   -1    0    0    0  501 -0.00000000000E+00 -0.00000000000E+00 -0.22338789514E+03  0.22338789514E+03  0.00000000000E+00 0.  1.
         25    2    1    2    0    0  0.91688044979E+02  0.11025539527E+03 -0.19889760327E+02  0.19132482001E+03  0.12508650770E+03 0.  0.
          5    1    3    3  502    0  0.37399971069E+02 -0.11679824236E+02  0.29204617644E+02  0.49046490413E+02  0.41800000000E+01 0. -1.
         -5    1    3    3    0  502  0.54288073910E+02  0.12193521950E+03 -0.49094377971E+02  0.14227832959E+03  0.41800000000E+01 0. -1.
        -11    1    1    2    0    0 -0.91102427932E+02 -0.70038832906E+02 -0.72278074076E+02  0.13575422823E+03  0.00000000000E+00 0.  1.
         11    1    1    2    0    0 -0.58561704718E+00 -0.40216562361E+02  0.15617657095E+02  0.43146564737E+02  0.00000000000E+00 0. -1.
</event>
<event>
 7    1  0.2644565E-009  0.7100795E+02  0.7561462E-02  0.1356699E+00
         -3   -1    0    0    0  501 -0.00000000000E+00  0.00000000000E+00  0.10374062787E+03  0.10374062787E+03  0.00000000000E+00 0.  1.
          3   -1    0    0  501    0  0.00000000000E+00 -0.00000000000E+00 -0.13609913706E+03  0.13609913706E+03  0.00000000000E+00 0. -1.
         25    2    1    2    0    0  0.22400553696E+02  0.42601198362E+02 -0.27642115108E+02  0.13685390965E+03  0.12509300201E+03 0.  0.
          5    1    3    3  502    0  0.40252524807E+02  0.10149139423E+02  0.41157583026E+02  0.58606226844E+02  0.41800000000E+01 0. -1.
         -5    1    3    3    0  502 -0.17851971111E+02  0.32452058939E+02 -0.68799698133E+02  0.78247682810E+02  0.41800000000E+01 0. -1.
        -11    1    1    2    0    0 -0.26339223623E+02 -0.70700942481E+01 -0.42801412780E+02  0.50751373082E+02  0.00000000000E+00 0. -1.
         11    1    1    2    0    0  0.39386699273E+01 -0.35531104114E+02  0.38085018702E+02  0.52234482192E+02  0.00000000000E+00 0.  1.
</event>
<event>
 7    1  0.2644565E-009  0.1557068E+03  0.7561462E-02  0.1193631E+00
          3   -1    0    0  501    0  0.00000000000E+00  0.00000000000E+00  0.25207427658E+03  0.25207427658E+03  0.00000000000E+00 0. -1.
         -3   -1    0    0    0  501 -0.00000000000E+00 -0.00000000000E+00 -0.10994779687E+03  0.10994779687E+03  0.00000000000E+00 0.  1.
         25    2    1    2    0    0 -0.69077748777E+01 -0.12615382878E+03  0.76838583770E+02  0.19368892164E+03  0.12509486216E+03 0.  0.
          5    1    3    3  502    0  0.40588608056E+02 -0.10186229962E+03  0.85978368192E+02  0.13940270939E+03  0.41800000000E+01 0. -1.
         -5    1    3    3    0  502 -0.47496382934E+02 -0.24291529159E+02 -0.91397844218E+01  0.54286212245E+02  0.41800000000E+01 0. -1.
        -11    1    1    2    0    0 -0.25436482503E+02  0.10825892009E+03  0.25635710372E+02  0.11412360872E+03  0.00000000000E+00 0.  1.
         11    1    1    2    0    0  0.32344257380E+02  0.17894908697E+02  0.39652185561E+02  0.54209543095E+02  0.00000000000E+00 0. -1.
</event>
<event>
 7    1  0.2644565E-009  0.8951211E+02  0.7561462E-02  0.1304038E+00
         -1   -1    0    0    0  501 -0.00000000000E+00  0.00000000000E+00  0.19236731020E+02  0.19236731020E+02  0.00000000000E+00 0.  1.
          1   -1    0    0  501    0  0.00000000000E+00 -0.00000000000E+00 -0.61738477858E+03  0.61738477858E+03  0.00000000000E+00 0. -1.
         25    2    1    2    0    0  0.19298623304E+02  0.37275855994E+01 -0.35569860383E+03  0.37756177964E+03  0.12508024994E+03 0.  0.
          5    1    3    3  502    0 -0.17068956580E+02  0.37328907195E+02 -0.30038985589E+03  0.30321005015E+03  0.41800000000E+01 0. -1.
         -5    1    3    3    0  502  0.36367579885E+02 -0.33601321595E+02 -0.55308747941E+02  0.74351729492E+02  0.41800000000E+01 0. -1.
        -11    1    1    2    0    0 -0.20892532226E+02 -0.43507343009E+02 -0.16588174916E+03  0.17276035860E+03  0.00000000000E+00 0. -1.
         11    1    1    2    0    0  0.15939089214E+01  0.39779757410E+02 -0.76567694569E+02  0.86299371358E+02  0.00000000000E+00 0.  1.
</event>
<event>
 7    1  0.2644565E-009  0.1868851E+03  0.7561462E-02  0.1161301E+00
          2   -1    0    0  501    0  0.00000000000E+00  0.00000000000E+00  0.10781502935E+04  0.10781502935E+04  0.00000000000E+00 0. -1.
         -2   -1    0    0    0  501 -0.00000000000E+00 -0.00000000000E+00 -0.53252775179E+02  0.53252775179E+02  0.00000000000E+00 0.  1.
         25    2    1    2    0    0  0.78604626932E+02 -0.14779989191E+03  0.21588014302E+03  0.30045842413E+03  0.12509009976E+03 0.  0.
          5    1    3    3  502    0  0.14143923107E+01 -0.99029481726E+02  0.17324854264E+03  0.19960302774E+03  0.41800000000E+01 0. -1.
         -5    1    3    3    0  502  0.77190234621E+02 -0.48770410184E+02  0.42631600387E+02  0.10085539639E+03  0.41800000000E+01 0. -1.
        -11    1    1    2    0    0 -0.83468958660E+02  0.81155225632E+02  0.60996717749E+03  0.62097761258E+03  0.00000000000E+00 0. -1.
         11    1    1    2    0    0  0.48643317279E+01  0.66644666278E+02  0.19905019781E+03  0.20996703197E+03  0.00000000000E+00 0.  1.
</event>
<event>
 7    1  0.2644565E-009  0.1354801E+03  0.7561462E-02  0.1219544E+00
         -2   -1    0    0    0  501 -0.00000000000E+00  0.00000000000E+00  0.66558173015E+03  0.66558173015E+03  0.00000000000E+00 0.  1.
          2   -1    0    0  501    0  0.00000000000E+00 -0.00000000000E+00 -0.44238712814E+02  0.44238712814E+02  0.00000000000E+00 0. -1.
         25    2    1    2    0    0  0.98914468825E+02  0.88181181218E+02  0.31598811286E+03  0.36476464401E+03  0.12507903576E+03 0.  0.
          5    1    3    3  502    0  0.71358171607E+02  0.37854210881E+02  0.55733480483E+02  0.98227405459E+02  0.41800000000E+01 0.  1.
         -5    1    3    3    0  502  0.27556297218E+02  0.50326970336E+02  0.26025463238E+03  0.26653723855E+03  0.41800000000E+01 0.  1.
        -11    1    1    2    0    0 -0.16489006968E+02 -0.16169809682E+02  0.27409214452E+01  0.23256456013E+02  0.00000000000E+00 0. -1.
         11    1    1    2    0    0 -0.82425461857E+02 -0.72011371536E+02  0.30261398303E+03  0.32179934294E+03  0.00000000000E+00 0.  1.
</event>
<event>
 7    1  0.2644565E-009  0.1790175E+03  0.7561462E-02  0.1168757E+00
          2   -1    0    0  501    0  0.00000000000E+00  0.00000000000E+00  0.13517189608E+03  0.13517189608E+03  0.00000000000E+00 0. -1.
         -2   -1    0    0    0  501 -0.00000000000E+00 -0.00000000000E+00 -0.31415641751E+03  0.31415641751E+03  0.00000000000E+00 0.  1.
         25    2    1    2    0    0  0.58058625036E+02  0.16352379197E+03 -0.80069175358E+02  0.22840546568E+03  0.12508856634E+03 0.  0.
          5    1    3    3  502    0  0.43442266048E+02  0.12314545523E+03 -0.11409575578E+03  0.17345704802E+03  0.41800000000E+01 0.  1.
         -5    1    3    3    0  502  0.14616358988E+02  0.40378336743E+02  0.34026580420E+02  0.54948417659E+02  0.41800000000E+01 0.  1.
        -11    1    1    2    0    0  0.13354376848E+02 -0.29323315184E+02 -0.53169430420E+02  0.62170608213E+02  0.00000000000E+00 0.  1.
         11    1    1    2    0    0 -0.71413001883E+02 -0.13420047679E+03 -0.45745915658E+02  0.15875223969E+03  0.00000000000E+00 0. -1.
</event>
<event>
 7    1  0.2644565E-009  0.1039184E+03  0.7561462E-02  0.1272265E+00
         -3   -1    0    0    0  501 -0.00000000000E+00  0.00000000000E+00  0.11165029777E+03  0.11165029777E+03  0.00000000000E+00 0.  1.
          3   -1    0    0  501    0  0.00000000000E+00 -0.00000000000E+00 -0.11776736142E+03  0.11776736142E+03  0.00000000000E+00 0. -1.
         25    2    1    2    0    0  0.65832165161E+01 -0.35909941002E+02  0.13544210434E+01  0.13031592800E+03  0.12509014362E+03 0.  0.
          5    1    3    3  502    0 -0.14041699919E+02 -0.78000827767E+02 -0.14459767239E+02  0.80671281988E+02  0.41800000000E+01 0. -1.
         -5    1    3    3    0  502  0.20624916435E+02  0.42090886765E+02  0.15814188283E+02  0.49644646012E+02  0.41800000000E+01 0. -1.
        -11    1    1    2    0    0  0.18825421795E+02  0.49243227430E+02  0.22758554694E+02  0.57421631510E+02  0.00000000000E+00 0.  1.
         11    1    1    2    0    0 -0.25408638312E+02 -0.13333286428E+02 -0.30230039394E+02  0.41680099683E+02  0.00000000000E+00 0. -1.
</event>
<event>
 7    1  0.2644565E-009  0.1098664E+03  0.7561462E-02  0.1260817E+00
         -3   -1    0    0    0  501 -0.00000000000E+00  0.00000000000E+00  0.48898706469E+02  0.48898706469E+02  0.00000000000E+00 0.  1.
          3   -1    0    0  501    0  0.00000000000E+00 -0.00000000000E+00 -0.34896333176E+03  0.34896333176E+03  0.00000000000E+00 0. -1.
         25    2    1    2    0    0  0.29166275569E+02  0.11774659126E+02 -0.66764963204E+02  0.14523634728E+03  0.12508685794E+03 0.  0.
          5    1    3    3  502    0 -0.20222796929E+02 -0.47133525858E+02 -0.33282295823E+02  0.61283883613E+02  0.41800000000E+01 0. -1.
         -5    1    3    3    0  502  0.49389072498E+02  0.58908184984E+02 -0.33482667381E+02  0.83952463664E+02  0.41800000000E+01 0. -1.
        -11    1    1    2    0    0 -0.24200680184E+02 -0.48513466779E+02 -0.17780767710E+03  0.18588921275E+03  0.00000000000E+00 0. -1.
         11    1    1    2    0    0 -0.49655953850E+01  0.36738807653E+02 -0.55491984982E+02  0.66736478200E+02  0.00000000000E+00 0.  1.
</event>
<event>
 7    1  0.2644565E-009  0.9634456E+02  0.7561462E-02  0.1288176E+00
          1   -1    0    0  501    0  0.00000000000E+00  0.00000000000E+00  0.21720762153E+03  0.21720762153E+03  0.00000000000E+00 0. -1.
         -1   -1    0    0    0  501 -0.00000000000E+00 -0.00000000000E+00 -0.89774401550E+02  0.89774401550E+02  0.00000000000E+00 0.  1.
         25    2    1    2    0    0 -0.49123635096E+02  0.22499800168E+02 -0.61277040197E+01  0.13640266950E+03  0.12509503171E+03 0.  0.
          5    1    3    3  502    0 -0.76218791551E+01 -0.46076731230E+02 -0.26134539872E+02  0.53680953578E+02  0.41800000000E+01 0.  1.
         -5    1    3    3    0  502 -0.41501755941E+02  0.68576531398E+02  0.20006835853E+02  0.82721715926E+02  0.41800000000E+01 0.  1.
        -11    1    1    2    0    0  0.55517210996E-01 -0.16042403617E+02 -0.98797941031E+01  0.18840704008E+02  0.00000000000E+00 0.  1.
         11    1    1    2    0    0  0.49068117885E+02 -0.64573965506E+01  0.14344071810E+03  0.15173864957E+03  0.00000000000E+00 0. -1.
</event>
<event>
 7    1  0.2644565E-009  0.1256087E+03  0.7561462E-02  0.1234121E+00
          1   -1    0    0  501    0  0.00000000000E+00  0.00000000000E+00  0.55097051570E+02  0.55097051570E+02  0.00000000000E+00 0. -1.
         -1   -1    0    0    0  501 -0.00000000000E+00 -0.00000000000E+00 -0.38475620069E+03  0.38475620069E+03  0.00000000000E+00 0.  1.
         25    2    1    2    0    0 -0.41534667722E+02 -0.48840498641E+02 -0.28605350644E+03  0.31872465053E+03  0.12509305089E+03 0.  0.
          5    1    3    3  502    0  0.64744356889E+01  0.39155329860E+02 -0.71810621446E+02  0.82154098658E+02  0.41800000000E+01 0.  1.
         -5    1    3    3    0  502 -0.48009103411E+02 -0.87995828501E+02 -0.21424288499E+03  0.23657055187E+03  0.41800000000E+01 0.  1.
        -11    1    1    2    0    0  0.70588830613E+02  0.33690776504E+02 -0.40862228230E+02  0.88247227291E+02  0.00000000000E+00 0.  1.
         11    1    1    2    0    0 -0.29054162891E+02  0.15149722138E+02 -0.27434144534E+01  0.32881374439E+02  0.00000000000E+00 0. -1.
</event>
<event>
 7    1  0.2644565E-009  0.9381984E+02  0.7561462E-02  0.1293856E+00
         -1   -1    0    0    0  501 -0.00000000000E+00  0.00000000000E+00  0.37695491732E+02  0.37695491732E+02  0.00000000000E+00 0.  1.
          1   -1    0    0  501    0  0.00000000000E+00 -0.00000000000E+00 -0.55484619060E+03  0.55484619060E+03  0.00000000000E+00 0. -1.
         25    2    1    2    0    0 -0.25726803225E+02 -0.35265691715E+02 -0.45613515746E+03  0.47499115932E+03  0.12510708271E+03 0.  0.
          5    1    3    3  502    0 -0.62074896429E+02  0.16737409991E+02 -0.16815564491E+03  0.18007561460E+03  0.41800000000E+01 0. -1.
         -5    1    3    3    0  502  0.36348093204E+02 -0.52003101706E+02 -0.28797951255E+03  0.29491554472E+03  0.41800000000E+01 0. -1.
        -11    1    1    2    0    0  0.13678400189E+02  0.43125190209E+02  0.89518921351E+01  0.46119594915E+02  0.00000000000E+00 0.  1.
         11    1    1    2    0    0  0.12048403036E+02 -0.78594984939E+01 -0.69967433542E+02  0.71430928097E+02  0.00000000000E+00 0. -1.
</event>
<event>
 7    1  0.3655340E-009  0.9922674E+02  0.7561462E-02  0.1281930E+00
         -2   -1    0    0    0  501 -0.00000000000E+00  0.00000000000E+00  0.52821792797E+02  0.52821792797E+02  0.00000000000E+00 0.  1.
          2   -1    0    0  501    0  0.00000000000E+00 -0.00000000000E+00 -0.32363207189E+03  0.32363207189E+03  0.00000000000E+00 0. -1.
         25    2    1    2    0    0 -0.16455059507E+02 -0.70736896118E+02 -0.15189446040E+03  0.20974836304E+03  0.12509185122E+03 0.  0.
          5    1    3    3  502    0  0.40964876933E+02 -0.17454582225E+02 -0.11434421974E+03  0.12277970749E+03  0.41800000000E+01 0.  1.
         -5    1    3    3    0  502 -0.57419936440E+02 -0.53282313892E+02 -0.37550240657E+02  0.86968655548E+02  0.41800000000E+01 0.  1.
        -11    1    1    2    0    0 -0.20017793264E+01  0.35054618272E+02 -0.12147821456E+03  0.12645074138E+03  0.00000000000E+00 0. -1.
         11    1    1    2    0    0  0.18456838833E+02  0.35682277846E+02  0.25623958641E+01  0.40254760272E+02  0.00000000000E+00 0.  1.
</event>
<event>
 7    1  0.4103749E-009  0.1412302E+03  0.7561462E-02  0.1211683E+00
          2   -1    0    0  501    0  0.00000000000E+00  0.00000000000E+00  0.37541030305E+03  0.37541030305E+03  0.00000000000E+00 0. -1.
         -2   -1    0    0    0  501 -0.00000000000E+00 -0.00000000000E+00 -0.64349853590E+02  0.64349853590E+02  0.00000000000E+00 0.  1.
         25    2    1    2    0    0  0.50096614008E+02  0.77937223761E+02  0.81014499014E+02  0.17548319580E+03  0.12508845421E+03 0.  0.
          5    1    3    3  502    0  0.57655402880E+02  0.10791983841E+03  0.75392411075E+02  0.14377873644E+03  0.41800000000E+01 0. -1.
         -5    1    3    3    0  502 -0.75587888723E+01 -0.29982614653E+02  0.56220879394E+01  0.31704459362E+02  0.41800000000E+01 0. -1.
        -11    1    1    2    0    0 -0.68822665883E+02 -0.25912113333E+02  0.14909366486E+03  0.16624354982E+03  0.00000000000E+00 0. -1.
         11    1    1    2    0    0  0.18726051875E+02 -0.52025110427E+02  0.80952285589E+02  0.98033411019E+02  0.00000000000E+00 0.  1.
</event>
<event>
 7    1  0.2644565E-009  0.1276320E+03  0.7561462E-02  0.1231012E+00
         -1   -1    0    0    0  501 -0.00000000000E+00  0.00000000000E+00  0.63785883137E+02  0.63785883137E+02  0.00000000000E+00 0.  1.
          1   -1    0    0  501    0  0.00000000000E+00 -0.00000000000E+00 -0.36967174396E+03  0.36967174396E+03  0.00000000000E+00 0. -1.
         25    2    1    2    0    0  0.83096685890E+02  0.16136046788E+02 -0.15784374722E+03  0.21846836607E+03  0.12509335403E+03 0.  0.
          5    1    3    3  502    0  0.69024543421E+02 -0.35453267874E+02 -0.36614875311E+02  0.85903686134E+02  0.41800000000E+01 0. -1.
         -5    1    3    3    0  502  0.14072142469E+02  0.51589314662E+02 -0.12122887191E+03  0.13256467994E+03  0.41800000000E+01 0. -1.
        -11    1    1    2    0    0 -0.21456031927E+02 -0.49411123732E+02 -0.30405223646E+01  0.53954288344E+02  0.00000000000E+00 0.  1.
         11    1    1    2    0    0 -0.61640653963E+02  0.33275076944E+02 -0.14500159123E+03  0.16103497268E+03  0.00000000000E+00 0. -1.
</event>
<event>
 7    1  0.2644565E-009  0.7208420E+02  0.7561462E-02  0.1353146E+00
         -4   -1    0    0    0  501 -0.00000000000E+00  0.00000000000E+00  0.22754944762E+03  0.22754944762E+03  0.00000000000E+00 0.  1.
          4   -1    0    0  501    0  0.00000000000E+00 -0.00000000000E+00 -0.55786845867E+02  0.55786845867E+02  0.00000000000E+00 0. -1.
         25    2    1    2    0    0 -0.16207436643E+02 -0.25931609476E+02  0.91146788800E+02  0.15772428127E+03  0.12503632441E+03 0.  0.
          5    1    3    3  502    0  0.97686289506E+01 -0.38813687497E+02  0.11379164934E+03  0.12069772288E+03  0.41800000000E+01 0. -1.
         -5    1    3    3    0  502 -0.25976065594E+02  0.12882078022E+02 -0.22644860535E+02  0.37026558395E+02  0.41800000000E+01 0. -1.
        -11    1    1    2    0    0  0.87353120020E+01 -0.23275536668E+02  0.70591568997E+02  0.74841338152E+02  0.00000000000E+00 0.  1.
         11    1    1    2    0    0  0.74721246410E+01  0.49207146143E+02  0.10024243957E+02  0.50770674066E+02  0.00000000000E+00 0. -1.
</event>
<event>
 7    1  0.2644565E-009  0.2234522E+03  0.7561462E-02  0.1131335E+00
          2   -1    0    0  501    0  0.00000000000E+00  0.00000000000E+00  0.23167316724E+03  0.23167316724E+03  0.00000000000E+00 0.  1.
         -2   -1    0    0    0  501 -0.00000000000E+00 -0.00000000000E+00 -0.27934123159E+03  0.27934123159E+03  0.00000000000E+00 0. -1.
         25    2    1    2    0    0 -0.87533337721E+02 -0.17428886368E+03  0.94578994840E+02  0.25026256660E+03  0.12508985875E+03 0.  0.
          5    1    3    3  502    0  0.16266839301E+02 -0.10545669482E+03  0.49983395428E+02  0.11790477837E+03  0.41800000000E+01 0. -1.
         -5    1    3    3    0  502 -0.10380017702E+03 -0.68832168855E+02  0.44595599412E+02  0.13235778823E+03  0.41800000000E+01 0. -1.
        -11    1    1    2    0    0  0.12424234435E+02  0.12510406474E+03 -0.61301173848E+02  0.13986859022E+03  0.00000000000E+00 0.  1.
         11    1    1    2    0    0  0.75109103287E+02  0.49184798937E+02 -0.80945885340E+02  0.12088324200E+03  0.00000000000E+00 0. -1.
</event>
<event>
 7    1  0.2644565E-009  0.1031013E+03  0.7561462E-02  0.1273906E+00
          1   -1    0    0  501    0  0.00000000000E+00  0.00000000000E+00  0.20392313965E+03  0.20392313965E+03  0.00000000000E+00 0. -1.
         -1   -1    0    0    0  501 -0.00000000000E+00 -0.00000000000E+00 -0.65637877200E+02  0.65637877200E+02  0.00000000000E+00 0.  1.
         25    2    1    2    0    0 -0.21606774122E+02  0.32695519419E+02  0.91519741981E+02  0.15985964262E+03  0.12507354832E+03 0.  0.
          5    1    3    3  502    0  0.46825627677E+02  0.30739512732E+02  0.17237649378E+02  0.58755136000E+02  0.41800000000E+01 0. -1.
         -5    1    3    3    0  502 -0.68432401799E+02  0.19560066867E+01  0.74282092603E+02  0.10110450662E+03  0.41800000000E+01 0. -1.
        -11    1    1    2    0    0  0.15803924412E+02  0.21642240340E+02 -0.12080126816E+02  0.29395238690E+02  0.00000000000E+00 0.  1.
         11    1    1    2    0    0  0.58028497106E+01 -0.54337759759E+02  0.58845647288E+02  0.80306135539E+02  0.00000000000E+00 0. -1.
</event>
<event>
 7    1  0.2644565E-009  0.7351199E+02  0.7561462E-02  0.1348542E+00
         -3   -1    0    0    0  501 -0.00000000000E+00  0.00000000000E+00  0.27473786816E+02  0.27473786816E+02  0.00000000000E+00 0.  1.
          3   -1    0    0  501    0  0.00000000000E+00 -0.00000000000E+00 -0.57518310423E+03  0.57518310423E+03  0.00000000000E+00 0. -1.
         25    2    1    2    0    0  0.15442180313E+02  0.62686684818E+02 -0.28273149308E+03  0.31583696581E+03  0.12509120833E+03 0.  0.
          5    1    3    3  502    0  0.24871496126E+02  0.41882370864E+02 -0.21219401329E+02  0.53295963276E+02  0.41800000000E+01 0.  1.
         -5    1    3    3    0  502 -0.94293158138E+01  0.20804313954E+02 -0.26151209175E+03  0.26254100253E+03  0.41800000000E+01 0.  1.
        -11    1    1    2    0    0 -0.28228216226E+02 -0.42715948596E+02 -0.25661866790E+03  0.26167656596E+03  0.00000000000E+00 0. -1.
         11    1    1    2    0    0  0.12786035913E+02 -0.19970736222E+02 -0.83591564240E+01  0.25143359278E+02  0.00000000000E+00 0.  1.
</event>
<event>
 7    1  0.2644565E-009  0.1154817E+03  0.7561462E-02  0.1250743E+00
          2   -1    0    0  501    0  0.00000000000E+00  0.00000000000E+00  0.49247490471E+03  0.49247490471E+03  0.00000000000E+00 0. -1.
         -2   -1    0    0    0  501 -0.00000000000E+00 -0.00000000000E+00 -0.42541333090E+02  0.42541333090E+02  0.00000000000E+00 0.  1.
         25    2    1    2    0    0 -0.42852103832E+02  0.31731286209E+02  0.11355116416E+03  0.17714876159E+03  0.12507853342E+03 0.  0.
          5    1    3    3  502    0 -0.14762687480E+02 -0.43412763449E+02  0.11843039036E+02  0.47542979981E+02  0.41800000000E+01 0. -1.
         -5    1    3    3    0  502 -0.28089416352E+02  0.75144049658E+02  0.10170812513E+03  0.12960578161E+03  0.41800000000E+01 0. -1.
        -11    1    1    2    0    0  0.38602958300E+02  0.26101492821E+02  0.62763229834E+02  0.78170962232E+02  0.00000000000E+00 0.  1.
         11    1    1    2    0    0  0.42491455314E+01 -0.57832779030E+02  0.27361917762E+03  0.27969651397E+03  0.00000000000E+00 0. -1.
</event>
<event>
 7    1  0.2644565E-009  0.8873482E+02  0.7561462E-02  0.1305945E+00
         -1   -1    0    0    0  501 -0.00000000000E+00  0.00000000000E+00  0.10948997815E+03  0.10948997815E+03  0.00000000000E+00 0.  1.
          1   -1    0    0  501    0  0.00000000000E+00 -0.00000000000E+00 -0.14462253834E+03  0.14462253834E+03  0.00000000000E+00 0. -1.
         25    2    1    2    0    0  0.77316413361E+01  0.59583259148E+01 -0.83409737344E+02  0.15066693189E+03  0.12509220662E+03 0.  0.
          5    1    3    3  502    0  0.49311781503E+02  0.81178868890E+01  0.73873157957E+01  0.50691189740E+02  0.41800000000E+01 0. -1.
         -5    1    3    3    0  502 -0.41580140167E+02 -0.21595609742E+01 -0.90797053139E+02  0.99975742151E+02  0.41800000000E+01 0. -1.
        -11    1    1    2    0    0  0.12976358211E+02  0.36226646817E+02  0.36751999345E+01  0.38655696949E+02  0.00000000000E+00 0. -1.
         11    1    1    2    0    0 -0.20707999547E+02 -0.42184972732E+02  0.44601977216E+02  0.64789887646E+02  0.00000000000E+00 0.  1.
</event>
<event>
 7    1  0.2644565E-009  0.1262857E+03  0.7561462E-02  0.1233074E+00
         -1   -1    0    0    0  501 -0.00000000000E+00  0.00000000000E+00  0.24329271038E+03  0.24329271038E+03  0.00000000000E+00 0.  1.
          1   -1    0    0  501    0  0.00000000000E+00 -0.00000000000E+00 -0.99060474838E+02  0.99060474838E+02  0.00000000000E+00 0. -1.
         25    2    1    2    0    0 -0.95782146980E+02  0.55502914317E+02  0.87304272615E+02  0.18848809587E+03  0.12510368935E+03 0.  0.
          5    1    3    3  502    0 -0.80022003054E+02  0.49136397203E+02  0.11938193612E+03  0.15194546908E+03  0.41800000000E+01 0.  1.
         -5    1    3    3    0  502 -0.15760143927E+02  0.63665171143E+01 -0.32077663504E+02  0.36542626789E+02  0.41800000000E+01 0.  1.
        -11    1    1    2    0    0  0.10726144551E+03 -0.65643387666E+02  0.42279307148E+02  0.13267106636E+03  0.00000000000E+00 0. -1.
         11    1    1    2    0    0 -0.11479298525E+02  0.10140473348E+02  0.14648655784E+02  0.21194022993E+02  0.00000000000E+00 0.  1.
</event>
<event>
 7    1  0.2644565E-009  0.1141784E+03  0.7561462E-02  0.1253022E+00
         -4   -1    0    0    0  501 -0.00000000000E+00  0.00000000000E+00  0.10939366448E+04  0.10939366448E+04  0.00000000000E+00 0. -1.
          4   -1    0    0  501    0  0.00000000000E+00 -0.00000000000E+00 -0.19233997596E+02  0.19233997596E+02  0.00000000000E+00 0.  1.
         25    2    1    2    0    0  0.41868375194E+02  0.48009333103E+02  0.85544925399E+03  0.86689020246E+03  0.12508932833E+03 0.  0.
          5    1    3    3  502    0  0.73673162322E+02  0.29032297949E+02  0.76448158944E+03  0.76858323047E+03  0.41800000000E+01 0. -1.
         -5    1    3    3    0  502 -0.31804787127E+02  0.18977035155E+02  0.90967664550E+02  0.98306971987E+02  0.41800000000E+01 0. -1.
        -11    1    1    2    0    0  0.13660798192E+02 -0.54218368642E+02  0.11980993549E+03  0.13221448313E+03  0.00000000000E+00 0.  1.
         11    1    1    2    0    0 -0.55529173386E+02  0.62090355387E+01  0.99443457700E+02  0.11406595679E+03  0.00000000000E+00 0. -1.
</event>
<event>
 7    1  0.2644565E-009  0.1142107E+03  0.7561462E-02  0.1252965E+00
         -2   -1    0    0    0  501 -0.00000000000E+00  0.00000000000E+00  0.37763608225E+02  0.37763608225E+02  0.00000000000E+00 0. -1.
          2   -1    0    0  501    0  0.00000000000E+00 -0.00000000000E+00 -0.61562709219E+03  0.61562709219E+03  0.00000000000E+00 0.  1.
         25    2    1    2    0    0  0.48680531588E+00  0.40795192204E+02 -0.10049090649E+03  0.16555849152E+03  0.12508679842E+03 0.  0.
          5    1    3    3  502    0 -0.28529799573E+02  0.76534994310E+02 -0.45043400694E+02  0.93369883602E+02  0.41800000000E+01 0.  1.
         -5    1    3    3    0  502  0.29016604889E+02 -0.35739802106E+02 -0.55447505796E+02  0.72188607916E+02  0.41800000000E+01 0.  1.
        -11    1    1    2    0    0 -0.19894539515E+02  0.24920799833E+02 -0.14339754502E+03  0.14690028892E+03  0.00000000000E+00 0. -1.
         11    1    1    2    0    0  0.19407734199E+02 -0.65715992037E+02 -0.33397503245E+03  0.34093191998E+03  0.00000000000E+00 0.  1.
</event>
<event>
 7    1  0.2644565E-009  0.1070222E+03  0.7561462E-02  0.1266186E+00
         -2   -1    0    0    0  501 -0.00000000000E+00  0.00000000000E+00  0.66222524591E+03  0.66222524591E+03  0.00000000000E+00 0.  1.
          2   -1    0    0  501    0  0.00000000000E+00 -0.00000000000E+00 -0.19092682172E+02  0.19092682172E+02  0.00000000000E+00 0. -1.
         25    2    1    2    0    0 -0.46356201013E+02 -0.17909391623E+02  0.44315499288E+03  0.46314514693E+03  0.12508971073E+03 0.  0.
          5    1    3    3  502    0  0.34209888496E+02  0.21318855260E+02  0.19771417021E+03  0.20182461585E+03  0.41800000000E+01 0.  1.
         -5    1    3    3    0  502 -0.80566089509E+02 -0.39228246882E+02  0.24544082267E+03  0.26132053109E+03  0.41800000000E+01 0.  1.
        -11    1    1    2    0    0  0.34478350399E+02  0.43555198947E+02  0.10134605209E+03  0.11557177110E+03  0.00000000000E+00 0.  1.
         11    1    1    2    0    0  0.11877850614E+02 -0.25645807324E+02  0.98631518775E+02  0.10260101006E+03  0.00000000000E+00 0. -1.
</event>
<event>
 7    1  0.2644565E-009  0.1117733E+03  0.7561462E-02  0.1257321E+00
          2   -1    0    0  501    0  0.00000000000E+00  0.00000000000E+00  0.49089575278E+03  0.49089575278E+03  0.00000000000E+00 0. -1.
         -2   -1    0    0    0  501 -0.00000000000E+00 -0.00000000000E+00 -0.45100297850E+02  0.45100297850E+02  0.00000000000E+00 0.  1.
         25    2    1    2    0    0  0.12311506035E+02  0.64780939559E+02  0.37821845968E+03  0.40378871733E+03  0.12509189300E+03 0.  0.
          5    1    3    3  502    0  0.49501538225E+02 -0.97552434354E+01  0.21016811496E+03  0.21617973080E+03  0.41800000000E+01 0. -1.
         -5    1    3    3    0  502 -0.37190032191E+02  0.74536182994E+02  0.16805034472E+03  0.18760898654E+03  0.41800000000E+01 0. -1.
        -11    1    1    2    0    0 -0.37044266345E+02 -0.38541162757E+02 -0.23731260677E+01  0.53510098328E+02  0.00000000000E+00 0.  1.
         11    1    1    2    0    0  0.24732760310E+02 -0.26239776802E+02  0.69950121314E+02  0.78697234964E+02  0.00000000000E+00 0. -1.
</event>
<event>
 7    1  0.2644565E-009  0.9315595E+02  0.7561462E-02  0.1295384E+00
          2   -1    0    0  501    0  0.00000000000E+00  0.00000000000E+00  0.10890375543E+03  0.10890375543E+03  0.00000000000E+00 0.  1.
         -2   -1    0    0    0  501 -0.00000000000E+00 -0.00000000000E+00 -0.13663126258E+03  0.13663126258E+03  0.00000000000E+00 0. -1.
         25    2    1    2    0    0 -0.24809903471E+02  0.23971230836E+02 -0.59729909190E+02  0.14285069015E+03  0.12509399029E+03 0.  0.
          5    1    3    3  502    0 -0.10440186447E+02  0.74117232688E+02 -0.48623385614E+02  0.89353610464E+02  0.41800000000E+01 0.  1.
         -5    1    3    3    0  502 -0.14369717024E+02 -0.50146001852E+02 -0.11106523576E+02  0.53497079687E+02  0.41800000000E+01 0.  1.
        -11    1    1    2    0    0 -0.12598040628E+02 -0.16680076532E+02  0.54539175909E+02  0.58407681769E+02  0.00000000000E+00 0.  1.
         11    1    1    2    0    0  0.37407944099E+02 -0.72911543034E+01 -0.22536773866E+02  0.44276646091E+02  0.00000000000E+00 0. -1.
</event>
<event>
 7    1  0.2644565E-009  0.9903984E+02  0.7561462E-02  0.1282328E+00
          2   -1    0    0  501    0  0.00000000000E+00  0.00000000000E+00  0.53389410302E+03  0.53389410302E+03  0.00000000000E+00 0. -1.
         -2   -1    0    0    0  501 -0.00000000000E+00 -0.00000000000E+00 -0.61950385065E+02  0.61950385065E+02  0.00000000000E+00 0.  1.
         25    2    1    2    0    0 -0.35487046962E+02 -0.47001665043E+02  0.45892803579E+03  0.47930188767E+03  0.12508745133E+03 0.  0.
          5    1    3    3  502    0  0.20302997048E+02  0.26637976466E+02  0.51977316300E+02  0.61975053764E+02  0.41800000000E+01 0.  1.
         -5    1    3    3    0  502 -0.55790044010E+02 -0.73639641509E+02  0.40695071949E+03  0.41732683391E+03  0.41800000000E+01 0.  1.
        -11    1    1    2    0    0 -0.60881792367E+01  0.23100817446E+02 -0.39036913644E+02  0.45766738140E+02  0.00000000000E+00 0.  1.
         11    1    1    2    0    0  0.41575226199E+02  0.23900847597E+02  0.52052595815E+02  0.70775862272E+02  0.00000000000E+00 0. -1.
</event>
<event>
 7    1  0.2644565E-009  0.1125901E+03  0.7561462E-02  0.1255847E+00
          4   -1    0    0  501    0  0.00000000000E+00  0.00000000000E+00  0.14683641745E+02  0.14683641745E+02  0.00000000000E+00 0.  1.
         -4   -1    0    0    0  501 -0.00000000000E+00 -0.00000000000E+00 -0.95318198751E+03  0.95318198751E+03  0.00000000000E+00 0. -1.
         25    2    1    2    0    0 -0.87770675324E+01  0.34644406563E+02 -0.61297501673E+03  0.62662777331E+03  0.12508686312E+03 0.  0.
          5    1    3    3  502    0 -0.60618647714E+02 -0.77105520946E+01 -0.34438041531E+03  0.34978481373E+03  0.41800000000E+01 0. -1.
         -5    1    3    3    0  502  0.51841580182E+02  0.42354958658E+02 -0.26859460142E+03  0.27684295958E+03  0.41800000000E+01 0. -1.
        -11    1    1    2    0    0 -0.38622616459E+02 -0.83072630727E+00 -0.79103177513E+02  0.88032433233E+02  0.00000000000E+00 0.  1.
         11    1    1    2    0    0  0.47399683992E+02 -0.33813680256E+02 -0.24642015152E+03  0.25320542271E+03  0.00000000000E+00 0. -1.
</event>
<event>
 7    1  0.2847915E-009  0.1438860E+03  0.7561462E-02  0.1208194E+00
          3   -1    0    0  501    0  0.00000000000E+00  0.00000000000E+00  0.80424142474E+03  0.80424142474E+03  0.00000000000E+00 0. -1.
         -3   -1    0    0    0  501 -0.00000000000E+00 -0.00000000000E+00 -0.34099043513E+02  0.34099043513E+02  0.00000000000E+00 0.  1.
         25    2    1    2    0    0  0.67514346708E+02  0.10302418797E+03  0.45941214369E+03  0.49181285600E+03  0.12509275455E+03 0.  0.
          5    1    3    3  502    0 -0.22351253819E+02  0.40910798363E+02  0.51884431626E+02  0.69876595617E+02  0.41800000000E+01 0. -1.
         -5    1    3    3    0  502  0.89865600527E+02  0.62113389606E+02  0.40752771207E+03  0.42193626038E+03  0.41800000000E+01 0. -1.
        -11    1    1    2    0    0 -0.33675982145E+02 -0.14116751355E+02  0.18659068356E+03  0.19013005453E+03  0.00000000000E+00 0. -1.
         11    1    1    2    0    0 -0.33838364562E+02 -0.88907436613E+02  0.12413955398E+03  0.15639755773E+03  0.00000000000E+00 0.  1.
</event>
<event>
 7    1  0.2644565E-009  0.1228050E+03  0.7561462E-02  0.1238540E+00
          2   -1    0    0  501    0  0.00000000000E+00  0.00000000000E+00  0.19315386605E+04  0.19315386605E+04  0.00000000000E+00 0. -1.
         -2   -1    0    0    0  501 -0.00000000000E+00 -0.00000000000E+00 -0.18788567835E+02  0.18788567835E+02  0.00000000000E+00 0.  1.
         25    2    1    2    0    0  0.71370149461E+02 -0.83883246070E+02  0.15643386938E+04  0.15731917558E+04  0.12508658714E+03 0.  0.
          5    1    3    3  502    0  0.52484233849E+02 -0.48184739314E+02  0.14517912838E+04  0.14535445532E+04  0.41800000000E+01 0. -1.
         -5    1    3    3    0  502  0.18885915612E+02 -0.35698506755E+02  0.11254740998E+03  0.11964720258E+03  0.41800000000E+01 0. -1.
        -11    1    1    2    0    0 -0.51091854538E+02  0.40317975939E+01  0.69776797830E+02  0.86576177482E+02  0.00000000000E+00 0.  1.
         11    1    1    2    0    0 -0.20278294923E+02  0.79851448476E+02  0.27863460106E+03  0.29055929512E+03  0.00000000000E+00 0. -1.
</event>
<event>
 7    1  0.2644565E-009  0.1122018E+03  0.7561462E-02  0.1256546E+00
          2   -1    0    0  501    0  0.00000000000E+00  0.00000000000E+00  0.19991881910E+03  0.19991881910E+03  0.00000000000E+00 0. -1.
         -2   -1    0    0    0  501 -0.00000000000E+00 -0.00000000000E+00 -0.80283878057E+02  0.80283878057E+02  0.00000000000E+00 0.  1.
         25    2    1    2    0    0  0.14397720261E+02 -0.62486946132E+02  0.49325553804E+02  0.14897432349E+03  0.12509366897E+03 0.  0.
          5    1    3    3  502    0 -0.44826295409E+02 -0.64378999811E+02  0.42117746459E+02  0.89137137847E+02  0.41800000000E+01 0.  1.
         -5    1    3    3    0  502  0.59224015670E+02  0.18920536791E+01  0.72078073446E+01  0.59837185645E+02  0.41800000000E+01 0.  1.
        -11    1    1    2    0    0  0.74067249052E+00  0.69679165845E+02  0.84317295022E+02  0.10938528689E+03  0.00000000000E+00 0. -1.
         11    1    1    2    0    0 -0.15138392752E+02 -0.71922197129E+01 -0.14007907780E+02  0.21843086775E+02  0.00000000000E+00 0.  1.
</event>
<event>
 7    1  0.2644565E-009  0.1796177E+03  0.7561462E-02  0.1168174E+00
          2   -1    0    0  501    0  0.00000000000E+00  0.00000000000E+00  0.37520581981E+03  0.37520581981E+03  0.00000000000E+00 0. -1.
         -2   -1    0    0    0  501 -0.00000000000E+00 -0.00000000000E+00 -0.96749516883E+02  0.96749516883E+02  0.00000000000E+00 0.  1.
         25    2    1    2    0    0  0.10487246723E+03 -0.11515663669E+03  0.16889929798E+03  0.26159880479E+03  0.12509067292E+03 0.  0.
          5    1    3    3  502    0 -0.14279932117E+02 -0.42143507415E+02  0.91418072210E+02  0.10175818397E+03  0.41800000000E+01 0. -1.
         -5    1    3    3    0  502  0.11915239935E+03 -0.73013129276E+02  0.77481225774E+02  0.15984062082E+03  0.41800000000E+01 0. -1.
        -11    1    1    2    0    0 -0.94683239508E+02  0.46787837859E+02  0.89354050868E+02  0.13834075329E+03  0.00000000000E+00 0. -1.
         11    1    1    2    0    0 -0.10189227723E+02  0.68368798831E+02  0.20202954075E+02  0.72015778608E+02  0.00000000000E+00 0.  1.
</event>
<event>
 7    1  0.2644565E-009  0.1427795E+03  0.7561462E-02  0.1209637E+00
          1   -1    0    0  501    0  0.00000000000E+00  0.00000000000E+00  0.10496585292E+04  0.10496585292E+04  0.00000000000E+00 0. -1.
         -1   -1    0    0    0  501 -0.00000000000E+00 -0.00000000000E+00 -0.29844214875E+02  0.29844214875E+02  0.00000000000E+00 0.  1.
         25    2    1    2    0    0 -0.34777729527E+02  0.12520615219E+03  0.69128899390E+03  0.71443198625E+03  0.12508604588E+03 0.  0.
          5    1    3    3  502    0  0.10412926284E+02  0.10525694280E+03  0.26638755030E+03  0.28664830785E+03  0.41800000000E+01 0. -1.
         -5    1    3    3    0  502 -0.45190655811E+02  0.19949209388E+02  0.42490144360E+03  0.42778367840E+03  0.41800000000E+01 0. -1.
        -11    1    1    2    0    0  0.72171003914E+01 -0.37797260500E+02  0.21855047767E+03  0.22191221402E+03  0.00000000000E+00 0. -1.
         11    1    1    2    0    0  0.27560629136E+02 -0.87408891689E+02  0.10997484273E+03  0.14315854378E+03  0.00000000000E+00 0.  1.
</event>
<event>
 7    1  0.2644565E-009  0.1133572E+03  0.7561462E-02  0.1254476E+00
          1   -1    0    0  501    0  0.00000000000E+00  0.00000000000E+00  0.41545401057E+03  0.41545401057E+03  0.00000000000E+00 0. -1.
         -1   -1    0    0    0  501 -0.00000000000E+00 -0.00000000000E+00 -0.51847333258E+02  0.51847333258E+02  0.00000000000E+00 0.  1.
         25    2    1    2    0    0  0.82481765541E+02  0.38527158354E+02  0.24149103235E+03  0.28679776878E+03  0.12508979932E+03 0.  0.
          5    1    3    3  502    0 -0.15039462268E+02 -0.35713841555E+01  0.13633463273E+03  0.13727179132E+03  0.41800000000E+01 0.  1.
         -5    1    3    3    0  502  0.97521227809E+02  0.42098542509E+02  0.10515639962E+03  0.14952597746E+03  0.41800000000E+01 0.  1.
        -11    1    1    2    0    0 -0.59067846100E+02 -0.50850088344E+02  0.28125113710E+02  0.82859905556E+02  0.00000000000E+00 0.  1.
         11    1    1    2    0    0 -0.23413919442E+02  0.12322929991E+02  0.93990531247E+02  0.97643669488E+02  0.00000000000E+00 0. -1.
</event>
<event>
 7    1  0.2644565E-009  0.7557826E+02  0.7561462E-02  0.1342090E+00
          1   -1    0    0  501    0  0.00000000000E+00  0.00000000000E+00  0.87417781256E+02  0.87417781256E+02  0.00000000000E+00 0. -1.
         -1   -1    0    0    0  501 -0.00000000000E+00 -0.00000000000E+00 -0.14210734360E+03  0.14210734360E+03  0.00000000000E+00 0.  1.
         25    2    1    2    0    0  0.12412568438E+02 -0.10248536065E+02 -0.53776000813E+02  0.13710597040E+03  0.12508830684E+03 0.  0.
          5    1    3    3  502    0  0.37932463231E+02  0.13534654541E+01 -0.86056425262E+02  0.94148204255E+02  0.41800000000E+01 0.  1.
         -5    1    3    3    0  502 -0.25519894793E+02 -0.11602001519E+02  0.32280424450E+02  0.42957766145E+02  0.41800000000E+01 0.  1.
        -11    1    1    2    0    0  0.34719230633E+02 -0.50279576839E+01  0.17946302420E+02  0.39405267475E+02  0.00000000000E+00 0. -1.
         11    1    1    2    0    0 -0.47131799071E+02  0.15276493749E+02 -0.18859863956E+02  0.53013886986E+02  0.00000000000E+00 0.  1.
</event>
<event>
 7    1  0.2644565E-009  0.1046566E+03  0.7561462E-02  0.1270798E+00
         -2   -1    0    0    0  501 -0.00000000000E+00  0.00000000000E+00  0.25865120574E+03  0.25865120574E+03  0.00000000000E+00 0.  1.
          2   -1    0    0  501    0  0.00000000000E+00 -0.00000000000E+00 -0.57175225558E+02  0.57175225558E+02  0.00000000000E+00 0. -1.
         25    2    1    2    0    0 -0.22796263533E+02  0.48222675377E+02  0.15255838708E+03  0.20437321771E+03  0.12509698076E+03 0.  0.
          5    1    3    3  502    0 -0.55043138931E+02 -0.17131809757E+02  0.95887441855E+02  0.11196034992E+03  0.41800000000E+01 0. -1.
         -5    1    3    3    0  502  0.32246875398E+02  0.65354485134E+02  0.56670945229E+02  0.92412867790E+02  0.41800000000E+01 0. -1.
        -11    1    1    2    0    0 -0.17821361786E+02 -0.27882892474E+02 -0.12229643598E+02  0.35279183822E+02  0.00000000000E+00 0. -1.
         11    1    1    2    0    0  0.40617625319E+02 -0.20339782904E+02  0.61147236702E+02  0.76174029770E+02  0.00000000000E+00 0.  1.
</event>
<event>
 7    1  0.2644565E-009  0.8424862E+02  0.7561462E-02  0.1317409E+00
          3   -1    0    0  501    0  0.00000000000E+00  0.00000000000E+00  0.20980972496E+03  0.20980972496E+03  0.00000000000E+00 0. -1.
         -3   -1    0    0    0  501 -0.00000000000E+00 -0.00000000000E+00 -0.67425192297E+02  0.67425192297E+02  0.00000000000E+00 0.  1.
         25    2    1    2    0    0  0.53897081866E+01 -0.26309915397E+01  0.25411539708E+02  0.12778583637E+03  0.12508997784E+03 0.  0.
          5    1    3    3  502    0 -0.41099190791E+02 -0.78059564400E+01 -0.32562103963E+02  0.53177433692E+02  0.41800000000E+01 0.  1.
         -5    1    3    3    0  502  0.46488898977E+02  0.51749649003E+01  0.57973643672E+02  0.74608402680E+02  0.41800000000E+01 0.  1.
        -11    1    1    2    0    0  0.30534828194E+02 -0.20488431139E+02  0.16564860903E+02  0.40330461938E+02  0.00000000000E+00 0.  1.
         11    1    1    2    0    0 -0.35924536380E+02  0.23119422679E+02  0.10040813205E+03  0.10911861895E+03  0.00000000000E+00 0. -1.
</event>
<event>
 7    1  0.2644565E-009  0.2810623E+03  0.7561462E-02  0.1095110E+00
         -1   -1    0    0    0  501 -0.00000000000E+00  0.00000000000E+00  0.17258984728E+03  0.17258984728E+03  0.00000000000E+00 0.  1.
          1   -1    0    0  501    0  0.00000000000E+00 -0.00000000000E+00 -0.56262566378E+03  0.56262566378E+03  0.00000000000E+00 0. -1.
         25    2    1    2    0    0  0.17577179404E+03  0.21403962499E+03 -0.90895427471E+02  0.31720605828E+03  0.12509604323E+03 0.  0.
          5    1    3    3  502    0  0.32229372258E+02  0.30055298123E+02 -0.70076214260E+02  0.82886679186E+02  0.41800000000E+01 0.  1.
         -5    1    3    3    0  502  0.14354242178E+03  0.18398432686E+03 -0.20819213211E+02  0.23431937910E+03  0.41800000000E+01 0.  1.
        -11    1    1    2    0    0 -0.63788111076E+02 -0.12880339564E+03 -0.19814993368E+03  0.24479100078E+03  0.00000000000E+00 0. -1.
         11    1    1    2    0    0 -0.11198368296E+03 -0.85236229343E+02 -0.10099045535E+03  0.17321845200E+03  0.00000000000E+00 0.  1.
</event>
<event>
 7    1  0.2644565E-009  0.9388356E+02  0.7561462E-02  0.1293711E+00
          1   -1    0    0  501    0  0.00000000000E+00  0.00000000000E+00  0.13521406418E+03  0.13521406418E+03  0.00000000000E+00 0. -1.
         -1   -1    0    0    0  501 -0.00000000000E+00 -0.00000000000E+00 -0.17760322690E+03  0.17760322690E+03  0.00000000000E+00 0.  1.
         25    2    1    2    0    0 -0.30269454058E+02  0.71518620854E+02 -0.10024830326E+03  0.17812556325E+03  0.12509133062E+03 0.  0.
          5    1    3    3  502    0  0.13876330802E+02  0.35981803794E+01 -0.95727917865E+02  0.96885531001E+02  0.41800000000E+01 0. -1.
         -5    1    3    3    0  502 -0.44145784860E+02  0.67920440474E+02 -0.45203853976E+01  0.81240032246E+02  0.41800000000E+01 0. -1.
        -11    1    1    2    0    0  0.25492285290E+02 -0.62102413870E+01  0.63756058307E+02  0.68943880644E+02  0.00000000000E+00 0. -1.
         11    1    1    2    0    0  0.47771687684E+01 -0.65308379467E+02 -0.58969177618E+01  0.65747847182E+02  0.00000000000E+00 0.  1.
</event>
<event>
 7    1  0.2644565E-009  0.1650246E+03  0.7561462E-02  0.1183138E+00
          2   -1    0    0  501    0  0.00000000000E+00  0.00000000000E+00  0.67526641094E+03  0.67526641094E+03  0.00000000000E+00 0. -1.
         -2   -1    0    0    0  501 -0.00000000000E+00 -0.00000000000E+00 -0.48956226979E+02  0.48956226979E+02  0.00000000000E+00 0.  1.
         25    2    1    2    0    0  0.56587485274E+01  0.13901445297E+03  0.41757483911E+03  0.45757287744E+03  0.12508857799E+03 0.  0.
          5    1    3    3  502    0  0.85960089653E+01 -0.20569249270E+02  0.94679212419E+02  0.97358158620E+02  0.41800000000E+01 0.  1.
         -5    1    3    3    0  502 -0.29372604379E+01  0.15958370224E+03  0.32289562669E+03  0.36021471882E+03  0.41800000000E+01 0.  1.
        -11    1    1    2    0    0  0.82034075525E+01 -0.13183690999E+03  0.12632437508E+03  0.18277339650E+03  0.00000000000E+00 0.  1.
         11    1    1    2    0    0 -0.13862156080E+02 -0.71775429832E+01  0.82410969775E+02  0.83876363976E+02  0.00000000000E+00 0. -1.
</event>
<event>
 7    1  0.2644565E-009  0.1994926E+03  0.7561462E-02  0.1150168E+00
          2   -1    0    0  501    0  0.00000000000E+00  0.00000000000E+00  0.37174073125E+03  0.37174073125E+03  0.00000000000E+00 0.  1.
         -2   -1    0    0    0  501 -0.00000000000E+00 -0.00000000000E+00 -0.33563506935E+03  0.33563506935E+03  0.00000000000E+00 0. -1.
         25    2    1    2    0    0 -0.88051175909E+02 -0.14709798462E+03  0.30878220628E+03  0.37467971501E+03  0.12509041235E+03 0.  0.
          5    1    3    3  502    0 -0.64383017511E+02 -0.50865129061E+01  0.66328754033E+02  0.92671579079E+02  0.41800000000E+01 0. -1.
         -5    1    3    3    0  502 -0.23668158398E+02 -0.14201147172E+03  0.24245345225E+03  0.28200813593E+03  0.41800000000E+01 0. -1.
        -11    1    1    2    0    0 -0.90581568442E+01 -0.45677284800E+01 -0.19779119622E+02  0.22228988324E+02  0.00000000000E+00 0. -1.
         11    1    1    2    0    0  0.97109332754E+02  0.15166571310E+03 -0.25289742476E+03  0.31046709727E+03  0.00000000000E+00 0.  1.
</event>
<event>
 7    1  0.2644565E-009  0.1110373E+03  0.7561462E-02  0.1258661E+00
         -2   -1    0    0    0  501 -0.00000000000E+00  0.00000000000E+00  0.50964882209E+02  0.50964882209E+02  0.00000000000E+00 0.  1.
          2   -1    0    0  501    0  0.00000000000E+00 -0.00000000000E+00 -0.34292985299E+03  0.34292985299E+03  0.00000000000E+00 0. -1.
         25    2    1    2    0    0 -0.59113983886E+02  0.41084345411E+02 -0.12823827921E+03  0.19306861822E+03  0.12509216025E+03 0.  0.
          5    1    3    3  502    0 -0.78290915330E+02  0.31994264492E+02 -0.14348235395E+03  0.16660659854E+03  0.41800000000E+01 0.  1.
         -5    1    3    3    0  502  0.19176931443E+02  0.90900809184E+01  0.15244074735E+02  0.26462019674E+02  0.41800000000E+01 0.  1.
        -11    1    1    2    0    0  0.82630755497E+02 -0.22081093050E+02 -0.11218205872E+03  0.14106817757E+03  0.00000000000E+00 0.  1.
         11    1    1    2    0    0 -0.23516771611E+02 -0.19003252361E+02 -0.51544632850E+02  0.59757939414E+02  0.00000000000E+00 0. -1.
</event>
<event>
 7    1  0.2686729E-009  0.9950554E+02  0.7561462E-02  0.1281339E+00
         -1   -1    0    0    0  501 -0.00000000000E+00  0.00000000000E+00  0.10553426269E+02  0.10553426269E+02  0.00000000000E+00 0.  1.
          1   -1    0    0  501    0  0.00000000000E+00 -0.00000000000E+00 -0.21815665811E+04  0.21815665811E+04  0.00000000000E+00 0. -1.
         25    2    1    2    0    0 -0.12313953490E+01 -0.69983238908E+01 -0.19328552588E+04  0.19369118780E+04  0.12509068272E+03 0.  0.
          5    1    3    3  502    0 -0.50186315877E+01  0.54376409035E+02 -0.55943634055E+03  0.56211072935E+03  0.41800000000E+01 0. -1.
         -5    1    3    3    0  502  0.37872362386E+01 -0.61374732925E+02 -0.13734189182E+04  0.13748011486E+04  0.41800000000E+01 0. -1.
        -11    1    1    2    0    0 -0.38682393682E+02  0.15720469339E+02 -0.64699268492E+02  0.77002961505E+02  0.00000000000E+00 0.  1.
         11    1    1    2    0    0  0.39913789031E+02 -0.87221454479E+01 -0.17345862762E+03  0.17820516791E+03  0.00000000000E+00 0. -1.
</event>
<event>
 7    1  0.2644565E-009  0.1190702E+03  0.7561462E-02  0.1244639E+00
         -2   -1    0    0    0  501 -0.00000000000E+00  0.00000000000E+00  0.57196319754E+02  0.57196319754E+02  0.00000000000E+00 0.  1.
          2   -1    0    0  501    0  0.00000000000E+00 -0.00000000000E+00 -0.39502554810E+03  0.39502554810E+03  0.00000000000E+00 0. -1.
         25    2    1    2    0    0  0.76302307245E+02  0.62640376664E+02 -0.12727550089E+03  0.20394349253E+03  0.12509211062E+03 0.  0.
          5    1    3    3  502    0  0.63273023219E+01  0.27236506632E+02 -0.12200058851E+03  0.12523369373E+03  0.41800000000E+01 0.  1.
         -5    1    3    3    0  502  0.69975004924E+02  0.35403870032E+02 -0.52749123799E+01  0.78709798805E+02  0.41800000000E+01 0.  1.
        -11    1    1    2    0    0 -0.79438620561E+02 -0.11696978068E+02 -0.12149672726E+03  0.14563230571E+03  0.00000000000E+00 0.  1.
         11    1    1    2    0    0  0.31363133160E+01 -0.50943398596E+02 -0.89057000199E+02  0.10264606961E+03  0.00000000000E+00 0. -1.
</event>
<event>
 7    1  0.2644565E-009  0.6698340E+02  0.7561462E-02  0.1370662E+00
         -2   -1    0    0    0  501 -0.00000000000E+00  0.00000000000E+00  0.15530764232E+02  0.15530764232E+02  0.00000000000E+00 0.  1.
          2   -1    0    0  501    0  0.00000000000E+00 -0.00000000000E+00 -0.77294976074E+03  0.77294976074E+03  0.00000000000E+00 0. -1.
         25    2    1    2    0    0  0.20355876260E+01  0.11873869528E+02 -0.43531054064E+03  0.45308732147E+03  0.12509085375E+03 0.  0.
          5    1    3    3  502    0 -0.91475171432E+01  0.24055295980E+02 -0.43525056048E+03  0.43603079837E+03  0.41800000000E+01 0. -1.
         -5    1    3    3    0  502  0.11183104769E+02 -0.12181426452E+02 -0.59980167035E-01  0.17056523101E+02  0.41800000000E+01 0. -1.
        -11    1    1    2    0    0  0.35571004085E+02  0.20638734591E+02 -0.18595185503E+03  0.19044512618E+03  0.00000000000E+00 0. -1.
         11    1    1    2    0    0 -0.37606591711E+02 -0.32512604119E+02 -0.13615660083E+03  0.14494807731E+03  0.00000000000E+00 0.  1.
</event>
<event>
 7    1  0.2644565E-009  0.2155154E+03  0.7561462E-02  0.1137271E+00
         -1   -1    0    0    0  501 -0.00000000000E+00  0.00000000000E+00  0.92774937132E+02  0.92774937132E+02  0.00000000000E+00 0. -1.
          1   -1    0    0  501    0  0.00000000000E+00 -0.00000000000E+00 -0.59757978446E+03  0.59757978446E+03  0.00000000000E+00 0.  1.
         25    2    1    2    0    0  0.85806562464E+02 -0.18634867482E+03 -0.21026530131E+03  0.31929287646E+03  0.12509136363E+03 0.  0.
          5    1    3    3  502    0  0.31310389605E+02 -0.16049244601E+00 -0.78832340871E+02  0.84925712374E+02  0.41800000000E+01 0. -1.
         -5    1    3    3    0  502  0.54496172859E+02 -0.18618818238E+03 -0.13143296044E+03  0.23436716409E+03  0.41800000000E+01 0. -1.
        -11    1    1    2    0    0 -0.34918606450E+02  0.87722828021E+02 -0.21410335828E+03  0.23399754627E+03  0.00000000000E+00 0.  1.
         11    1    1    2    0    0 -0.50887956014E+02  0.98625846801E+02 -0.80436187729E+02  0.13706429886E+03  0.00000000000E+00 0. -1.
</event>
<event>
 7    1  0.2644565E-009  0.1011104E+03  0.7561462E-02  0.1277978E+00
          2   -1    0    0  501    0  0.00000000000E+00  0.00000000000E+00  0.71131601865E+02  0.71131601865E+02  0.00000000000E+00 0.  1.
         -2   -1    0    0    0  501 -0.00000000000E+00 -0.00000000000E+00 -0.19194654090E+03  0.19194654090E+03  0.00000000000E+00 0. -1.
         25    2    1    2    0    0 -0.62485830965E+00 -0.41947137630E+02 -0.59080743332E+02  0.14456082733E+03  0.12508935111E+03 0.  0.
          5    1    3    3  502    0 -0.56591818418E+02 -0.28506338429E+02 -0.22162867622E+01  0.63542344696E+02  0.41800000000E+01 0.  1.
         -5    1    3    3    0  502  0.55966960108E+02 -0.13440799201E+02 -0.56864456569E+02  0.81018482631E+02  0.41800000000E+01 0.  1.
        -11    1    1    2    0    0 -0.34330719622E+02  0.19954693924E+02  0.50159831215E+01  0.40024345167E+02  0.00000000000E+00 0.  1.
         11    1    1    2    0    0  0.34955577932E+02  0.21992443706E+02 -0.66750178823E+02  0.78492970269E+02  0.00000000000E+00 0. -1.
</event>
<event>
 7    1  0.2730641E-009  0.2210599E+03  0.7561462E-02  0.1133095E+00
         -2   -1    0    0    0  501 -0.00000000000E+00  0.00000000000E+00  0.45628622308E+02  0.45628622308E+02  0.00000000000E+00 0.  1.
          2   -1    0    0  501    0  0.00000000000E+00 -0.00000000000E+00 -0.12934961811E+04  0.12934961811E+04  0.00000000000E+00 0. -1.
         25    2    1    2    0    0 -0.91624863434E+02  0.18103928203E+03 -0.85423995507E+03  0.88687293942E+03  0.12508945841E+03 0.  0.
          5    1    3    3  502    0 -0.10938408992E+03  0.12326042164E+03 -0.73333215272E+03  0.75163257599E+03  0.41800000000E+01 0. -1.
         -5    1    3    3    0  502  0.17759226485E+02  0.57778860387E+02 -0.12090780234E+03  0.13524036343E+03  0.41800000000E+01 0. -1.
        -11    1    1    2    0    0  0.92322231137E+02 -0.10176914272E+03 -0.29716493715E+03  0.32739479630E+03  0.00000000000E+00 0. -1.
         11    1    1    2    0    0 -0.69736770270E+00 -0.79270139307E+02 -0.96462666547E+02  0.12485706766E+03  0.00000000000E+00 0.  1.
</event>
<event>
 7    1  0.2644565E-009  0.1055236E+03  0.7561462E-02  0.1269092E+00
         -2   -1    0    0    0  501 -0.00000000000E+00  0.00000000000E+00  0.40600613820E+02  0.40600613820E+02  0.00000000000E+00 0. -1.
          2   -1    0    0  501    0  0.00000000000E+00 -0.00000000000E+00 -0.23768703838E+04  0.23768703838E+04  0.00000000000E+00 0.  1.
         25    2    1    2    0    0  0.43417028043E+01 -0.37277906696E+02 -0.23125682232E+04  0.23162530888E+04  0.12509233297E+03 0.  0.
          5    1    3    3  502    0 -0.52305230401E+02 -0.27365097307E+02 -0.16857623237E+04  0.16868007500E+04  0.41800000000E+01 0.  1.
         -5    1    3    3    0  502  0.56646933205E+02 -0.99128093890E+01 -0.62680589942E+03  0.62945233877E+03  0.41800000000E+01 0.  1.
        -11    1    1    2    0    0  0.39573419525E+02  0.30079484661E+02 -0.27049995868E+02  0.56590928663E+02  0.00000000000E+00 0. -1.
         11    1    1    2    0    0 -0.43915122330E+02  0.71984220344E+01  0.33484490529E+01  0.44626980181E+02  0.00000000000E+00 0.  1.
</event>
<event>
 7    1  0.2644565E-009  0.7420969E+02  0.7561462E-02  0.1346336E+00
          2   -1    0    0  501    0  0.00000000000E+00  0.00000000000E+00  0.15409337593E+03  0.15409337593E+03  0.00000000000E+00 0. -1.
         -2   -1    0    0    0  501 -0.00000000000E+00 -0.00000000000E+00 -0.80743692367E+02  0.80743692367E+02  0.00000000000E+00 0.  1.
         25    2    1    2    0    0  0.13892928746E+02  0.21905391389E+02  0.45512750783E+02  0.13561468385E+03  0.12508825824E+03 0.  0.
          5    1    3    3  502    0  0.19817138817E+02 -0.15761280621E+02 -0.36764294126E+02  0.44835506915E+02  0.41800000000E+01 0.  1.
         -5    1    3    3    0  502 -0.59242100710E+01  0.37666672010E+02  0.82277044910E+02  0.90779176931E+02  0.41800000000E+01 0.  1.
        -11    1    1    2    0    0 -0.41669141379E+02 -0.34310765462E+02  0.39241706496E+02  0.66734230337E+02  0.00000000000E+00 0. -1.
         11    1    1    2    0    0  0.27776212634E+02  0.12405374073E+02 -0.11404773718E+02  0.32488154114E+02  0.00000000000E+00 0.  1.
</event>
<event>
 7    1  0.2644565E-009  0.1081761E+03  0.7561462E-02  0.1263985E+00
          3   -1    0    0  501    0  0.00000000000E+00  0.00000000000E+00  0.17857211375E+03  0.17857211375E+03  0.00000000000E+00 0. -1.
         -3   -1    0    0    0  501 -0.00000000000E+00 -0.00000000000E+00 -0.73674348336E+02  0.73674348336E+02  0.00000000000E+00 0.  1.
         25    2    1    2    0    0 -0.31430240717E+02 -0.12669679825E+02  0.79674428052E+02  0.15213734550E+03  0.12509746836E+03 0.  0.
          5    1    3    3  502    0 -0.67461607984E+01  0.55283015582E+02  0.45612208986E+02  0.72108726975E+02  0.41800000000E+01 0.  1.
         -5    1    3    3    0  502 -0.24684079919E+02 -0.67952695408E+02  0.34062219066E+02  0.80028618521E+02  0.41800000000E+01 0.  1.
        -11    1    1    2    0    0 -0.25239230382E+02  0.18242586509E+02  0.29643816775E+02  0.42994960005E+02  0.00000000000E+00 0.  1.
         11    1    1    2    0    0  0.56669471100E+02 -0.55729066839E+01 -0.44204794176E+01  0.57114156580E+02  0.00000000000E+00 0. -1.
</event>
<event>
 7    1  0.2644565E-009  0.1345759E+03  0.7561462E-02  0.1220820E+00
         -2   -1    0    0    0  501 -0.00000000000E+00  0.00000000000E+00  0.53163930509E+02  0.53163930509E+02  0.00000000000E+00 0.  1.
          2   -1    0    0  501    0  0.00000000000E+00 -0.00000000000E+00 -0.48368806157E+03  0.48368806157E+03  0.00000000000E+00 0. -1.
         25    2    1    2    0    0  0.26864415475E+02 -0.10798717036E+03 -0.16797405037E+03  0.23716124477E+03  0.12508896291E+03 0.  0.
          5    1    3    3  502    0  0.35340625794E+02 -0.26824003415E+02 -0.14585171759E+03  0.15250797656E+03  0.41800000000E+01 0. -1.
         -5    1    3    3    0  502 -0.84762103189E+01 -0.81163166947E+02 -0.22122332775E+02  0.84653268204E+02  0.41800000000E+01 0. -1.
        -11    1    1    2    0    0 -0.32344328512E+02  0.12284930834E+03 -0.21681677637E+03  0.25129190728E+03  0.00000000000E+00 0.  1.
         11    1    1    2    0    0  0.54799130369E+01 -0.14862137982E+02 -0.45733304325E+02  0.48398840035E+02  0.00000000000E+00 0. -1.
</event>
<event>
 7    1  0.2644565E-009  0.1141728E+03  0.7561462E-02  0.1253032E+00
          2   -1    0    0  501    0  0.00000000000E+00  0.00000000000E+00  0.14030870417E+04  0.14030870417E+04  0.00000000000E+00 0. -1.
         -2   -1    0    0    0  501 -0.00000000000E+00 -0.00000000000E+00 -0.33098446690E+02  0.33098446690E+02  0.00000000000E+00 0.  1.
         25    2    1    2    0    0 -0.92523476457E+02  0.15895090227E+02  0.12473429779E+04  0.12571104674E+04  0.12509586402E+03 0.  0.
          5    1    3    3  502    0 -0.56855725974E+02  0.38856608035E+02  0.26469784803E+03  0.27354128156E+03  0.41800000000E+01 0. -1.
         -5    1    3    3    0  502 -0.35667750483E+02 -0.22961517807E+02  0.98264512987E+03  0.98356918586E+03  0.41800000000E+01 0. -1.
        -11    1    1    2    0    0  0.10400551712E+03 -0.16103512712E+02  0.12857024143E+03  0.16615287447E+03  0.00000000000E+00 0.  1.
         11    1    1    2    0    0 -0.11482040660E+02  0.20842248419E+00 -0.59246243000E+01  0.12922146523E+02  0.00000000000E+00 0. -1.
</event>
<event>
 7    1  0.2644565E-009  0.1132172E+03  0.7561462E-02  0.1254726E+00
          1   -1    0    0  501    0  0.00000000000E+00  0.00000000000E+00  0.35380902208E+03  0.35380902208E+03  0.00000000000E+00 0. -1.
         -1   -1    0    0    0  501 -0.00000000000E+00 -0.00000000000E+00 -0.63066036859E+02  0.63066036859E+02  0.00000000000E+00 0.  1.
         25    2    1    2    0    0 -0.38804078640E+02 -0.86167172668E+02  0.10183894288E+03  0.18695634192E+03  0.12510381822E+03 0.  0.
          5    1    3    3  502    0 -0.26862493977E+02 -0.10447163126E+03  0.30425526515E+02  0.11215658868E+03  0.41800000000E+01 0. -1.
         -5    1    3    3    0  502 -0.11941584662E+02  0.18304458588E+02  0.71413416363E+02  0.74799753242E+02  0.41800000000E+01 0. -1.
        -11    1    1    2    0    0  0.19670225611E+02  0.23171421194E+02  0.56064410081E+00  0.30399783840E+02  0.00000000000E+00 0.  1.
         11    1    1    2    0    0  0.19133853029E+02  0.62995751475E+02  0.18834339825E+03  0.19951893318E+03  0.00000000000E+00 0. -1.
</event>
<event>
 7    1  0.2644565E-009  0.8249522E+02  0.7561462E-02  0.1322116E+00
          2   -1    0    0  501    0  0.00000000000E+00  0.00000000000E+00  0.74282931844E+03  0.74282931844E+03  0.00000000000E+00 0. -1.
         -2   -1    0    0    0  501 -0.00000000000E+00 -0.00000000000E+00 -0.21920453277E+02  0.21920453277E+02  0.00000000000E+00 0.  1.
         25    2    1    2    0    0  0.36946019037E+02  0.39830444077E+02  0.50227729857E+03  0.52046337021E+03  0.12509261556E+03 0.  0.
          5    1    3    3  502    0  0.87947820055E+01  0.33538187458E+02  0.26614966052E+02  0.43908849067E+02  0.41800000000E+01 0.  1.
         -5    1    3    3    0  502  0.28151237031E+02  0.62922566189E+01  0.47566233252E+03  0.47655452114E+03  0.41800000000E+01 0.  1.
        -11    1    1    2    0    0 -0.60993898675E+02 -0.87434806995E+01  0.84928648568E+02  0.10492654325E+03  0.00000000000E+00 0.  1.
         11    1    1    2    0    0  0.24047879638E+02 -0.31086963377E+02  0.13370291803E+03  0.13935985826E+03  0.00000000000E+00 0. -1.
</event>
<event>
 7    1  0.2716544E-009  0.1256932E+03  0.7561462E-02  0.1233990E+00
         -1   -1    0    0    0  501 -0.00000000000E+00  0.00000000000E+00  0.11281450432E+03  0.11281450432E+03  0.00000000000E+00 0.  1.
          1   -1    0    0  501    0  0.00000000000E+00 -0.00000000000E+00 -0.16867348523E+03  0.16867348523E+03  0.00000000000E+00 0. -1.
         25    2    1    2    0    0 -0.46302019095E+02  0.51503896354E+02  0.19632821161E+02  0.14432222568E+03  0.12508768463E+03 0.  0.
          5    1    3    3  502    0 -0.35773219516E+02  0.91799090284E+02  0.26004307131E+02  0.10198280542E+03  0.41800000000E+01 0. -1.
         -5    1    3    3    0  502 -0.10528799579E+02 -0.40295193930E+02 -0.63714859700E+01  0.42339420260E+02  0.41800000000E+01 0. -1.
        -11    1    1    2    0    0 -0.19551178260E+02 -0.39367772318E+02 -0.13677042258E+02  0.46034026042E+02  0.00000000000E+00 0. -1.
         11    1    1    2    0    0  0.65853197356E+02 -0.12136124036E+02 -0.61814759815E+02  0.91131737828E+02  0.00000000000E+00 0.  1.
</event>
<event>
 7    1  0.2644565E-009  0.7619462E+02  0.7561462E-02  0.1340211E+00
          2   -1    0    0  501    0  0.00000000000E+00  0.00000000000E+00  0.22504963532E+03  0.22504963532E+03  0.00000000000E+00 0. -1.
         -2   -1    0    0    0  501 -0.00000000000E+00 -0.00000000000E+00 -0.58155174644E+02  0.58155174644E+02  0.00000000000E+00 0.  1.
         25    2    1    2    0    0  0.30348395189E+02  0.52238852035E+01  0.12136876951E+03  0.17698811579E+03  0.12508437493E+03 0.  0.
          5    1    3    3  502    0  0.98709534965E+01  0.27057631135E+02 -0.18105997123E+02  0.34276094546E+02  0.41800000000E+01 0.  1.
         -5    1    3    3    0  502  0.20477441692E+02 -0.21833745931E+02  0.13947476663E+03  0.14271202124E+03  0.41800000000E+01 0.  1.
        -11    1    1    2    0    0 -0.66019663956E+01  0.40768881960E+02  0.74669428763E+01  0.41969547680E+02  0.00000000000E+00 0. -1.
         11    1    1    2    0    0 -0.23746428793E+02 -0.45992767164E+02  0.38058748295E+02  0.64247146502E+02  0.00000000000E+00 0.  1.
</event>
<event>
 7    1  0.2644565E-009  0.1844103E+03  0.7561462E-02  0.1163602E+00
          1   -1    0    0  501    0  0.00000000000E+00  0.00000000000E+00  0.13928356486E+04  0.13928356486E+04  0.00000000000E+00 0. -1.
         -1   -1    0    0    0  501 -0.00000000000E+00 -0.00000000000E+00 -0.32750506817E+02  0.32750506817E+02  0.00000000000E+00 0.  1.
         25    2    1    2    0    0  0.17285266758E+03  0.14539111374E+02  0.89321508347E+03  0.91846079679E+03  0.12509044506E+03 0.  0.
          5    1    3    3  502    0  0.16845394667E+03  0.28970120248E+02  0.57552645187E+03  0.60038668308E+03  0.41800000000E+01 0. -1.
         -5    1    3    3    0  502  0.43987209091E+01 -0.14431008874E+02  0.31768863160E+03  0.31807411370E+03  0.41800000000E+01 0. -1.
        -11    1    1    2    0    0 -0.10328745803E+03  0.18900980332E+02  0.36194675156E+03  0.37687000014E+03  0.00000000000E+00 0. -1.
         11    1    1    2    0    0 -0.69565209547E+02 -0.33440091707E+02  0.10492330672E+03  0.13025535845E+03  0.00000000000E+00 0.  1.
</event>
<event>
 7    1  0.2644565E-009  0.1798426E+03  0.7561462E-02  0.1167955E+00
         -3   -1    0    0    0  501 -0.00000000000E+00  0.00000000000E+00  0.22793602735E+03  0.22793602735E+03  0.00000000000E+00 0.  1.
          3   -1    0    0  501    0  0.00000000000E+00 -0.00000000000E+00 -0.18812251561E+03  0.18812251561E+03  0.00000000000E+00 0. -1.
         25    2    1    2    0    0 -0.15404541624E+03 -0.35583621976E+02  0.11977978217E+03  0.23450383569E+03  0.12509463745E+03 0.  0.
          5    1    3    3  502    0 -0.83637883892E+01  0.37408804823E+02  0.20927873647E+02  0.43872769800E+02  0.41800000000E+01 0. -1.
         -5    1    3    3    0  502 -0.14568162785E+03 -0.72992426799E+02  0.98851908523E+02  0.19063106589E+03  0.41800000000E+01 0. -1.
        -11    1    1    2    0    0  0.10596825170E+03  0.23129292324E+02 -0.74513488704E+02  0.13159215223E+03  0.00000000000E+00 0.  1.
         11    1    1    2    0    0  0.48077164543E+02  0.12454329652E+02 -0.54527817306E+01  0.49962555041E+02  0.00000000000E+00 0. -1.
</event>
<event>
 7    1  0.2644565E-009  0.1167907E+03  0.7561462E-02  0.1248487E+00
          2   -1    0    0  501    0  0.00000000000E+00  0.00000000000E+00  0.10465405158E+03  0.10465405158E+03  0.00000000000E+00 0. -1.
         -2   -1    0    0    0  501 -0.00000000000E+00 -0.00000000000E+00 -0.17594768714E+03  0.17594768714E+03  0.00000000000E+00 0.  1.
         25    2    1    2    0    0  0.27732833130E+02 -0.75924940902E+02 -0.50022768421E+02  0.15711821742E+03  0.12510056035E+03 0.  0.
          5    1    3    3  502    0 -0.21342403463E+02 -0.87890920448E+02 -0.73115326325E+01  0.90836352812E+02  0.41800000000E+01 0. -1.
         -5    1    3    3    0  502  0.49075236593E+02  0.11965979546E+02 -0.42711235788E+02  0.66281864607E+02  0.41800000000E+01 0. -1.
        -11    1    1    2    0    0  0.11429668026E+02  0.29382555254E+02  0.30307639852E+02  0.43732423874E+02  0.00000000000E+00 0.  1.
         11    1    1    2    0    0 -0.39162501156E+02  0.46542385647E+02 -0.51578506987E+02  0.79751097431E+02  0.00000000000E+00 0. -1.
</event>
<event>
 7    1  0.2644565E-009  0.1907278E+03  0.7561462E-02  0.1157807E+00
         -2   -1    0    0    0  501 -0.00000000000E+00  0.00000000000E+00  0.93067934715E+02  0.93067934715E+02  0.00000000000E+00 0. -1.
          2   -1    0    0  501    0  0.00000000000E+00 -0.00000000000E+00 -0.48616299235E+03  0.48616299235E+03  0.00000000000E+00 0.  1.
         25    2    1    2    0    0  0.13186219561E+03 -0.11264247242E+03 -0.28234060683E+03  0.35417720716E+03  0.12509720453E+03 0.  0.
          5    1    3    3  502    0 -0.12556740373E+02 -0.30434422797E+02 -0.92151196572E+01  0.34442947755E+02  0.41800000000E+01 0.  1.
         -5    1    3    3    0  502  0.14441893598E+03 -0.82208049624E+02 -0.27312548718E+03  0.31973425941E+03  0.41800000000E+01 0.  1.
        -11    1    1    2    0    0 -0.13387688704E+03  0.94705165530E+02 -0.12145775809E+03  0.20406880277E+03  0.00000000000E+00 0.  1.
         11    1    1    2    0    0  0.20146914291E+01  0.17937306891E+02  0.10703307294E+02  0.20984917133E+02  0.00000000000E+00 0. -1.
</event>
<event>
 7    1  0.2644565E-009  0.8539036E+02  0.7561462E-02  0.1314415E+00
          2   -1    0    0  501    0  0.00000000000E+00  0.00000000000E+00  0.66538032207E+03  0.66538032207E+03  0.00000000000E+00 0. -1.
         -2   -1    0    0    0  501 -0.00000000000E+00 -0.00000000000E+00 -0.21734824301E+02  0.21734824301E+02  0.00000000000E+00 0.  1.
         25    2    1    2    0    0  0.29979892191E+00  0.40958314004E+02  0.45589192803E+03  0.47451335498E+03  0.12509116933E+03 0.  0.
          5    1    3    3  502    0 -0.14753436176E+02 -0.23136041394E+02  0.34022681573E+03  0.34135714264E+03  0.41800000000E+01 0. -1.
         -5    1    3    3    0  502  0.15053235098E+02  0.64094355397E+02  0.11566511231E+03  0.13315621234E+03  0.41800000000E+01 0. -1.
        -11    1    1    2    0    0  0.32020925831E+02 -0.13925074929E+02  0.15594858542E+03  0.15980991426E+03  0.00000000000E+00 0. -1.
         11    1    1    2    0    0 -0.32320724753E+02 -0.27033239074E+02  0.31804984322E+02  0.52791877132E+02  0.00000000000E+00 0.  1.
</event>
<event>
 7    1  0.2644565E-009  0.1469515E+03  0.7561462E-02  0.1204270E+00
          3   -1    0    0  501    0  0.00000000000E+00  0.00000000000E+00  0.62388411827E+03  0.62388411827E+03  0.00000000000E+00 0. -1.
         -3   -1    0    0    0  501 -0.00000000000E+00 -0.00000000000E+00 -0.85234857278E+02  0.85234857278E+02  0.00000000000E+00 0.  1.
         25    2    1    2    0    0 -0.68331057721E+02 -0.11478091685E+03  0.51236211851E+03  0.54406443284E+03  0.12508946507E+03 0.  0.
          5    1    3    3  502    0 -0.58383281739E+02 -0.92159651238E+02  0.50675460769E+03  0.51838182233E+03  0.41800000000E+01 0.  1.
         -5    1    3    3    0  502 -0.99477759822E+01 -0.22621265612E+02  0.56075108150E+01  0.25682610507E+02  0.41800000000E+01 0.  1.
        -11    1    1    2    0    0 -0.20867344566E+02  0.14266512812E+02  0.16764443412E+02  0.30331930700E+02  0.00000000000E+00 0. -1.
         11    1    1    2    0    0  0.89198402288E+02  0.10051440404E+03  0.95226990718E+01  0.13472261201E+03  0.00000000000E+00 0.  1.
</event>
<event>
 7    1  0.2644565E-009  0.1156946E+03  0.7561462E-02  0.1250374E+00
         -1   -1    0    0    0  501 -0.00000000000E+00  0.00000000000E+00  0.32059632402E+02  0.32059632402E+02  0.00000000000E+00 0.  1.
          1   -1    0    0  501    0  0.00000000000E+00 -0.00000000000E+00 -0.79536328622E+03  0.79536328622E+03  0.00000000000E+00 0. -1.
         25    2    1    2    0    0  0.41973708940E+02 -0.90124588392E+02 -0.25275103915E+03  0.29902362260E+03  0.12509118837E+03 0.  0.
          5    1    3    3  502    0  0.54655984929E+01 -0.24588015209E+01  0.14027385526E+02  0.15816397077E+02  0.41800000000E+01 0. -1.
         -5    1    3    3    0  502  0.36508110447E+02 -0.87665786871E+02 -0.26677842467E+03  0.28320722552E+03  0.41800000000E+01 0. -1.
        -11    1    1    2    0    0  0.19957253111E+02  0.34721016539E+00 -0.33139510620E+02  0.38686427475E+02  0.00000000000E+00 0.  1.
         11    1    1    2    0    0 -0.61930962051E+02  0.89777378227E+02 -0.47741310405E+03  0.48971286855E+03  0.00000000000E+00 0. -1.
</event>
<event>
 7    1  0.2644565E-009  0.1168934E+03  0.7561462E-02  0.1248312E+00
          1   -1    0    0  501    0  0.00000000000E+00  0.00000000000E+00  0.66988010109E+02  0.66988010109E+02  0.00000000000E+00 0. -1.
         -1   -1    0    0    0  501 -0.00000000000E+00 -0.00000000000E+00 -0.22801264910E+03  0.22801264910E+03  0.00000000000E+00 0.  1.
         25    2    1    2    0    0  0.29731980166E+02  0.30774474080E+02 -0.73716924610E+02  0.15136989221E+03  0.12509036891E+03 0.  0.
          5    1    3    3  502    0 -0.40403064625E+02  0.34062544979E+02 -0.59356991891E+02  0.79582595382E+02  0.41800000000E+01 0.  1.
         -5    1    3    3    0  502  0.70135044791E+02 -0.32880708984E+01 -0.14359932719E+02  0.71787296827E+02  0.41800000000E+01 0.  1.
        -11    1    1    2    0    0 -0.28926821894E+02  0.34578112849E+02 -0.53776942261E+02  0.70173830108E+02  0.00000000000E+00 0. -1.
         11    1    1    2    0    0 -0.80515827242E+00 -0.65352586929E+02 -0.33530772117E+02  0.73456936888E+02  0.00000000000E+00 0.  1.
</event>
<event>
 7    1  0.2644565E-009  0.1819276E+03  0.7561462E-02  0.1165950E+00
          2   -1    0    0  501    0  0.00000000000E+00  0.00000000000E+00  0.84842540863E+03  0.84842540863E+03  0.00000000000E+00 0. -1.
         -2   -1    0    0    0  501 -0.00000000000E+00 -0.00000000000E+00 -0.44873360586E+02  0.44873360586E+02  0.00000000000E+00 0.  1.
         25    2    1    2    0    0  0.14550796829E+03  0.70063152158E+02  0.44722183733E+03  0.49166736384E+03  0.12509200917E+03 0.  0.
          5    1    3    3  502    0  0.37501700322E+02  0.60258918994E+02  0.72496727620E+02  0.10154192612E+03  0.41800000000E+01 0. -1.
         -5    1    3    3    0  502  0.10800626797E+03  0.98042331642E+01  0.37472510971E+03  0.39012543772E+03  0.41800000000E+01 0. -1.
        -11    1    1    2    0    0 -0.69469539688E+02 -0.81765578559E+02  0.22849658349E+03  0.25243279393E+03  0.00000000000E+00 0.  1.
         11    1    1    2    0    0 -0.76038428605E+02  0.11702426401E+02  0.12783362722E+03  0.14919861144E+03  0.00000000000E+00 0. -1.
</event>
<event>
 7    1  0.2861254E-009  0.1477015E+03  0.7561462E-02  0.1203326E+00
          2   -1    0    0  501    0  0.00000000000E+00  0.00000000000E+00  0.95327159511E+03  0.95327159511E+03  0.00000000000E+00 0. -1.
         -2   -1    0    0    0  501 -0.00000000000E+00 -0.00000000000E+00 -0.25880098047E+02  0.25880098047E+02  0.00000000000E+00 0.  1.
         25    2    1    2    0    0 -0.36137796927E+02  0.97305985768E+02  0.63590283198E+03  0.65634925441E+03  0.12509011479E+03 0.  0.
          5    1    3    3  502    0  0.93480534029E+01  0.11255807955E+03  0.40479703471E+03  0.42027945356E+03  0.41800000000E+01 0. -1.
         -5    1    3    3    0  502 -0.45485850330E+02 -0.15252093778E+02  0.23110579727E+03  0.23606980085E+03  0.41800000000E+01 0. -1.
        -11    1    1    2    0    0 -0.27708991657E+02 -0.38402876713E+02  0.66601263905E+02  0.81720851147E+02  0.00000000000E+00 0.  1.
         11    1    1    2    0    0  0.63846788584E+02 -0.58903109055E+02  0.22488740118E+03  0.24108158760E+03  0.00000000000E+00 0. -1.
</event>
<event>
 7    1  0.2644565E-009  0.9196902E+02  0.7561462E-02  0.1298152E+00
         -1   -1    0    0    0  501 -0.00000000000E+00  0.00000000000E+00  0.29524769511E+02  0.29524769511E+02  0.00000000000E+00 0.  1.
          1   -1    0    0  501    0  0.00000000000E+00 -0.00000000000E+00 -0.47869680652E+03  0.47869680652E+03  0.00000000000E+00 0. -1.
         25    2    1    2    0    0  0.31950273117E+02  0.32418247281E+02 -0.29519230600E+03  0.32381738828E+03  0.12508973067E+03 0.  0.
          5    1    3    3  502    0  0.64014606594E+02  0.44898129587E+02 -0.10774322135E+03  0.13319078814E+03  0.41800000000E+01 0. -1.
         -5    1    3    3    0  502 -0.32064333477E+02 -0.12479882306E+02 -0.18744908466E+03  0.19062660014E+03  0.41800000000E+01 0. -1.
        -11    1    1    2    0    0 -0.35022079776E+02  0.32527152545E+01 -0.14254382804E+03  0.14681917158E+03  0.00000000000E+00 0. -1.
         11    1    1    2    0    0  0.30718066591E+01 -0.35670962535E+02 -0.11435902957E+02  0.37585016174E+02  0.00000000000E+00 0.  1.
</event>
<event>
 7    1  0.2644565E-009  0.1468228E+03  0.7561462E-02  0.1204432E+00
          1   -1    0    0  501    0  0.00000000000E+00  0.00000000000E+00  0.18943767054E+03  0.18943767054E+03  0.00000000000E+00 0. -1.
         -1   -1    0    0    0  501 -0.00000000000E+00 -0.00000000000E+00 -0.26585103605E+03  0.26585103605E+03  0.00000000000E+00 0.  1.
         25    2    1    2    0    0 -0.30591696335E+02 -0.99110750661E+02 -0.20764745758E+03  0.26367224661E+03  0.12508714648E+03 0.  0.
          5    1    3    3  502    0 -0.67379499512E+02 -0.17531943984E+02 -0.11708260758E+03  0.13628343778E+03  0.41800000000E+01 0. -1.
         -5    1    3    3    0  502  0.36787803177E+02 -0.81578806678E+02 -0.90564849997E+02  0.12738880884E+03  0.41800000000E+01 0. -1.
        -11    1    1    2    0    0 -0.13332752849E+02  0.87996615928E+02  0.11023255928E+03  0.14167704062E+03  0.00000000000E+00 0. -1.
         11    1    1    2    0    0  0.43924449183E+02  0.11114134733E+02  0.21001532790E+02  0.49939419364E+02  0.00000000000E+00 0.  1.
</event>
<event>
 7    1  0.2644565E-009  0.1022979E+03  0.7561462E-02  0.1275537E+00
         -1   -1    0    0    0  501 -0.00000000000E+00  0.00000000000E+00  0.43425082743E+02  0.43425082743E+02  0.00000000000E+00 0.  1.
          1   -1    0    0  501    0  0.00000000000E+00 -0.00000000000E+00 -0.91098080279E+03  0.91098080279E+03  0.00000000000E+00 0. -1.
         25    2    1    2    0    0 -0.66196482076E+02  0.29113517191E+02 -0.81602135917E+03  0.82871431370E+03  0.12508790504E+03 0.  0.
          5    1    3    3  502    0  0.93397222031E+01 -0.73741306005E+01 -0.54114718812E+03  0.54129415277E+03  0.41800000000E+01 0.  1.
         -5    1    3    3    0  502 -0.75536204279E+02  0.36487647792E+02 -0.27487417105E+03  0.28742016093E+03  0.41800000000E+01 0.  1.
        -11    1    1    2    0    0  0.78346418140E+02 -0.21033590332E+01 -0.17001017768E+02  0.80197381253E+02  0.00000000000E+00 0.  1.
         11    1    1    2    0    0 -0.12149936064E+02 -0.27010158158E+02 -0.34533343102E+02  0.45494190573E+02  0.00000000000E+00 0. -1.
</event>
<event>
 7    1  0.2644565E-009  0.9332605E+02  0.7561462E-02  0.1294991E+00
          1   -1    0    0  501    0  0.00000000000E+00  0.00000000000E+00  0.82031819281E+02  0.82031819281E+02  0.00000000000E+00 0. -1.
         -1   -1    0    0    0  501 -0.00000000000E+00 -0.00000000000E+00 -0.15513236313E+03  0.15513236313E+03  0.00000000000E+00 0.  1.
         25    2    1    2    0    0  0.15158100777E+02 -0.15444536813E+02 -0.18219034094E+02  0.12825026854E+03  0.12509155224E+03 0.  0.
          5    1    3    3  502    0 -0.92351026285E+01  0.40651959855E+02 -0.44875192053E+02  0.61393193616E+02  0.41800000000E+01 0.  1.
         -5    1    3    3    0  502  0.24393203405E+02 -0.56096496667E+02  0.26656157960E+02  0.66857074928E+02  0.41800000000E+01 0.  1.
        -11    1    1    2    0    0 -0.47221326637E+02 -0.13621867336E+01 -0.55273340622E+02  0.72710738035E+02  0.00000000000E+00 0.  1.
         11    1    1    2    0    0  0.32063225861E+02  0.16806723546E+02  0.39183086666E+00  0.36203175833E+02  0.00000000000E+00 0. -1.
</event>
<event>
 7    1  0.2644565E-009  0.8541702E+02  0.7561462E-02  0.1314346E+00
         -1   -1    0    0    0  501 -0.00000000000E+00  0.00000000000E+00  0.18379053072E+03  0.18379053072E+03  0.00000000000E+00 0.  1.
          1   -1    0    0  501    0  0.00000000000E+00 -0.00000000000E+00 -0.75422021362E+02  0.75422021362E+02  0.00000000000E+00 0. -1.
         25    2    1    2    0    0  0.25864522872E+02  0.19584495907E+02  0.95789240032E+02  0.16083934616E+03  0.12506474621E+03 0.  0.
          5    1    3    3  502    0 -0.22142793943E+02  0.56358962740E+01  0.10695203672E+03  0.10944531607E+03  0.41800000000E+01 0. -1.
         -5    1    3    3    0  502  0.48007316815E+02  0.13948599633E+02 -0.11162796688E+02  0.51394030095E+02  0.41800000000E+01 0. -1.
        -11    1    1    2    0    0 -0.39562342120E+02 -0.50190066808E+02  0.58644748646E+01  0.64176427025E+02  0.00000000000E+00 0.  1.
         11    1    1    2    0    0  0.13697819248E+02  0.30605570901E+02  0.67147944651E+01  0.34196778899E+02  0.00000000000E+00 0. -1.
</event>
<event>
 6    1  0.2644565E-009  0.1423367E+03  0.7561462E-02  0.1210219E+00
          2   -1    0    0  501    0  0.00000000000E+00  0.00000000000E+00  0.13734987275E+02  0.13734987275E+02  0.00000000000E+00 0. -1.
         -2   -1    0    0    0  501 -0.00000000000E+00 -0.00000000000E+00 -0.15991153581E+04  0.15991153581E+04  0.00000000000E+00 0.  1.
          5    1    1    2  502    0  0.13632239780E+02 -0.64007577183E+02 -0.48154859749E+03  0.48599313991E+03  0.41800000000E+01 0. -1.
         -5    1    1    2    0  502  0.76988567907E+02  0.46033284617E+02 -0.59611931974E+03  0.60284493749E+03  0.41800000000E+01 0. -1.
        -11    1    1    2    0    0  0.75850634777E+01 -0.21998134688E+02 -0.76858620005E+02  0.80303789368E+02  0.00000000000E+00 0.  1.
         11    1    1    2    0    0 -0.98205871165E+02  0.39972427254E+02 -0.43085383355E+03  0.44370847857E+03  0.00000000000E+00 0. -1.
</event>
<event>
 7    1  0.2644565E-009  0.3803561E+03  0.7561462E-02  0.1050802E+00
         -1   -1    0    0    0  501 -0.00000000000E+00  0.00000000000E+00  0.90388016434E+02  0.90388016434E+02  0.00000000000E+00 0.  1.
          1   -1    0    0  501    0  0.00000000000E+00 -0.00000000000E+00 -0.22103846816E+04  0.22103846816E+04  0.00000000000E+00 0. -1.
         25    2    1    2    0    0 -0.27286119108E+03  0.24577950537E+03 -0.47815825547E+03  0.61574607929E+03  0.12508845682E+03 0.  0.
          5    1    3    3  502    0  0.10820946031E+01 -0.11379171262E+02 -0.13785420213E+02  0.18389308790E+02  0.41800000000E+01 0.  1.
         -5    1    3    3    0  502 -0.27394328568E+03  0.25715867664E+03 -0.46437283526E+03  0.59735677050E+03  0.41800000000E+01 0.  1.
        -11    1    1    2    0    0  0.21096968899E+03 -0.15042750033E+03 -0.98976045860E+03  0.10231140738E+04  0.00000000000E+00 0. -1.
         11    1    1    2    0    0  0.61891502089E+02 -0.95352005040E+02 -0.65207795112E+03  0.66191254500E+03  0.00000000000E+00 0.  1.
</event>
<event>
 7    1  0.2644565E-009  0.2137219E+03  0.7561462E-02  0.1138652E+00
         -1   -1    0    0    0  501 -0.00000000000E+00  0.00000000000E+00  0.90592963356E+03  0.90592963356E+03  0.00000000000E+00 0.  1.
          1   -1    0    0  501    0  0.00000000000E+00 -0.00000000000E+00 -0.63524907890E+02  0.63524907890E+02  0.00000000000E+00 0. -1.
         25    2    1    2    0    0 -0.19282338922E+03 -0.90341758785E+02  0.42455598018E+03  0.49115974759E+03  0.12509046540E+03 0.  0.
          5    1    3    3  502    0 -0.55490207209E+02 -0.14919188167E+02  0.25003978207E+03  0.25659132933E+03  0.41800000000E+01 0.  1.
         -5    1    3    3    0  502 -0.13733318201E+03 -0.75422570617E+02  0.17451619811E+03  0.23456841826E+03  0.41800000000E+01 0.  1.
        -11    1    1    2    0    0  0.70312675590E+02  0.28625157365E+02  0.65798258392E+02  0.10046234514E+03  0.00000000000E+00 0.  1.
         11    1    1    2    0    0  0.12251071363E+03  0.61716601420E+02  0.35205048710E+03  0.37783244873E+03  0.00000000000E+00 0. -1.
</event>
<event>
 7    1  0.2644565E-009  0.1614361E+03  0.7561462E-02  0.1187085E+00
          1   -1    0    0  501    0  0.00000000000E+00  0.00000000000E+00  0.47060437330E+02  0.47060437330E+02  0.00000000000E+00 0. -1.
         -1   -1    0    0    0  501 -0.00000000000E+00 -0.00000000000E+00 -0.58812729156E+03  0.58812729156E+03  0.00000000000E+00 0.  1.
         25    2    1    2    0    0  0.23221927022E+02 -0.12247367156E+03 -0.23383282060E+03  0.29302644855E+03  0.12509058095E+03 0.  0.
          5    1    3    3  502    0  0.63992778524E+02 -0.11438413394E+03 -0.20053189300E+03  0.23960241716E+03  0.41800000000E+01 0.  1.
         -5    1    3    3    0  502 -0.40770851502E+02 -0.80895376230E+01 -0.33300927596E+02  0.53424031390E+02  0.41800000000E+01 0.  1.
        -11    1    1    2    0    0  0.28378857438E+02  0.73633909512E+02 -0.14584932885E+03  0.16582924623E+03  0.00000000000E+00 0.  1.
         11    1    1    2    0    0 -0.51600784460E+02  0.48839762049E+02 -0.16138470478E+03  0.17633203410E+03  0.00000000000E+00 0. -1.
</event>
<event>
 7    1  0.2644565E-009  0.1204044E+03  0.7561462E-02  0.1242431E+00
         -1   -1    0    0    0  501 -0.00000000000E+00  0.00000000000E+00  0.17938361771E+02  0.17938361771E+02  0.00000000000E+00 0.  1.
          1   -1    0    0  501    0  0.00000000000E+00 -0.00000000000E+00 -0.10182652483E+04  0.10182652483E+04  0.00000000000E+00 0. -1.
         25    2    1    2    0    0 -0.52351656687E+02  0.40608716330E+02 -0.73432618860E+03  0.74784525533E+03  0.12509121018E+03 0.  0.
          5    1    3    3  502    0 -0.55076054032E+02  0.78229076025E+02 -0.39679431952E+03  0.40818667845E+03  0.41800000000E+01 0.  1.
         -5    1    3    3    0  502  0.27243973453E+01 -0.37620359695E+02 -0.33753186907E+03  0.33965857688E+03  0.41800000000E+01 0.  1.
        -11    1    1    2    0    0  0.74190002366E+02 -0.41926803050E+02 -0.17340479667E+03  0.19321293117E+03  0.00000000000E+00 0.  1.
         11    1    1    2    0    0 -0.21838345679E+02  0.13180867202E+01 -0.92595901250E+02  0.95145423552E+02  0.00000000000E+00 0. -1.
</event>
<event>
 7    1  0.2644565E-009  0.1201366E+03  0.7561462E-02  0.1242872E+00
          2   -1    0    0  501    0  0.00000000000E+00  0.00000000000E+00  0.90913988800E+03  0.90913988800E+03  0.00000000000E+00 0. -1.
         -2   -1    0    0    0  501 -0.00000000000E+00 -0.00000000000E+00 -0.17856763377E+02  0.17856763377E+02  0.00000000000E+00 0.  1.
         25    2    1    2    0    0  0.59349464341E+02  0.26706387174E+02  0.53436441339E+03  0.55265585834E+03  0.12509029310E+03 0.  0.
          5    1    3    3  502    0  0.86074761346E+02  0.49420210587E+02  0.31000668488E+03  0.32553469680E+03  0.41800000000E+01 0. -1.
         -5    1    3    3    0  502 -0.26725297004E+02 -0.22713823414E+02  0.22435772851E+03  0.22712116154E+03  0.41800000000E+01 0. -1.
        -11    1    1    2    0    0 -0.30821566958E+02 -0.56500494941E+02  0.14799685288E+03  0.16138569757E+03  0.00000000000E+00 0.  1.
         11    1    1    2    0    0 -0.28527897384E+02  0.29794107767E+02  0.20892185836E+03  0.21295509547E+03  0.00000000000E+00 0. -1.
</event>
<event>
 7    1  0.2644565E-009  0.2667432E+03  0.7561462E-02  0.1103158E+00
         -2   -1    0    0    0  501 -0.00000000000E+00  0.00000000000E+00  0.29910856106E+03  0.29910856106E+03  0.00000000000E+00 0.  1.
          2   -1    0    0  501    0  0.00000000000E+00 -0.00000000000E+00 -0.24828576161E+03  0.24828576161E+03  0.00000000000E+00 0. -1.
         25    2    1    2    0    0  0.24760869385E+03  0.20143609807E+02  0.49786785576E+02  0.28256393566E+03  0.12509126042E+03 0.  0.
          5    1    3    3  502    0  0.16737450348E+03 -0.44397218257E+02  0.15286166823E+02  0.17388639021E+03  0.41800000000E+01 0.  1.
         -5    1    3    3    0  502  0.80234190376E+02  0.64540828065E+02  0.34500618753E+02  0.10867754546E+03  0.41800000000E+01 0.  1.
        -11    1    1    2    0    0 -0.22285851778E+03  0.36452760192E+01 -0.21254363071E+02  0.22389943040E+03  0.00000000000E+00 0. -1.
         11    1    1    2    0    0 -0.24750176076E+02 -0.23788885827E+02  0.22290376945E+02  0.40930956610E+02  0.00000000000E+00 0.  1.
</event>
<event>
 7    1  0.2644565E-009  0.1239556E+03  0.7561462E-02  0.1236711E+00
         -2   -1    0    0    0  501 -0.00000000000E+00  0.00000000000E+00  0.14952692277E+03  0.14952692277E+03  0.00000000000E+00 0.  1.
          2   -1    0    0  501    0  0.00000000000E+00 -0.00000000000E+00 -0.11921591999E+03  0.11921591999E+03  0.00000000000E+00 0. -1.
         25    2    1    2    0    0  0.63671037245E+02 -0.15189015561E+02 -0.17286518617E+02  0.14223562662E+03  0.12508973809E+03 0.  0.
          5    1    3    3  502    0  0.73152053147E+02 -0.58030105249E+02 -0.26614824893E+02  0.97183009311E+02  0.41800000000E+01 0.  1.
         -5    1    3    3    0  502 -0.94810159021E+01  0.42841089687E+02  0.93283062754E+01  0.45052617306E+02  0.41800000000E+01 0.  1.
        -11    1    1    2    0    0 -0.27857049564E+02  0.52010809360E+02  0.40055398221E+01  0.59136992230E+02  0.00000000000E+00 0. -1.
         11    1    1    2    0    0 -0.35813987681E+02 -0.36821793799E+02  0.43591981574E+02  0.67370223910E+02  0.00000000000E+00 0.  1.
</event>
<event>
 7    1  0.2644565E-009  0.1137243E+03  0.7561462E-02  0.1253825E+00
         -1   -1    0    0    0  501 -0.00000000000E+00  0.00000000000E+00  0.70312676881E+02  0.70312676881E+02  0.00000000000E+00 0.  1.
          1   -1    0    0  501    0  0.00000000000E+00 -0.00000000000E+00 -0.24288215710E+03  0.24288215710E+03  0.00000000000E+00 0. -1.
         25    2    1    2    0    0 -0.26815385938E+02  0.45215493660E+02 -0.15500760416E+03  0.20600789808E+03  0.12509352874E+03 0.  0.
          5    1    3    3  502    0 -0.58142269603E+02  0.63984808666E+02 -0.63374365187E+02  0.10727703304E+03  0.41800000000E+01 0.  1.
         -5    1    3    3    0  502  0.31326883665E+02 -0.18769315006E+02 -0.91633238976E+02  0.98730865038E+02  0.41800000000E+01 0.  1.
        -11    1    1    2    0    0 -0.19383379514E+02 -0.53763730583E+02 -0.35516239516E+00  0.57152255143E+02  0.00000000000E+00 0.  1.
         11    1    1    2    0    0  0.46198765451E+02  0.85482369232E+01 -0.17206713658E+02  0.50034680759E+02  0.00000000000E+00 0. -1.
</event>
<event>
 7    1  0.2644565E-009  0.7026748E+02  0.7561462E-02  0.1359186E+00
          2   -1    0    0  501    0  0.00000000000E+00  0.00000000000E+00  0.19646005407E+03  0.19646005407E+03  0.00000000000E+00 0. -1.
         -2   -1    0    0    0  501 -0.00000000000E+00 -0.00000000000E+00 -0.63834837907E+02  0.63834837907E+02  0.00000000000E+00 0.  1.
         25    2    1    2    0    0  0.46772936711E+01  0.27514178363E+02  0.71916632569E+02  0.14697132245E+03  0.12509860310E+03 0.  0.
          5    1    3    3  502    0  0.12619521558E+01  0.37075693680E+02 -0.27866717427E+02  0.46585683694E+02  0.41800000000E+01 0. -1.
         -5    1    3    3    0  502  0.34153415153E+01 -0.95615153167E+01  0.99783349996E+02  0.10038563876E+03  0.41800000000E+01 0. -1.
        -11    1    1    2    0    0 -0.46146405439E+02 -0.18910849229E+02  0.17584535775E+02  0.52880306844E+02  0.00000000000E+00 0.  1.
         11    1    1    2    0    0  0.41469111767E+02 -0.86033291346E+01  0.43124047817E+02  0.60443262677E+02  0.00000000000E+00 0. -1.
</event>
<event>
 7    1  0.2644565E-009  0.1632479E+03  0.7561462E-02  0.1185078E+00
         -2   -1    0    0    0  501 -0.00000000000E+00  0.00000000000E+00  0.34737951369E+02  0.34737951369E+02  0.00000000000E+00 0.  1.
          2   -1    0    0  501    0  0.00000000000E+00 -0.00000000000E+00 -0.79929781692E+03  0.79929781692E+03  0.00000000000E+00 0. -1.
         25    2    1    2    0    0 -0.18126270191E+02  0.13010399688E+03 -0.42940640846E+03  0.46614431678E+03  0.12508016935E+03 0.  0.
          5    1    3    3  502    0  0.49604149604E+02  0.64968406668E+02 -0.14396829534E+03  0.16560739110E+03  0.41800000000E+01 0. -1.
         -5    1    3    3    0  502 -0.67730419794E+02  0.65135590210E+02 -0.28543811312E+03  0.30053692568E+03  0.41800000000E+01 0. -1.
        -11    1    1    2    0    0 -0.25781363778E+02 -0.79572976420E+02 -0.20810008107E+03  0.22428147724E+03  0.00000000000E+00 0.  1.
         11    1    1    2    0    0  0.43907633969E+02 -0.50531020458E+02 -0.12705337602E+03  0.14360997426E+03  0.00000000000E+00 0. -1.
</event>
<event>
 7    1  0.2644565E-009  0.1487862E+03  0.7561462E-02  0.1201972E+00
         -2   -1    0    0    0  501 -0.00000000000E+00  0.00000000000E+00  0.16607538306E+02  0.16607538306E+02  0.00000000000E+00 0. -1.
          2   -1    0    0  501    0  0.00000000000E+00 -0.00000000000E+00 -0.22817963951E+04  0.22817963951E+04  0.00000000000E+00 0.  1.
         25    2    1    2    0    0  0.81787186071E+02 -0.78488120054E+02 -0.18530389405E+04  0.18607123839E+04  0.12509089391E+03 0.  0.
          5    1    3    3  502    0  0.10414602809E+03 -0.77167084140E+02 -0.11474113716E+04  0.11547170571E+04  0.41800000000E+01 0. -1.
         -5    1    3    3    0  502 -0.22358842019E+02 -0.13210359136E+01 -0.70562756892E+03  0.70599532673E+03  0.41800000000E+01 0. -1.
        -11    1    1    2    0    0 -0.17664764831E+02  0.79026278939E+02 -0.19161004245E+03  0.20801828056E+03  0.00000000000E+00 0.  1.
         11    1    1    2    0    0 -0.64122421239E+02 -0.53815888479E+00 -0.22053987387E+03  0.22967326898E+03  0.00000000000E+00 0. -1.
</event>
<event>
 7    1  0.2644565E-009  0.1357275E+03  0.7561462E-02  0.1219196E+00
          1   -1    0    0  501    0  0.00000000000E+00  0.00000000000E+00  0.22391306853E+03  0.22391306853E+03  0.00000000000E+00 0. -1.
         -1   -1    0    0    0  501 -0.00000000000E+00 -0.00000000000E+00 -0.97028159030E+02  0.97028159030E+02  0.00000000000E+00 0.  1.
         25    2    1    2    0    0  0.21920899475E+02 -0.95382239901E+02  0.79820151546E+02  0.17775931656E+03  0.12509524575E+03 0.  0.
          5    1    3    3  502    0 -0.48354002091E+01  0.23558215548E+02  0.44515267919E+02  0.50768613265E+02  0.41800000000E+01 0.  1.
         -5    1    3    3    0  502  0.26756299684E+02 -0.11894045545E+03  0.35304883627E+02  0.12699070329E+03  0.41800000000E+01 0.  1.
        -11    1    1    2    0    0  0.19199772568E+02  0.78152121582E+02  0.30535520798E+01  0.80533903139E+02  0.00000000000E+00 0.  1.
         11    1    1    2    0    0 -0.41120672043E+02  0.17230118319E+02  0.44011205875E+02  0.62648007862E+02  0.00000000000E+00 0. -1.
</event>
<event>
 7    1  0.2732411E-009  0.1168116E+03  0.7561462E-02  0.1248452E+00
          1   -1    0    0  501    0  0.00000000000E+00  0.00000000000E+00  0.35122640684E+03  0.35122640684E+03  0.00000000000E+00 0. -1.
         -1   -1    0    0    0  501 -0.00000000000E+00 -0.00000000000E+00 -0.50308543698E+02  0.50308543698E+02  0.00000000000E+00 0.  1.
         25    2    1    2    0    0 -0.43150502688E+02  0.59660125157E+02  0.19987459346E+03  0.24702258915E+03  0.12509600324E+03 0.  0.
          5    1    3    3  502    0  0.23240935092E+02 -0.24398075206E+02  0.75780947152E+02  0.83039939120E+02  0.41800000000E+01 0. -1.
         -5    1    3    3    0  502 -0.66391437780E+02  0.84058200364E+02  0.12409364631E+03  0.16398265003E+03  0.41800000000E+01 0. -1.
        -11    1    1    2    0    0  0.21427141481E+02  0.68574874497E+01 -0.88962407888E+01  0.24192780459E+02  0.00000000000E+00 0.  1.
         11    1    1    2    0    0  0.21723361207E+02 -0.66517612607E+02  0.10993951047E+03  0.13031958092E+03  0.00000000000E+00 0. -1.
</event>
<event>
 7    1  0.2644565E-009  0.1360438E+03  0.7561462E-02  0.1218754E+00
         -1   -1    0    0    0  501 -0.00000000000E+00  0.00000000000E+00  0.20845955183E+03  0.20845955183E+03  0.00000000000E+00 0.  1.
          1   -1    0    0  501    0  0.00000000000E+00 -0.00000000000E+00 -0.10007901946E+03  0.10007901946E+03  0.00000000000E+00 0. -1.
         25    2    1    2    0    0  0.30207284713E+02 -0.86121468750E+02  0.26403638382E+02  0.15707940910E+03  0.12508957276E+03 0.  0.
          5    1    3    3  502    0 -0.26750825283E+02  0.18622885721E+02 -0.61120484833E+01  0.33425260845E+02  0.41800000000E+01 0.  1.
         -5    1    3    3    0  502  0.56958109996E+02 -0.10474435447E+03  0.32515686865E+02  0.12365414825E+03  0.41800000000E+01 0.  1.
        -11    1    1    2    0    0  0.14881886332E+02  0.70731376875E+02  0.73466388049E+02  0.10306167274E+03  0.00000000000E+00 0.  1.
         11    1    1    2    0    0 -0.45089171046E+02  0.15390091875E+02  0.85105059476E+01  0.48397489449E+02  0.00000000000E+00 0. -1.
</event>
<event>
 7    1  0.2644565E-009  0.2467587E+03  0.7561462E-02  0.1115371E+00
          2   -1    0    0  501    0  0.00000000000E+00  0.00000000000E+00  0.20040428868E+04  0.20040428868E+04  0.00000000000E+00 0. -1.
         -2   -1    0    0    0  501 -0.00000000000E+00 -0.00000000000E+00 -0.34881922120E+02  0.34881922120E+02  0.00000000000E+00 0.  1.
         25    2    1    2    0    0 -0.11379180991E+03  0.20815093124E+03  0.11769427895E+04  0.12071106572E+04  0.12508566255E+03 0.  0.
          5    1    3    3  502    0 -0.79676707125E+02  0.10439201631E+03  0.36669973921E+03  0.38952822987E+03  0.41800000000E+01 0.  1.
         -5    1    3    3    0  502 -0.34115102790E+02  0.10375891493E+03  0.81024305025E+03  0.81758242737E+03  0.41800000000E+01 0.  1.
        -11    1    1    2    0    0  0.90206628122E+02 -0.21060506108E+03  0.73487237562E+03  0.76975914153E+03  0.00000000000E+00 0.  1.
         11    1    1    2    0    0  0.23585181793E+02  0.24541298430E+01  0.57345799549E+02  0.62055010108E+02  0.00000000000E+00 0. -1.
</event>
<event>
 7    1  0.2644565E-009  0.8786177E+02  0.7561462E-02  0.1308114E+00
          2   -1    0    0  501    0  0.00000000000E+00  0.00000000000E+00  0.99791229100E+02  0.99791229100E+02  0.00000000000E+00 0. -1.
         -2   -1    0    0    0  501 -0.00000000000E+00 -0.00000000000E+00 -0.16864482326E+03  0.16864482326E+03  0.00000000000E+00 0.  1.
         25    2    1    2    0    0  0.19923235557E+02 -0.44043074938E+02 -0.94706165048E+02  0.16417972997E+03  0.12509595625E+03 0.  0.
          5    1    3    3  502    0 -0.46053685672E+02 -0.23697547374E+02 -0.69239655343E+01  0.52420696430E+02  0.41800000000E+01 0. -1.
         -5    1    3    3    0  502  0.65976921228E+02 -0.20345527564E+02 -0.87782199514E+02  0.11175903354E+03  0.41800000000E+01 0. -1.
        -11    1    1    2    0    0 -0.14039633574E+02  0.46895944446E+01  0.53691020544E+02  0.55694068750E+02  0.00000000000E+00 0. -1.
         11    1    1    2    0    0 -0.58836019825E+01  0.39353480494E+02 -0.27838449660E+02  0.48562253641E+02  0.00000000000E+00 0.  1.
</event>
<event>
 7    1  0.2644565E-009  0.1081457E+03  0.7561462E-02  0.1264043E+00
          1   -1    0    0  501    0  0.00000000000E+00  0.00000000000E+00  0.19434480049E+03  0.19434480049E+03  0.00000000000E+00 0. -1.
         -1   -1    0    0    0  501 -0.00000000000E+00 -0.00000000000E+00 -0.82624839949E+02  0.82624839949E+02  0.00000000000E+00 0.  1.
         25    2    1    2    0    0 -0.12426573580E+02 -0.47743743624E+02  0.14987710438E+02  0.13529807193E+03  0.12508817697E+03 0.  0.
          5    1    3    3  502    0 -0.49727739399E+02 -0.64792633088E+02 -0.16491021269E+02  0.83428769323E+02  0.41800000000E+01 0.  1.
         -5    1    3    3    0  502  0.37301165820E+02  0.17048889464E+02  0.31478731707E+02  0.51869302611E+02  0.41800000000E+01 0.  1.
        -11    1    1    2    0    0  0.87311252632E+01  0.70091054651E+02  0.41373570936E+02  0.81858175294E+02  0.00000000000E+00 0.  1.
         11    1    1    2    0    0  0.36954483163E+01 -0.22347311027E+02  0.55358679167E+02  0.59813393212E+02  0.00000000000E+00 0. -1.
</event>
<event>
 7    1  0.2644565E-009  0.8774581E+02  0.7561462E-02  0.1308404E+00
         -2   -1    0    0    0  501 -0.00000000000E+00  0.00000000000E+00  0.15024319720E+03  0.15024319720E+03  0.00000000000E+00 0.  1.
          2   -1    0    0  501    0  0.00000000000E+00 -0.00000000000E+00 -0.93636658274E+02  0.93636658274E+02  0.00000000000E+00 0. -1.
         25    2    1    2    0    0  0.19160408733E+02 -0.28688673619E+02  0.67399032673E+02  0.14621990017E+03  0.12508984108E+03 0.  0.
          5    1    3    3  502    0 -0.93892182328E+01  0.46821830323E+02  0.16510988782E+02  0.50700358622E+02  0.41800000000E+01 0. -1.
         -5    1    3    3    0  502  0.28549626966E+02 -0.75510503943E+02  0.50888043891E+02  0.95519541544E+02  0.41800000000E+01 0. -1.
        -11    1    1    2    0    0  0.73232624925E+01  0.15479592183E+02  0.37383931927E+02  0.41119415293E+02  0.00000000000E+00 0.  1.
         11    1    1    2    0    0 -0.26483671226E+02  0.13209081437E+02 -0.48176425677E+02  0.56540540013E+02  0.00000000000E+00 0. -1.
</event>
<event>
 7    1  0.2644565E-009  0.1087856E+03  0.7561462E-02  0.1262835E+00
          1   -1    0    0  501    0  0.00000000000E+00  0.00000000000E+00  0.71924700320E+03  0.71924700320E+03  0.00000000000E+00 0. -1.
         -1   -1    0    0    0  501 -0.00000000000E+00 -0.00000000000E+00 -0.19634781042E+02  0.19634781042E+02  0.00000000000E+00 0.  1.
         25    2    1    2    0    0 -0.16029015895E+01  0.40467567719E+02  0.48954493551E+03  0.50689159921E+03  0.12507859980E+03 0.  0.
          5    1    3    3  502    0 -0.16749766465E+02  0.81026010110E+02  0.24826996149E+03  0.26172736801E+03  0.41800000000E+01 0.  1.
         -5    1    3    3    0  502  0.15146864876E+02 -0.40558442391E+02  0.24127497403E+03  0.24516423119E+03  0.41800000000E+01 0.  1.
        -11    1    1    2    0    0 -0.40078025855E+02 -0.20364611066E+02  0.60149095624E+02  0.75092471292E+02  0.00000000000E+00 0.  1.
         11    1    1    2    0    0  0.41680927445E+02 -0.20102956653E+02  0.14991819102E+03  0.15689771375E+03  0.00000000000E+00 0. -1.
</event>
<event>
 7    1  0.2644565E-009  0.3532941E+03  0.7561462E-02  0.1061271E+00
          2   -1    0    0  501    0  0.00000000000E+00  0.00000000000E+00  0.46031956086E+03  0.46031956086E+03  0.00000000000E+00 0. -1.
         -2   -1    0    0    0  501 -0.00000000000E+00 -0.00000000000E+00 -0.28643661216E+03  0.28643661216E+03  0.00000000000E+00 0.  1.
         25    2    1    2    0    0  0.31159681343E+03  0.13810932776E+03  0.15125778910E+03  0.39330604896E+03  0.12507585228E+03 0.  0.
          5    1    3    3  502    0  0.15305190021E+03  0.86281918623E+01  0.97150291990E+02  0.18153506957E+03  0.41800000000E+01 0. -1.
         -5    1    3    3    0  502  0.15854491323E+03  0.12948113590E+03  0.54107497106E+02  0.21177097938E+03  0.41800000000E+01 0. -1.
        -11    1    1    2    0    0 -0.25301300124E+03 -0.78487995921E+02 -0.63502185042E+01  0.26498352699E+03  0.00000000000E+00 0.  1.
         11    1    1    2    0    0 -0.58583812196E+02 -0.59621331843E+02  0.28975378109E+02  0.88466597079E+02  0.00000000000E+00 0. -1.
</event>
<event>
 7    1  0.2879313E-009  0.1435573E+03  0.7561462E-02  0.1208621E+00
         -2   -1    0    0    0  501 -0.00000000000E+00  0.00000000000E+00  0.98263267926E+02  0.98263267926E+02  0.00000000000E+00 0.  1.
          2   -1    0    0  501    0  0.00000000000E+00 -0.00000000000E+00 -0.37000524468E+03  0.37000524468E+03  0.00000000000E+00 0. -1.
         25    2    1    2    0    0  0.72278912559E+02 -0.10351998488E+03 -0.29890125097E+02  0.18022457435E+03  0.12508736608E+03 0.  0.
          5    1    3    3  502    0  0.73524608121E+02 -0.87315666975E+02  0.29941556647E+02  0.11808413489E+03  0.41800000000E+01 0. -1.
         -5    1    3    3    0  502 -0.12456955616E+01 -0.16204317902E+02 -0.59831681744E+02  0.62140439461E+02  0.41800000000E+01 0. -1.
        -11    1    1    2    0    0 -0.69606736990E+02  0.19830716094E+02 -0.12167244912E+03  0.14157167799E+03  0.00000000000E+00 0.  1.
         11    1    1    2    0    0 -0.26721755693E+01  0.83689268783E+02 -0.12017940254E+03  0.14647226026E+03  0.00000000000E+00 0. -1.
</event>
<event>
 7    1  0.2644565E-009  0.9265839E+02  0.7561462E-02  0.1296539E+00
          2   -1    0    0  501    0  0.00000000000E+00  0.00000000000E+00  0.35087866025E+02  0.35087866025E+02  0.00000000000E+00 0. -1.
         -2   -1    0    0    0  501 -0.00000000000E+00 -0.00000000000E+00 -0.37475448457E+03  0.37475448457E+03  0.00000000000E+00 0.  1.
         25    2    1    2    0    0  0.38594399105E+02  0.94238590323E+00 -0.20481962304E+03  0.24308787237E+03  0.12510083924E+03 0.  0.
          5    1    3    3  502    0  0.74397677871E+02  0.98560455038E+01 -0.68135794986E+02  0.10145006192E+03  0.41800000000E+01 0.  1.
         -5    1    3    3    0  502 -0.35803278767E+02 -0.89136596006E+01 -0.13668382805E+03  0.14163781045E+03  0.41800000000E+01 0.  1.
        -11    1    1    2    0    0 -0.50535520988E+02  0.15354926287E+02 -0.13661905435E+03  0.14647313287E+03  0.00000000000E+00 0.  1.
         11    1    1    2    0    0  0.11941121884E+02 -0.16297312190E+02  0.17720588459E+01  0.20281345345E+02  0.00000000000E+00 0. -1.
</event>
<event>
 7    1  0.2644565E-009  0.1361265E+03  0.7561462E-02  0.1218638E+00
         -3   -1    0    0    0  501 -0.00000000000E+00  0.00000000000E+00  0.68940363828E+02  0.68940363828E+02  0.00000000000E+00 0.  1.
          3   -1    0    0  501    0  0.00000000000E+00 -0.00000000000E+00 -0.27230580049E+03  0.27230580049E+03  0.00000000000E+00 0. -1.
         25    2    1    2    0    0 -0.80825917637E+02  0.13888666492E+02 -0.12931894524E+03  0.19773253967E+03  0.12509613755E+03 0.  0.
          5    1    3    3  502    0  0.33555706664E+02 -0.16240115848E+01 -0.24890430526E+02  0.42019385944E+02  0.41800000000E+01 0.  1.
         -5    1    3    3    0  502 -0.11438162430E+03  0.15512678076E+02 -0.10442851472E+03  0.15571315373E+03  0.41800000000E+01 0.  1.
        -11    1    1    2    0    0 -0.67541590092E+01  0.25852075086E+02 -0.17650422377E+02  0.32023208151E+02  0.00000000000E+00 0. -1.
         11    1    1    2    0    0  0.87580076646E+02 -0.39740741578E+02 -0.56396069045E+02  0.11149041649E+03  0.00000000000E+00 0.  1.
</event>
<event>
 7    1  0.2644565E-009  0.1526008E+03  0.7561462E-02  0.1197313E+00
          1   -1    0    0  501    0  0.00000000000E+00  0.00000000000E+00  0.63590151613E+03  0.63590151613E+03  0.00000000000E+00 0. -1.
         -1   -1    0    0    0  501 -0.00000000000E+00 -0.00000000000E+00 -0.43074073009E+02  0.43074073009E+02  0.00000000000E+00 0.  1.
         25    2    1    2    0    0 -0.10494516987E+03 -0.61243212838E+02  0.29803615297E+03  0.34532060285E+03  0.12512613827E+03 0.  0.
          5    1    3    3  502    0 -0.12476884844E+03 -0.60512832844E+02  0.18920208943E+03  0.23461451687E+03  0.41800000000E+01 0. -1.
         -5    1    3    3    0  502  0.19823678572E+02 -0.73037999415E+00  0.10883406354E+03  0.11070608599E+03  0.41800000000E+01 0. -1.
        -11    1    1    2    0    0  0.14592115618E+02  0.53566304622E+02  0.17381850015E+03  0.18246958602E+03  0.00000000000E+00 0. -1.
         11    1    1    2    0    0  0.90353054252E+02  0.76769082161E+01  0.12097279000E+03  0.15118540027E+03  0.00000000000E+00 0.  1.
</event>
<event>
 7    1  0.2644565E-009  0.9595663E+02  0.7561462E-02  0.1289036E+00
         -4   -1    0    0    0  501 -0.00000000000E+00  0.00000000000E+00  0.75713537658E+02  0.75713537658E+02  0.00000000000E+00 0.  1.
          4   -1    0    0  501    0  0.00000000000E+00 -0.00000000000E+00 -0.26021163690E+03  0.26021163690E+03  0.00000000000E+00 0. -1.
         25    2    1    2    0    0  0.10005501834E+02 -0.24748115710E+02  0.75070743990E+00  0.12790844358E+03  0.12508967615E+03 0.  0.
          5    1    3    3  502    0  0.24847814972E+02 -0.56588988047E+02 -0.40158593138E+02  0.73823522538E+02  0.41800000000E+01 0.  1.
         -5    1    3    3    0  502 -0.14842313138E+02  0.31840872337E+02  0.40909300578E+02  0.54084921044E+02  0.41800000000E+01 0.  1.
        -11    1    1    2    0    0 -0.50382277578E+02  0.18809438225E+02 -0.10252463998E+03  0.11577335904E+03  0.00000000000E+00 0.  1.
         11    1    1    2    0    0  0.40376775743E+02  0.59386774843E+01 -0.82724166692E+02  0.92243371928E+02  0.00000000000E+00 0. -1.
</event>
<event>
 7    1  0.2644565E-009  0.3248329E+03  0.7561462E-02  0.1073446E+00
         -2   -1    0    0    0  501 -0.00000000000E+00  0.00000000000E+00  0.65515165724E+02  0.65515165724E+02  0.00000000000E+00 0. -1.
          2   -1    0    0  501    0  0.00000000000E+00 -0.00000000000E+00 -0.17206947318E+04  0.17206947318E+04  0.00000000000E+00 0.  1.
         25    2    1    2    0    0 -0.31336280451E+03  0.49448860343E+02 -0.80703161083E+03  0.87612174694E+03  0.12509139680E+03 0.  0.
          5    1    3    3  502    0 -0.26454566003E+03  0.71912753661E+02 -0.74550804258E+03  0.79432711419E+03  0.41800000000E+01 0.  1.
         -5    1    3    3    0  502 -0.48817144476E+02 -0.22463893319E+02 -0.61523568248E+02  0.81794632757E+02  0.41800000000E+01 0.  1.
        -11    1    1    2    0    0  0.14899423889E+03  0.30926998867E+01 -0.49647611015E+03  0.51836027622E+03  0.00000000000E+00 0.  1.
         11    1    1    2    0    0  0.16436856562E+03 -0.52541560230E+02 -0.35167184508E+03  0.39172787434E+03  0.00000000000E+00 0. -1.
</event>
<event>
 7    1  0.2644565E-009  0.9806039E+02  0.7561462E-02  0.1284428E+00
          1   -1    0    0  501    0  0.00000000000E+00  0.00000000000E+00  0.58747889456E+02  0.58747889456E+02  0.00000000000E+00 0. -1.
         -1   -1    0    0    0  501 -0.00000000000E+00 -0.00000000000E+00 -0.27550485512E+03  0.27550485512E+03  0.00000000000E+00 0.  1.
         25    2    1    2    0    0 -0.43546176064E+02  0.22798740654E+02 -0.61215770554E+02  0.14768502617E+03  0.12508974524E+03 0.  0.
          5    1    3    3  502    0  0.26127850903E+02  0.51387713344E+02 -0.36280327257E+02  0.68242920669E+02  0.41800000000E+01 0.  1.
         -5    1    3    3    0  502 -0.69674026967E+02 -0.28588972691E+02 -0.24935443297E+02  0.79442105497E+02  0.41800000000E+01 0.  1.
        -11    1    1    2    0    0  0.16424264333E+02 -0.30550549829E+02 -0.15449458074E+03  0.15834035504E+03  0.00000000000E+00 0.  1.
         11    1    1    2    0    0  0.27121911731E+02  0.77518091747E+01 -0.10466143653E+01  0.28227363374E+02  0.00000000000E+00 0. -1.
</event>
<event>
 7    1  0.2644565E-009  0.1625510E+03  0.7561462E-02  0.1185846E+00
         -2   -1    0    0    0  501 -0.00000000000E+00  0.00000000000E+00  0.42344680925E+02  0.42344680925E+02  0.00000000000E+00 0. -1.
          2   -1    0    0  501    0  0.00000000000E+00 -0.00000000000E+00 -0.69579220685E+03  0.69579220685E+03  0.00000000000E+00 0.  1.
         25    2    1    2    0    0 -0.12619640059E+03  0.44967546005E+02 -0.42766640181E+03  0.46528816528E+03  0.12508762449E+03 0.  0.
          5    1    3    3  502    0 -0.86969816082E+02  0.87182257467E+02 -0.25493729797E+03  0.28315189073E+03  0.41800000000E+01 0. -1.
         -5    1    3    3    0  502 -0.39226584504E+02 -0.42214711463E+02 -0.17272910384E+03  0.18213627456E+03  0.41800000000E+01 0. -1.
        -11    1    1    2    0    0  0.18925897571E+02 -0.30461542662E+02 -0.10351052309E+03  0.10954690124E+03  0.00000000000E+00 0. -1.
         11    1    1    2    0    0  0.10727050301E+03 -0.14506003343E+02 -0.12227060102E+03  0.16330182125E+03  0.00000000000E+00 0.  1.
</event>
<event>
 7    1  0.2644565E-009  0.1249188E+03  0.7561462E-02  0.1235196E+00
          2   -1    0    0  501    0  0.00000000000E+00  0.00000000000E+00  0.25617705803E+03  0.25617705803E+03  0.00000000000E+00 0. -1.
         -2   -1    0    0    0  501 -0.00000000000E+00 -0.00000000000E+00 -0.69032491054E+02  0.69032491054E+02  0.00000000000E+00 0.  1.
         25    2    1    2    0    0  0.10235802116E+02  0.62500543842E+02  0.54613665377E+02  0.15047220300E+03  0.12509253296E+03 0.  0.
          5    1    3    3  502    0 -0.42625687094E+02  0.73706725808E+02  0.40981476257E+02  0.94586386049E+02  0.41800000000E+01 0. -1.
         -5    1    3    3    0  502  0.52861489210E+02 -0.11206181966E+02  0.13632189120E+02  0.55885816948E+02  0.41800000000E+01 0. -1.
        -11    1    1    2    0    0 -0.49259168686E+02 -0.47953596714E+02  0.10239157205E+03  0.12332901996E+03  0.00000000000E+00 0. -1.
         11    1    1    2    0    0  0.39023366570E+02 -0.14546947128E+02  0.30139329540E+02  0.51408326119E+02  0.00000000000E+00 0.  1.
</event>
<event>
 7    1  0.2644565E-009  0.1137135E+03  0.7561462E-02  0.1253844E+00
         -3   -1    0    0    0  501 -0.00000000000E+00  0.00000000000E+00  0.62400333937E+02  0.62400333937E+02  0.00000000000E+00 0.  1.
          3   -1    0    0  501    0  0.00000000000E+00 -0.00000000000E+00 -0.23152455676E+03  0.23152455676E+03  0.00000000000E+00 0. -1.
         25    2    1    2    0    0  0.45408956019E+02 -0.24448856952E+02 -0.11355198929E+03  0.17663872939E+03  0.12508983394E+03 0.  0.
          5    1    3    3  502    0  0.79198930227E+02 -0.46589479068E+02 -0.61629121495E+02  0.11071888333E+03  0.41800000000E+01 0. -1.
         -5    1    3    3    0  502 -0.33789974209E+02  0.22140622115E+02 -0.51922867799E+02  0.65919846064E+02  0.41800000000E+01 0. -1.
        -11    1    1    2    0    0 -0.61378736366E+02 -0.47390692535E+01 -0.12428296959E+02  0.62803428414E+02  0.00000000000E+00 0.  1.
         11    1    1    2    0    0  0.15969780347E+02  0.29187926206E+02 -0.43143936571E+02  0.54482732892E+02  0.00000000000E+00 0. -1.
</event>
<event>
 7    1  0.2644565E-009  0.1021376E+03  0.7561462E-02  0.1275864E+00
         -2   -1    0    0    0  501 -0.00000000000E+00  0.00000000000E+00  0.45437328972E+02  0.45437328972E+02  0.00000000000E+00 0.  1.
          2   -1    0    0  501    0  0.00000000000E+00 -0.00000000000E+00 -0.30668525783E+03  0.30668525783E+03  0.00000000000E+00 0. -1.
         25    2    1    2    0    0  0.55135725109E+01 -0.32765079099E+02 -0.19788140833E+03  0.23645075933E+03  0.12509180602E+03 0.  0.
          5    1    3    3  502    0  0.95604174339E+00 -0.80356319796E+02 -0.10961910352E+03  0.13598482417E+03  0.41800000000E+01 0. -1.
         -5    1    3    3    0  502  0.45575307676E+01  0.47591240697E+02 -0.88262304807E+02  0.10046593516E+03  0.41800000000E+01 0. -1.
        -11    1    1    2    0    0 -0.27219271128E+02  0.43719245931E+02 -0.73152968368E+02  0.89462941862E+02  0.00000000000E+00 0. -1.
         11    1    1    2    0    0  0.21705698617E+02 -0.10954166832E+02  0.97864478440E+01  0.26208885609E+02  0.00000000000E+00 0.  1.
</event>
<event>
 7    1  0.2644565E-009  0.8335512E+02  0.7561462E-02  0.1319791E+00
          1   -1    0    0  501    0  0.00000000000E+00  0.00000000000E+00  0.21693681530E+03  0.21693681530E+03  0.00000000000E+00 0. -1.
         -1   -1    0    0    0  501 -0.00000000000E+00 -0.00000000000E+00 -0.73494862734E+02  0.73494862734E+02  0.00000000000E+00 0.  1.
         25    2    1    2    0    0 -0.44429923663E+02  0.21393625018E+02  0.38431987177E+02  0.13984305175E+03  0.12508939274E+03 0.  0.
          5    1    3    3  502    0 -0.55462408208E+02 -0.12788259732E+02  0.71058224992E+02  0.91139245390E+02  0.41800000000E+01 0. -1.
         -5    1    3    3    0  502  0.11032484544E+02  0.34181884750E+02 -0.32626237815E+02  0.48703806363E+02  0.41800000000E+01 0. -1.
        -11    1    1    2    0    0  0.26147328764E+02  0.16838468766E+02 -0.60808590170E+01  0.31689015104E+02  0.00000000000E+00 0.  1.
         11    1    1    2    0    0  0.18282594899E+02 -0.38232093784E+02  0.11109082441E+03  0.11889961118E+03  0.00000000000E+00 0. -1.
</event>
<event>
 7    1  0.2644565E-009  0.1008985E+03  0.7561462E-02  0.1278418E+00
         -2   -1    0    0    0  501 -0.00000000000E+00  0.00000000000E+00  0.21577845653E+03  0.21577845653E+03  0.00000000000E+00 0.  1.
          2   -1    0    0  501    0  0.00000000000E+00 -0.00000000000E+00 -0.61204283639E+02  0.61204283639E+02  0.00000000000E+00 0. -1.
         25    2    1    2    0    0 -0.11427969907E+02  0.23707574580E+02  0.11877525148E+03  0.17449313778E+03  0.12509055592E+03 0.  0.
          5    1    3    3  502    0  0.31925695021E+02 -0.39557168177E+02  0.46027505874E+02  0.68702425385E+02  0.41800000000E+01 0. -1.
         -5    1    3    3    0  502 -0.43353664928E+02  0.63264742757E+02  0.72747745604E+02  0.10579071240E+03  0.41800000000E+01 0. -1.
        -11    1    1    2    0    0 -0.22823067749E+02 -0.31460205338E+02  0.51084819747E+02  0.64189529909E+02  0.00000000000E+00 0.  1.
         11    1    1    2    0    0  0.34251037657E+02  0.77526307579E+01 -0.15285898332E+02  0.38300072481E+02  0.00000000000E+00 0. -1.
</event>
<event>
 7    1  0.2644565E-009  0.1684256E+03  0.7561462E-02  0.1179500E+00
          2   -1    0    0  501    0  0.00000000000E+00  0.00000000000E+00  0.10137173883E+04  0.10137173883E+04  0.00000000000E+00 0. -1.
         -2   -1    0    0    0  501 -0.00000000000E+00 -0.00000000000E+00 -0.40396732323E+02  0.40396732323E+02  0.00000000000E+00 0.  1.
         25    2    1    2    0    0  0.13582042266E+03  0.17311989418E+02  0.75673635420E+03  0.77913065686E+03  0.12509108086E+03 0.  0.
          5    1    3    3  502    0  0.23727229880E+02  0.51075668645E+02  0.13305321533E+03  0.14454181359E+03  0.41800000000E+01 0.  1.
         -5    1    3    3    0  502  0.11209319278E+03 -0.33763679227E+02  0.62368313886E+03  0.63458884327E+03  0.41800000000E+01 0.  1.
        -11    1    1    2    0    0 -0.44185179144E+02 -0.49276862127E+02  0.12551142966E+03  0.14189312235E+03  0.00000000000E+00 0.  1.
         11    1    1    2    0    0 -0.91635243515E+02  0.31964872709E+02  0.91072872152E+02  0.13309034144E+03  0.00000000000E+00 0. -1.
</event>
<event>
 7    1  0.2644565E-009  0.9877965E+02  0.7561462E-02  0.1282883E+00
         -2   -1    0    0    0  501 -0.00000000000E+00  0.00000000000E+00  0.41527041187E+03  0.41527041187E+03  0.00000000000E+00 0.  1.
          2   -1    0    0  501    0  0.00000000000E+00 -0.00000000000E+00 -0.32009029962E+02  0.32009029962E+02  0.00000000000E+00 0. -1.
         25    2    1    2    0    0 -0.30773615899E+02 -0.25382688090E+02  0.21284211667E+03  0.25007103592E+03  0.12506982085E+03 0.  0.
          5    1    3    3  502    0 -0.36698173094E+02  0.28615591440E+02  0.22074062950E+02  0.51675377473E+02  0.41800000000E+01 0.  1.
         -5    1    3    3    0  502  0.59245571941E+01 -0.53998279530E+02  0.19076805372E+03  0.19839565844E+03  0.41800000000E+01 0.  1.
        -11    1    1    2    0    0  0.45052664511E+02  0.50366776000E+02  0.95826288122E+02  0.11725712004E+03  0.00000000000E+00 0.  1.
         11    1    1    2    0    0 -0.14279048612E+02 -0.24984087911E+02  0.74592977114E+02  0.79951285873E+02  0.00000000000E+00 0. -1.
</event>
<event>
 7    1  0.2644565E-009  0.9617809E+02  0.7561462E-02  0.1288545E+00
         -1   -1    0    0    0  501 -0.00000000000E+00  0.00000000000E+00  0.55505613878E+02  0.55505613878E+02  0.00000000000E+00 0.  1.
          1   -1    0    0  501    0  0.00000000000E+00 -0.00000000000E+00 -0.22829479902E+03  0.22829479902E+03  0.00000000000E+00 0. -1.
         25    2    1    2    0    0 -0.81558874774E+01  0.98412220935E+01 -0.12578843016E+03  0.17785883400E+03  0.12509063720E+03 0.  0.
          5    1    3    3  502    0  0.92707666821E+01 -0.48381137136E+02 -0.10030222000E+03  0.11182436801E+03  0.41800000000E+01 0.  1.
         -5    1    3    3    0  502 -0.17426654159E+02  0.58222359229E+02 -0.25486210165E+02  0.66034465985E+02  0.41800000000E+01 0.  1.
        -11    1    1    2    0    0  0.36456464461E+02 -0.30033312908E+02 -0.52636143735E+02  0.70722254719E+02  0.00000000000E+00 0. -1.
         11    1    1    2    0    0 -0.28300576984E+02  0.20192090814E+02  0.56353887563E+01  0.35219324178E+02  0.00000000000E+00 0.  1.
</event>
<event>
 7    1  0.2644565E-009  0.1539609E+03  0.7561462E-02  0.1195689E+00
         -2   -1    0    0    0  501 -0.00000000000E+00  0.00000000000E+00  0.33858600187E+02  0.33858600187E+02  0.00000000000E+00 0.  1.
          2   -1    0    0  501    0  0.00000000000E+00 -0.00000000000E+00 -0.11558846777E+04  0.11558846777E+04  0.00000000000E+00 0. -1.
         25    2    1    2    0    0 -0.95014961641E+02  0.77156577506E+02 -0.91948992612E+03  0.93599714060E+03  0.12509173672E+03 0.  0.
          5    1    3    3  502    0  0.29836689036E+01  0.54250688305E+02 -0.56053064350E+03  0.56317325412E+03  0.41800000000E+01 0. -1.
         -5    1    3    3    0  502 -0.97998630544E+02  0.22905889201E+02 -0.35895928262E+03  0.37282388648E+03  0.41800000000E+01 0. -1.
        -11    1    1    2    0    0  0.95509400529E+02 -0.22604939981E+02 -0.12458730657E+03  0.15860336018E+03  0.00000000000E+00 0.  1.
         11    1    1    2    0    0 -0.49443888808E+00 -0.54551637525E+02 -0.77948844827E+02  0.95142777111E+02  0.00000000000E+00 0. -1.
</event>
<event>
 7    1  0.2644565E-009  0.1246255E+03  0.7561462E-02  0.1235656E+00
         -2   -1    0    0    0  501 -0.00000000000E+00  0.00000000000E+00  0.17454349784E+02  0.17454349784E+02  0.00000000000E+00 0.  1.
          2   -1    0    0  501    0  0.00000000000E+00 -0.00000000000E+00 -0.31751770336E+04  0.31751770336E+04  0.00000000000E+00 0. -1.
         25    2    1    2    0    0  0.80876348298E+02  0.79441066408E+01 -0.29331703880E+04  0.29369612572E+04  0.12509519939E+03 0.  0.
          5    1    3    3  502    0  0.57884853272E+02  0.51688287095E+02 -0.24541775243E+04  0.24554077316E+04  0.41800000000E+01 0.  1.
         -5    1    3    3    0  502  0.22991495026E+02 -0.43744180454E+02 -0.47899286364E+03  0.48155352557E+03  0.41800000000E+01 0.  1.
        -11    1    1    2    0    0 -0.42824355374E+02 -0.49594120264E+02 -0.11164507185E+03  0.12945317395E+03  0.00000000000E+00 0.  1.
         11    1    1    2    0    0 -0.38051992924E+02  0.41650013623E+02 -0.11290722403E+03  0.12621695227E+03  0.00000000000E+00 0. -1.
</event>
<event>
 7    1  0.2644565E-009  0.1122739E+03  0.7561462E-02  0.1256416E+00
          1   -1    0    0  501    0  0.00000000000E+00  0.00000000000E+00  0.30841821870E+03  0.30841821870E+03  0.00000000000E+00 0. -1.
         -1   -1    0    0    0  501 -0.00000000000E+00 -0.00000000000E+00 -0.10056056080E+03  0.10056056080E+03  0.00000000000E+00 0.  1.
         25    2    1    2    0    0 -0.56576924011E+01  0.51725704209E+02  0.26055925530E+03  0.29367675477E+03  0.12508937930E+03 0.  0.
          5    1    3    3  502    0  0.54812777736E+02  0.13917193951E+02  0.16425424349E+03  0.17376725179E+03  0.41800000000E+01 0. -1.
         -5    1    3    3    0  502 -0.60470470137E+02  0.37808510257E+02  0.96305011808E+02  0.11990950298E+03  0.41800000000E+01 0. -1.
        -11    1    1    2    0    0 -0.34767504342E+02 -0.42550768314E+02 -0.49105105303E+02  0.73693002443E+02  0.00000000000E+00 0. -1.
         11    1    1    2    0    0  0.40425196743E+02 -0.91749358946E+01 -0.35964920959E+01  0.41609022288E+02  0.00000000000E+00 0.  1.
</event>
<event>
 7    1  0.2644565E-009  0.9406970E+02  0.7561462E-02  0.1293285E+00
         -1   -1    0    0    0  501 -0.00000000000E+00  0.00000000000E+00  0.29662213850E+02  0.29662213850E+02  0.00000000000E+00 0.  1.
          1   -1    0    0  501    0  0.00000000000E+00 -0.00000000000E+00 -0.47303519218E+03  0.47303519218E+03  0.00000000000E+00 0. -1.
         25    2    1    2    0    0 -0.22473430114E+02  0.13362973138E+02 -0.33727768491E+03  0.36067552883E+03  0.12508787408E+03 0.  0.
          5    1    3    3  502    0  0.82069696534E+01  0.59646132887E+02 -0.98738852264E+02  0.11572315613E+03  0.41800000000E+01 0.  1.
         -5    1    3    3    0  502 -0.30680399768E+02 -0.46283159749E+02 -0.23853883265E+03  0.24495237269E+03  0.41800000000E+01 0.  1.
        -11    1    1    2    0    0  0.26441896083E+02 -0.38470558715E+02 -0.10683854877E+03  0.11659173752E+03  0.00000000000E+00 0. -1.
         11    1    1    2    0    0 -0.39684659687E+01  0.25107585577E+02  0.74325534892E+00  0.25430139681E+02  0.00000000000E+00 0.  1.
</event>
<event>
 7    1  0.2644565E-009  0.1585975E+03  0.7561462E-02  0.1190289E+00
          2   -1    0    0  501    0  0.00000000000E+00  0.00000000000E+00  0.93105337744E+03  0.93105337744E+03  0.00000000000E+00 0.  1.
         -2   -1    0    0    0  501 -0.00000000000E+00 -0.00000000000E+00 -0.63060622446E+02  0.63060622446E+02  0.00000000000E+00 0. -1.
         25    2    1    2    0    0  0.84952486484E+02  0.13260857734E+03  0.75713090203E+03  0.78338790472E+03  0.12508975460E+03 0.  0.
          5    1    3    3  502    0  0.23404673179E+02  0.50580379644E+02  0.54365711292E+03  0.54652235303E+03  0.41800000000E+01 0. -1.
         -5    1    3    3    0  502  0.61547813305E+02  0.82028197695E+02  0.21347378911E+03  0.23686555169E+03  0.41800000000E+01 0. -1.
        -11    1    1    2    0    0 -0.78964268218E+02 -0.11083617026E+03  0.12441638414E+03  0.18438939486E+03  0.00000000000E+00 0.  1.
         11    1    1    2    0    0 -0.59882182660E+01 -0.21772407078E+02 -0.13554531175E+02  0.26336700312E+02  0.00000000000E+00 0. -1.
</event>
<event>
 7    1  0.2644565E-009  0.1024738E+03  0.7561462E-02  0.1275178E+00
         -2   -1    0    0    0  501 -0.00000000000E+00  0.00000000000E+00  0.33127384264E+02  0.33127384264E+02  0.00000000000E+00 0.  1.
          2   -1    0    0  501    0  0.00000000000E+00 -0.00000000000E+00 -0.47714170847E+03  0.47714170847E+03  0.00000000000E+00 0. -1.
         25    2    1    2    0    0 -0.52552644213E+02  0.17729479511E+02 -0.32882541719E+03  0.35616198080E+03  0.12509630979E+03 0.  0.
          5    1    3    3  502    0 -0.24772369664E+02  0.69255721034E+02 -0.22675632931E+03  0.23842384628E+03  0.41800000000E+01 0.  1.
         -5    1    3    3    0  502 -0.27780274550E+02 -0.51526241523E+02 -0.10206908788E+03  0.11773813452E+03  0.41800000000E+01 0.  1.
        -11    1    1    2    0    0 -0.19072247240E+01 -0.18027684929E+02  0.76964325943E+01  0.19694415572E+02  0.00000000000E+00 0.  1.
         11    1    1    2    0    0  0.54459868937E+02  0.29820541848E+00 -0.12288533961E+03  0.13441269636E+03  0.00000000000E+00 0. -1.
</event>
<event>
 7    1  0.2644565E-009  0.2260835E+03  0.7561462E-02  0.1129427E+00
          2   -1    0    0  501    0  0.00000000000E+00  0.00000000000E+00  0.54051864506E+03  0.54051864506E+03  0.00000000000E+00 0. -1.
         -2   -1    0    0    0  501 -0.00000000000E+00 -0.00000000000E+00 -0.10823085955E+03  0.10823085955E+03  0.00000000000E+00 0.  1.
         25    2    1    2    0    0  0.20560477044E+03 -0.61748560693E+02  0.18838669500E+03  0.31180702503E+03  0.12509143709E+03 0.  0.
          5    1    3    3  502    0  0.17539247993E+03 -0.68703482684E+02  0.20327160023E+03  0.27716332082E+03  0.41800000000E+01 0.  1.
         -5    1    3    3    0  502  0.30212290507E+02  0.69549219917E+01 -0.14884905231E+02  0.34643704209E+02  0.41800000000E+01 0.  1.
        -11    1    1    2    0    0 -0.68580803142E+02  0.66273732950E+02  0.99520705679E+02  0.13784014327E+03  0.00000000000E+00 0.  1.
         11    1    1    2    0    0 -0.13702396729E+03 -0.45251722575E+01  0.14438038484E+03  0.19910233631E+03  0.00000000000E+00 0. -1.
</event>
<event>
 7    1  0.2644565E-009  0.2327830E+03  0.7561462E-02  0.1124696E+00
         -2   -1    0    0    0  501 -0.00000000000E+00  0.00000000000E+00  0.16921968251E+03  0.16921968251E+03  0.00000000000E+00 0.  1.
          2   -1    0    0  501    0  0.00000000000E+00 -0.00000000000E+00 -0.34261910014E+03  0.34261910014E+03  0.00000000000E+00 0. -1.
         25    2    1    2    0    0  0.18147213838E+02 -0.21071320656E+03 -0.58916403765E+02  0.25268271151E+03  0.12509209916E+03 0.  0.
          5    1    3    3  502    0 -0.47722732881E+02 -0.14178584539E+03 -0.44731978886E+02  0.15620213674E+03  0.41800000000E+01 0. -1.
         -5    1    3    3    0  502  0.65869946719E+02 -0.68927361177E+02 -0.14184424879E+02  0.96480574774E+02  0.41800000000E+01 0. -1.
        -11    1    1    2    0    0 -0.30761456839E+02  0.20376222785E+03 -0.78707997327E+02  0.22059071053E+03  0.00000000000E+00 0.  1.
         11    1    1    2    0    0  0.12614243001E+02  0.69509787103E+01 -0.35775016535E+02  0.38565360618E+02  0.00000000000E+00 0. -1.
</event>
<event>
 7    1  0.3426932E-009  0.1354727E+03  0.7561462E-02  0.1219554E+00
          1   -1    0    0  501    0  0.00000000000E+00  0.00000000000E+00  0.81607776203E+03  0.81607776203E+03  0.00000000000E+00 0. -1.
         -1   -1    0    0    0  501 -0.00000000000E+00 -0.00000000000E+00 -0.32460694986E+02  0.32460694986E+02  0.00000000000E+00 0.  1.
         25    2    1    2    0    0  0.78558433707E+02  0.88202371709E+02  0.34685457881E+03  0.38717705339E+03  0.12508751315E+03 0.  0.
          5    1    3    3  502    0 -0.25683702793E+01  0.25038081213E+02  0.23025502673E+03  0.23166430836E+03  0.41800000000E+01 0. -1.
         -5    1    3    3    0  502  0.81126803987E+02  0.63164290496E+02  0.11659955209E+03  0.15551274503E+03  0.41800000000E+01 0. -1.
        -11    1    1    2    0    0 -0.66515933362E+02 -0.14795813084E+02  0.14419376124E+03  0.15948393730E+03  0.00000000000E+00 0.  1.
         11    1    1    2    0    0 -0.12042500345E+02 -0.73406558625E+02  0.29256872699E+03  0.30187746633E+03  0.00000000000E+00 0. -1.
</event>
<event>
 7    1  0.2644565E-009  0.1209423E+03  0.7561462E-02  0.1241551E+00
          2   -1    0    0  501    0  0.00000000000E+00  0.00000000000E+00  0.52638695788E+03  0.52638695788E+03  0.00000000000E+00 0. -1.
         -2   -1    0    0    0  501 -0.00000000000E+00 -0.00000000000E+00 -0.36811871120E+02  0.36811871120E+02  0.00000000000E+00 0.  1.
         25    2    1    2    0    0 -0.47503169863E+02 -0.68253866669E+02  0.32786467086E+03  0.36063523853E+03  0.12508953355E+03 0.  0.
          5    1    3    3  502    0  0.20013299478E+02 -0.46647098637E+02  0.25048105747E+03  0.25560656587E+03  0.41800000000E+01 0.  1.
         -5    1    3    3    0  502 -0.67516469341E+02 -0.21606768031E+02  0.77383613394E+02  0.10502867265E+03  0.41800000000E+01 0.  1.
        -11    1    1    2    0    0  0.73062253243E+02  0.50007352873E+02  0.13442227390E+03  0.16096016871E+03  0.00000000000E+00 0. -1.
         11    1    1    2    0    0 -0.25559083380E+02  0.18246513795E+02  0.27288141998E+02  0.41603421766E+02  0.00000000000E+00 0.  1.
</event>
<event>
 7    1  0.2644565E-009  0.1220782E+03  0.7561462E-02  0.1239708E+00
          1   -1    0    0  501    0  0.00000000000E+00  0.00000000000E+00  0.24764733974E+03  0.24764733974E+03  0.00000000000E+00 0. -1.
         -1   -1    0    0    0  501 -0.00000000000E+00 -0.00000000000E+00 -0.12831471579E+03  0.12831471579E+03  0.00000000000E+00 0.  1.
         25    2    1    2    0    0 -0.15039215487E+02  0.79048302200E+02 -0.59212223278E+02  0.16009034074E+03  0.12509203704E+03 0.  0.
          5    1    3    3  502    0 -0.61326579620E+02  0.25901039452E+02 -0.59654446210E+02  0.89487086025E+02  0.41800000000E+01 0. -1.
         -5    1    3    3    0  502  0.46287364133E+02  0.53147262748E+02  0.44222293200E+00  0.70603254720E+02  0.41800000000E+01 0. -1.
        -11    1    1    2    0    0 -0.22450077905E+02 -0.61478576665E+02  0.15497951371E+03  0.16823278829E+03  0.00000000000E+00 0. -1.
         11    1    1    2    0    0  0.37489293393E+02 -0.17569725535E+02  0.23565333516E+02  0.47638926501E+02  0.00000000000E+00 0.  1.
</event>
<event>
 7    1  0.2644565E-009  0.1507440E+03  0.7561462E-02  0.1199562E+00
         -3   -1    0    0    0  501 -0.00000000000E+00  0.00000000000E+00  0.23697003525E+03  0.23697003525E+03  0.00000000000E+00 0.  1.
          3   -1    0    0  501    0  0.00000000000E+00 -0.00000000000E+00 -0.14307492858E+03  0.14307492858E+03  0.00000000000E+00 0. -1.
         25    2    1    2    0    0 -0.19545329874E+02 -0.14482630468E+03  0.25562161074E+02  0.19405619550E+03  0.12509078498E+03 0.  0.
          5    1    3    3  502    0  0.12998249081E+02 -0.93077538753E+02  0.70927995949E+02  0.11781610972E+03  0.41800000000E+01 0. -1.
         -5    1    3    3    0  502 -0.32543578955E+02 -0.51748765924E+02 -0.45365834876E+02  0.76240085781E+02  0.41800000000E+01 0. -1.
        -11    1    1    2    0    0  0.17942551540E+01  0.14671784967E+02 -0.22044753191E+02  0.26541510299E+02  0.00000000000E+00 0. -1.
         11    1    1    2    0    0  0.17751074720E+02  0.13015451971E+03  0.90377698784E+02  0.15944725803E+03  0.00000000000E+00 0.  1.
</event>
<event>
 7    1  0.2644565E-009  0.1902346E+03  0.7561462E-02  0.1158250E+00
         -2   -1    0    0    0  501 -0.00000000000E+00  0.00000000000E+00  0.10465873884E+03  0.10465873884E+03  0.00000000000E+00 0.  1.
          2   -1    0    0  501    0  0.00000000000E+00 -0.00000000000E+00 -0.41355509003E+03  0.41355509003E+03  0.00000000000E+00 0. -1.
         25    2    1    2    0    0  0.11286679494E+03  0.10954317935E+03 -0.59428558539E+02  0.20956562006E+03  0.12508946400E+03 0.  0.
          5    1    3    3  502    0  0.59700874162E+02 -0.16406633771E+02 -0.32915751203E+02  0.70244509285E+02  0.41800000000E+01 0. -1.
         -5    1    3    3    0  502  0.53165920773E+02  0.12594981312E+03 -0.26512807336E+02  0.13932111078E+03  0.41800000000E+01 0. -1.
        -11    1    1    2    0    0 -0.31350560936E+02  0.13426291562E+02 -0.50953353062E+02  0.61313678444E+02  0.00000000000E+00 0.  1.
         11    1    1    2    0    0 -0.81516234000E+02 -0.12296947091E+03 -0.19851443959E+03  0.24733453035E+03  0.00000000000E+00 0. -1.
</event>
<event>
 7    1  0.2644565E-009  0.1294405E+03  0.7561462E-02  0.1228288E+00
         -1   -1    0    0    0  501 -0.00000000000E+00  0.00000000000E+00  0.11446709368E+03  0.11446709368E+03  0.00000000000E+00 0.  1.
          1   -1    0    0  501    0  0.00000000000E+00 -0.00000000000E+00 -0.19588283580E+03  0.19588283580E+03  0.00000000000E+00 0. -1.
         25    2    1    2    0    0  0.86820459023E+02  0.51695771294E+02 -0.25407306721E+02  0.16279640559E+03  0.12508754360E+03 0.  0.
          5    1    3    3  502    0  0.54383312399E+02 -0.24909973776E+02  0.25518568577E+02  0.65166871977E+02  0.41800000000E+01 0.  1.
         -5    1    3    3    0  502  0.32437146623E+02  0.76605745071E+02 -0.50925875298E+02  0.97629533614E+02  0.41800000000E+01 0.  1.
        -11    1    1    2    0    0 -0.14422151724E+02 -0.39699242347E+02 -0.60777687885E+02  0.74013212658E+02  0.00000000000E+00 0. -1.
         11    1    1    2    0    0 -0.72398307298E+02 -0.11996528947E+02  0.47692524900E+01  0.73540311230E+02  0.00000000000E+00 0.  1.
</event>
<event>
 7    1  0.2644565E-009  0.3704743E+03  0.7561462E-02  0.1054512E+00
         -2   -1    0    0    0  501 -0.00000000000E+00  0.00000000000E+00  0.14952472974E+03  0.14952472974E+03  0.00000000000E+00 0.  1.
          2   -1    0    0  501    0  0.00000000000E+00 -0.00000000000E+00 -0.92690189244E+03  0.92690189244E+03  0.00000000000E+00 0. -1.
         25    2    1    2    0    0 -0.11345764994E+03  0.33495949892E+03 -0.34245624217E+03  0.50793159404E+03  0.12509085569E+03 0.  0.
          5    1    3    3  502    0 -0.11267240187E+03  0.34560603217E+03 -0.32959783064E+03  0.49070439368E+03  0.41800000000E+01 0. -1.
         -5    1    3    3    0  502 -0.78524807503E+00 -0.10646533259E+02 -0.12858411532E+02  0.17227200356E+02  0.41800000000E+01 0. -1.
        -11    1    1    2    0    0  0.77924082425E+02 -0.92706160471E+02 -0.15165802996E+03  0.19407924377E+03  0.00000000000E+00 0.  1.
         11    1    1    2    0    0  0.35533567518E+02 -0.24225333844E+03 -0.28326289057E+03  0.37441578437E+03  0.00000000000E+00 0. -1.
</event>
<event>
 7    1  0.2644565E-009  0.2058418E+03  0.7561462E-02  0.1144902E+00
         -2   -1    0    0    0  501 -0.00000000000E+00  0.00000000000E+00  0.28850095735E+03  0.28850095735E+03  0.00000000000E+00 0.  1.
          2   -1    0    0  501    0  0.00000000000E+00 -0.00000000000E+00 -0.17773331616E+03  0.17773331616E+03  0.00000000000E+00 0. -1.
         25    2    1    2    0    0  0.12863537510E+03 -0.14757340937E+03  0.91509641450E+02  0.24969490429E+03  0.12509420398E+03 0.  0.
          5    1    3    3  502    0  0.38858693004E+01 -0.54017625858E+02 -0.20069402218E+02  0.57907315505E+02  0.41800000000E+01 0.  1.
         -5    1    3    3    0  502  0.12474950580E+03 -0.93555783515E+02  0.11157904367E+03  0.19178758879E+03  0.41800000000E+01 0.  1.
        -11    1    1    2    0    0 -0.18039556203E+02  0.52567198477E+02 -0.29349922786E+02  0.62850249890E+02  0.00000000000E+00 0. -1.
         11    1    1    2    0    0 -0.11059581890E+03  0.95006210896E+02  0.48607922532E+02  0.15368911933E+03  0.00000000000E+00 0.  1.
</event>
<event>
 7    1  0.2644565E-009  0.9449250E+02  0.7561462E-02  0.1292323E+00
         -2   -1    0    0    0  501 -0.00000000000E+00  0.00000000000E+00  0.25226302512E+02  0.25226302512E+02  0.00000000000E+00 0.  1.
          2   -1    0    0  501    0  0.00000000000E+00 -0.00000000000E+00 -0.78875852484E+03  0.78875852484E+03  0.00000000000E+00 0. -1.
         25    2    1    2    0    0  0.37854908392E+01  0.65253389753E+02 -0.58674719197E+03  0.60348199432E+03  0.12508363349E+03 0.  0.
          5    1    3    3  502    0 -0.12189113895E+02  0.57770738579E+02 -0.98626316704E+02  0.11502458642E+03  0.41800000000E+01 0. -1.
         -5    1    3    3    0  502  0.15974604734E+02  0.74826511737E+01 -0.48812087526E+03  0.48845740790E+03  0.41800000000E+01 0. -1.
        -11    1    1    2    0    0 -0.10828383723E+02  0.21793049130E+02 -0.22122799868E+02  0.32887826903E+02  0.00000000000E+00 0. -1.
         11    1    1    2    0    0  0.70428928835E+01 -0.87046438883E+02 -0.15466223049E+03  0.17761500613E+03  0.00000000000E+00 0.  1.
</event>
<event>
 6    1  0.2644565E-009  0.5091062E+02  0.7561462E-02  0.1440491E+00
         -1   -1    0    0    0  501 -0.00000000000E+00  0.00000000000E+00  0.93311913667E+02  0.93311913667E+02  0.00000000000E+00 0.  1.
          1   -1    0    0  501    0  0.00000000000E+00 -0.00000000000E+00 -0.16224347124E+03  0.16224347124E+03  0.00000000000E+00 0. -1.
          5    1    1    2  502    0 -0.14212824799E+02  0.93653228230E+01  0.31836277839E+02  0.36341913089E+02  0.41800000000E+01 0.  1.
         -5    1    1    2    0  502  0.73604095474E-01  0.20379940221E+02 -0.11644428730E+03  0.11828817280E+03  0.41800000000E+01 0.  1.
        -11    1    1    2    0    0  0.16080415664E+02 -0.45168370046E+02 -0.27335527596E+02  0.55190510864E+02  0.00000000000E+00 0. -1.
         11    1    1    2    0    0 -0.19411949605E+01  0.15423107002E+02  0.43011979486E+02  0.45734788147E+02  0.00000000000E+00 0.  1.
</event>
<event>
 7    1  0.2644565E-009  0.1121083E+03  0.7561462E-02  0.1256715E+00
          4   -1    0    0  501    0  0.00000000000E+00  0.00000000000E+00  0.12221142677E+03  0.12221142677E+03  0.00000000000E+00 0.  1.
         -4   -1    0    0    0  501 -0.00000000000E+00 -0.00000000000E+00 -0.14885596719E+03  0.14885596719E+03  0.00000000000E+00 0. -1.
         25    2    1    2    0    0 -0.22014057895E+02  0.72249797419E+02  0.10630107317E+02  0.14651135989E+03  0.12509167607E+03 0.  0.
          5    1    3    3  502    0 -0.48282867207E+02  0.35730118805E+02  0.56183710923E+02  0.82352646762E+02  0.41800000000E+01 0.  1.
         -5    1    3    3    0  502  0.26268809312E+02  0.36519678614E+02 -0.45553603606E+02  0.64158713128E+02  0.41800000000E+01 0.  1.
        -11    1    1    2    0    0  0.54813235195E+02 -0.22531492159E+02 -0.17397098247E+02  0.61764212283E+02  0.00000000000E+00 0.  1.
         11    1    1    2    0    0 -0.32799177301E+02 -0.49718305260E+02 -0.19877549485E+02  0.62791821785E+02  0.00000000000E+00 0. -1.
</event>
<event>
 7    1  0.2644565E-009  0.1814551E+03  0.7561462E-02  0.1166402E+00
          1   -1    0    0  501    0  0.00000000000E+00  0.00000000000E+00  0.28299679304E+02  0.28299679304E+02  0.00000000000E+00 0. -1.
         -1   -1    0    0    0  501 -0.00000000000E+00 -0.00000000000E+00 -0.15144714533E+04  0.15144714533E+04  0.00000000000E+00 0.  1.
         25    2    1    2    0    0 -0.13999784103E+03  0.83870128400E+02 -0.10963557351E+04  0.11154716042E+04  0.12508959912E+03 0.  0.
          5    1    3    3  502    0 -0.15119379529E+03  0.97795830567E+02 -0.87435285982E+03  0.89271159065E+03  0.41800000000E+01 0.  1.
         -5    1    3    3    0  502  0.11195954256E+02 -0.13925702167E+02 -0.22200287533E+03  0.22276001353E+03  0.41800000000E+01 0.  1.
        -11    1    1    2    0    0  0.26905573460E+02 -0.25964602873E+02 -0.16385833667E+03  0.16807029774E+03  0.00000000000E+00 0.  1.
         11    1    1    2    0    0  0.11309226757E+03 -0.57905525527E+02 -0.22595770221E+03  0.25922923072E+03  0.00000000000E+00 0. -1.
</event>
<event>
 7    1  0.2644565E-009  0.1047254E+03  0.7561462E-02  0.1270662E+00
         -2   -1    0    0    0  501 -0.00000000000E+00  0.00000000000E+00  0.12829834830E+03  0.12829834830E+03  0.00000000000E+00 0.  1.
          2   -1    0    0  501    0  0.00000000000E+00 -0.00000000000E+00 -0.19230199269E+03  0.19230199269E+03  0.00000000000E+00 0. -1.
         25    2    1    2    0    0 -0.87666308183E+02  0.27758226994E+02 -0.10174507296E+03  0.18562000961E+03  0.12508727889E+03 0.  0.
          5    1    3    3  502    0 -0.45081572987E+02  0.41982794977E+02  0.12323562902E+02  0.62962257740E+02  0.41800000000E+01 0.  1.
         -5    1    3    3    0  502 -0.42584735195E+02 -0.14224567982E+02 -0.11406863587E+03  0.12265775187E+03  0.41800000000E+01 0.  1.
        -11    1    1    2    0    0  0.28933380296E+02  0.12386043744E+02  0.53540222966E+02  0.62105636220E+02  0.00000000000E+00 0.  1.
         11    1    1    2    0    0  0.58732927887E+02 -0.40144270739E+02 -0.15798794391E+02  0.72874695166E+02  0.00000000000E+00 0. -1.
</event>
<event>
 7    1  0.2644565E-009  0.1007476E+03  0.7561462E-02  0.1278732E+00
          1   -1    0    0  501    0  0.00000000000E+00  0.00000000000E+00  0.86703851036E+02  0.86703851036E+02  0.00000000000E+00 0. -1.
         -1   -1    0    0    0  501 -0.00000000000E+00 -0.00000000000E+00 -0.24473381285E+03  0.24473381285E+03  0.00000000000E+00 0.  1.
         25    2    1    2    0    0 -0.39119495751E+02 -0.10409325871E+02  0.11818414480E+02  0.13199387540E+03  0.12507605371E+03 0.  0.
          5    1    3    3  502    0 -0.12539228018E+02  0.57013134040E+02  0.52574785910E+00  0.58527587539E+02  0.41800000000E+01 0.  1.
         -5    1    3    3    0  502 -0.26580267734E+02 -0.67422459911E+02  0.11292666621E+02  0.73466287865E+02  0.41800000000E+01 0.  1.
        -11    1    1    2    0    0  0.18593491426E+02  0.34216900438E+02 -0.16258163792E+03  0.16718045097E+03  0.00000000000E+00 0.  1.
         11    1    1    2    0    0  0.20526004326E+02 -0.23807574567E+02 -0.72667383691E+01  0.32263337503E+02  0.00000000000E+00 0. -1.
</event>
<event>
 7    1  0.2644565E-009  0.1673644E+03  0.7561462E-02  0.1180625E+00
         -1   -1    0    0    0  501 -0.00000000000E+00  0.00000000000E+00  0.30288934459E+02  0.30288934459E+02  0.00000000000E+00 0.  1.
          1   -1    0    0  501    0  0.00000000000E+00 -0.00000000000E+00 -0.13783068463E+04  0.13783068463E+04  0.00000000000E+00 0. -1.
         25    2    1    2    0    0  0.14028136660E+03  0.64064019502E+02 -0.43502329252E+03  0.47820299409E+03  0.12509907315E+03 0.  0.
          5    1    3    3  502    0  0.80958140992E+02  0.47385504807E+02 -0.39160273329E+03  0.40270309135E+03  0.41800000000E+01 0.  1.
         -5    1    3    3    0  502  0.59323225612E+02  0.16678514695E+02 -0.43420559228E+02  0.75499902736E+02  0.41800000000E+01 0.  1.
        -11    1    1    2    0    0  0.10698874065E+02  0.63827020940E+01 -0.67200563070E+02  0.68345595829E+02  0.00000000000E+00 0.  1.
         11    1    1    2    0    0 -0.15098024067E+03 -0.70446721596E+02 -0.84579405624E+03  0.86204719083E+03  0.00000000000E+00 0. -1.
</event>
<event>
 7    1  0.2644565E-009  0.1146274E+03  0.7561462E-02  0.1252233E+00
          2   -1    0    0  501    0  0.00000000000E+00  0.00000000000E+00  0.23010313875E+02  0.23010313875E+02  0.00000000000E+00 0.  1.
         -2   -1    0    0    0  501 -0.00000000000E+00 -0.00000000000E+00 -0.91680104315E+03  0.91680104315E+03  0.00000000000E+00 0. -1.
         25    2    1    2    0    0  0.75270982586E+02  0.12660852403E+02 -0.65079764309E+03  0.66709162181E+03  0.12509053377E+03 0.  0.
          5    1    3    3  502    0 -0.14593800366E+02 -0.38558947141E+02 -0.23325044562E+03  0.23690296367E+03  0.41800000000E+01 0.  1.
         -5    1    3    3    0  502  0.89864782953E+02  0.51219799544E+02 -0.41754719747E+03  0.43018865814E+03  0.41800000000E+01 0.  1.
        -11    1    1    2    0    0 -0.85867374951E+01  0.10625043405E+02  0.52412376317E+01  0.14631957493E+02  0.00000000000E+00 0.  1.
         11    1    1    2    0    0 -0.66684245091E+02 -0.23285895808E+02 -0.24823432382E+03  0.25808777772E+03  0.00000000000E+00 0. -1.
</event>
<event>
 7    1  0.2644565E-009  0.1112362E+03  0.7561462E-02  0.1258298E+00
          2   -1    0    0  501    0  0.00000000000E+00  0.00000000000E+00  0.14368709271E+04  0.14368709271E+04  0.00000000000E+00 0. -1.
         -2   -1    0    0    0  501 -0.00000000000E+00 -0.00000000000E+00 -0.11044209666E+02  0.11044209666E+02  0.00000000000E+00 0.  1.
         25    2    1    2    0    0 -0.45458056521E+02  0.19725916088E+02  0.10869493820E+04  0.10952452906E+04  0.12509093040E+03 0.  0.
          5    1    3    3  502    0  0.16974551399E+02  0.51948844644E+02  0.28567143680E+03  0.29088220993E+03  0.41800000000E+01 0. -1.
         -5    1    3    3    0  502 -0.62432607921E+02 -0.32222928555E+02  0.80127794517E+03  0.80436308063E+03  0.41800000000E+01 0. -1.
        -11    1    1    2    0    0  0.99531961933E+01  0.32576968486E+02  0.10414018314E+03  0.10956962506E+03  0.00000000000E+00 0.  1.
         11    1    1    2    0    0  0.35504860328E+02 -0.52302884574E+02  0.23473715234E+03  0.24310022116E+03  0.00000000000E+00 0. -1.
</event>
<event>
 7    1  0.2644565E-009  0.2103537E+03  0.7561462E-02  0.1141286E+00
         -1   -1    0    0    0  501 -0.00000000000E+00  0.00000000000E+00  0.30670800210E+03  0.30670800210E+03  0.00000000000E+00 0.  1.
          1   -1    0    0  501    0  0.00000000000E+00 -0.00000000000E+00 -0.17432232398E+03  0.17432232398E+03  0.00000000000E+00 0. -1.
         25    2    1    2    0    0  0.92912348726E+02 -0.18233906345E+03  0.63439120260E+02  0.24809647103E+03  0.12508836217E+03 0.  0.
          5    1    3    3  502    0 -0.78611034806E+01 -0.43736549123E+02 -0.29114562812E+02  0.53289894397E+02  0.41800000000E+01 0. -1.
         -5    1    3    3    0  502  0.10077345221E+03 -0.13860251433E+03  0.92553683073E+02  0.19480657663E+03  0.41800000000E+01 0. -1.
        -11    1    1    2    0    0 -0.85763200145E+02  0.16700668804E+03  0.29541253420E+02  0.19005064063E+03  0.00000000000E+00 0. -1.
         11    1    1    2    0    0 -0.71491485808E+01  0.15332375416E+02  0.39405304436E+02  0.42883214420E+02  0.00000000000E+00 0.  1.
</event>
<event>
 7    1  0.2644565E-009  0.1459802E+03  0.7561462E-02  0.1205501E+00
         -2   -1    0    0    0  501 -0.00000000000E+00  0.00000000000E+00  0.31281485900E+02  0.31281485900E+02  0.00000000000E+00 0.  1.
          2   -1    0    0  501    0  0.00000000000E+00 -0.00000000000E+00 -0.72877246026E+03  0.72877246026E+03  0.00000000000E+00 0. -1.
         25    2    1    2    0    0 -0.38991060511E+02 -0.99124768117E+02 -0.40167371298E+03  0.43398006166E+03  0.12510355618E+03 0.  0.
          5    1    3    3  502    0  0.41993157100E+02 -0.62096207922E+02 -0.17680411660E+03  0.19208470092E+03  0.41800000000E+01 0. -1.
         -5    1    3    3    0  502 -0.80984217611E+02 -0.37028560195E+02 -0.22486959638E+03  0.24189536074E+03  0.41800000000E+01 0. -1.
        -11    1    1    2    0    0  0.22565441969E+02 -0.43365593790E+01 -0.18084261842E+02  0.29241160116E+02  0.00000000000E+00 0.  1.
         11    1    1    2    0    0  0.16425618542E+02  0.10346132750E+03 -0.27773299953E+03  0.29683272438E+03  0.00000000000E+00 0. -1.
</event>
<event>
 7    1  0.2644565E-009  0.1244778E+03  0.7561462E-02  0.1235888E+00
         -2   -1    0    0    0  501 -0.00000000000E+00  0.00000000000E+00  0.75472216922E+02  0.75472216922E+02  0.00000000000E+00 0. -1.
          2   -1    0    0  501    0  0.00000000000E+00 -0.00000000000E+00 -0.21597743370E+03  0.21597743370E+03  0.00000000000E+00 0.  1.
         25    2    1    2    0    0 -0.57345282562E+02  0.38314854465E+02 -0.69258988787E+02  0.15874509398E+03  0.12508672124E+03 0.  0.
          5    1    3    3  502    0  0.38998949049E+02  0.15999050797E+02 -0.10524783986E+02  0.43647807864E+02  0.41800000000E+01 0.  1.
         -5    1    3    3    0  502 -0.96344231611E+02  0.22315803668E+02 -0.58734204802E+02  0.11509728612E+03  0.41800000000E+01 0.  1.
        -11    1    1    2    0    0  0.65183715517E+02  0.32987355765E+01 -0.24715672612E+02  0.69790134673E+02  0.00000000000E+00 0. -1.
         11    1    1    2    0    0 -0.78384329551E+01 -0.41613590042E+02 -0.46530555377E+02  0.62914421964E+02  0.00000000000E+00 0.  1.
</event>
<event>
 7    1  0.2644565E-009  0.1837326E+03  0.7561462E-02  0.1164239E+00
          1   -1    0    0  501    0  0.00000000000E+00  0.00000000000E+00  0.58998538976E+02  0.58998538976E+02  0.00000000000E+00 0. -1.
         -1   -1    0    0    0  501 -0.00000000000E+00 -0.00000000000E+00 -0.73399287235E+03  0.73399287235E+03  0.00000000000E+00 0.  1.
         25    2    1    2    0    0 -0.13082255208E+02 -0.17525059470E+03 -0.40238168446E+03  0.45655471494E+03  0.12508905389E+03 0.  0.
          5    1    3    3  502    0  0.19882821838E+01 -0.83929811523E+01 -0.16879914057E+03  0.16907104322E+03  0.41800000000E+01 0.  1.
         -5    1    3    3    0  502 -0.15070537392E+02 -0.16685761354E+03 -0.23358254389E+03  0.28748367172E+03  0.41800000000E+01 0.  1.
        -11    1    1    2    0    0 -0.28094830270E+02  0.10658667089E+03 -0.11293727166E+03  0.15781275370E+03  0.00000000000E+00 0.  1.
         11    1    1    2    0    0  0.41177085478E+02  0.68663923804E+02 -0.15967537725E+03  0.17862394268E+03  0.00000000000E+00 0. -1.
</event>
<event>
 7    1  0.2644565E-009  0.9966365E+02  0.7561462E-02  0.1281005E+00
          1   -1    0    0  501    0  0.00000000000E+00  0.00000000000E+00  0.17554021307E+03  0.17554021307E+03  0.00000000000E+00 0. -1.
         -1   -1    0    0    0  501 -0.00000000000E+00 -0.00000000000E+00 -0.83067939956E+02  0.83067939956E+02  0.00000000000E+00 0.  1.
         25    2    1    2    0    0  0.38052851700E+02 -0.36100228808E+02  0.69514191557E+02  0.15241153996E+03  0.12508320688E+03 0.  0.
          5    1    3    3  502    0 -0.23693389238E+02  0.27948055472E+02 -0.37754999174E+01  0.37070167222E+02  0.41800000000E+01 0. -1.
         -5    1    3    3    0  502  0.61746240938E+02 -0.64048284279E+02  0.73289691474E+02  0.11534137274E+03  0.41800000000E+01 0. -1.
        -11    1    1    2    0    0 -0.43179079045E+02  0.68842769586E+01 -0.24582723472E+02  0.50161104750E+02  0.00000000000E+00 0.  1.
         11    1    1    2    0    0  0.51262273453E+01  0.29215951849E+02  0.47540805032E+02  0.56035508317E+02  0.00000000000E+00 0. -1.
</event>
<event>
 7    1  0.2644565E-009  0.7757860E+02  0.7561462E-02  0.1336067E+00
         -1   -1    0    0    0  501 -0.00000000000E+00  0.00000000000E+00  0.20688519867E+03  0.20688519867E+03  0.00000000000E+00 0.  1.
          1   -1    0    0  501    0  0.00000000000E+00 -0.00000000000E+00 -0.65344478305E+02  0.65344478305E+02  0.00000000000E+00 0. -1.
         25    2    1    2    0    0 -0.17319784594E+02 -0.13546561517E+02  0.12535433613E+03  0.17845152904E+03  0.12509098434E+03 0.  0.
          5    1    3    3  502    0 -0.38021379461E+02 -0.24948336350E+02  0.14205307853E+03  0.14921325110E+03  0.41800000000E+01 0. -1.
         -5    1    3    3    0  502  0.20701594867E+02  0.11401774834E+02 -0.16698742401E+02  0.29238277945E+02  0.41800000000E+01 0. -1.
        -11    1    1    2    0    0 -0.28559639308E+02  0.25271374175E+02 -0.10324713912E+02  0.39508164568E+02  0.00000000000E+00 0. -1.
         11    1    1    2    0    0  0.45879423902E+02 -0.11724812659E+02  0.26511098147E+02  0.54269983365E+02  0.00000000000E+00 0.  1.
</event>
<event>
 7    1  0.2644565E-009  0.1605895E+03  0.7561462E-02  0.1188033E+00
          1   -1    0    0  501    0  0.00000000000E+00  0.00000000000E+00  0.45452003752E+03  0.45452003752E+03  0.00000000000E+00 0. -1.
         -1   -1    0    0    0  501 -0.00000000000E+00 -0.00000000000E+00 -0.95775695914E+02  0.95775695914E+02  0.00000000000E+00 0.  1.
         25    2    1    2    0    0  0.55106425340E+02  0.12053453507E+03  0.34222233227E+03  0.38772210532E+03  0.12508802499E+03 0.  0.
          5    1    3    3  502    0  0.54248373053E+02  0.14462621775E+03  0.31658938749E+03  0.35228673195E+03  0.41800000000E+01 0.  1.
         -5    1    3    3    0  502  0.85805228693E+00 -0.24091682678E+02  0.25632944781E+02  0.35435373373E+02  0.41800000000E+01 0.  1.
        -11    1    1    2    0    0 -0.48199403202E+02 -0.43745282083E+02  0.46348322931E+02  0.79906190074E+02  0.00000000000E+00 0. -1.
         11    1    1    2    0    0 -0.69070221377E+01 -0.76789252988E+02 -0.29826313590E+02  0.82667438038E+02  0.00000000000E+00 0.  1.
</event>
<event>
 7    1  0.3557897E-009  0.9773822E+02  0.7561462E-02  0.1285125E+00
         -1   -1    0    0    0  501 -0.00000000000E+00  0.00000000000E+00  0.31452576102E+02  0.31452576102E+02  0.00000000000E+00 0.  1.
          1   -1    0    0  501    0  0.00000000000E+00 -0.00000000000E+00 -0.48645000374E+03  0.48645000374E+03  0.00000000000E+00 0. -1.
         25    2    1    2    0    0 -0.19043135174E+02 -0.21970523840E+02 -0.14628777554E+03  0.19466294937E+03  0.12509278824E+03 0.  0.
          5    1    3    3  502    0  0.14723734495E+02  0.32300706671E+02 -0.86059485803E+00  0.35753839409E+02  0.41800000000E+01 0. -1.
         -5    1    3    3    0  502 -0.33766869670E+02 -0.54271230511E+02 -0.14542718068E+03  0.15890910996E+03  0.41800000000E+01 0. -1.
        -11    1    1    2    0    0 -0.33461460059E+02 -0.90897627354E+01 -0.12057791460E+03  0.12546444351E+03  0.00000000000E+00 0. -1.
         11    1    1    2    0    0  0.52504595234E+02  0.31060286576E+02 -0.18813173750E+03  0.19777518696E+03  0.00000000000E+00 0.  1.
</event>
<event>
 7    1  0.2644565E-009  0.1442528E+03  0.7561462E-02  0.1207718E+00
          1   -1    0    0  501    0  0.00000000000E+00  0.00000000000E+00  0.78092850213E+03  0.78092850213E+03  0.00000000000E+00 0. -1.
         -1   -1    0    0    0  501 -0.00000000000E+00 -0.00000000000E+00 -0.43821691760E+02  0.43821691760E+02  0.00000000000E+00 0.  1.
         25    2    1    2    0    0 -0.85810547280E+02  0.55134560689E+02  0.14678009025E+03  0.21816305495E+03  0.12508978312E+03 0.  0.
          5    1    3    3  502    0 -0.51646536564E+02 -0.28114422656E+02  0.10140884462E+03  0.11729881358E+03  0.41800000000E+01 0. -1.
         -5    1    3    3    0  502 -0.34164010716E+02  0.83248983345E+02  0.45371245637E+02  0.10086424137E+03  0.41800000000E+01 0. -1.
        -11    1    1    2    0    0  0.25031455082E+02 -0.72138477637E+02  0.31625958943E+03  0.32534698647E+03  0.00000000000E+00 0.  1.
         11    1    1    2    0    0  0.60779092198E+02  0.17003916947E+02  0.27406713069E+03  0.28124015247E+03  0.00000000000E+00 0. -1.
</event>
<event>
 7    1  0.2644565E-009  0.1196216E+03  0.7561462E-02  0.1243723E+00
         -4   -1    0    0    0  501 -0.00000000000E+00  0.00000000000E+00  0.22811069231E+03  0.22811069231E+03  0.00000000000E+00 0.  1.
          4   -1    0    0  501    0  0.00000000000E+00 -0.00000000000E+00 -0.73083493513E+02  0.73083493513E+02  0.00000000000E+00 0. -1.
         25    2    1    2    0    0 -0.52333114160E+02 -0.36020883840E+02  0.11922508009E+03  0.18411166131E+03  0.12508487198E+03 0.  0.
          5    1    3    3  502    0  0.18364099934E+02  0.27316664983E+02  0.69180941618E+02  0.76726236942E+02  0.41800000000E+01 0.  1.
         -5    1    3    3    0  502 -0.70697214094E+02 -0.63337548823E+02  0.50044138470E+02  0.10738542437E+03  0.41800000000E+01 0.  1.
        -11    1    1    2    0    0  0.48510294477E+01 -0.29632687501E+02  0.14272734569E+02  0.33246648061E+02  0.00000000000E+00 0. -1.
         11    1    1    2    0    0  0.47482084712E+02  0.65653571341E+02  0.21529384136E+02  0.83835876448E+02  0.00000000000E+00 0.  1.
</event>
<event>
 7    1  0.2644565E-009  0.1146192E+03  0.7561462E-02  0.1252247E+00
         -2   -1    0    0    0  501 -0.00000000000E+00  0.00000000000E+00  0.79289945574E+02  0.79289945574E+02  0.00000000000E+00 0.  1.
          2   -1    0    0  501    0  0.00000000000E+00 -0.00000000000E+00 -0.31359665944E+03  0.31359665944E+03  0.00000000000E+00 0. -1.
         25    2    1    2    0    0  0.41670811559E+02  0.36566694993E+02 -0.24967263278E+03  0.28470786526E+03  0.12509422552E+03 0.  0.
          5    1    3    3  502    0  0.86110836485E+02  0.16603782593E+02 -0.15422024992E+03  0.17746019171E+03  0.41800000000E+01 0.  1.
         -5    1    3    3    0  502 -0.44440024925E+02  0.19962912401E+02 -0.95452382862E+02  0.10724767355E+03  0.41800000000E+01 0.  1.
        -11    1    1    2    0    0 -0.51075099499E+02 -0.53003934124E+02  0.34470174262E+02  0.81278999349E+02  0.00000000000E+00 0.  1.
         11    1    1    2    0    0  0.94042879399E+01  0.16437239131E+02 -0.19104255351E+02  0.26899740415E+02  0.00000000000E+00 0. -1.
</event>
<event>
 7    1  0.2644565E-009  0.2299155E+03  0.7561462E-02  0.1126699E+00
         -2   -1    0    0    0  501 -0.00000000000E+00  0.00000000000E+00  0.34630087814E+02  0.34630087814E+02  0.00000000000E+00 0. -1.
          2   -1    0    0  501    0  0.00000000000E+00 -0.00000000000E+00 -0.16867234583E+04  0.16867234583E+04  0.00000000000E+00 0.  1.
         25    2    1    2    0    0 -0.17868664933E+03 -0.11474545535E+03 -0.72121420979E+03  0.76216330416E+03  0.12509007805E+03 0.  0.
          5    1    3    3  502    0 -0.13598958812E+03 -0.14102434954E+03 -0.56129387447E+03  0.59451603944E+03  0.41800000000E+01 0.  1.
         -5    1    3    3    0  502 -0.42697061216E+02  0.26278894189E+02 -0.15992033533E+03  0.16764726472E+03  0.41800000000E+01 0.  1.
        -11    1    1    2    0    0  0.49579168947E+02  0.20173392624E+02 -0.10400124572E+03  0.11696717008E+03  0.00000000000E+00 0. -1.
         11    1    1    2    0    0  0.12910748039E+03  0.94572062728E+02 -0.82687791496E+03  0.84222307187E+03  0.00000000000E+00 0.  1.
</event>
<event>
 7    1  0.2644565E-009  0.1087897E+03  0.7561462E-02  0.1262828E+00
         -2   -1    0    0    0  501 -0.00000000000E+00  0.00000000000E+00  0.15098927830E+02  0.15098927830E+02  0.00000000000E+00 0. -1.
          2   -1    0    0  501    0  0.00000000000E+00 -0.00000000000E+00 -0.91055451954E+03  0.91055451954E+03  0.00000000000E+00 0.  1.
         25    2    1    2    0    0  0.17650905563E+02 -0.32359773369E+02 -0.61865660027E+03  0.63225187071E+03  0.12509088519E+03 0.  0.
          5    1    3    3  502    0 -0.20027838475E+02  0.41075240539E+02 -0.17212386384E+03  0.17813586557E+03  0.41800000000E+01 0.  1.
         -5    1    3    3    0  502  0.37678744038E+02 -0.73435013907E+02 -0.44653273643E+03  0.45411600514E+03  0.41800000000E+01 0.  1.
        -11    1    1    2    0    0 -0.43498253190E+02 -0.48218321826E+01 -0.19553227090E+03  0.20037020003E+03  0.00000000000E+00 0.  1.
         11    1    1    2    0    0  0.25847347627E+02  0.37181605551E+02 -0.81266720541E+02  0.93031376633E+02  0.00000000000E+00 0. -1.
</event>
<event>
 7    1  0.2644565E-009  0.1023803E+03  0.7561462E-02  0.1275369E+00
         -2   -1    0    0    0  501 -0.00000000000E+00  0.00000000000E+00  0.19148454832E+02  0.19148454832E+02  0.00000000000E+00 0.  1.
          2   -1    0    0  501    0  0.00000000000E+00 -0.00000000000E+00 -0.63259149580E+03  0.63259149580E+03  0.00000000000E+00 0. -1.
         25    2    1    2    0    0 -0.17995192314E+02  0.49806419745E+01 -0.35484811165E+03  0.37671860764E+03  0.12510432950E+03 0.  0.
          5    1    3    3  502    0  0.47338230478E+02  0.25136029832E+02 -0.20541681249E+03  0.21233527101E+03  0.41800000000E+01 0.  1.
         -5    1    3    3    0  502 -0.65333422791E+02 -0.20155387857E+02 -0.14943129915E+03  0.16438333662E+03  0.41800000000E+01 0.  1.
        -11    1    1    2    0    0  0.41683785306E+02 -0.27401718871E+02 -0.21420458896E+03  0.21993635008E+03  0.00000000000E+00 0.  1.
         11    1    1    2    0    0 -0.23688592993E+02  0.22421076896E+02 -0.44390340355E+02  0.55084992911E+02  0.00000000000E+00 0. -1.
</event>
<event>
 7    1  0.2644565E-009  0.1265639E+03  0.7561462E-02  0.1232645E+00
          1   -1    0    0  501    0  0.00000000000E+00  0.00000000000E+00  0.92786205680E+02  0.92786205680E+02  0.00000000000E+00 0. -1.
         -1   -1    0    0    0  501 -0.00000000000E+00 -0.00000000000E+00 -0.19296060679E+03  0.19296060679E+03  0.00000000000E+00 0.  1.
         25    2    1    2    0    0  0.28863164515E+02 -0.61996873508E+02 -0.14877759677E+02  0.14333708578E+03  0.12508987903E+03 0.  0.
          5    1    3    3  502    0  0.51048037507E+02  0.19814094652E+02  0.78546904290E+01  0.55476743253E+02  0.41800000000E+01 0. -1.
         -5    1    3    3    0  502 -0.22184872992E+02 -0.81810968160E+02 -0.22732450106E+02  0.87860342526E+02  0.41800000000E+01 0. -1.
        -11    1    1    2    0    0 -0.28864928608E+02 -0.17558619327E+02 -0.18431005632E+02  0.38486246698E+02  0.00000000000E+00 0. -1.
         11    1    1    2    0    0  0.17640931132E-02  0.79555492835E+02 -0.66865635805E+02  0.10392348000E+03  0.00000000000E+00 0.  1.
</event>
<event>
 7    1  0.2644565E-009  0.9954957E+02  0.7561462E-02  0.1281246E+00
          1   -1    0    0  501    0  0.00000000000E+00  0.00000000000E+00  0.31177143451E+03  0.31177143451E+03  0.00000000000E+00 0. -1.
         -1   -1    0    0    0  501 -0.00000000000E+00 -0.00000000000E+00 -0.60026783804E+02  0.60026783804E+02  0.00000000000E+00 0.  1.
         25    2    1    2    0    0  0.71822137246E+02  0.41807375706E+02  0.15203004843E+03  0.21369800576E+03  0.12508967175E+03 0.  0.
          5    1    3    3  502    0  0.45005842341E+02  0.34746860186E+00  0.15748706063E+03  0.16384533330E+03  0.41800000000E+01 0.  1.
         -5    1    3    3    0  502  0.26816294905E+02  0.41459907104E+02 -0.54570121967E+01  0.49852672462E+02  0.41800000000E+01 0.  1.
        -11    1    1    2    0    0 -0.42717073824E+01  0.15303034128E+02  0.58303715632E+02  0.60429740972E+02  0.00000000000E+00 0. -1.
         11    1    1    2    0    0 -0.67550429863E+02 -0.57110409834E+02  0.41410886645E+02  0.97670471581E+02  0.00000000000E+00 0.  1.
</event>
<event>
 7    1  0.2644565E-009  0.1053498E+03  0.7561462E-02  0.1269432E+00
         -1   -1    0    0    0  501 -0.00000000000E+00  0.00000000000E+00  0.76898523372E+02  0.76898523372E+02  0.00000000000E+00 0.  1.
          1   -1    0    0  501    0  0.00000000000E+00 -0.00000000000E+00 -0.21913397474E+03  0.21913397474E+03  0.00000000000E+00 0. -1.
         25    2    1    2    0    0 -0.22122836338E+02  0.43719146036E+02 -0.14036142127E+03  0.19428899946E+03  0.12508438397E+03 0.  0.
          5    1    3    3  502    0  0.41026078283E+02 -0.16871545956E+02 -0.31587931605E+02  0.54617378052E+02  0.41800000000E+01 0.  1.
         -5    1    3    3    0  502 -0.63148914620E+02  0.60590691992E+02 -0.10877348966E+03  0.13967162141E+03  0.41800000000E+01 0.  1.
        -11    1    1    2    0    0  0.29701308876E+02 -0.56407057155E+02 -0.29629828719E+02  0.70298297247E+02  0.00000000000E+00 0. -1.
         11    1    1    2    0    0 -0.75784725386E+01  0.12687911120E+02  0.27755798617E+02  0.31445201406E+02  0.00000000000E+00 0.  1.
</event>
<event>
 7    1  0.2644565E-009  0.1556268E+03  0.7561462E-02  0.1193724E+00
         -2   -1    0    0    0  501 -0.00000000000E+00  0.00000000000E+00  0.10966288219E+03  0.10966288219E+03  0.00000000000E+00 0.  1.
          2   -1    0    0  501    0  0.00000000000E+00 -0.00000000000E+00 -0.41469420590E+03  0.41469420590E+03  0.00000000000E+00 0. -1.
         25    2    1    2    0    0  0.11598809172E+03 -0.84057605822E+02 -0.17525980682E+02  0.19097901619E+03  0.12508759374E+03 0.  0.
          5    1    3    3  502    0  0.52437790731E+02 -0.70244618564E+02 -0.65960461486E+02  0.10978289126E+03  0.41800000000E+01 0. -1.
         -5    1    3    3    0  502  0.63550300989E+02 -0.13812987258E+02  0.48434480804E+02  0.81196124929E+02  0.41800000000E+01 0. -1.
        -11    1    1    2    0    0 -0.54946119517E+02  0.80129750139E+02 -0.22889746921E+03  0.24866424013E+03  0.00000000000E+00 0.  1.
         11    1    1    2    0    0 -0.61041972203E+02  0.39278556836E+01 -0.58607873806E+02  0.84713831768E+02  0.00000000000E+00 0. -1.
</event>
<event>
 7    1  0.2644565E-009  0.2824502E+03  0.7561462E-02  0.1094358E+00
         -1   -1    0    0    0  501 -0.00000000000E+00  0.00000000000E+00  0.77129115549E+03  0.77129115549E+03  0.00000000000E+00 0.  1.
          1   -1    0    0  501    0  0.00000000000E+00 -0.00000000000E+00 -0.11262282436E+03  0.11262282436E+03  0.00000000000E+00 0. -1.
         25    2    1    2    0    0  0.16187131989E+03 -0.21477997535E+03  0.41243646385E+03  0.50802056216E+03  0.12509313671E+03 0.  0.
          5    1    3    3  502    0 -0.15630556330E+02 -0.50769019338E+02  0.55455060171E+02  0.76906070725E+02  0.41800000000E+01 0.  1.
         -5    1    3    3    0  502  0.17750187622E+03 -0.16401095601E+03  0.35698140368E+03  0.43111449144E+03  0.41800000000E+01 0.  1.
        -11    1    1    2    0    0 -0.81198661855E+02  0.12648604290E+03  0.19392987042E+03  0.24535838355E+03  0.00000000000E+00 0.  1.
         11    1    1    2    0    0 -0.80672658037E+02  0.88293932449E+02  0.52301996854E+02  0.13053503414E+03  0.00000000000E+00 0. -1.
</event>
<event>
 7    1  0.2644565E-009  0.1444932E+03  0.7561462E-02  0.1207408E+00
          1   -1    0    0  501    0  0.00000000000E+00  0.00000000000E+00  0.66515826673E+02  0.66515826673E+02  0.00000000000E+00 0. -1.
         -1   -1    0    0    0  501 -0.00000000000E+00 -0.00000000000E+00 -0.37352122331E+03  0.37352122331E+03  0.00000000000E+00 0.  1.
         25    2    1    2    0    0  0.75310030126E+02  0.48028892002E+02 -0.24912787791E+03  0.29272960915E+03  0.12509016516E+03 0.  0.
          5    1    3    3  502    0  0.42299977757E+01 -0.40023364495E+02 -0.64484993588E+02  0.76128505730E+02  0.41800000000E+01 0. -1.
         -5    1    3    3    0  502  0.71080032351E+02  0.88052256497E+02 -0.18464288432E+03  0.21660110342E+03  0.41800000000E+01 0. -1.
        -11    1    1    2    0    0 -0.77782249631E+02 -0.75088386913E+02 -0.49218485232E+02  0.11878890308E+03  0.00000000000E+00 0.  1.
         11    1    1    2    0    0  0.24722195051E+01  0.27059494912E+02 -0.86590334960E+01  0.28518537747E+02  0.00000000000E+00 0. -1.
</event>
<event>
 7    1  0.2644565E-009  0.1196097E+03  0.7561462E-02  0.1243742E+00
         -1   -1    0    0    0  501 -0.00000000000E+00  0.00000000000E+00  0.17973463282E+03  0.17973463282E+03  0.00000000000E+00 0.  1.
          1   -1    0    0  501    0  0.00000000000E+00 -0.00000000000E+00 -0.12783339460E+03  0.12783339460E+03  0.00000000000E+00 0. -1.
         25    2    1    2    0    0 -0.39358314594E+02  0.71165141948E+02 -0.39350223744E+02  0.15430241730E+03  0.12508893444E+03 0.  0.
          5    1    3    3  502    0 -0.15065662057E+00 -0.34354160487E+02  0.10699982878E+01  0.34624389330E+02  0.41800000000E+01 0. -1.
         -5    1    3    3    0  502 -0.39207657973E+02  0.10551930243E+03 -0.40420222032E+02  0.11967802797E+03  0.41800000000E+01 0. -1.
        -11    1    1    2    0    0  0.44830630467E+02 -0.39249493671E+02  0.10285548100E+03  0.11886781799E+03  0.00000000000E+00 0.  1.
         11    1    1    2    0    0 -0.54723158736E+01 -0.31915648276E+02 -0.11604019027E+02  0.34397792131E+02  0.00000000000E+00 0. -1.
</event>
<event>
 7    1  0.2644565E-009  0.1165433E+03  0.7561462E-02  0.1248911E+00
         -2   -1    0    0    0  501 -0.00000000000E+00  0.00000000000E+00  0.35990544057E+02  0.35990544057E+02  0.00000000000E+00 0.  1.
          2   -1    0    0  501    0  0.00000000000E+00 -0.00000000000E+00 -0.61480101192E+03  0.61480101192E+03  0.00000000000E+00 0. -1.
         25    2    1    2    0    0 -0.78098724656E+02 -0.32319933364E+02 -0.44652652815E+03  0.47135726247E+03  0.12509092555E+03 0.  0.
          5    1    3    3  502    0 -0.10770889158E+03 -0.40141296606E+02 -0.29336606537E+03  0.31510894898E+03  0.41800000000E+01 0. -1.
         -5    1    3    3    0  502  0.29610166925E+02  0.78213632415E+01 -0.15316046279E+03  0.15624831349E+03  0.41800000000E+01 0. -1.
        -11    1    1    2    0    0  0.17280612150E+02  0.17422478120E+02  0.80000689965E+01  0.25810141497E+02  0.00000000000E+00 0.  1.
         11    1    1    2    0    0  0.60818112506E+02  0.14897455244E+02 -0.14028400871E+03  0.15362415201E+03  0.00000000000E+00 0. -1.
</event>
<event>
 7    1  0.2644565E-009  0.1613485E+03  0.7561462E-02  0.1187183E+00
          4   -1    0    0  501    0  0.00000000000E+00  0.00000000000E+00  0.53485197464E+02  0.53485197464E+02  0.00000000000E+00 0. -1.
         -4   -1    0    0    0  501 -0.00000000000E+00 -0.00000000000E+00 -0.69305707156E+03  0.69305707156E+03  0.00000000000E+00 0.  1.
         25    2    1    2    0    0 -0.25002757727E+01  0.14949646014E+03 -0.24305273720E+03  0.31157147116E+03  0.12508679229E+03 0.  0.
          5    1    3    3  502    0 -0.12859465937E+01  0.10416119565E+03 -0.24471598805E+03  0.26599736003E+03  0.41800000000E+01 0. -1.
         -5    1    3    3    0  502 -0.12143291789E+01  0.45335264491E+02  0.16632508423E+01  0.45574111129E+02  0.41800000000E+01 0. -1.
        -11    1    1    2    0    0  0.42080533201E+02 -0.10622861816E+03 -0.20520103888E+03  0.23486753064E+03  0.00000000000E+00 0. -1.
         11    1    1    2    0    0 -0.39580257428E+02 -0.43267841983E+02 -0.19131809801E+03  0.20010326722E+03  0.00000000000E+00 0.  1.
</event>
<event>
 7    1  0.2644565E-009  0.8778474E+02  0.7561462E-02  0.1308307E+00
          2   -1    0    0  501    0  0.00000000000E+00  0.00000000000E+00  0.34929054312E+02  0.34929054312E+02  0.00000000000E+00 0. -1.
         -2   -1    0    0    0  501 -0.00000000000E+00 -0.00000000000E+00 -0.42478804961E+03  0.42478804961E+03  0.00000000000E+00 0.  1.
         25    2    1    2    0    0 -0.30086012036E+02 -0.39424520618E+02 -0.15467645815E+03  0.20502373880E+03  0.12510182180E+03 0.  0.
          5    1    3    3  502    0 -0.15422517837E+02  0.20523504445E+02  0.10951523440E+02  0.28221916249E+02  0.41800000000E+01 0.  1.
         -5    1    3    3    0  502 -0.14663494199E+02 -0.59948025062E+02 -0.16562798159E+03  0.17680182255E+03  0.41800000000E+01 0.  1.
        -11    1    1    2    0    0  0.25905917394E+02  0.60712151455E+02 -0.21556471576E+03  0.22544451329E+03  0.00000000000E+00 0.  1.
         11    1    1    2    0    0  0.41800946417E+01 -0.21287630838E+02 -0.19617821394E+02  0.29248851843E+02  0.00000000000E+00 0. -1.
</event>
<event>
 7    1  0.2644565E-009  0.1354290E+03  0.7561462E-02  0.1219615E+00
         -2   -1    0    0    0  501 -0.00000000000E+00  0.00000000000E+00  0.33082011646E+03  0.33082011646E+03  0.00000000000E+00 0.  1.
          2   -1    0    0  501    0  0.00000000000E+00 -0.00000000000E+00 -0.64104979140E+02  0.64104979140E+02  0.00000000000E+00 0. -1.
         25    2    1    2    0    0 -0.15796625162E+01  0.91519464776E+02  0.17144764308E+03  0.23112718945E+03  0.12508867102E+03 0.  0.
          5    1    3    3  502    0  0.52511883672E+02  0.51870749125E+01  0.62657017220E+02  0.82023032618E+02  0.41800000000E+01 0.  1.
         -5    1    3    3    0  502 -0.54091546188E+02  0.86332389864E+02  0.10879062587E+03  0.14910415683E+03  0.41800000000E+01 0.  1.
        -11    1    1    2    0    0 -0.26015517451E+02 -0.83149977902E+02  0.29495388016E+02  0.91982084601E+02  0.00000000000E+00 0. -1.
         11    1    1    2    0    0  0.27595179968E+02 -0.83694868744E+01  0.65772106216E+02  0.71815821544E+02  0.00000000000E+00 0.  1.
</event>
<event>
 7    1  0.2644565E-009  0.8004415E+02  0.7561462E-02  0.1328926E+00
          2   -1    0    0  501    0  0.00000000000E+00  0.00000000000E+00  0.14439561872E+04  0.14439561872E+04  0.00000000000E+00 0.  1.
         -2   -1    0    0    0  501 -0.00000000000E+00 -0.00000000000E+00 -0.10172560950E+02  0.10172560950E+02  0.00000000000E+00 0. -1.
         25    2    1    2    0    0  0.30520116845E+02 -0.39540820652E+02  0.90132842762E+03  0.91133594226E+03  0.12508121834E+03 0.  0.
          5    1    3    3  502    0  0.55368577120E+01 -0.27299877577E+02  0.86465924137E+03  0.86511792039E+03  0.41800000000E+01 0.  1.
         -5    1    3    3    0  502  0.24983259133E+02 -0.12240943075E+02  0.36669186254E+02  0.46218021861E+02  0.41800000000E+01 0.  1.
        -11    1    1    2    0    0 -0.28147788581E+02  0.68850476633E+02  0.42119005447E+03  0.42770754976E+03  0.00000000000E+00 0.  1.
         11    1    1    2    0    0 -0.23723282639E+01 -0.29309655981E+02  0.11126514415E+03  0.11508525613E+03  0.00000000000E+00 0. -1.
</event>
<event>
 7    1  0.2644565E-009  0.1555744E+03  0.7561462E-02  0.1193786E+00
          1   -1    0    0  501    0  0.00000000000E+00  0.00000000000E+00  0.56241259133E+03  0.56241259133E+03  0.00000000000E+00 0. -1.
         -1   -1    0    0    0  501 -0.00000000000E+00 -0.00000000000E+00 -0.53020240434E+02  0.53020240434E+02  0.00000000000E+00 0.  1.
         25    2    1    2    0    0  0.13236261945E+03 -0.23732189932E+02  0.27580396328E+03  0.33135859782E+03  0.12509042459E+03 0.  0.
          5    1    3    3  502    0  0.29801579307E+02 -0.39185424644E+02  0.16566104790E+02  0.52110842074E+02  0.41800000000E+01 0.  1.
         -5    1    3    3    0  502  0.10256104015E+03  0.15453234712E+02  0.25923785849E+03  0.27924775575E+03  0.41800000000E+01 0.  1.
        -11    1    1    2    0    0 -0.52400277858E+02  0.51325323518E+02  0.13909731099E+03  0.15725183585E+03  0.00000000000E+00 0. -1.
         11    1    1    2    0    0 -0.79962341596E+02 -0.27593133586E+02  0.94491076630E+02  0.12682239809E+03  0.00000000000E+00 0.  1.
</event>
<event>
 7    1  0.2644565E-009  0.2177609E+03  0.7561462E-02  0.1135563E+00
         -2   -1    0    0    0  501 -0.00000000000E+00  0.00000000000E+00  0.99700785733E+03  0.99700785733E+03  0.00000000000E+00 0.  1.
          2   -1    0    0  501    0  0.00000000000E+00 -0.00000000000E+00 -0.67292854505E+02  0.67292854505E+02  0.00000000000E+00 0. -1.
         25    2    1    2    0    0 -0.18919657695E+03  0.98259409959E+02  0.68013324075E+03  0.72365631541E+03  0.12508789428E+03 0.  0.
          5    1    3    3  502    0 -0.15044699716E+03  0.47708308168E+02  0.30822212378E+03  0.34630727917E+03  0.41800000000E+01 0. -1.
         -5    1    3    3    0  502 -0.38749579792E+02  0.50551101791E+02  0.37191111697E+03  0.37734903624E+03  0.41800000000E+01 0. -1.
        -11    1    1    2    0    0  0.43704597281E+02 -0.15191931351E+02  0.12071987366E+03  0.12928331099E+03  0.00000000000E+00 0.  1.
         11    1    1    2    0    0  0.14549197967E+03 -0.83067478608E+02  0.12886188842E+03  0.21136108544E+03  0.00000000000E+00 0. -1.
</event>
<event>
 7    1  0.2644565E-009  0.1269436E+03  0.7561462E-02  0.1232063E+00
         -4   -1    0    0    0  501 -0.00000000000E+00  0.00000000000E+00  0.19755767209E+03  0.19755767209E+03  0.00000000000E+00 0.  1.
          4   -1    0    0  501    0  0.00000000000E+00 -0.00000000000E+00 -0.10364706873E+03  0.10364706873E+03  0.00000000000E+00 0. -1.
         25    2    1    2    0    0 -0.11958873073E+02  0.76873326904E+02 -0.29004396758E+01  0.14733936660E+03  0.12509177976E+03 0.  0.
          5    1    3    3  502    0  0.47127569238E+01  0.10446327477E+03 -0.25542711698E+02  0.10772505918E+03  0.41800000000E+01 0. -1.
         -5    1    3    3    0  502 -0.16671629997E+02 -0.27589947867E+02  0.22642272023E+02  0.39614307420E+02  0.41800000000E+01 0. -1.
        -11    1    1    2    0    0  0.35297245978E+02  0.11232584747E+01  0.45633875008E+02  0.57702754106E+02  0.00000000000E+00 0.  1.
         11    1    1    2    0    0 -0.23338372905E+02 -0.77996585378E+02  0.51177168029E+02  0.96162620118E+02  0.00000000000E+00 0. -1.
</event>
<event>
 7    1  0.2977039E-009  0.1586030E+03  0.7561462E-02  0.1190283E+00
         -1   -1    0    0    0  501 -0.00000000000E+00  0.00000000000E+00  0.81195145849E+02  0.81195145849E+02  0.00000000000E+00 0.  1.
          1   -1    0    0  501    0  0.00000000000E+00 -0.00000000000E+00 -0.32020732620E+03  0.32020732620E+03  0.00000000000E+00 0. -1.
         25    2    1    2    0    0  0.36949029473E+02  0.11273928963E+03 -0.11359384595E+03  0.20646241590E+03  0.12509112333E+03 0.  0.
          5    1    3    3  502    0 -0.10036414101E+02  0.12328627412E+03 -0.87109215612E+02  0.15134636711E+03  0.41800000000E+01 0.  1.
         -5    1    3    3    0  502  0.46985443575E+02 -0.10546984486E+02 -0.26484630340E+02  0.55116048787E+02  0.41800000000E+01 0.  1.
        -11    1    1    2    0    0 -0.48456323462E+02 -0.21276596026E+02 -0.24692978943E+02  0.58399075601E+02  0.00000000000E+00 0.  1.
         11    1    1    2    0    0  0.11507293989E+02 -0.91462693607E+02 -0.10072535546E+03  0.13654098055E+03  0.00000000000E+00 0. -1.
</event>
<event>
 7    1  0.2644565E-009  0.1039716E+03  0.7561462E-02  0.1272159E+00
         -3   -1    0    0    0  501 -0.00000000000E+00  0.00000000000E+00  0.10755706422E+03  0.10755706422E+03  0.00000000000E+00 0.  1.
          3   -1    0    0  501    0  0.00000000000E+00 -0.00000000000E+00 -0.14944042874E+03  0.14944042874E+03  0.00000000000E+00 0. -1.
         25    2    1    2    0    0 -0.41479978038E+02 -0.28499222774E+01  0.33211280832E+02  0.13593824523E+03  0.12508999444E+03 0.  0.
          5    1    3    3  502    0  0.36624244645E+02 -0.66146657243E+01  0.42999755228E+02  0.57022280278E+02  0.41800000000E+01 0.  1.
         -5    1    3    3    0  502 -0.78104222683E+02  0.37647434469E+01 -0.97884743952E+01  0.78915964957E+02  0.41800000000E+01 0.  1.
        -11    1    1    2    0    0  0.21767575833E+02 -0.39708762628E+02 -0.51430784282E+02  0.68525460662E+02  0.00000000000E+00 0. -1.
         11    1    1    2    0    0  0.19712402205E+02  0.42558684905E+02 -0.23663861071E+02  0.52533787055E+02  0.00000000000E+00 0.  1.
</event>
<event>
 7    1  0.2644565E-009  0.1079367E+03  0.7561462E-02  0.1264439E+00
          2   -1    0    0  501    0  0.00000000000E+00  0.00000000000E+00  0.14676194277E+03  0.14676194277E+03  0.00000000000E+00 0. -1.
         -2   -1    0    0    0  501 -0.00000000000E+00 -0.00000000000E+00 -0.12006460948E+03  0.12006460948E+03  0.00000000000E+00 0.  1.
         25    2    1    2    0    0 -0.46834028237E+01  0.57732139564E+02  0.66900327295E+02  0.15323127472E+03  0.12509690467E+03 0.  0.
          5    1    3    3  502    0  0.54771093886E+02  0.49557763013E+02  0.19137288182E+02  0.76416966698E+02  0.41800000000E+01 0.  1.
         -5    1    3    3    0  502 -0.59454496710E+02  0.81743765510E+01  0.47763039113E+02  0.76814308018E+02  0.41800000000E+01 0.  1.
        -11    1    1    2    0    0 -0.26564568604E+02 -0.28084547698E+02 -0.55714954177E+02  0.67812788200E+02  0.00000000000E+00 0.  1.
         11    1    1    2    0    0  0.31247971427E+02 -0.29647591866E+02  0.15511960169E+02  0.45782489338E+02  0.00000000000E+00 0. -1.
</event>
<event>
 7    1  0.2644565E-009  0.1472258E+03  0.7561462E-02  0.1203924E+00
         -1   -1    0    0    0  501 -0.00000000000E+00  0.00000000000E+00  0.41333643904E+03  0.41333643904E+03  0.00000000000E+00 0.  1.
          1   -1    0    0  501    0  0.00000000000E+00 -0.00000000000E+00 -0.58176752321E+02  0.58176752321E+02  0.00000000000E+00 0. -1.
         25    2    1    2    0    0  0.45192164322E+02 -0.10038774683E+03  0.18705249456E+03  0.25050762620E+03  0.12508158791E+03 0.  0.
          5    1    3    3  502    0  0.58146183383E+02 -0.11749249157E+03  0.11244072747E+03  0.17275952596E+03  0.41800000000E+01 0.  1.
         -5    1    3    3    0  502 -0.12954019061E+02  0.17104744740E+02  0.74611767087E+02  0.77748100236E+02  0.41800000000E+01 0.  1.
        -11    1    1    2    0    0 -0.70325936262E+02  0.53976676132E+02  0.12273867506E+03  0.15140674104E+03  0.00000000000E+00 0.  1.
         11    1    1    2    0    0  0.25133771941E+02  0.46411070695E+02  0.45368517099E+02  0.69598824119E+02  0.00000000000E+00 0. -1.
</event>
<event>
 7    1  0.2644565E-009  0.1122768E+03  0.7561462E-02  0.1256411E+00
          2   -1    0    0  501    0  0.00000000000E+00  0.00000000000E+00  0.40278815372E+03  0.40278815372E+03  0.00000000000E+00 0. -1.
         -2   -1    0    0    0  501 -0.00000000000E+00 -0.00000000000E+00 -0.44747107618E+02  0.44747107618E+02  0.00000000000E+00 0.  1.
         25    2    1    2    0    0 -0.84040960655E+01  0.63887666796E+02  0.11735257175E+03  0.18322625730E+03  0.12509185613E+03 0.  0.
          5    1    3    3  502    0 -0.31606839798E+02  0.85272300746E+02  0.39726603219E+02  0.99327906450E+02  0.41800000000E+01 0.  1.
         -5    1    3    3    0  502  0.23202743733E+02 -0.21384633949E+02  0.77625968527E+02  0.83898350852E+02  0.41800000000E+01 0.  1.
        -11    1    1    2    0    0 -0.34676301862E+02 -0.37920189561E+02  0.73235266317E+02  0.89463908475E+02  0.00000000000E+00 0.  1.
         11    1    1    2    0    0  0.43080397927E+02 -0.25967477236E+02  0.16745320804E+03  0.17484509556E+03  0.00000000000E+00 0. -1.
</event>
<event>
 7    1  0.2644565E-009  0.1525177E+03  0.7561462E-02  0.1197413E+00
         -2   -1    0    0    0  501 -0.00000000000E+00  0.00000000000E+00  0.14932268599E+03  0.14932268599E+03  0.00000000000E+00 0.  1.
          2   -1    0    0  501    0  0.00000000000E+00 -0.00000000000E+00 -0.33651210505E+03  0.33651210505E+03  0.00000000000E+00 0. -1.
         25    2    1    2    0    0  0.30769446877E+02  0.10988520726E+03 -0.27245866434E+03  0.32078924856E+03  0.12510196074E+03 0.  0.
          5    1    3    3  502    0  0.61966858614E+02  0.12076391298E+03 -0.22517867601E+03  0.26295764445E+03  0.41800000000E+01 0.  1.
         -5    1    3    3    0  502 -0.31197411737E+02 -0.10878705725E+02 -0.47279988336E+02  0.57831604114E+02  0.41800000000E+01 0.  1.
        -11    1    1    2    0    0  0.24181564454E+02 -0.43367186673E+02  0.53785362308E+02  0.73200588372E+02  0.00000000000E+00 0.  1.
         11    1    1    2    0    0 -0.54951011331E+02 -0.66518020583E+02  0.31483882971E+02  0.91844954110E+02  0.00000000000E+00 0. -1.
</event>
<event>
 7    1  0.2644565E-009  0.3499902E+03  0.7561462E-02  0.1062619E+00
         -1   -1    0    0    0  501 -0.00000000000E+00  0.00000000000E+00  0.34089235410E+03  0.34089235410E+03  0.00000000000E+00 0.  1.
          1   -1    0    0  501    0  0.00000000000E+00 -0.00000000000E+00 -0.37917011681E+03  0.37917011681E+03  0.00000000000E+00 0. -1.
         25    2    1    2    0    0 -0.20993907215E+03 -0.26550454371E+03 -0.72037064024E+02  0.36797137616E+03  0.12508604373E+03 0.  0.
          5    1    3    3  502    0 -0.16078915427E+03 -0.25244686621E+03 -0.92041260769E+02  0.31316391630E+03  0.41800000000E+01 0.  1.
         -5    1    3    3    0  502 -0.49149917876E+02 -0.13057677503E+02  0.20004196745E+02  0.54807459860E+02  0.41800000000E+01 0.  1.
        -11    1    1    2    0    0  0.18433944016E+03  0.17005409617E+03  0.13155548808E+02  0.25114237652E+03  0.00000000000E+00 0.  1.
         11    1    1    2    0    0  0.25599631990E+02  0.95450447546E+02  0.20603752508E+02  0.10094871823E+03  0.00000000000E+00 0. -1.
</event>
<event>
 7    1  0.2644565E-009  0.1545888E+03  0.7561462E-02  0.1194945E+00
          2   -1    0    0  501    0  0.00000000000E+00  0.00000000000E+00  0.46708550959E+03  0.46708550959E+03  0.00000000000E+00 0. -1.
         -2   -1    0    0    0  501 -0.00000000000E+00 -0.00000000000E+00 -0.75440823622E+02  0.75440823622E+02  0.00000000000E+00 0.  1.
         25    2    1    2    0    0 -0.72552897120E+02 -0.13435529025E+03  0.21490464183E+03  0.29179555942E+03  0.12508147952E+03 0.  0.
          5    1    3    3  502    0 -0.39774350512E+02 -0.62124423276E+02  0.13252646397E+02  0.75063626095E+02  0.41800000000E+01 0. -1.
         -5    1    3    3    0  502 -0.32778546608E+02 -0.72230866977E+02  0.20165199543E+03  0.21673193333E+03  0.41800000000E+01 0. -1.
        -11    1    1    2    0    0 -0.28110216278E+01  0.10593804067E+02 -0.96768038993E+01  0.14620911767E+02  0.00000000000E+00 0.  1.
         11    1    1    2    0    0  0.75363918748E+02  0.12376148619E+03  0.18641684804E+03  0.23610986202E+03  0.00000000000E+00 0. -1.
</event>
<event>
 7    1  0.2644565E-009  0.8887814E+02  0.7561462E-02  0.1305591E+00
          2   -1    0    0  501    0  0.00000000000E+00  0.00000000000E+00  0.57691802250E+03  0.57691802250E+03  0.00000000000E+00 0. -1.
         -2   -1    0    0    0  501 -0.00000000000E+00 -0.00000000000E+00 -0.23774224901E+02  0.23774224901E+02  0.00000000000E+00 0.  1.
         25    2    1    2    0    0  0.70924469561E+01 -0.21212448609E+02  0.44782609395E+03  0.46550577996E+03  0.12508856854E+03 0.  0.
          5    1    3    3  502    0  0.35936507985E+02  0.39067286222E+02  0.12600623598E+03  0.13679447856E+03  0.41800000000E+01 0. -1.
         -5    1    3    3    0  502 -0.28844061029E+02 -0.60279734831E+02  0.32181985796E+03  0.32871130140E+03  0.41800000000E+01 0. -1.
        -11    1    1    2    0    0  0.19830806133E+02 -0.44893159777E+01 -0.30906556497E+01  0.20566161094E+02  0.00000000000E+00 0.  1.
         11    1    1    2    0    0 -0.26923253089E+02  0.25701764587E+02  0.10840835930E+03  0.11462030634E+03  0.00000000000E+00 0. -1.
</event>
<event>
 7    1  0.2644565E-009  0.1592916E+03  0.7561462E-02  0.1189499E+00
         -2   -1    0    0    0  501 -0.00000000000E+00  0.00000000000E+00  0.63406250006E+02  0.63406250006E+02  0.00000000000E+00 0.  1.
          2   -1    0    0  501    0  0.00000000000E+00 -0.00000000000E+00 -0.49863326276E+03  0.49863326276E+03  0.00000000000E+00 0. -1.
         25    2    1    2    0    0 -0.11750655479E+03 -0.77181790871E+02 -0.24819788323E+03  0.31147309119E+03  0.12509387690E+03 0.  0.
          5    1    3    3  502    0  0.16249324803E+02  0.81167929975E+01 -0.22535024815E+01  0.18774279175E+02  0.41800000000E+01 0. -1.
         -5    1    3    3    0  502 -0.13375587960E+03 -0.85298583869E+02 -0.24594438075E+03  0.29269881202E+03  0.41800000000E+01 0. -1.
        -11    1    1    2    0    0  0.25560012211E+02  0.23833262482E+02 -0.11978952631E+03  0.12478328910E+03  0.00000000000E+00 0. -1.
         11    1    1    2    0    0  0.91946542584E+02  0.53348528389E+02 -0.67239603219E+02  0.12578313248E+03  0.00000000000E+00 0.  1.
</event>
<event>
 7    1  0.2644565E-009  0.6636060E+02  0.7561462E-02  0.1372925E+00
         -2   -1    0    0    0  501 -0.00000000000E+00  0.00000000000E+00  0.26570438637E+02  0.26570438637E+02  0.00000000000E+00 0. -1.
          2   -1    0    0  501    0  0.00000000000E+00 -0.00000000000E+00 -0.60013517896E+03  0.60013517896E+03  0.00000000000E+00 0.  1.
         25    2    1    2    0    0  0.33183368028E+02  0.23753995899E+02 -0.44620823615E+03  0.46520431965E+03  0.12509148962E+03 0.  0.
          5    1    3    3  502    0  0.31025197953E+02 -0.14249167487E+02 -0.41325564916E+03  0.41468458573E+03  0.41800000000E+01 0.  1.
         -5    1    3    3    0  502  0.21581700759E+01  0.38003163386E+02 -0.32952586990E+02  0.50519733914E+02  0.41800000000E+01 0.  1.
        -11    1    1    2    0    0 -0.84560752329E+01 -0.32669922308E+02 -0.13071602322E+03  0.13500188058E+03  0.00000000000E+00 0.  1.
         11    1    1    2    0    0 -0.24727292796E+02  0.89159264092E+01  0.33595190521E+01  0.26499417371E+02  0.00000000000E+00 0. -1.
</event>
<event>
 7    1  0.2644565E-009  0.1131908E+03  0.7561462E-02  0.1254772E+00
         -1   -1    0    0    0  501 -0.00000000000E+00  0.00000000000E+00  0.72197612877E+02  0.72197612877E+02  0.00000000000E+00 0.  1.
          1   -1    0    0  501    0  0.00000000000E+00 -0.00000000000E+00 -0.33936196212E+03  0.33936196212E+03  0.00000000000E+00 0. -1.
         25    2    1    2    0    0  0.41800954246E+02  0.92564980659E+02 -0.80211671951E+02  0.17999223373E+03  0.12509075292E+03 0.  0.
          5    1    3    3  502    0  0.20064523384E+02  0.57999850669E+02  0.25501040227E+02  0.66590864456E+02  0.41800000000E+01 0. -1.
         -5    1    3    3    0  502  0.21736430862E+02  0.34565129989E+02 -0.10571271218E+03  0.11340136928E+03  0.41800000000E+01 0. -1.
        -11    1    1    2    0    0 -0.30255777610E+02 -0.10355382950E+03 -0.11424382885E+03  0.15713198310E+03  0.00000000000E+00 0.  1.
         11    1    1    2    0    0 -0.11545176636E+02  0.10988848845E+02 -0.72708848444E+02  0.74435358161E+02  0.00000000000E+00 0. -1.
</event>
<event>
 7    1  0.2892817E-009  0.1181494E+03  0.7561462E-02  0.1246182E+00
         -2   -1    0    0    0  501 -0.00000000000E+00  0.00000000000E+00  0.49140914173E+02  0.49140914173E+02  0.00000000000E+00 0.  1.
          2   -1    0    0  501    0  0.00000000000E+00 -0.00000000000E+00 -0.46322346766E+03  0.46322346766E+03  0.00000000000E+00 0. -1.
         25    2    1    2    0    0  0.74639267290E+02  0.72275987200E+02 -0.24453160401E+03  0.29366615158E+03  0.12509702107E+03 0.  0.
          5    1    3    3  502    0  0.53980333709E+02  0.46185238231E+02 -0.31182565699E+02  0.77696701741E+02  0.41800000000E+01 0.  1.
         -5    1    3    3    0  502  0.20658933581E+02  0.26090748968E+02 -0.21334903831E+03  0.21596944984E+03  0.41800000000E+01 0.  1.
        -11    1    1    2    0    0 -0.89043705385E+01 -0.64829158233E+02 -0.11760896786E+03  0.13458817516E+03  0.00000000000E+00 0.  1.
         11    1    1    2    0    0 -0.65734896752E+02 -0.74468289666E+01 -0.51941981622E+02  0.84110055091E+02  0.00000000000E+00 0. -1.
</event>
<event>
 7    1  0.2644565E-009  0.2264305E+03  0.7561462E-02  0.1129178E+00
         -1   -1    0    0    0  501 -0.00000000000E+00  0.00000000000E+00  0.31025263239E+03  0.31025263239E+03  0.00000000000E+00 0.  1.
          1   -1    0    0  501    0  0.00000000000E+00 -0.00000000000E+00 -0.19635047287E+03  0.19635047287E+03  0.00000000000E+00 0. -1.
         25    2    1    2    0    0 -0.17047302431E+03  0.13465507443E+03  0.12198474337E+02  0.25099264203E+03  0.12512179063E+03 0.  0.
          5    1    3    3  502    0 -0.15551669194E+03  0.13521896916E+03 -0.27885701910E+02  0.20800167274E+03  0.41800000000E+01 0.  1.
         -5    1    3    3    0  502 -0.14956332373E+02 -0.56389472425E+00  0.40084176247E+02  0.42990969293E+02  0.41800000000E+01 0.  1.
        -11    1    1    2    0    0  0.17471253307E+03 -0.11061247779E+03  0.10328920130E+03  0.23114551382E+03  0.00000000000E+00 0.  1.
         11    1    1    2    0    0 -0.42395087576E+01 -0.24042596637E+02 -0.15855161182E+01  0.24464949395E+02  0.00000000000E+00 0. -1.
</event>
<event>
 7    1  0.4015283E-009  0.1079077E+03  0.7561462E-02  0.1264494E+00
          2   -1    0    0  501    0  0.00000000000E+00  0.00000000000E+00  0.42181532502E+03  0.42181532502E+03  0.00000000000E+00 0. -1.
         -2   -1    0    0    0  501 -0.00000000000E+00 -0.00000000000E+00 -0.34163629506E+02  0.34163629506E+02  0.00000000000E+00 0.  1.
         25    2    1    2    0    0 -0.10431789108E+02 -0.19494495381E+02  0.13052327316E+03  0.18213447889E+03  0.12509111075E+03 0.  0.
          5    1    3    3  502    0 -0.66000399758E+02 -0.88915614293E+01  0.91647896457E+02  0.11336631756E+03  0.41800000000E+01 0.  1.
         -5    1    3    3    0  502  0.55568610649E+02 -0.10602933951E+02  0.38875376703E+02  0.68768161322E+02  0.41800000000E+01 0.  1.
        -11    1    1    2    0    0 -0.16167434408E+02 -0.31184865207E+02  0.12522591768E+03  0.13005926423E+03  0.00000000000E+00 0.  1.
         11    1    1    2    0    0  0.26599223516E+02  0.50679360587E+02  0.13190250467E+03  0.14378521141E+03  0.00000000000E+00 0. -1.
</event>
<event>
 7    1  0.2644565E-009  0.1214655E+03  0.7561462E-02  0.1240699E+00
          2   -1    0    0  501    0  0.00000000000E+00  0.00000000000E+00  0.10033581142E+04  0.10033581142E+04  0.00000000000E+00 0. -1.
         -2   -1    0    0    0  501 -0.00000000000E+00 -0.00000000000E+00 -0.27779498622E+02  0.27779498622E+02  0.00000000000E+00 0.  1.
         25    2    1    2    0    0 -0.54967857711E+02 -0.22581422041E+02  0.86869617116E+03  0.87966598894E+03  0.12509127988E+03 0.  0.
          5    1    3    3  502    0 -0.83692156802E+02  0.18627833092E+02  0.46750586189E+03  0.47532155072E+03  0.41800000000E+01 0. -1.
         -5    1    3    3    0  502  0.28724299090E+02 -0.41209255133E+02  0.40119030928E+03  0.40434443822E+03  0.41800000000E+01 0. -1.
        -11    1    1    2    0    0  0.79554202679E+02  0.19457054438E+02  0.88739345591E+02  0.12075644739E+03  0.00000000000E+00 0. -1.
         11    1    1    2    0    0 -0.24586344968E+02  0.31243676022E+01  0.18143098826E+02  0.30715176490E+02  0.00000000000E+00 0.  1.
</event>
<event>
 7    1  0.2644565E-009  0.1188202E+03  0.7561462E-02  0.1245056E+00
          1   -1    0    0  501    0  0.00000000000E+00  0.00000000000E+00  0.25485485672E+02  0.25485485672E+02  0.00000000000E+00 0. -1.
         -1   -1    0    0    0  501 -0.00000000000E+00 -0.00000000000E+00 -0.99285088590E+03  0.99285088590E+03  0.00000000000E+00 0.  1.
         25    2    1    2    0    0 -0.14252566379E+02 -0.10045746417E+03 -0.33992878905E+03  0.37615349234E+03  0.12508009600E+03 0.  0.
          5    1    3    3  502    0 -0.11998260944E+02 -0.24488990983E+02  0.22259250535E+00  0.27589688155E+02  0.41800000000E+01 0. -1.
         -5    1    3    3    0  502 -0.22543054343E+01 -0.75968473183E+02 -0.34015138156E+03  0.34856380419E+03  0.41800000000E+01 0. -1.
        -11    1    1    2    0    0 -0.37046324834E+02  0.37336422564E+02 -0.18499025248E+03  0.19232220919E+03  0.00000000000E+00 0.  1.
         11    1    1    2    0    0  0.51298891212E+02  0.63121041603E+02 -0.44244635869E+03  0.44986067005E+03  0.00000000000E+00 0. -1.
</event>
<event>
 7    1  0.2644565E-009  0.1209495E+03  0.7561462E-02  0.1241539E+00
          1   -1    0    0  501    0  0.00000000000E+00  0.00000000000E+00  0.19093917764E+03  0.19093917764E+03  0.00000000000E+00 0. -1.
         -1   -1    0    0    0  501 -0.00000000000E+00 -0.00000000000E+00 -0.10456041345E+03  0.10456041345E+03  0.00000000000E+00 0.  1.
         25    2    1    2    0    0  0.58977131023E+02 -0.39254825306E+02 -0.13032427907E+02  0.14435113368E+03  0.12509261499E+03 0.  0.
          5    1    3    3  502    0  0.39995098260E+01  0.39713918091E+02 -0.25023404128E+02  0.47295184989E+02  0.41800000000E+01 0.  1.
         -5    1    3    3    0  502  0.54977621197E+02 -0.78968743397E+02  0.11990976220E+02  0.97055948694E+02  0.41800000000E+01 0.  1.
        -11    1    1    2    0    0 -0.29698732893E+02 -0.22400628836E+02  0.64562692646E+02  0.74512711596E+02  0.00000000000E+00 0. -1.
         11    1    1    2    0    0 -0.29278398130E+02  0.61655454142E+02  0.34848499446E+02  0.76635745812E+02  0.00000000000E+00 0.  1.
</event>
<event>
 7    1  0.2644565E-009  0.8916652E+02  0.7561462E-02  0.1304883E+00
         -2   -1    0    0    0  501 -0.00000000000E+00  0.00000000000E+00  0.44359706272E+02  0.44359706272E+02  0.00000000000E+00 0.  1.
          2   -1    0    0  501    0  0.00000000000E+00 -0.00000000000E+00 -0.39373133985E+03  0.39373133985E+03  0.00000000000E+00 0. -1.
         25    2    1    2    0    0  0.41765389217E+01 -0.19047016236E+02 -0.31449158623E+03  0.33902232450E+03  0.12510374252E+03 0.  0.
          5    1    3    3  502    0  0.52276693525E+01  0.42275172327E+02 -0.43049264527E+02  0.60706097704E+02  0.41800000000E+01 0.  1.
         -5    1    3    3    0  502 -0.10511304307E+01 -0.61322188563E+02 -0.27144232170E+03  0.27831622679E+03  0.41800000000E+01 0.  1.
        -11    1    1    2    0    0 -0.32489898186E+02 -0.95007928818E+01 -0.46222677870E+02  0.57292185322E+02  0.00000000000E+00 0. -1.
         11    1    1    2    0    0  0.28313359264E+02  0.28547809118E+02  0.11342630522E+02  0.41776536302E+02  0.00000000000E+00 0.  1.
</event>
<event>
 7    1  0.2644565E-009  0.1029180E+03  0.7561462E-02  0.1274277E+00
          1   -1    0    0  501    0  0.00000000000E+00  0.00000000000E+00  0.77953852177E+03  0.77953852177E+03  0.00000000000E+00 0. -1.
         -1   -1    0    0    0  501 -0.00000000000E+00 -0.00000000000E+00 -0.26335414747E+02  0.26335414747E+02  0.00000000000E+00 0.  1.
         25    2    1    2    0    0  0.34769721890E+02  0.73842046998E+02  0.28353167334E+03  0.32046698663E+03  0.12508916127E+03 0.  0.
          5    1    3    3  502    0  0.29654510125E+02  0.47576121941E+02  0.28763220369E+03  0.29307445189E+03  0.41800000000E+01 0. -1.
         -5    1    3    3    0  502  0.51152117643E+01  0.26265925057E+02 -0.41005303476E+01  0.27392534742E+02  0.41800000000E+01 0. -1.
        -11    1    1    2    0    0 -0.59120977478E+02 -0.18298481539E+02  0.22985757687E+03  0.23804333649E+03  0.00000000000E+00 0. -1.
         11    1    1    2    0    0  0.24351255589E+02 -0.55543565459E+02  0.23981385682E+03  0.24736361340E+03  0.00000000000E+00 0.  1.
</event>
<event>
 7    1  0.2644565E-009  0.9401362E+02  0.7561462E-02  0.1293413E+00
         -2   -1    0    0    0  501 -0.00000000000E+00  0.00000000000E+00  0.90387882064E+02  0.90387882064E+02  0.00000000000E+00 0.  1.
          2   -1    0    0  501    0  0.00000000000E+00 -0.00000000000E+00 -0.14237436535E+03  0.14237436535E+03  0.00000000000E+00 0. -1.
         25    2    1    2    0    0  0.21156725929E+02  0.25760086468E+02 -0.37731748038E+02  0.13483966131E+03  0.12508741082E+03 0.  0.
          5    1    3    3  502    0 -0.23077056482E+02  0.65542476461E+02 -0.24074772897E+02  0.73657544396E+02  0.41800000000E+01 0. -1.
         -5    1    3    3    0  502  0.44233782411E+02 -0.39782389992E+02 -0.13656975141E+02  0.61182116912E+02  0.41800000000E+01 0. -1.
        -11    1    1    2    0    0 -0.18902483707E+02  0.11051582600E+02  0.31993931711E+02  0.38769227934E+02  0.00000000000E+00 0.  1.
         11    1    1    2    0    0 -0.22542422225E+01 -0.36811669068E+02 -0.46248666964E+02  0.59153358176E+02  0.00000000000E+00 0. -1.
</event>
<event>
 6    1  0.2644565E-009  0.6964876E+02  0.7561462E-02  0.1361292E+00
          1   -1    0    0  501    0  0.00000000000E+00  0.00000000000E+00  0.27138262588E+03  0.27138262588E+03  0.00000000000E+00 0. -1.
         -1   -1    0    0    0  501 -0.00000000000E+00 -0.00000000000E+00 -0.87726671412E+02  0.87726671412E+02  0.00000000000E+00 0.  1.
          5    1    1    2  502    0 -0.31853662512E+02 -0.31396520749E+02  0.53130651884E+02  0.69575397233E+02  0.41800000000E+01 0.  1.
         -5    1    1    2    0  502 -0.32630600082E+01 -0.61809820889E+01 -0.66403763956E+02  0.66901303184E+02  0.41800000000E+01 0.  1.
        -11    1    1    2    0    0 -0.21090214984E+02  0.13796829849E+02  0.12038959200E+02  0.27930023641E+02  0.00000000000E+00 0.  1.
         11    1    1    2    0    0  0.56206937504E+02  0.23780672989E+02  0.18489010734E+03  0.19470257323E+03  0.00000000000E+00 0. -1.
</event>
<event>
 7    1  0.2644565E-009  0.1315565E+03  0.7561462E-02  0.1225164E+00
         -2   -1    0    0    0  501 -0.00000000000E+00  0.00000000000E+00  0.37692907442E+03  0.37692907442E+03  0.00000000000E+00 0.  1.
          2   -1    0    0  501    0  0.00000000000E+00 -0.00000000000E+00 -0.47320080879E+02  0.47320080879E+02  0.00000000000E+00 0. -1.
         25    2    1    2    0    0 -0.24142841201E+02  0.74257304509E+02  0.18582091625E+03  0.23722135758E+03  0.12509010961E+03 0.  0.
          5    1    3    3  502    0 -0.73996299835E+02  0.56821319123E+02  0.10433162526E+03  0.14002383770E+03  0.41800000000E+01 0. -1.
         -5    1    3    3    0  502  0.49853458634E+02  0.17435985385E+02  0.81489290996E+02  0.97197519882E+02  0.41800000000E+01 0. -1.
        -11    1    1    2    0    0  0.21211319290E+02 -0.94214387591E+02  0.13235492235E+03  0.16384168080E+03  0.00000000000E+00 0.  1.
         11    1    1    2    0    0  0.29315219113E+01  0.19957083082E+02  0.11433154931E+02  0.23186116914E+02  0.00000000000E+00 0. -1.
</event>
<event>
 7    1  0.2644565E-009  0.1612906E+03  0.7561462E-02  0.1187247E+00
         -1   -1    0    0    0  501 -0.00000000000E+00  0.00000000000E+00  0.26374864416E+02  0.26374864416E+02  0.00000000000E+00 0.  1.
          1   -1    0    0  501    0  0.00000000000E+00 -0.00000000000E+00 -0.10389811720E+04  0.10389811720E+04  0.00000000000E+00 0. -1.
         25    2    1    2    0    0 -0.12354816694E+03  0.11306066894E+02 -0.53945157040E+03  0.56749302969E+03  0.12509342601E+03 0.  0.
          5    1    3    3  502    0 -0.14081826656E+03 -0.13054817432E+02 -0.48540526088E+03  0.50560454126E+03  0.41800000000E+01 0. -1.
         -5    1    3    3    0  502  0.17270099628E+02  0.24360884326E+02 -0.54046309526E+02  0.61888488426E+02  0.41800000000E+01 0. -1.
        -11    1    1    2    0    0  0.46234618025E+02  0.37486507730E+02 -0.24375280538E+03  0.25091494235E+03  0.00000000000E+00 0. -1.
         11    1    1    2    0    0  0.77313548911E+02 -0.48792574624E+02 -0.22940193178E+03  0.24694806435E+03  0.00000000000E+00 0.  1.
</event>
<event>
 7    1  0.2644565E-009  0.1873829E+03  0.7561462E-02  0.1160843E+00
         -2   -1    0    0    0  501 -0.00000000000E+00  0.00000000000E+00  0.11588753009E+03  0.11588753009E+03  0.00000000000E+00 0.  1.
          2   -1    0    0  501    0  0.00000000000E+00 -0.00000000000E+00 -0.35881541980E+03  0.35881541980E+03  0.00000000000E+00 0. -1.
         25    2    1    2    0    0 -0.75306960183E+02 -0.14020334651E+03 -0.20295614602E+03  0.28664703481E+03  0.12508880340E+03 0.  0.
          5    1    3    3  502    0 -0.70208543005E+02 -0.22933599064E+02 -0.12636367115E+03  0.14642554171E+03  0.41800000000E+01 0. -1.
         -5    1    3    3    0  502 -0.50984171779E+01 -0.11726974744E+03 -0.76592474866E+02  0.14022149311E+03  0.41800000000E+01 0. -1.
        -11    1    1    2    0    0  0.55107371315E+01  0.10503178354E+03 -0.16593614591E+02  0.10647718922E+03  0.00000000000E+00 0.  1.
         11    1    1    2    0    0  0.69796223051E+02  0.35171562964E+02 -0.23378129098E+02  0.81578725864E+02  0.00000000000E+00 0. -1.
</event>
<event>
 7    1  0.2644565E-009  0.8718822E+02  0.7561462E-02  0.1309807E+00
          2   -1    0    0  501    0  0.00000000000E+00  0.00000000000E+00  0.11026538880E+04  0.11026538880E+04  0.00000000000E+00 0. -1.
         -2   -1    0    0    0  501 -0.00000000000E+00 -0.00000000000E+00 -0.12490989809E+02  0.12490989809E+02  0.00000000000E+00 0.  1.
         25    2    1    2    0    0  0.38312360087E+02  0.97596047765E+01  0.74974453899E+03  0.76113605098E+03  0.12509247596E+03 0.  0.
          5    1    3    3  502    0  0.54675805808E+02  0.18933768334E+02  0.14624974936E+03  0.15733528820E+03  0.41800000000E+01 0. -1.
         -5    1    3    3    0  502 -0.16363445721E+02 -0.91741635577E+01  0.60349478963E+03  0.60380076278E+03  0.41800000000E+01 0. -1.
        -11    1    1    2    0    0 -0.23137702276E+02  0.39402562415E+02  0.16144228242E+03  0.16778416417E+03  0.00000000000E+00 0.  1.
         11    1    1    2    0    0 -0.15174657811E+02 -0.49162167192E+02  0.17897607677E+03  0.18622466265E+03  0.00000000000E+00 0. -1.
</event>
<event>
 7    1  0.2644565E-009  0.1069797E+03  0.7561462E-02  0.1266267E+00
         -2   -1    0    0    0  501 -0.00000000000E+00  0.00000000000E+00  0.36558151016E+02  0.36558151016E+02  0.00000000000E+00 0.  1.
          2   -1    0    0  501    0  0.00000000000E+00 -0.00000000000E+00 -0.39554890824E+03  0.39554890824E+03  0.00000000000E+00 0. -1.
         25    2    1    2    0    0 -0.40141444269E+02  0.81603787193E+00 -0.25649572257E+03  0.28818481377E+03  0.12509368381E+03 0.  0.
          5    1    3    3  502    0 -0.23928192064E+02 -0.52066862755E+02 -0.20354716165E+03  0.21150043969E+03  0.41800000000E+01 0.  1.
         -5    1    3    3    0  502 -0.16213252206E+02  0.52882900627E+02 -0.52948560914E+02  0.76684374084E+02  0.41800000000E+01 0.  1.
        -11    1    1    2    0    0  0.31410192747E+02  0.44731537847E+02 -0.55839989897E+02  0.78138435858E+02  0.00000000000E+00 0. -1.
         11    1    1    2    0    0  0.87312515227E+01 -0.45547575719E+02 -0.46655044765E+02  0.65783809627E+02  0.00000000000E+00 0.  1.
</event>
<event>
 7    1  0.2644565E-009  0.1354363E+03  0.7561462E-02  0.1219605E+00
         -1   -1    0    0    0  501 -0.00000000000E+00  0.00000000000E+00  0.33773684126E+02  0.33773684126E+02  0.00000000000E+00 0.  1.
          1   -1    0    0  501    0  0.00000000000E+00 -0.00000000000E+00 -0.65914764440E+03  0.65914764440E+03  0.00000000000E+00 0. -1.
         25    2    1    2    0    0  0.96826047549E+02  0.26814890270E+02 -0.38908620794E+03  0.42086698241E+03  0.12508644148E+03 0.  0.
          5    1    3    3  502    0 -0.30078432892E+02  0.54500811677E+01 -0.59515260117E+02  0.67036960676E+02  0.41800000000E+01 0. -1.
         -5    1    3    3    0  502  0.12690448044E+03  0.21364809102E+02 -0.32957094783E+03  0.35383002173E+03  0.41800000000E+01 0. -1.
        -11    1    1    2    0    0 -0.43910850168E+02  0.12135279789E+02 -0.17955968269E+03  0.18524877172E+03  0.00000000000E+00 0. -1.
         11    1    1    2    0    0 -0.52915197381E+02 -0.38950170059E+02 -0.56728069646E+02  0.86805574402E+02  0.00000000000E+00 0.  1.
</event>
<event>
 7    1  0.2644565E-009  0.2134111E+03  0.7561462E-02  0.1138893E+00
          2   -1    0    0  501    0  0.00000000000E+00  0.00000000000E+00  0.66081256508E+03  0.66081256508E+03  0.00000000000E+00 0. -1.
         -2   -1    0    0    0  501 -0.00000000000E+00 -0.00000000000E+00 -0.75792358340E+02  0.75792358340E+02  0.00000000000E+00 0.  1.
         25    2    1    2    0    0 -0.19397621747E+03  0.75498115653E-02  0.26543809750E+03  0.35174946006E+03  0.12507408223E+03 0.  0.
          5    1    3    3  502    0 -0.16392301621E+03  0.39843438305E+02  0.24538507094E+03  0.29780792511E+03  0.41800000000E+01 0.  1.
         -5    1    3    3    0  502 -0.30053201267E+02 -0.39835888494E+02  0.20053026555E+02  0.53941534948E+02  0.41800000000E+01 0.  1.
        -11    1    1    2    0    0  0.22448461736E+02 -0.26179466491E+02  0.23683536376E+02  0.41835484883E+02  0.00000000000E+00 0.  1.
         11    1    1    2    0    0  0.17152775574E+03  0.26171916680E+02  0.29589857287E+03  0.34301997848E+03  0.00000000000E+00 0. -1.
</event>
<event>
 7    1  0.2644565E-009  0.1002744E+03  0.7561462E-02  0.1279720E+00
          1   -1    0    0  501    0  0.00000000000E+00  0.00000000000E+00  0.10911468403E+03  0.10911468403E+03  0.00000000000E+00 0. -1.
         -1   -1    0    0    0  501 -0.00000000000E+00 -0.00000000000E+00 -0.11342644063E+03  0.11342644063E+03  0.00000000000E+00 0.  1.
         25    2    1    2    0    0 -0.20943489404E+02  0.37874449370E+01  0.84892061868E+00  0.12689189898E+03  0.12509140208E+03 0.  0.
          5    1    3    3  502    0  0.48620668923E+02  0.46064553773E+01  0.22468526932E+02  0.53921201583E+02  0.41800000000E+01 0. -1.
         -5    1    3    3    0  502 -0.69564158327E+02 -0.81901044033E+00 -0.21619606313E+02  0.72970697400E+02  0.41800000000E+01 0. -1.
        -11    1    1    2    0    0  0.19771497876E+02 -0.40519884458E+02  0.21789574255E+02  0.50075530062E+02  0.00000000000E+00 0. -1.
         11    1    1    2    0    0  0.11719915281E+01  0.36732439521E+02 -0.26950251475E+02  0.45573695613E+02  0.00000000000E+00 0.  1.
</event>
<event>
 7    1  0.3260085E-009  0.2155808E+03  0.7561462E-02  0.1137221E+00
         -2   -1    0    0    0  501 -0.00000000000E+00  0.00000000000E+00  0.30960863130E+03  0.30960863130E+03  0.00000000000E+00 0.  1.
          2   -1    0    0  501    0  0.00000000000E+00 -0.00000000000E+00 -0.20558761045E+03  0.20558761045E+03  0.00000000000E+00 0. -1.
         25    2    1    2    0    0 -0.10961173099E+03  0.17730889507E+03 -0.39079968139E+02  0.24622487355E+03  0.12508504547E+03 0.  0.
          5    1    3    3  502    0 -0.18343775002E+02  0.42917734110E+02  0.43501275864E+02  0.63939497842E+02  0.41800000000E+01 0. -1.
         -5    1    3    3    0  502 -0.91267955988E+02  0.13439116096E+03 -0.82581244003E+02  0.18228537570E+03  0.41800000000E+01 0. -1.
        -11    1    1    2    0    0 -0.84440949149E+01 -0.39226667968E+02  0.52168486821E+02  0.65814779769E+02  0.00000000000E+00 0.  1.
         11    1    1    2    0    0  0.11805582590E+03 -0.13808222710E+03  0.90932502174E+02  0.20315658843E+03  0.00000000000E+00 0. -1.
</event>
<event>
 7    1  0.2770129E-009  0.1047879E+03  0.7561462E-02  0.1270538E+00
         -2   -1    0    0    0  501 -0.00000000000E+00  0.00000000000E+00  0.67817992464E+02  0.67817992464E+02  0.00000000000E+00 0.  1.
          2   -1    0    0  501    0  0.00000000000E+00 -0.00000000000E+00 -0.20843549771E+03  0.20843549771E+03  0.00000000000E+00 0. -1.
         25    2    1    2    0    0 -0.22513338425E+02  0.31532705588E+02 -0.11470973401E+03  0.17408855783E+03  0.12508933193E+03 0.  0.
          5    1    3    3  502    0 -0.56032400045E+02 -0.11624832792E+02 -0.10321475221E+03  0.11809116845E+03  0.41800000000E+01 0.  1.
         -5    1    3    3    0  502  0.33519061620E+02  0.43157538380E+02 -0.11494981799E+02  0.55997389381E+02  0.41800000000E+01 0.  1.
        -11    1    1    2    0    0 -0.33400463780E+02 -0.41457762234E+00 -0.17243530686E+02  0.37591251719E+02  0.00000000000E+00 0.  1.
         11    1    1    2    0    0  0.55913802205E+02 -0.31118127966E+02 -0.86642405540E+01  0.64573680625E+02  0.00000000000E+00 0. -1.
</event>
<event>
 7    1  0.2644565E-009  0.1104505E+03  0.7561462E-02  0.1259738E+00
         -1   -1    0    0    0  501 -0.00000000000E+00  0.00000000000E+00  0.17839126291E+03  0.17839126291E+03  0.00000000000E+00 0.  1.
          1   -1    0    0  501    0  0.00000000000E+00 -0.00000000000E+00 -0.11243786057E+03  0.11243786057E+03  0.00000000000E+00 0. -1.
         25    2    1    2    0    0 -0.19305414355E+02  0.87621788498E+02  0.50001447843E+02  0.16184821491E+03  0.12507766803E+03 0.  0.
          5    1    3    3  502    0  0.48522543871E+01  0.55067216306E+02 -0.36398260637E+02  0.66319291776E+02  0.41800000000E+01 0.  1.
         -5    1    3    3    0  502 -0.24157668742E+02  0.32554572193E+02  0.86399708480E+02  0.95528923134E+02  0.41800000000E+01 0.  1.
        -11    1    1    2    0    0 -0.31983412111E+02 -0.13834406346E+02  0.17736912929E+02  0.39101502905E+02  0.00000000000E+00 0.  1.
         11    1    1    2    0    0  0.51288826466E+02 -0.73787382152E+02 -0.17849584281E+01  0.89879405660E+02  0.00000000000E+00 0. -1.
</event>
<event>
 7    1  0.2644565E-009  0.1271020E+03  0.7561462E-02  0.1231820E+00
          1   -1    0    0  501    0  0.00000000000E+00  0.00000000000E+00  0.35257782739E+03  0.35257782739E+03  0.00000000000E+00 0. -1.
         -1   -1    0    0    0  501 -0.00000000000E+00 -0.00000000000E+00 -0.85590682058E+02  0.85590682058E+02  0.00000000000E+00 0.  1.
         25    2    1    2    0    0  0.67031587378E+02 -0.60952715569E+02  0.15349609395E+02  0.15521518012E+03  0.12509066468E+03 0.  0.
          5    1    3    3  502    0  0.82615129255E+02 -0.14802182212E+02 -0.29308822142E+02  0.88999121543E+02  0.41800000000E+01 0. -1.
         -5    1    3    3    0  502 -0.15583541878E+02 -0.46150533357E+02  0.44658431537E+02  0.66216058581E+02  0.41800000000E+01 0. -1.
        -11    1    1    2    0    0 -0.21500707363E+02  0.71398870673E+02  0.10306737379E+03  0.12721227414E+03  0.00000000000E+00 0.  1.
         11    1    1    2    0    0 -0.45530880014E+02 -0.10446155104E+02  0.14857016214E+03  0.15574105518E+03  0.00000000000E+00 0. -1.
</event>
<event>
 7    1  0.2644565E-009  0.1632185E+03  0.7561462E-02  0.1185110E+00
          1   -1    0    0  501    0  0.00000000000E+00  0.00000000000E+00  0.92525965963E+02  0.92525965963E+02  0.00000000000E+00 0. -1.
         -1   -1    0    0    0  501 -0.00000000000E+00 -0.00000000000E+00 -0.32388857500E+03  0.32388857500E+03  0.00000000000E+00 0.  1.
         25    2    1    2    0    0 -0.13428734168E+03 -0.15260000246E+02 -0.12912461662E+03  0.22491253034E+03  0.12508605815E+03 0.  0.
          5    1    3    3  502    0 -0.49129089565E+02 -0.58468047232E+02 -0.98158020031E+02  0.12443733075E+03  0.41800000000E+01 0.  1.
         -5    1    3    3    0  502 -0.85158252116E+02  0.43208046986E+02 -0.30966596585E+02  0.10047519959E+03  0.41800000000E+01 0.  1.
        -11    1    1    2    0    0  0.12908731033E+03 -0.91508934693E+01 -0.10464624199E+03  0.16642748721E+03  0.00000000000E+00 0.  1.
         11    1    1    2    0    0  0.52000313542E+01  0.24410893715E+02  0.24082495701E+01  0.25074523407E+02  0.00000000000E+00 0. -1.
</event>
<event>
 7    1  0.2644565E-009  0.1615700E+03  0.7561462E-02  0.1186936E+00
          2   -1    0    0  501    0  0.00000000000E+00  0.00000000000E+00  0.26934747436E+03  0.26934747436E+03  0.00000000000E+00 0. -1.
         -2   -1    0    0    0  501 -0.00000000000E+00 -0.00000000000E+00 -0.10674659547E+03  0.10674659547E+03  0.00000000000E+00 0.  1.
         25    2    1    2    0    0  0.10234691673E+03  0.76104407072E+02  0.11805449254E+03  0.21412956774E+03  0.12509131237E+03 0.  0.
          5    1    3    3  502    0  0.88815696629E+02  0.10513869141E+03  0.65592990651E+02  0.15251978633E+03  0.41800000000E+01 0.  1.
         -5    1    3    3    0  502  0.13531220103E+02 -0.29034284343E+02  0.52461501887E+02  0.61609781407E+02  0.41800000000E+01 0.  1.
        -11    1    1    2    0    0 -0.11760508790E+03 -0.68370985897E+02  0.48473579087E+02  0.14441342140E+03  0.00000000000E+00 0. -1.
         11    1    1    2    0    0  0.15258171167E+02 -0.77334211744E+01 -0.39271927327E+01  0.17551080684E+02  0.00000000000E+00 0.  1.
</event>
<event>
 7    1  0.2644565E-009  0.1214265E+03  0.7561462E-02  0.1240762E+00
          2   -1    0    0  501    0  0.00000000000E+00  0.00000000000E+00  0.54576433987E+02  0.54576433987E+02  0.00000000000E+00 0.  1.
         -2   -1    0    0    0  501 -0.00000000000E+00 -0.00000000000E+00 -0.36815987426E+03  0.36815987426E+03  0.00000000000E+00 0. -1.
         25    2    1    2    0    0  0.32793288929E+02  0.64321990091E+02 -0.24833960685E+03  0.28728466187E+03  0.12508876211E+03 0.  0.
          5    1    3    3  502    0  0.68162619831E+02  0.63662943331E+02 -0.22774321185E+03  0.24613727072E+03  0.41800000000E+01 0.  1.
         -5    1    3    3    0  502 -0.35369330902E+02  0.65904676024E+00 -0.20596395000E+02  0.41147391145E+02  0.41800000000E+01 0.  1.
        -11    1    1    2    0    0 -0.47608292817E+02 -0.79496147475E+02 -0.36182876744E+02  0.99475562717E+02  0.00000000000E+00 0.  1.
         11    1    1    2    0    0  0.14815003887E+02  0.15174157384E+02 -0.29060956681E+02  0.35976083663E+02  0.00000000000E+00 0. -1.
</event>
<event>
 6    1  0.2644565E-009  0.3086250E+03  0.7561462E-02  0.1081007E+00
         -2   -1    0    0    0  501 -0.00000000000E+00  0.00000000000E+00  0.15102947274E+03  0.15102947274E+03  0.00000000000E+00 0.  1.
          2   -1    0    0  501    0  0.00000000000E+00 -0.00000000000E+00 -0.71392676139E+03  0.71392676139E+03  0.00000000000E+00 0. -1.
          5    1    1    2  502    0 -0.21780866859E+03 -0.14855794668E+02 -0.15005067230E+03  0.26494147921E+03  0.41800000000E+01 0. -1.
         -5    1    1    2    0  502 -0.66371224452E+02 -0.72188902925E+02 -0.22269843247E+02  0.10064688499E+03  0.41800000000E+01 0. -1.
        -11    1    1    2    0    0  0.13750065350E+03  0.18162110207E+02 -0.24499393207E+03  0.28152853978E+03  0.00000000000E+00 0. -1.
         11    1    1    2    0    0  0.14667923954E+03  0.68882587387E+02 -0.14558284103E+03  0.21783933015E+03  0.00000000000E+00 0.  1.
</event>
<event>
 7    1  0.2644565E-009  0.1896162E+03  0.7561462E-02  0.1158808E+00
         -1   -1    0    0    0  501 -0.00000000000E+00  0.00000000000E+00  0.20623317586E+03  0.20623317586E+03  0.00000000000E+00 0. -1.
          1   -1    0    0  501    0  0.00000000000E+00 -0.00000000000E+00 -0.31289154577E+03  0.31289154577E+03  0.00000000000E+00 0.  1.
         25    2    1    2    0    0  0.17247382291E+03  0.62496754325E+01  0.99306089347E+02  0.23514975947E+03  0.12508969568E+03 0.  0.
          5    1    3    3  502    0  0.17733160209E+03  0.31623386285E+02  0.10475652883E+03  0.20841770172E+03  0.41800000000E+01 0. -1.
         -5    1    3    3    0  502 -0.48577791786E+01 -0.25373710852E+02 -0.54504394800E+01  0.26732057749E+02  0.41800000000E+01 0. -1.
        -11    1    1    2    0    0 -0.12551608521E+03 -0.28726368072E-01 -0.20015122115E+03  0.23625156041E+03  0.00000000000E+00 0.  1.
         11    1    1    2    0    0 -0.46957737697E+02 -0.62209490644E+01 -0.58132381191E+01  0.47723401747E+02  0.00000000000E+00 0. -1.
</event>
<event>
 7    1  0.2644565E-009  0.1840929E+03  0.7561462E-02  0.1163900E+00
          2   -1    0    0  501    0  0.00000000000E+00  0.00000000000E+00  0.18737580104E+04  0.18737580104E+04  0.00000000000E+00 0. -1.
         -2   -1    0    0    0  501 -0.00000000000E+00 -0.00000000000E+00 -0.19585706900E+02  0.19585706900E+02  0.00000000000E+00 0.  1.
         25    2    1    2    0    0 -0.55117891867E+02 -0.14688347984E+03  0.91099900751E+03  0.93283309584E+03  0.12508259016E+03 0.  0.
          5    1    3    3  502    0 -0.55741825047E+02 -0.11845688492E+02  0.16285916810E+03  0.17259215634E+03  0.41800000000E+01 0. -1.
         -5    1    3    3    0  502  0.62393317992E+00 -0.13503779135E+03  0.74813983941E+03  0.76024093950E+03  0.41800000000E+01 0. -1.
        -11    1    1    2    0    0 -0.15438663777E+02  0.30526354977E+01  0.35847883121E+02  0.39150244532E+02  0.00000000000E+00 0.  1.
         11    1    1    2    0    0  0.70556555644E+02  0.14383084434E+03  0.90732541285E+03  0.92136037690E+03  0.00000000000E+00 0. -1.
</event>
<event>
 7    1  0.2644565E-009  0.1203335E+03  0.7561462E-02  0.1242548E+00
         -1   -1    0    0    0  501 -0.00000000000E+00  0.00000000000E+00  0.67404285734E+02  0.67404285734E+02  0.00000000000E+00 0.  1.
          1   -1    0    0  501    0  0.00000000000E+00 -0.00000000000E+00 -0.49702132865E+03  0.49702132865E+03  0.00000000000E+00 0. -1.
         25    2    1    2    0    0 -0.11324510487E+02  0.10363442096E+03 -0.38654361910E+03  0.41945089705E+03  0.12511893471E+03 0.  0.
          5    1    3    3  502    0  0.21580660650E+02  0.36384988909E+01 -0.22805294492E+03  0.22913878256E+03  0.41800000000E+01 0. -1.
         -5    1    3    3    0  502 -0.32905171138E+02  0.99995922065E+02 -0.15849067419E+03  0.19031211449E+03  0.41800000000E+01 0. -1.
        -11    1    1    2    0    0  0.28214588358E+02 -0.66435634196E+02  0.15244318654E+02  0.73770900350E+02  0.00000000000E+00 0.  1.
         11    1    1    2    0    0 -0.16890077871E+02 -0.37198786760E+02 -0.58317742470E+02  0.71203816988E+02  0.00000000000E+00 0. -1.
</event>
<event>
 7    1  0.2644565E-009  0.1009833E+03  0.7561462E-02  0.1278242E+00
         -1   -1    0    0    0  501 -0.00000000000E+00  0.00000000000E+00  0.15477956454E+02  0.15477956454E+02  0.00000000000E+00 0.  1.
          1   -1    0    0  501    0  0.00000000000E+00 -0.00000000000E+00 -0.89222503326E+03  0.89222503326E+03  0.00000000000E+00 0. -1.
         25    2    1    2    0    0 -0.18617419627E+02 -0.28737698466E+02 -0.62837558260E+03  0.64161959744E+03  0.12508945353E+03 0.  0.
          5    1    3    3  502    0  0.41643681760E+02  0.87839495084E+01 -0.40370853631E+03  0.40596725076E+03  0.41800000000E+01 0. -1.
         -5    1    3    3    0  502 -0.60261101387E+02 -0.37521647974E+02 -0.22466704629E+03  0.23565234668E+03  0.41800000000E+01 0. -1.
        -11    1    1    2    0    0  0.42317464464E+01 -0.28633125064E+02 -0.39311696564E+02  0.48817753079E+02  0.00000000000E+00 0.  1.
         11    1    1    2    0    0  0.14385673180E+02  0.57370823530E+02 -0.20905979765E+03  0.21726563920E+03  0.00000000000E+00 0. -1.
</event>
<event>
 7    1  0.2644565E-009  0.1110524E+03  0.7561462E-02  0.1258633E+00
         -2   -1    0    0    0  501 -0.00000000000E+00  0.00000000000E+00  0.14353765504E+02  0.14353765504E+02  0.00000000000E+00 0. -1.
          2   -1    0    0  501    0  0.00000000000E+00 -0.00000000000E+00 -0.11371149249E+04  0.11371149249E+04  0.00000000000E+00 0.  1.
         25    2    1    2    0    0  0.51535644358E+02 -0.34198544530E+02 -0.76893401976E+03  0.78149346274E+03  0.12508813885E+03 0.  0.
          5    1    3    3  502    0 -0.14666088588E+02  0.38302439723E+02 -0.21786580716E+03  0.22173216585E+03  0.41800000000E+01 0. -1.
         -5    1    3    3    0  502  0.66201732946E+02 -0.72500984253E+02 -0.55106821260E+03  0.55976129689E+03  0.41800000000E+01 0. -1.
        -11    1    1    2    0    0 -0.55885625629E+02  0.84785138404E+01 -0.32947808722E+03  0.33429163661E+03  0.00000000000E+00 0.  1.
         11    1    1    2    0    0  0.43499812704E+01  0.25720030690E+02 -0.24349052372E+02  0.35683591007E+02  0.00000000000E+00 0. -1.
</event>
<event>
 7    1  0.2644565E-009  0.9448241E+02  0.7561462E-02  0.1292346E+00
          1   -1    0    0  501    0  0.00000000000E+00  0.00000000000E+00  0.43653791396E+03  0.43653791396E+03  0.00000000000E+00 0. -1.
         -1   -1    0    0    0  501 -0.00000000000E+00 -0.00000000000E+00 -0.32098329500E+02  0.32098329500E+02  0.00000000000E+00 0.  1.
         25    2    1    2    0    0  0.11352518223E+02 -0.46107868896E+02  0.24990687379E+03  0.28347211405E+03  0.12509268019E+03 0.  0.
          5    1    3    3  502    0 -0.14477438478E+02 -0.84947281606E+02  0.14778479405E+03  0.17112409132E+03  0.41800000000E+01 0. -1.
         -5    1    3    3    0  502  0.25829956701E+02  0.38839412711E+02  0.10212207974E+03  0.11234802274E+03  0.41800000000E+01 0. -1.
        -11    1    1    2    0    0  0.10016884018E+02  0.12269982364E+02 -0.80222129883E+01  0.17755177664E+02  0.00000000000E+00 0.  1.
         11    1    1    2    0    0 -0.21369402240E+02  0.33837886532E+02  0.16255492367E+03  0.16740895175E+03  0.00000000000E+00 0. -1.
</event>
<event>
 7    1  0.2644565E-009  0.9228659E+02  0.7561462E-02  0.1297407E+00
         -2   -1    0    0    0  501 -0.00000000000E+00  0.00000000000E+00  0.13859958134E+03  0.13859958134E+03  0.00000000000E+00 0.  1.
          2   -1    0    0  501    0  0.00000000000E+00 -0.00000000000E+00 -0.10906378435E+03  0.10906378435E+03  0.00000000000E+00 0. -1.
         25    2    1    2    0    0 -0.35464433386E+02 -0.24449292742E+02 -0.30490408476E+02  0.13577349790E+03  0.12509709737E+03 0.  0.
          5    1    3    3  502    0  0.43652938296E+02  0.98874844164E+01 -0.18438985239E+02  0.48588166735E+02  0.41800000000E+01 0.  1.
         -5    1    3    3    0  502 -0.79117371683E+02 -0.34336777159E+02 -0.12051423237E+02  0.87185331161E+02  0.41800000000E+01 0.  1.
        -11    1    1    2    0    0  0.22807154176E+02 -0.30391835416E+01 -0.17342872115E+02  0.28812811932E+02  0.00000000000E+00 0. -1.
         11    1    1    2    0    0  0.12657279210E+02  0.27488476284E+02  0.77369077584E+02  0.83077055867E+02  0.00000000000E+00 0.  1.
</event>
<event>
 7    1  0.2644565E-009  0.9181521E+02  0.7561462E-02  0.1298515E+00
          1   -1    0    0  501    0  0.00000000000E+00  0.00000000000E+00  0.16314527391E+03  0.16314527391E+03  0.00000000000E+00 0. -1.
         -1   -1    0    0    0  501 -0.00000000000E+00 -0.00000000000E+00 -0.81338129878E+02  0.81338129878E+02  0.00000000000E+00 0.  1.
         25    2    1    2    0    0 -0.17523696139E+02 -0.14223980843E+02  0.78979376585E+02  0.14964902359E+03  0.12509071420E+03 0.  0.
          5    1    3    3  502    0 -0.14098422235E+02 -0.66337085820E+02  0.20151220503E+02  0.70872551474E+02  0.41800000000E+01 0.  1.
         -5    1    3    3    0  502 -0.34252739038E+01  0.52113104977E+02  0.58828156082E+02  0.78776472120E+02  0.41800000000E+01 0.  1.
        -11    1    1    2    0    0  0.17911117937E+02 -0.21262929797E+02 -0.33846226533E+02  0.43800540863E+02  0.00000000000E+00 0.  1.
         11    1    1    2    0    0 -0.38742179804E+00  0.35486910640E+02  0.36673993981E+02  0.51033839332E+02  0.00000000000E+00 0. -1.
</event>
<event>
 7    1  0.2644565E-009  0.1187742E+03  0.7561462E-02  0.1245133E+00
         -2   -1    0    0    0  501 -0.00000000000E+00  0.00000000000E+00  0.47210484634E+02  0.47210484634E+02  0.00000000000E+00 0.  1.
          2   -1    0    0  501    0  0.00000000000E+00 -0.00000000000E+00 -0.40009898461E+03  0.40009898461E+03  0.00000000000E+00 0. -1.
         25    2    1    2    0    0 -0.43859609309E+02  0.40239577954E+02 -0.27347818018E+03  0.30656582646E+03  0.12509756974E+03 0.  0.
          5    1    3    3  502    0 -0.77359407574E+02  0.95032796373E+00 -0.10625252181E+03  0.13150076750E+03  0.41800000000E+01 0. -1.
         -5    1    3    3    0  502  0.33499798266E+02  0.39289249990E+02 -0.16722565837E+03  0.17506505895E+03  0.41800000000E+01 0. -1.
        -11    1    1    2    0    0  0.62385092071E+02  0.17127555156E+01 -0.19679560931E+02  0.65437896991E+02  0.00000000000E+00 0.  1.
         11    1    1    2    0    0 -0.18525482762E+02 -0.41952333469E+02 -0.59730758862E+02  0.75305745792E+02  0.00000000000E+00 0. -1.
</event>
<event>
 7    1  0.2644565E-009  0.1701837E+03  0.7561462E-02  0.1177656E+00
          2   -1    0    0  501    0  0.00000000000E+00  0.00000000000E+00  0.26609549256E+03  0.26609549256E+03  0.00000000000E+00 0.  1.
         -2   -1    0    0    0  501 -0.00000000000E+00 -0.00000000000E+00 -0.15905428916E+03  0.15905428916E+03  0.00000000000E+00 0. -1.
         25    2    1    2    0    0 -0.13293279084E+03 -0.36263884179E+02  0.16669138011E+03  0.24983706012E+03  0.12508534778E+03 0.  0.
          5    1    3    3  502    0  0.51751959924E+01 -0.42488365396E+02  0.65922614003E+02  0.78710274326E+02  0.41800000000E+01 0. -1.
         -5    1    3    3    0  502 -0.13810798683E+03  0.62244812169E+01  0.10076876611E+03  0.17112678579E+03  0.41800000000E+01 0. -1.
        -11    1    1    2    0    0  0.13389160526E+03  0.11627981458E+02 -0.31778705789E+02  0.13810162220E+03  0.00000000000E+00 0.  1.
         11    1    1    2    0    0 -0.95881442168E+00  0.24635902721E+02 -0.27871470911E+02  0.37211099402E+02  0.00000000000E+00 0. -1.
</event>
<event>
 7    1  0.2644565E-009  0.1196126E+03  0.7561462E-02  0.1243738E+00
         -1   -1    0    0    0  501 -0.00000000000E+00  0.00000000000E+00  0.13107279422E+03  0.13107279422E+03  0.00000000000E+00 0.  1.
          1   -1    0    0  501    0  0.00000000000E+00 -0.00000000000E+00 -0.24049855171E+03  0.24049855171E+03  0.00000000000E+00 0. -1.
         25    2    1    2    0    0  0.86509595213E+02  0.60026434778E+00 -0.17449564041E+03  0.23147446695E+03  0.12508968761E+03 0.  0.
          5    1    3    3  502    0  0.11306008942E+03 -0.23913065381E+02 -0.12955077303E+03  0.17365279643E+03  0.41800000000E+01 0.  1.
         -5    1    3    3    0  502 -0.26550494211E+02  0.24513329729E+02 -0.44944867383E+02  0.57821670517E+02  0.41800000000E+01 0.  1.
        -11    1    1    2    0    0 -0.29789284949E+02  0.50337151287E+01  0.76244876073E+02  0.82012321715E+02  0.00000000000E+00 0.  1.
         11    1    1    2    0    0 -0.56720310263E+02 -0.56339794764E+01 -0.11174993150E+02  0.58084557268E+02  0.00000000000E+00 0. -1.
</event>
<event>
 7    1  0.2644565E-009  0.1551513E+03  0.7561462E-02  0.1194282E+00
          4   -1    0    0  501    0  0.00000000000E+00  0.00000000000E+00  0.85862616042E+02  0.85862616042E+02  0.00000000000E+00 0. -1.
         -4   -1    0    0    0  501 -0.00000000000E+00 -0.00000000000E+00 -0.33899267449E+03  0.33899267449E+03  0.00000000000E+00 0.  1.
         25    2    1    2    0    0 -0.10299839605E+03  0.81340437025E+02 -0.12548140004E+03  0.22049327576E+03  0.12508703615E+03 0.  0.
          5    1    3    3  502    0 -0.66321824729E+02  0.11185098565E+03 -0.10936618920E+03  0.16996371132E+03  0.41800000000E+01 0. -1.
         -5    1    3    3    0  502 -0.36676571326E+02 -0.30510548626E+02 -0.16115210840E+02  0.50529564436E+02  0.41800000000E+01 0. -1.
        -11    1    1    2    0    0  0.32914704294E+02 -0.36298082912E+02 -0.10825013544E+03  0.11882348423E+03  0.00000000000E+00 0.  1.
         11    1    1    2    0    0  0.70083691761E+02 -0.45042354114E+02 -0.19398522977E+02  0.85538530550E+02  0.00000000000E+00 0. -1.
</event>
<event>
 7    1  0.2644565E-009  0.1415845E+03  0.7561462E-02  0.1211213E+00
         -2   -1    0    0    0  501 -0.00000000000E+00  0.00000000000E+00  0.15233007290E+03  0.15233007290E+03  0.00000000000E+00 0.  1.
          2   -1    0    0  501    0  0.00000000000E+00 -0.00000000000E+00 -0.16796666271E+03  0.16796666271E+03  0.00000000000E+00 0. -1.
         25    2    1    2    0    0  0.88455069137E+02  0.65141635298E+02  0.31010207862E+02  0.16934342883E+03  0.12509129463E+03 0.  0.
          5    1    3    3  502    0 -0.68455560366E+01  0.41606512158E+02 -0.31581745022E+02  0.52847351022E+02  0.41800000000E+01 0.  1.
         -5    1    3    3    0  502  0.95300625174E+02  0.23535123139E+02  0.62591952884E+02  0.11649607781E+03  0.41800000000E+01 0.  1.
        -11    1    1    2    0    0 -0.10254688444E+03 -0.73493143149E+02 -0.35239769578E+02  0.13099216373E+03  0.00000000000E+00 0.  1.
         11    1    1    2    0    0  0.14091815302E+02  0.83515078515E+01 -0.11407028092E+02  0.19961143048E+02  0.00000000000E+00 0. -1.
</event>
<event>
 7    1  0.2644565E-009  0.8226596E+02  0.7561462E-02  0.1322741E+00
         -2   -1    0    0    0  501 -0.00000000000E+00  0.00000000000E+00  0.97150371286E+01  0.97150371286E+01  0.00000000000E+00 0. -1.
          2   -1    0    0  501    0  0.00000000000E+00 -0.00000000000E+00 -0.12711859319E+04  0.12711859319E+04  0.00000000000E+00 0.  1.
         25    2    1    2    0    0 -0.12669571819E+02 -0.10044961711E+02 -0.73630869167E+03  0.74703420671E+03  0.12509275464E+03 0.  0.
          5    1    3    3  502    0  0.13322118450E+02 -0.31662066820E+02 -0.55701431339E+02  0.65575049893E+02  0.41800000000E+01 0. -1.
         -5    1    3    3    0  502 -0.25991690269E+02  0.21617105109E+02 -0.68060726033E+03  0.68145915682E+03  0.41800000000E+01 0. -1.
        -11    1    1    2    0    0 -0.20802166160E+02 -0.34414746638E+02 -0.20579115051E+03  0.20968333870E+03  0.00000000000E+00 0.  1.
         11    1    1    2    0    0  0.33471737979E+02  0.44459708349E+02 -0.31937105257E+03  0.32418342359E+03  0.00000000000E+00 0. -1.
</event>
<event>
 7    1  0.2644565E-009  0.2366741E+03  0.7561462E-02  0.1122029E+00
         -2   -1    0    0    0  501 -0.00000000000E+00  0.00000000000E+00  0.24058618753E+02  0.24058618753E+02  0.00000000000E+00 0.  1.
          2   -1    0    0  501    0  0.00000000000E+00 -0.00000000000E+00 -0.26519020159E+04  0.26519020159E+04  0.00000000000E+00 0. -1.
         25    2    1    2    0    0  0.11021092015E+03 -0.19840390450E+03 -0.12710870435E+04  0.12972358220E+04  0.12509176497E+03 0.  0.
          5    1    3    3  502    0  0.38119067819E+02 -0.42397408423E+02 -0.65873314099E+03  0.66120906453E+03  0.41800000000E+01 0.  1.
         -5    1    3    3    0  502  0.72091852330E+02 -0.15600649607E+03 -0.61235390246E+03  0.63602675749E+03  0.41800000000E+01 0.  1.
        -11    1    1    2    0    0 -0.59180789998E+02  0.18088220604E+03 -0.11026021177E+04  0.11189066844E+04  0.00000000000E+00 0.  1.
         11    1    1    2    0    0 -0.51030130152E+02  0.17521698458E+02 -0.25415423596E+03  0.25981812823E+03  0.00000000000E+00 0. -1.
</event>
<event>
 7    1  0.2644565E-009  0.2499820E+03  0.7561462E-02  0.1113316E+00
         -1   -1    0    0    0  501 -0.00000000000E+00  0.00000000000E+00  0.78709505185E+03  0.78709505185E+03  0.00000000000E+00 0.  1.
          1   -1    0    0  501    0  0.00000000000E+00 -0.00000000000E+00 -0.80171200797E+02  0.80171200797E+02  0.00000000000E+00 0. -1.
         25    2    1    2    0    0 -0.20781199271E+03 -0.80361564185E+02  0.31956291401E+03  0.40915941110E+03  0.12508861806E+03 0.  0.
          5    1    3    3  502    0 -0.15920940715E+03  0.25277731405E+01  0.20345825683E+03  0.25839264625E+03  0.41800000000E+01 0.  1.
         -5    1    3    3    0  502 -0.48602585568E+02 -0.82889337325E+02  0.11610465718E+03  0.15076676486E+03  0.41800000000E+01 0.  1.
        -11    1    1    2    0    0  0.18691500504E+03  0.29129821128E+02  0.29516463526E+03  0.35058226923E+03  0.00000000000E+00 0.  1.
         11    1    1    2    0    0  0.20896987675E+02  0.51231743056E+02  0.92196301783E+02  0.10752457232E+03  0.00000000000E+00 0. -1.
</event>
<event>
 7    1  0.2644565E-009  0.1090337E+03  0.7561462E-02  0.1262370E+00
          1   -1    0    0  501    0  0.00000000000E+00  0.00000000000E+00  0.24007172801E+03  0.24007172801E+03  0.00000000000E+00 0. -1.
         -1   -1    0    0    0  501 -0.00000000000E+00 -0.00000000000E+00 -0.67239463426E+02  0.67239463426E+02  0.00000000000E+00 0.  1.
         25    2    1    2    0    0 -0.38448315686E+02 -0.16659913315E+02  0.32328476368E+02  0.13582388773E+03  0.12508865817E+03 0.  0.
          5    1    3    3  502    0  0.42261743056E+02 -0.66871768082E+01  0.33311744688E+02  0.54386744653E+02  0.41800000000E+01 0. -1.
         -5    1    3    3    0  502 -0.80710058742E+02 -0.99727365063E+01 -0.98326832039E+00  0.81437143075E+02  0.41800000000E+01 0. -1.
        -11    1    1    2    0    0 -0.26821357419E+02  0.33214847949E+01  0.19395912612E+02  0.33265881937E+02  0.00000000000E+00 0.  1.
         11    1    1    2    0    0  0.65269673105E+02  0.13338428520E+02  0.12110787560E+03  0.13822142177E+03  0.00000000000E+00 0. -1.
</event>
<event>
 7    1  0.2644565E-009  0.1317816E+03  0.7561462E-02  0.1224836E+00
         -1   -1    0    0    0  501 -0.00000000000E+00  0.00000000000E+00  0.34550592322E+03  0.34550592322E+03  0.00000000000E+00 0.  1.
          1   -1    0    0  501    0  0.00000000000E+00 -0.00000000000E+00 -0.59375775551E+02  0.59375775551E+02  0.00000000000E+00 0. -1.
         25    2    1    2    0    0  0.75132978215E+02 -0.46160186272E+02  0.11327673151E+03  0.19040514761E+03  0.12508707017E+03 0.  0.
          5    1    3    3  502    0  0.55056584344E+02 -0.88931410880E+02  0.67960894744E+02  0.12480456296E+03  0.41800000000E+01 0.  1.
         -5    1    3    3    0  502  0.20076393870E+02  0.42771224608E+02  0.45315836765E+02  0.65600584655E+02  0.41800000000E+01 0.  1.
        -11    1    1    2    0    0 -0.37796602466E+02 -0.14284428135E+02  0.11797786863E+03  0.12470527467E+03  0.00000000000E+00 0.  1.
         11    1    1    2    0    0 -0.37336375749E+02  0.60444614407E+02  0.54875547531E+02  0.89771276485E+02  0.00000000000E+00 0. -1.
</event>
<event>
 7    1  0.2644565E-009  0.1080700E+03  0.7561462E-02  0.1264186E+00
          2   -1    0    0  501    0  0.00000000000E+00  0.00000000000E+00  0.83245427406E+03  0.83245427406E+03  0.00000000000E+00 0. -1.
         -2   -1    0    0    0  501 -0.00000000000E+00 -0.00000000000E+00 -0.16772998708E+02  0.16772998708E+02  0.00000000000E+00 0.  1.
         25    2    1    2    0    0  0.12607904263E+01 -0.44181329242E+02  0.39918658911E+03  0.42065506069E+03  0.12508863942E+03 0.  0.
          5    1    3    3  502    0  0.44561750078E+02  0.10869473412E+02  0.68083624028E+02  0.82199436027E+02  0.41800000000E+01 0. -1.
         -5    1    3    3    0  502 -0.43300959652E+02 -0.55050802654E+02  0.33110296509E+03  0.33845562467E+03  0.41800000000E+01 0. -1.
        -11    1    1    2    0    0  0.61311639123E+01 -0.27337937061E+02  0.90262052923E+02  0.94510275482E+02  0.00000000000E+00 0.  1.
         11    1    1    2    0    0 -0.73919543386E+01  0.71519266303E+02  0.32623263331E+03  0.33406193659E+03  0.00000000000E+00 0. -1.
</event>
<event>
 7    1  0.2644565E-009  0.1258581E+03  0.7561462E-02  0.1233734E+00
         -1   -1    0    0    0  501 -0.00000000000E+00  0.00000000000E+00  0.39357600078E+02  0.39357600078E+02  0.00000000000E+00 0.  1.
          1   -1    0    0  501    0  0.00000000000E+00 -0.00000000000E+00 -0.45920194274E+03  0.45920194274E+03  0.00000000000E+00 0. -1.
         25    2    1    2    0    0 -0.31723310570E+02 -0.65257809651E+02 -0.27290613612E+03  0.30885092117E+03  0.12508470019E+03 0.  0.
          5    1    3    3  502    0  0.14546084804E+02 -0.87941619384E+02 -0.13757572676E+03  0.16398130990E+03  0.41800000000E+01 0. -1.
         -5    1    3    3    0  502 -0.46269395375E+02  0.22683809733E+02 -0.13533040936E+03  0.14486961127E+03  0.41800000000E+01 0. -1.
        -11    1    1    2    0    0 -0.15879245283E+01 -0.19577027258E+02 -0.37819665737E+01  0.20002119181E+02  0.00000000000E+00 0.  1.
         11    1    1    2    0    0  0.33311235099E+02  0.84834836909E+02 -0.14315623997E+03  0.16970650246E+03  0.00000000000E+00 0. -1.
</event>
<event>
 7    1  0.2644565E-009  0.1375813E+03  0.7561462E-02  0.1216621E+00
          1   -1    0    0  501    0  0.00000000000E+00  0.00000000000E+00  0.60149228183E+02  0.60149228183E+02  0.00000000000E+00 0. -1.
         -1   -1    0    0    0  501 -0.00000000000E+00 -0.00000000000E+00 -0.53665849895E+03  0.53665849895E+03  0.00000000000E+00 0.  1.
         25    2    1    2    0    0  0.47162148792E+02 -0.12248458483E+03 -0.34836847636E+03  0.39271858395E+03  0.12506218077E+03 0.  0.
          5    1    3    3  502    0  0.37355117665E+02 -0.58963842406E+02 -0.46312275632E+02  0.83871561338E+02  0.41800000000E+01 0. -1.
         -5    1    3    3    0  502  0.98070311267E+01 -0.63520742419E+02 -0.30205620073E+03  0.30884702261E+03  0.41800000000E+01 0. -1.
        -11    1    1    2    0    0 -0.57802018344E+02  0.93187459449E+02 -0.13317863647E+03  0.17251528957E+03  0.00000000000E+00 0.  1.
         11    1    1    2    0    0  0.10639869553E+02  0.29297125376E+02  0.50378420623E+01  0.31573853614E+02  0.00000000000E+00 0. -1.
</event>
<event>
 7    1  0.2644565E-009  0.1404880E+03  0.7561462E-02  0.1212674E+00
         -1   -1    0    0    0  501 -0.00000000000E+00  0.00000000000E+00  0.15093180243E+02  0.15093180243E+02  0.00000000000E+00 0.  1.
          1   -1    0    0  501    0  0.00000000000E+00 -0.00000000000E+00 -0.14328310007E+04  0.14328310007E+04  0.00000000000E+00 0. -1.
         25    2    1    2    0    0  0.51533331346E+02  0.78995983444E+02 -0.91892596889E+03  0.93218356765E+03  0.12508084531E+03 0.  0.
          5    1    3    3  502    0  0.52371876220E+02 -0.17760738556E+02 -0.44659136372E+03  0.45002175037E+03  0.41800000000E+01 0. -1.
         -5    1    3    3    0  502 -0.83854487411E+00  0.96756722000E+02 -0.47233460516E+03  0.48216181728E+03  0.41800000000E+01 0. -1.
        -11    1    1    2    0    0  0.24744373816E+02 -0.13859334838E+02 -0.15594191417E+03  0.15849998673E+03  0.00000000000E+00 0.  1.
         11    1    1    2    0    0 -0.76277705162E+02 -0.65136648606E+02 -0.34286993743E+03  0.35724062660E+03  0.00000000000E+00 0. -1.
</event>
<event>
 7    1  0.2644565E-009  0.8002675E+02  0.7561462E-02  0.1328976E+00
          2   -1    0    0  501    0  0.00000000000E+00  0.00000000000E+00  0.48869948449E+03  0.48869948449E+03  0.00000000000E+00 0.  1.
         -2   -1    0    0    0  501 -0.00000000000E+00 -0.00000000000E+00 -0.25251363184E+02  0.25251363184E+02  0.00000000000E+00 0. -1.
         25    2    1    2    0    0  0.89817948429E+01  0.10680321643E+02  0.33019280357E+03  0.35336878232E+03  0.12508983524E+03 0.  0.
          5    1    3    3  502    0 -0.49749551121E+02 -0.13839855451E+02  0.22028101442E+03  0.22629131037E+03  0.41800000000E+01 0. -1.
         -5    1    3    3    0  502  0.58731345964E+02  0.24520177094E+02  0.10991178916E+03  0.12707747196E+03  0.41800000000E+01 0. -1.
        -11    1    1    2    0    0  0.17649025983E+00 -0.26330682095E+02  0.13906899914E+03  0.14153982652E+03  0.00000000000E+00 0.  1.
         11    1    1    2    0    0 -0.91582851027E+01  0.15650360452E+02 -0.58136814057E+01  0.19042238834E+02  0.00000000000E+00 0. -1.
</event>
<event>
 7    1  0.2644565E-009  0.2129827E+03  0.7561462E-02  0.1139226E+00
         -2   -1    0    0    0  501 -0.00000000000E+00  0.00000000000E+00  0.76649049602E+02  0.76649049602E+02  0.00000000000E+00 0.  1.
          2   -1    0    0  501    0  0.00000000000E+00 -0.00000000000E+00 -0.94632405250E+03  0.94632405250E+03  0.00000000000E+00 0. -1.
         25    2    1    2    0    0  0.30314984642E+02  0.21063792998E+03 -0.68121000502E+03  0.72455530923E+03  0.12508392924E+03 0.  0.
          5    1    3    3  502    0  0.12998991427E+02  0.92302705096E+02 -0.49133186442E+03  0.50011322372E+03  0.41800000000E+01 0.  1.
         -5    1    3    3    0  502  0.17315993216E+02  0.11833522488E+03 -0.18987814060E+03  0.22444208551E+03  0.41800000000E+01 0.  1.
        -11    1    1    2    0    0 -0.22337622156E+02 -0.12491963889E+03 -0.52159833819E+02  0.13720252843E+03  0.00000000000E+00 0.  1.
         11    1    1    2    0    0 -0.79773624867E+01 -0.85718291092E+02 -0.13630516406E+03  0.16121526444E+03  0.00000000000E+00 0. -1.
</event>
<event>
 7    1  0.2644565E-009  0.1129915E+03  0.7561462E-02  0.1255128E+00
         -2   -1    0    0    0  501 -0.00000000000E+00  0.00000000000E+00  0.65627168978E+02  0.65627168978E+02  0.00000000000E+00 0.  1.
          2   -1    0    0  501    0  0.00000000000E+00 -0.00000000000E+00 -0.25796884594E+03  0.25796884594E+03  0.00000000000E+00 0. -1.
         25    2    1    2    0    0  0.49522971814E+02 -0.30281347449E+02 -0.53740053205E+02  0.14800388290E+03  0.12509065230E+03 0.  0.
          5    1    3    3  502    0  0.53332406024E+02  0.40056506253E+02 -0.32483609675E+02  0.74306974929E+02  0.41800000000E+01 0. -1.
         -5    1    3    3    0  502 -0.38094342109E+01 -0.70337853703E+02 -0.21256443530E+02  0.73696907968E+02  0.41800000000E+01 0. -1.
        -11    1    1    2    0    0 -0.18306732410E+02 -0.21429846380E+02 -0.10002880206E+03  0.10392370282E+03  0.00000000000E+00 0. -1.
         11    1    1    2    0    0 -0.31216239403E+02  0.51711193829E+02 -0.38572821698E+02  0.71668429196E+02  0.00000000000E+00 0.  1.
</event>
<event>
 7    1  0.2644565E-009  0.1470087E+03  0.7561462E-02  0.1204198E+00
          1   -1    0    0  501    0  0.00000000000E+00  0.00000000000E+00  0.48959082863E+02  0.48959082863E+02  0.00000000000E+00 0. -1.
         -1   -1    0    0    0  501 -0.00000000000E+00 -0.00000000000E+00 -0.57128452217E+03  0.57128452217E+03  0.00000000000E+00 0.  1.
         25    2    1    2    0    0 -0.64909893987E+02  0.10936833815E+03 -0.30619756366E+03  0.35437351554E+03  0.12509561461E+03 0.  0.
          5    1    3    3  502    0  0.78088622199E+01  0.43192969139E+02 -0.14330588747E+02  0.46362151439E+02  0.41800000000E+01 0. -1.
         -5    1    3    3    0  502 -0.72718756207E+02  0.66175369013E+02 -0.29186697492E+03  0.30801136410E+03  0.41800000000E+01 0. -1.
        -11    1    1    2    0    0  0.83468585644E+02 -0.73888173875E+02 -0.18116041484E+03  0.21271004427E+03  0.00000000000E+00 0.  1.
         11    1    1    2    0    0 -0.18558691657E+02 -0.35480164276E+02 -0.34967460799E+02  0.53160045220E+02  0.00000000000E+00 0. -1.
</event>
<event>
 7    1  0.2644565E-009  0.8078733E+02  0.7561462E-02  0.1326832E+00
         -2   -1    0    0    0  501 -0.00000000000E+00  0.00000000000E+00  0.40062029027E+02  0.40062029027E+02  0.00000000000E+00 0.  1.
          2   -1    0    0  501    0  0.00000000000E+00 -0.00000000000E+00 -0.36431330983E+03  0.36431330983E+03  0.00000000000E+00 0. -1.
         25    2    1    2    0    0  0.31380222497E+02 -0.40311661386E+02 -0.20736005703E+03  0.24750451963E+03  0.12510214059E+03 0.  0.
          5    1    3    3  502    0  0.35298900539E+02 -0.39487637532E+02 -0.22382883804E+03  0.23004805375E+03  0.41800000000E+01 0.  1.
         -5    1    3    3    0  502 -0.39186780425E+01 -0.82402385432E+00  0.16468781012E+02  0.17456465878E+02  0.41800000000E+01 0.  1.
        -11    1    1    2    0    0 -0.62846185647E+02  0.29056011628E+02 -0.92284464656E+02  0.11537034835E+03  0.00000000000E+00 0. -1.
         11    1    1    2    0    0  0.31465963151E+02  0.11255649758E+02 -0.24606759121E+02  0.41500470876E+02  0.00000000000E+00 0.  1.
</event>
<event>
 7    1  0.2644565E-009  0.1128887E+03  0.7561462E-02  0.1255312E+00
          1   -1    0    0  501    0  0.00000000000E+00  0.00000000000E+00  0.18844028834E+03  0.18844028834E+03  0.00000000000E+00 0. -1.
         -1   -1    0    0    0  501 -0.00000000000E+00 -0.00000000000E+00 -0.12049022265E+03  0.12049022265E+03  0.00000000000E+00 0.  1.
         25    2    1    2    0    0 -0.82937591078E+01 -0.10482227596E+03  0.28212437098E+02  0.16583064731E+03  0.12508943201E+03 0.  0.
          5    1    3    3  502    0  0.18988226650E+02 -0.27306593174E+02  0.66959246799E+02  0.74881345568E+02  0.41800000000E+01 0. -1.
         -5    1    3    3    0  502 -0.27281985758E+02 -0.77515682790E+02 -0.38746809702E+02  0.90949301742E+02  0.41800000000E+01 0. -1.
        -11    1    1    2    0    0 -0.12201328304E+02  0.29779191828E+02 -0.25905589729E+02  0.41313100313E+02  0.00000000000E+00 0.  1.
         11    1    1    2    0    0  0.20495087411E+02  0.75043084136E+02  0.65643218318E+02  0.10178676336E+03  0.00000000000E+00 0. -1.
</event>
<event>
 7    1  0.2743748E-009  0.1134754E+03  0.7561462E-02  0.1254266E+00
         -1   -1    0    0    0  501 -0.00000000000E+00  0.00000000000E+00  0.49716734881E+02  0.49716734881E+02  0.00000000000E+00 0.  1.
          1   -1    0    0  501    0  0.00000000000E+00 -0.00000000000E+00 -0.49636918185E+03  0.49636918185E+03  0.00000000000E+00 0. -1.
         25    2    1    2    0    0  0.19600364977E+02  0.99661279278E+02 -0.32510797455E+03  0.36284986712E+03  0.12509310958E+03 0.  0.
          5    1    3    3  502    0  0.20299050912E+02  0.78338342981E+02 -0.33063340894E+03  0.34041867011E+03  0.41800000000E+01 0.  1.
         -5    1    3    3    0  502 -0.69868593488E+00  0.21322936296E+02  0.55254343954E+01  0.22431197016E+02  0.41800000000E+01 0.  1.
        -11    1    1    2    0    0 -0.45937694239E+02 -0.75826565380E+02 -0.46276317134E+02  0.10000718623E+03  0.00000000000E+00 0.  1.
         11    1    1    2    0    0  0.26337329262E+02 -0.23834713898E+02 -0.75268155288E+02  0.83228863381E+02  0.00000000000E+00 0. -1.
</event>
<event>
 7    1  0.2644565E-009  0.1086379E+03  0.7561462E-02  0.1263113E+00
          2   -1    0    0  501    0  0.00000000000E+00  0.00000000000E+00  0.30223776333E+03  0.30223776333E+03  0.00000000000E+00 0.  1.
         -2   -1    0    0    0  501 -0.00000000000E+00 -0.00000000000E+00 -0.49297523864E+02  0.49297523864E+02  0.00000000000E+00 0. -1.
         25    2    1    2    0    0 -0.46312342470E+02  0.27153130591E+02  0.14669885121E+03  0.20012467977E+03  0.12508880421E+03 0.  0.
          5    1    3    3  502    0 -0.47756268783E+02  0.71348574294E+02  0.12218782254E+03  0.14939416534E+03  0.41800000000E+01 0.  1.
         -5    1    3    3    0  502  0.14439263131E+01 -0.44195443703E+02  0.24511028673E+02  0.50730514426E+02  0.41800000000E+01 0.  1.
        -11    1    1    2    0    0  0.52601673609E+02  0.61954181393E+01  0.16514049023E+02  0.55480024220E+02  0.00000000000E+00 0. -1.
         11    1    1    2    0    0 -0.62893311385E+01 -0.33348548731E+02  0.89727339232E+02  0.95930583206E+02  0.00000000000E+00 0.  1.
</event>
<event>
 7    1  0.2644565E-009  0.2611429E+03  0.7561462E-02  0.1106458E+00
         -2   -1    0    0    0  501 -0.00000000000E+00  0.00000000000E+00  0.43064374714E+03  0.43064374714E+03  0.00000000000E+00 0.  1.
          2   -1    0    0  501    0  0.00000000000E+00 -0.00000000000E+00 -0.29796759989E+03  0.29796759989E+03  0.00000000000E+00 0. -1.
         25    2    1    2    0    0  0.16579863952E+03  0.18819232774E+03  0.30529260980E+03  0.41443582244E+03  0.12509169532E+03 0.  0.
          5    1    3    3  502    0  0.20472918914E+01  0.67538428588E+02  0.35224248213E+02  0.76314158597E+02  0.41800000000E+01 0.  1.
         -5    1    3    3    0  502  0.16375134763E+03  0.12065389915E+03  0.27006836159E+03  0.33812166385E+03  0.41800000000E+01 0.  1.
        -11    1    1    2    0    0 -0.48036728316E+02 -0.45891777303E+02 -0.82902085711E+01  0.66950056381E+02  0.00000000000E+00 0.  1.
         11    1    1    2    0    0 -0.11776191121E+03 -0.14230055043E+03 -0.16432625398E+03  0.24722546821E+03  0.00000000000E+00 0. -1.
</event>
<event>
 7    1  0.2644565E-009  0.9683762E+02  0.7561462E-02  0.1287090E+00
          2   -1    0    0  501    0  0.00000000000E+00  0.00000000000E+00  0.22214970730E+03  0.22214970730E+03  0.00000000000E+00 0.  1.
         -2   -1    0    0    0  501 -0.00000000000E+00 -0.00000000000E+00 -0.65007466645E+02  0.65007466645E+02  0.00000000000E+00 0. -1.
         25    2    1    2    0    0  0.69935389942E+01 -0.48068225439E+02  0.10738486151E+03  0.17186840291E+03  0.12509106904E+03 0.  0.
          5    1    3    3  502    0 -0.41619897869E+02  0.12984839226E+02  0.75857949173E+02  0.87594079715E+02  0.41800000000E+01 0.  1.
         -5    1    3    3    0  502  0.48613436864E+02 -0.61053064665E+02  0.31526912335E+02  0.84274323196E+02  0.41800000000E+01 0.  1.
        -11    1    1    2    0    0  0.12782604158E+02 -0.60217447070E+01 -0.20214765659E+02  0.24663599271E+02  0.00000000000E+00 0. -1.
         11    1    1    2    0    0 -0.19776143152E+02  0.54089970146E+02  0.69972144802E+02  0.90625171760E+02  0.00000000000E+00 0.  1.
</event>
<event>
 7    1  0.2644565E-009  0.9544726E+02  0.7561462E-02  0.1290172E+00
          2   -1    0    0  501    0  0.00000000000E+00  0.00000000000E+00  0.89146190126E+02  0.89146190126E+02  0.00000000000E+00 0. -1.
         -2   -1    0    0    0  501 -0.00000000000E+00 -0.00000000000E+00 -0.14047079288E+03  0.14047079288E+03  0.00000000000E+00 0.  1.
         25    2    1    2    0    0  0.12424209283E+02 -0.25614190456E+02 -0.46023091200E+02  0.13629496905E+03  0.12509095065E+03 0.  0.
          5    1    3    3  502    0  0.12380828353E+02 -0.73791479280E+02 -0.46009969023E+02  0.87936664564E+02  0.41800000000E+01 0. -1.
         -5    1    3    3    0  502  0.43380930527E-01  0.48177288824E+02 -0.13122176974E-01  0.48358304484E+02  0.41800000000E+01 0. -1.
        -11    1    1    2    0    0  0.15598708868E+02  0.34775907172E+02 -0.34803506725E+02  0.51613636942E+02  0.00000000000E+00 0.  1.
         11    1    1    2    0    0 -0.28022918151E+02 -0.91617167165E+01  0.29501995167E+02  0.41708377021E+02  0.00000000000E+00 0. -1.
</event>
<event>
 7    1  0.2644565E-009  0.1404236E+03  0.7561462E-02  0.1212760E+00
         -2   -1    0    0    0  501 -0.00000000000E+00  0.00000000000E+00  0.69626725847E+02  0.69626725847E+02  0.00000000000E+00 0.  1.
          2   -1    0    0  501    0  0.00000000000E+00 -0.00000000000E+00 -0.32763793356E+03  0.32763793356E+03  0.00000000000E+00 0. -1.
         25    2    1    2    0    0  0.58156188779E+02 -0.70935213176E+02 -0.20723714838E+03  0.25886029070E+03  0.12508983840E+03 0.  0.
          5    1    3    3  502    0  0.17108094950E+02 -0.10005424378E+03 -0.16109619853E+03  0.19045470903E+03  0.41800000000E+01 0. -1.
         -5    1    3    3    0  502  0.41048093829E+02  0.29119030607E+02 -0.46140949855E+02  0.68405581673E+02  0.41800000000E+01 0. -1.
        -11    1    1    2    0    0  0.15534513313E+02  0.49690357961E+02 -0.20747135455E+02  0.56043700875E+02  0.00000000000E+00 0. -1.
         11    1    1    2    0    0 -0.73690702092E+02  0.21244855215E+02 -0.30026923876E+02  0.82360667830E+02  0.00000000000E+00 0.  1.
</event>
<event>
 7    1  0.2644565E-009  0.1767897E+03  0.7561462E-02  0.1170947E+00
         -2   -1    0    0    0  501 -0.00000000000E+00  0.00000000000E+00  0.49166476502E+02  0.49166476502E+02  0.00000000000E+00 0.  1.
          2   -1    0    0  501    0  0.00000000000E+00 -0.00000000000E+00 -0.77430628507E+03  0.77430628507E+03  0.00000000000E+00 0. -1.
         25    2    1    2    0    0 -0.65827769885E+02  0.14748875233E+03 -0.39417616422E+03  0.44396305343E+03  0.12506844933E+03 0.  0.
          5    1    3    3  502    0 -0.72650342483E+02  0.13750137513E+03 -0.22072352725E+03  0.27003897553E+03  0.41800000000E+01 0.  1.
         -5    1    3    3    0  502  0.68225725981E+01  0.99873771996E+01 -0.17345263697E+03  0.17392407790E+03  0.41800000000E+01 0.  1.
        -11    1    1    2    0    0  0.11586118435E+02 -0.12653380195E+03 -0.23970483968E+03  0.27129956016E+03  0.00000000000E+00 0.  1.
         11    1    1    2    0    0  0.54241651450E+02 -0.20954950372E+02 -0.91258804669E+02  0.10821014798E+03  0.00000000000E+00 0. -1.
</event>
<event>
 7    1  0.2644565E-009  0.8275267E+02  0.7561462E-02  0.1321416E+00
         -2   -1    0    0    0  501 -0.00000000000E+00  0.00000000000E+00  0.61261066910E+02  0.61261066910E+02  0.00000000000E+00 0.  1.
          2   -1    0    0  501    0  0.00000000000E+00 -0.00000000000E+00 -0.25487612639E+03  0.25487612639E+03  0.00000000000E+00 0. -1.
         25    2    1    2    0    0  0.94592132654E+01 -0.51732288073E+02 -0.14846837812E+03  0.20113694337E+03  0.12508998498E+03 0.  0.
          5    1    3    3  502    0 -0.62762046673E+01 -0.38986145443E+00 -0.14706283789E+03  0.14725655648E+03  0.41800000000E+01 0. -1.
         -5    1    3    3    0  502  0.15735417933E+02 -0.51342426619E+02 -0.14055402305E+01  0.53880386895E+02  0.41800000000E+01 0. -1.
        -11    1    1    2    0    0 -0.52996590839E+01 -0.25855591973E+02 -0.28826493621E+01  0.26550097741E+02  0.00000000000E+00 0. -1.
         11    1    1    2    0    0 -0.41595541816E+01  0.77587880046E+02 -0.42264031994E+02  0.88450152185E+02  0.00000000000E+00 0.  1.
</event>
<event>
 7    1  0.2644565E-009  0.7675123E+02  0.7561462E-02  0.1338532E+00
          1   -1    0    0  501    0  0.00000000000E+00  0.00000000000E+00  0.47481213523E+03  0.47481213523E+03  0.00000000000E+00 0. -1.
         -1   -1    0    0    0  501 -0.00000000000E+00 -0.00000000000E+00 -0.51037525632E+02  0.51037525632E+02  0.00000000000E+00 0.  1.
         25    2    1    2    0    0  0.54271826194E+02  0.41615771672E+02  0.36789976516E+03  0.39455458700E+03  0.12508309776E+03 0.  0.
          5    1    3    3  502    0  0.50879264122E+02  0.47012453332E+02  0.77409357553E+02  0.10396418288E+03  0.41800000000E+01 0. -1.
         -5    1    3    3    0  502  0.33925620722E+01 -0.53966816598E+01  0.29049040761E+03  0.29059040411E+03  0.41800000000E+01 0. -1.
        -11    1    1    2    0    0  0.64388046027E+00 -0.15775048557E+02 -0.25371529078E+02  0.29882791483E+02  0.00000000000E+00 0.  1.
         11    1    1    2    0    0 -0.54915706654E+02 -0.25840723115E+02  0.81246373511E+02  0.10141228238E+03  0.00000000000E+00 0. -1.
</event>
<event>
 7    1  0.3264134E-009  0.1297793E+03  0.7561462E-02  0.1227784E+00
         -2   -1    0    0    0  501 -0.00000000000E+00  0.00000000000E+00  0.22723321699E+02  0.22723321699E+02  0.00000000000E+00 0.  1.
          2   -1    0    0  501    0  0.00000000000E+00 -0.00000000000E+00 -0.13864741231E+04  0.13864741231E+04  0.00000000000E+00 0. -1.
         25    2    1    2    0    0 -0.60382725340E+02 -0.11463792496E+03 -0.93460620201E+03  0.95180094551E+03  0.12509340380E+03 0.  0.
          5    1    3    3  502    0 -0.41695437888E+02 -0.82406103749E+02 -0.88399626060E+03  0.88881726841E+03  0.41800000000E+01 0.  1.
         -5    1    3    3    0  502 -0.18687287451E+02 -0.32231821208E+02 -0.50609941413E+02  0.62983677096E+02  0.41800000000E+01 0.  1.
        -11    1    1    2    0    0  0.33919731337E+02  0.60516499838E+02 -0.93710202833E+02  0.11659501294E+03  0.00000000000E+00 0.  1.
         11    1    1    2    0    0  0.26462994003E+02  0.54121425119E+02 -0.33543439654E+03  0.34080148634E+03  0.00000000000E+00 0. -1.
</event>
<event>
 7    1  0.2644565E-009  0.1001903E+03  0.7561462E-02  0.1279896E+00
          1   -1    0    0  501    0  0.00000000000E+00  0.00000000000E+00  0.31919227491E+03  0.31919227491E+03  0.00000000000E+00 0. -1.
         -1   -1    0    0    0  501 -0.00000000000E+00 -0.00000000000E+00 -0.47206941030E+02  0.47206941030E+02  0.00000000000E+00 0.  1.
         25    2    1    2    0    0 -0.51438444793E+01  0.40493754972E+02  0.90952289656E+02  0.15996204638E+03  0.12509729798E+03 0.  0.
          5    1    3    3  502    0  0.28685542321E+02  0.60273103434E+02  0.99256244097E+02  0.11968701570E+03  0.41800000000E+01 0.  1.
         -5    1    3    3    0  502 -0.33829386801E+02 -0.19779348462E+02 -0.83039544411E+01  0.40275030680E+02  0.41800000000E+01 0.  1.
        -11    1    1    2    0    0  0.43498841572E+02 -0.89061808206E+01  0.11864009594E+03  0.12667652364E+03  0.00000000000E+00 0.  1.
         11    1    1    2    0    0 -0.38354997093E+02 -0.31587574151E+02  0.62392948282E+02  0.79760645923E+02  0.00000000000E+00 0. -1.
</event>
<event>
 7    1  0.2644565E-009  0.1234329E+03  0.7561462E-02  0.1237539E+00
         -1   -1    0    0    0  501 -0.00000000000E+00  0.00000000000E+00  0.11385507888E+03  0.11385507888E+03  0.00000000000E+00 0.  1.
          1   -1    0    0  501    0  0.00000000000E+00 -0.00000000000E+00 -0.17673433178E+03  0.17673433178E+03  0.00000000000E+00 0. -1.
         25    2    1    2    0    0 -0.76648874587E+02 -0.17100597728E+02 -0.82030201654E+02  0.16895856717E+03  0.12510221028E+03 0.  0.
          5    1    3    3  502    0  0.79823215825E+01  0.28996828271E+02  0.13470938260E+02  0.33218550318E+02  0.41800000000E+01 0. -1.
         -5    1    3    3    0  502 -0.84631196170E+02 -0.46097425999E+02 -0.95501139915E+02  0.13574001685E+03  0.41800000000E+01 0. -1.
        -11    1    1    2    0    0  0.61805454798E+02 -0.31395589245E+02  0.89439762315E+01  0.69897009791E+02  0.00000000000E+00 0.  1.
         11    1    1    2    0    0  0.14843419789E+02  0.48496186973E+02  0.10206972517E+02  0.51733833706E+02  0.00000000000E+00 0. -1.
</event>
<event>
 7    1  0.2644565E-009  0.1297270E+03  0.7561462E-02  0.1227861E+00
         -2   -1    0    0    0  501 -0.00000000000E+00  0.00000000000E+00  0.25537320662E+03  0.25537320662E+03  0.00000000000E+00 0. -1.
          2   -1    0    0  501    0  0.00000000000E+00 -0.00000000000E+00 -0.81103385975E+02  0.81103385975E+02  0.00000000000E+00 0.  1.
         25    2    1    2    0    0 -0.86315149929E+02  0.32730347554E+02  0.72662532097E+02  0.17164015977E+03  0.12513560691E+03 0.  0.
          5    1    3    3  502    0  0.32627492694E+02  0.67484363550E+01  0.13163442337E+02  0.36067205144E+02  0.41800000000E+01 0.  1.
         -5    1    3    3    0  502 -0.11894264262E+03  0.25981911199E+02  0.59499089760E+02  0.13557295463E+03  0.41800000000E+01 0.  1.
        -11    1    1    2    0    0  0.44126818195E+02 -0.41935294059E+02  0.10516099897E+03  0.12150959088E+03  0.00000000000E+00 0. -1.
         11    1    1    2    0    0  0.42188331735E+02  0.92049465055E+01 -0.35537104261E+01  0.43326841940E+02  0.00000000000E+00 0.  1.
</event>
<event>
 7    1  0.2644565E-009  0.1446833E+03  0.7561462E-02  0.1207163E+00
         -1   -1    0    0    0  501 -0.00000000000E+00  0.00000000000E+00  0.36584294958E+02  0.36584294958E+02  0.00000000000E+00 0.  1.
          1   -1    0    0  501    0  0.00000000000E+00 -0.00000000000E+00 -0.64206835429E+03  0.64206835429E+03  0.00000000000E+00 0. -1.
         25    2    1    2    0    0  0.11028626745E+03  0.50867439619E+01 -0.33763770216E+03  0.37660829133E+03  0.12508257844E+03 0.  0.
          5    1    3    3  502    0  0.13660671529E+02  0.54101694997E+02 -0.85961046515E+02  0.10256890984E+03  0.41800000000E+01 0. -1.
         -5    1    3    3    0  502  0.96625595916E+02 -0.49014951035E+02 -0.25167665565E+03  0.27403938149E+03  0.41800000000E+01 0. -1.
        -11    1    1    2    0    0 -0.33024014740E+02 -0.29162182839E+02 -0.16715180301E+03  0.17286047468E+03  0.00000000000E+00 0. -1.
         11    1    1    2    0    0 -0.77262252705E+02  0.24075438877E+02 -0.10069455417E+03  0.12918388324E+03  0.00000000000E+00 0.  1.
</event>
<event>
 7    1  0.2644565E-009  0.1615142E+03  0.7561462E-02  0.1186998E+00
          2   -1    0    0  501    0  0.00000000000E+00  0.00000000000E+00  0.41120442672E+02  0.41120442672E+02  0.00000000000E+00 0. -1.
         -2   -1    0    0    0  501 -0.00000000000E+00 -0.00000000000E+00 -0.92450999301E+03  0.92450999301E+03  0.00000000000E+00 0.  1.
         25    2    1    2    0    0 -0.66744621815E+02  0.10521284488E+03 -0.21016387410E+03  0.27446309053E+03  0.12504617873E+03 0.  0.
          5    1    3    3  502    0  0.28749015610E+02  0.49834836073E+02 -0.35299634982E+02  0.67628051982E+02  0.41800000000E+01 0. -1.
         -5    1    3    3    0  502 -0.95493637424E+02  0.55378008811E+02 -0.17486423912E+03  0.20683503855E+03  0.41800000000E+01 0. -1.
        -11    1    1    2    0    0 -0.23311485486E+02 -0.17357956644E+02 -0.92031383719E+02  0.96511655273E+02  0.00000000000E+00 0.  1.
         11    1    1    2    0    0  0.90056107301E+02 -0.87854888241E+02 -0.58119429251E+03  0.59465568987E+03  0.00000000000E+00 0. -1.
</event>
<event>
 7    1  0.3295075E-009  0.1418432E+03  0.7561462E-02  0.1210870E+00
          2   -1    0    0  501    0  0.00000000000E+00  0.00000000000E+00  0.51755762583E+03  0.51755762583E+03  0.00000000000E+00 0. -1.
         -2   -1    0    0    0  501 -0.00000000000E+00 -0.00000000000E+00 -0.53901420135E+02  0.53901420135E+02  0.00000000000E+00 0.  1.
         25    2    1    2    0    0  0.82759519692E+02 -0.85005507828E+02  0.17232781465E+03  0.24376052622E+03  0.12508894426E+03 0.  0.
          5    1    3    3  502    0 -0.86904399024E+01 -0.20387484286E+02  0.11632534572E+03  0.11849148374E+03  0.41800000000E+01 0.  1.
         -5    1    3    3    0  502  0.91449959594E+02 -0.64618023542E+02  0.56002468930E+02  0.12526904247E+03  0.41800000000E+01 0.  1.
        -11    1    1    2    0    0 -0.36906011511E+02  0.95202564789E+02  0.18156291840E+03  0.20830428552E+03  0.00000000000E+00 0.  1.
         11    1    1    2    0    0 -0.45853508181E+02 -0.10197056960E+02  0.10976547264E+03  0.11939423423E+03  0.00000000000E+00 0. -1.
</event>
<event>
 7    1  0.2644565E-009  0.1069351E+03  0.7561462E-02  0.1266353E+00
          3   -1    0    0  501    0  0.00000000000E+00  0.00000000000E+00  0.52759463422E+02  0.52759463422E+02  0.00000000000E+00 0. -1.
         -3   -1    0    0    0  501 -0.00000000000E+00 -0.00000000000E+00 -0.49854609747E+03  0.49854609747E+03  0.00000000000E+00 0.  1.
         25    2    1    2    0    0 -0.81951352607E+02  0.29853092883E+02 -0.96533626709E+02  0.18048125149E+03  0.12509000641E+03 0.  0.
          5    1    3    3  502    0 -0.74581068087E+02  0.20929689774E+02  0.54423360424E+01  0.77765538978E+02  0.41800000000E+01 0. -1.
         -5    1    3    3    0  502 -0.73702845199E+01  0.89234031093E+01 -0.10197596275E+03  0.10271571251E+03  0.41800000000E+01 0. -1.
        -11    1    1    2    0    0 -0.10485400679E+02 -0.29760173389E+02 -0.73367201588E+02  0.79864621807E+02  0.00000000000E+00 0. -1.
         11    1    1    2    0    0  0.92436753286E+02 -0.92919493686E-01 -0.27588580575E+03  0.29095968760E+03  0.00000000000E+00 0.  1.
</event>
<event>
 7    1  0.2644565E-009  0.1898917E+03  0.7561462E-02  0.1158559E+00
          2   -1    0    0  501    0  0.00000000000E+00  0.00000000000E+00  0.19020857098E+04  0.19020857098E+04  0.00000000000E+00 0. -1.
         -2   -1    0    0    0  501 -0.00000000000E+00 -0.00000000000E+00 -0.22829679687E+02  0.22829679687E+02  0.00000000000E+00 0.  1.
         25    2    1    2    0    0 -0.13848425601E+03 -0.96257234365E+02  0.12330273078E+04  0.12507789739E+04  0.12509338647E+03 0.  0.
          5    1    3    3  502    0 -0.88743154209E+02 -0.97992125655E+01  0.31802054055E+03  0.33034210842E+03  0.41800000000E+01 0.  1.
         -5    1    3    3    0  502 -0.49741101806E+02 -0.86458021800E+02  0.91500676726E+03  0.92043686544E+03  0.41800000000E+01 0.  1.
        -11    1    1    2    0    0  0.13858212875E+03  0.54659322018E+02  0.53609696023E+03  0.55641045880E+03  0.00000000000E+00 0.  1.
         11    1    1    2    0    0 -0.97872739286E-01  0.41597912347E+02  0.11013176205E+03  0.11772595679E+03  0.00000000000E+00 0. -1.
</event>
<event>
 7    1  0.2644565E-009  0.1734879E+03  0.7561462E-02  0.1174259E+00
         -3   -1    0    0    0  501 -0.00000000000E+00  0.00000000000E+00  0.47532753141E+02  0.47532753141E+02  0.00000000000E+00 0.  1.
          3   -1    0    0  501    0  0.00000000000E+00 -0.00000000000E+00 -0.83078657798E+03  0.83078657798E+03  0.00000000000E+00 0. -1.
         25    2    1    2    0    0  0.10425533334E+03  0.13011018302E+03 -0.36502873764E+03  0.42035792640E+03  0.12512782558E+03 0.  0.
          5    1    3    3  502    0  0.98106349745E+02  0.11518225092E+03 -0.18262936431E+03  0.23719773164E+03  0.41800000000E+01 0. -1.
         -5    1    3    3    0  502  0.61489835985E+01  0.14927932098E+02 -0.18239937332E+03  0.18316019476E+03  0.41800000000E+01 0. -1.
        -11    1    1    2    0    0 -0.10423954571E+03 -0.86846186676E+02 -0.25205323092E+03  0.28624984585E+03  0.00000000000E+00 0.  1.
         11    1    1    2    0    0 -0.15787628914E-01 -0.43263996342E+02 -0.16617185629E+03  0.17171155888E+03  0.00000000000E+00 0. -1.
</event>
<event>
 7    1  0.2644565E-009  0.1214495E+03  0.7561462E-02  0.1240725E+00
         -1   -1    0    0    0  501 -0.00000000000E+00  0.00000000000E+00  0.51579712201E+02  0.51579712201E+02  0.00000000000E+00 0.  1.
          1   -1    0    0  501    0  0.00000000000E+00 -0.00000000000E+00 -0.78424055651E+03  0.78424055651E+03  0.00000000000E+00 0. -1.
         25    2    1    2    0    0 -0.80897419719E+02  0.65627509628E+02 -0.65672667932E+03  0.67660235042E+03  0.12509774871E+03 0.  0.
          5    1    3    3  502    0 -0.69254547550E+02  0.60224285138E+01 -0.14064243160E+03  0.15694020507E+03  0.41800000000E+01 0. -1.
         -5    1    3    3    0  502 -0.11642872168E+02  0.59605081114E+02 -0.51608424772E+03  0.51966214535E+03  0.41800000000E+01 0. -1.
        -11    1    1    2    0    0 -0.26737420483E+01 -0.13774182930E+02  0.18265324059E+02  0.23032565530E+02  0.00000000000E+00 0.  1.
         11    1    1    2    0    0  0.83571161767E+02 -0.51853326698E+02 -0.94199489052E+02  0.13618535276E+03  0.00000000000E+00 0. -1.
</event>
<event>
 7    1  0.2644565E-009  0.1106370E+03  0.7561462E-02  0.1259395E+00
          2   -1    0    0  501    0  0.00000000000E+00  0.00000000000E+00  0.10366819776E+03  0.10366819776E+03  0.00000000000E+00 0. -1.
         -2   -1    0    0    0  501 -0.00000000000E+00 -0.00000000000E+00 -0.17719339102E+03  0.17719339102E+03  0.00000000000E+00 0.  1.
         25    2    1    2    0    0  0.29443884767E+01  0.50872208054E+02 -0.10413810171E+03  0.17054645069E+03  0.12507876174E+03 0.  0.
          5    1    3    3  502    0  0.49127092698E+02 -0.84838505822E+01 -0.74204186992E+02  0.89494026196E+02  0.41800000000E+01 0. -1.
         -5    1    3    3    0  502 -0.46182704222E+02  0.59356058636E+02 -0.29933914720E+02  0.81052424495E+02  0.41800000000E+01 0. -1.
        -11    1    1    2    0    0 -0.38949921494E+02 -0.44874672584E+02  0.41202772282E+02  0.72308374810E+02  0.00000000000E+00 0.  1.
         11    1    1    2    0    0  0.36005533017E+02 -0.59975354701E+01 -0.10589863826E+02  0.38006763285E+02  0.00000000000E+00 0. -1.
</event>
<event>
 7    1  0.2644565E-009  0.1653643E+03  0.7561462E-02  0.1182770E+00
          2   -1    0    0  501    0  0.00000000000E+00  0.00000000000E+00  0.19548198013E+03  0.19548198013E+03  0.00000000000E+00 0. -1.
         -2   -1    0    0    0  501 -0.00000000000E+00 -0.00000000000E+00 -0.36612255474E+03  0.36612255474E+03  0.00000000000E+00 0.  1.
         25    2    1    2    0    0 -0.12279216797E+03  0.45018869667E+02 -0.30380432085E+03  0.35362371091E+03  0.12509215966E+03 0.  0.
          5    1    3    3  502    0 -0.26865637034E+02  0.73962976660E+02 -0.15936280157E+03  0.17778149311E+03  0.41800000000E+01 0. -1.
         -5    1    3    3    0  502 -0.95926530935E+02 -0.28944106993E+02 -0.14444151928E+03  0.17584221779E+03  0.41800000000E+01 0. -1.
        -11    1    1    2    0    0  0.12610194345E+03 -0.21537754744E+02  0.82999688629E+02  0.15249433870E+03  0.00000000000E+00 0.  1.
         11    1    1    2    0    0 -0.33097754821E+01 -0.23481114923E+02  0.50164057604E+02  0.55486485265E+02  0.00000000000E+00 0. -1.
</event>
<event>
 7    1  0.2644565E-009  0.8330532E+02  0.7561462E-02  0.1319925E+00
          2   -1    0    0  501    0  0.00000000000E+00  0.00000000000E+00  0.10935972161E+04  0.10935972161E+04  0.00000000000E+00 0. -1.
         -2   -1    0    0    0  501 -0.00000000000E+00 -0.00000000000E+00 -0.11862220044E+02  0.11862220044E+02  0.00000000000E+00 0.  1.
         25    2    1    2    0    0 -0.23064461850E+02 -0.19364686583E+02  0.71592399483E+03  0.72739429679E+03  0.12509330974E+03 0.  0.
          5    1    3    3  502    0 -0.19735577655E+01 -0.42784723567E+02  0.81408663644E+02  0.92082954000E+02  0.41800000000E+01 0. -1.
         -5    1    3    3    0  502 -0.21090904084E+02  0.23420036984E+02  0.63451533119E+03  0.63531134279E+03  0.41800000000E+01 0. -1.
        -11    1    1    2    0    0 -0.32587902736E+02 -0.78154305695E+00  0.83940316015E+02  0.90047536707E+02  0.00000000000E+00 0.  1.
         11    1    1    2    0    0  0.55652364586E+02  0.20146229640E+02  0.28187068517E+03  0.28801760260E+03  0.00000000000E+00 0. -1.
</event>
<event>
 7    1  0.2644565E-009  0.1161097E+03  0.7561462E-02  0.1249656E+00
          1   -1    0    0  501    0  0.00000000000E+00  0.00000000000E+00  0.22275405957E+03  0.22275405957E+03  0.00000000000E+00 0. -1.
         -1   -1    0    0    0  501 -0.00000000000E+00 -0.00000000000E+00 -0.73973880792E+02  0.73973880792E+02  0.00000000000E+00 0.  1.
         25    2    1    2    0    0 -0.14608619796E+02  0.64602078393E+02  0.10740591085E+03  0.17767602881E+03  0.12508357695E+03 0.  0.
          5    1    3    3  502    0 -0.32229324280E+02  0.97856912673E+02  0.85357814784E+02  0.13385863307E+03  0.41800000000E+01 0.  1.
         -5    1    3    3    0  502  0.17620704484E+02 -0.33254834281E+02  0.22048096063E+02  0.43817395741E+02  0.41800000000E+01 0.  1.
        -11    1    1    2    0    0  0.38557270332E+02 -0.28623422453E+02 -0.12850176004E+02  0.49710063686E+02  0.00000000000E+00 0.  1.
         11    1    1    2    0    0 -0.23948650536E+02 -0.35978655940E+02  0.54224443932E+02  0.69341847866E+02  0.00000000000E+00 0. -1.
</event>
<event>
 7    1  0.2644565E-009  0.9363375E+02  0.7561462E-02  0.1294283E+00
         -1   -1    0    0    0  501 -0.00000000000E+00  0.00000000000E+00  0.10880272910E+03  0.10880272910E+03  0.00000000000E+00 0.  1.
          1   -1    0    0  501    0  0.00000000000E+00 -0.00000000000E+00 -0.10234205629E+03  0.10234205629E+03  0.00000000000E+00 0. -1.
         25    2    1    2    0    0 -0.25584638277E+02  0.37588589855E+01 -0.30847830497E+01  0.12777518809E+03  0.12509308562E+03 0.  0.
          5    1    3    3  502    0 -0.46554939059E+02 -0.38208915859E+02 -0.36020494524E+02  0.70301010147E+02  0.41800000000E+01 0.  1.
         -5    1    3    3    0  502  0.20970300782E+02  0.41967774845E+02  0.32935711474E+02  0.57474177947E+02  0.41800000000E+01 0.  1.
        -11    1    1    2    0    0 -0.49220601713E+01  0.32236775078E+02  0.14955654171E+02  0.35876286534E+02  0.00000000000E+00 0. -1.
         11    1    1    2    0    0  0.30506698448E+02 -0.35995634064E+02 -0.54101983157E+01  0.47493310768E+02  0.00000000000E+00 0.  1.
</event>
<event>
 7    1  0.2644565E-009  0.1018155E+03  0.7561462E-02  0.1276524E+00
          2   -1    0    0  501    0  0.00000000000E+00  0.00000000000E+00  0.80504379846E+03  0.80504379846E+03  0.00000000000E+00 0.  1.
         -2   -1    0    0    0  501 -0.00000000000E+00 -0.00000000000E+00 -0.20116979970E+02  0.20116979970E+02  0.00000000000E+00 0. -1.
         25    2    1    2    0    0 -0.46460399589E+02  0.40601562095E+02  0.52029335526E+03  0.53866480597E+03  0.12509013585E+03 0.  0.
          5    1    3    3  502    0 -0.67734717110E+02  0.33464670514E+02  0.50623224007E+03  0.51185586776E+03  0.41800000000E+01 0. -1.
         -5    1    3    3    0  502  0.21274317521E+02  0.71368915804E+01  0.14061115190E+02  0.26808938207E+02  0.41800000000E+01 0. -1.
        -11    1    1    2    0    0  0.36668218914E+02  0.21341913685E+02  0.68444411040E+02  0.80527467120E+02  0.00000000000E+00 0.  1.
         11    1    1    2    0    0  0.97921806750E+01 -0.61943475780E+02  0.19618905219E+03  0.20596850534E+03  0.00000000000E+00 0. -1.
</event>
<event>
 7    1  0.2644565E-009  0.7342576E+02  0.7561462E-02  0.1348816E+00
         -1   -1    0    0    0  501 -0.00000000000E+00  0.00000000000E+00  0.78392412088E+02  0.78392412088E+02  0.00000000000E+00 0.  1.
          1   -1    0    0  501    0  0.00000000000E+00 -0.00000000000E+00 -0.17887991901E+03  0.17887991901E+03  0.00000000000E+00 0. -1.
         25    2    1    2    0    0 -0.13614040286E+02  0.34270167896E+02 -0.22418796519E+02  0.13231801524E+03  0.12508264556E+03 0.  0.
          5    1    3    3  502    0  0.16316372763E+02  0.23466259702E+02 -0.69542789531E+02  0.75303129685E+02  0.41800000000E+01 0.  1.
         -5    1    3    3    0  502 -0.29930413050E+02  0.10803908194E+02  0.47123993012E+02  0.57014885556E+02  0.41800000000E+01 0.  1.
        -11    1    1    2    0    0  0.19047281616E+01  0.25194103383E+02  0.10532096593E+01  0.25287943476E+02  0.00000000000E+00 0.  1.
         11    1    1    2    0    0  0.11709312125E+02 -0.59464271280E+02 -0.79121920065E+02  0.99666372383E+02  0.00000000000E+00 0. -1.
</event>
<event>
 7    1  0.2644565E-009  0.2052439E+03  0.7561462E-02  0.1145389E+00
         -2   -1    0    0    0  501 -0.00000000000E+00  0.00000000000E+00  0.54821880409E+03  0.54821880409E+03  0.00000000000E+00 0.  1.
          2   -1    0    0  501    0  0.00000000000E+00 -0.00000000000E+00 -0.81013470467E+02  0.81013470467E+02  0.00000000000E+00 0. -1.
         25    2    1    2    0    0  0.14693112780E+03  0.10340238060E+03  0.21524928624E+03  0.30702139563E+03  0.12509625703E+03 0.  0.
          5    1    3    3  502    0  0.16575510968E+03  0.77300334800E+02  0.16045379671E+03  0.24333719696E+03  0.41800000000E+01 0.  1.
         -5    1    3    3    0  502 -0.18823981883E+02  0.26102045798E+02  0.54795489521E+02  0.63684198673E+02  0.41800000000E+01 0.  1.
        -11    1    1    2    0    0 -0.49669354062E+02 -0.81428158895E+02  0.16159927624E+03  0.18764838362E+03  0.00000000000E+00 0.  1.
         11    1    1    2    0    0 -0.97261773735E+02 -0.21974221703E+02  0.90356771149E+02  0.13456249530E+03  0.00000000000E+00 0. -1.
</event>
<event>
 7    1  0.2644565E-009  0.1218966E+03  0.7561462E-02  0.1240001E+00
         -1   -1    0    0    0  501 -0.00000000000E+00  0.00000000000E+00  0.10908679206E+03  0.10908679206E+03  0.00000000000E+00 0.  1.
          1   -1    0    0  501    0  0.00000000000E+00 -0.00000000000E+00 -0.17198551992E+03  0.17198551992E+03  0.00000000000E+00 0. -1.
         25    2    1    2    0    0  0.56611874143E+02  0.62070487338E+02 -0.37639483063E+02  0.15531199496E+03  0.12508970941E+03 0.  0.
          5    1    3    3  502    0  0.20272645005E+02  0.78000721058E+02 -0.67716841721E+02  0.10534768946E+03  0.41800000000E+01 0.  1.
         -5    1    3    3    0  502  0.36339229138E+02 -0.15930233721E+02  0.30077358658E+02  0.49964305505E+02  0.41800000000E+01 0.  1.
        -11    1    1    2    0    0  0.24616907706E+02 -0.92199278176E+01 -0.56797549721E+01  0.26893471894E+02  0.00000000000E+00 0.  1.
         11    1    1    2    0    0 -0.81228781849E+02 -0.52850559520E+02 -0.19579489827E+02  0.98866845121E+02  0.00000000000E+00 0. -1.
</event>
<event>
 7    1  0.2644565E-009  0.1033726E+03  0.7561462E-02  0.1273359E+00
          2   -1    0    0  501    0  0.00000000000E+00  0.00000000000E+00  0.45322560600E+03  0.45322560600E+03  0.00000000000E+00 0. -1.
         -2   -1    0    0    0  501 -0.00000000000E+00 -0.00000000000E+00 -0.29169156257E+02  0.29169156257E+02  0.00000000000E+00 0.  1.
         25    2    1    2    0    0  0.30770932624E+02 -0.15726093497E+02  0.28833276564E+03  0.31619171813E+03  0.12508900256E+03 0.  0.
          5    1    3    3  502    0  0.64047890321E+02  0.31484217680E+02  0.17112990994E+03  0.18546241316E+03  0.41800000000E+01 0.  1.
         -5    1    3    3    0  502 -0.33276957698E+02 -0.47210311177E+02  0.11720285569E+03  0.13072930497E+03  0.41800000000E+01 0.  1.
        -11    1    1    2    0    0 -0.44822069174E+02 -0.11878515740E+02  0.12516473815E+03  0.13347782099E+03  0.00000000000E+00 0. -1.
         11    1    1    2    0    0  0.14051136551E+02  0.27604609237E+02  0.10558945956E+02  0.32725223135E+02  0.00000000000E+00 0.  1.
</event>
<event>
 7    1  0.2644565E-009  0.1247224E+03  0.7561462E-02  0.1235504E+00
          2   -1    0    0  501    0  0.00000000000E+00  0.00000000000E+00  0.30548595855E+03  0.30548595855E+03  0.00000000000E+00 0. -1.
         -2   -1    0    0    0  501 -0.00000000000E+00 -0.00000000000E+00 -0.75738511303E+02  0.75738511303E+02  0.00000000000E+00 0.  1.
         25    2    1    2    0    0 -0.57734632252E+02 -0.90807185359E+02  0.12863780985E+03  0.20922435063E+03  0.12509160683E+03 0.  0.
          5    1    3    3  502    0 -0.33111896725E+02 -0.64904936848E+00  0.10851233789E+03  0.11353069561E+03  0.41800000000E+01 0.  1.
         -5    1    3    3    0  502 -0.24622735527E+02 -0.90158135991E+02  0.20125471954E+02  0.95693655022E+02  0.41800000000E+01 0.  1.
        -11    1    1    2    0    0  0.73130572567E+01  0.65841901874E+02  0.13079396483E+02  0.67525605966E+02  0.00000000000E+00 0.  1.
         11    1    1    2    0    0  0.50421574995E+02  0.24965283486E+02  0.88030240920E+02  0.10447451326E+03  0.00000000000E+00 0. -1.
</event>
<event>
 7    1  0.2644565E-009  0.1133767E+03  0.7561462E-02  0.1254442E+00
          1   -1    0    0  501    0  0.00000000000E+00  0.00000000000E+00  0.49405307552E+02  0.49405307552E+02  0.00000000000E+00 0. -1.
         -1   -1    0    0    0  501 -0.00000000000E+00 -0.00000000000E+00 -0.58735938670E+03  0.58735938670E+03  0.00000000000E+00 0.  1.
         25    2    1    2    0    0  0.60954897193E+02  0.23591927645E+02 -0.48023911810E+03  0.50054823478E+03  0.12508735448E+03 0.  0.
          5    1    3    3  502    0  0.30989642343E+02 -0.32215599425E+02 -0.37475988557E+03  0.37743959386E+03  0.41800000000E+01 0. -1.
         -5    1    3    3    0  502  0.29965254850E+02  0.55807527070E+02 -0.10547923253E+03  0.12310864093E+03  0.41800000000E+01 0. -1.
        -11    1    1    2    0    0  0.25204619047E+02 -0.19940935005E+02  0.54621575118E+00  0.32143616191E+02  0.00000000000E+00 0. -1.
         11    1    1    2    0    0 -0.86159516241E+02 -0.36509926398E+01 -0.58261176805E+02  0.10407284328E+03  0.00000000000E+00 0.  1.
</event>
<event>
 7    1  0.2644565E-009  0.6833475E+02  0.7561462E-02  0.1365849E+00
         -2   -1    0    0    0  501 -0.00000000000E+00  0.00000000000E+00  0.11680691681E+03  0.11680691681E+03  0.00000000000E+00 0.  1.
          2   -1    0    0  501    0  0.00000000000E+00 -0.00000000000E+00 -0.14690202279E+03  0.14690202279E+03  0.00000000000E+00 0. -1.
         25    2    1    2    0    0 -0.24673696881E+02  0.18980684108E+01  0.34355485111E+02  0.13206079918E+03  0.12508941338E+03 0.  0.
          5    1    3    3  502    0 -0.30413495892E+02 -0.20898167828E+02  0.75699015170E+02  0.84318013785E+02  0.41800000000E+01 0. -1.
         -5    1    3    3    0  502  0.57397990108E+01  0.22796236239E+02 -0.41343530059E+02  0.47742785393E+02  0.41800000000E+01 0. -1.
        -11    1    1    2    0    0 -0.16794594239E+02 -0.23510762689E+02  0.19982797770E+02  0.35130137554E+02  0.00000000000E+00 0.  1.
         11    1    1    2    0    0  0.41468291120E+02  0.21612694278E+02 -0.84433388859E+02  0.96518002863E+02  0.00000000000E+00 0. -1.
</event>
<event>
 7    1  0.2644565E-009  0.9309769E+02  0.7561462E-02  0.1295519E+00
         -2   -1    0    0    0  501 -0.00000000000E+00  0.00000000000E+00  0.25481268559E+03  0.25481268559E+03  0.00000000000E+00 0.  1.
          2   -1    0    0  501    0  0.00000000000E+00 -0.00000000000E+00 -0.59738678553E+02  0.59738678553E+02  0.00000000000E+00 0. -1.
         25    2    1    2    0    0  0.90098545082E+01 -0.50324892880E+02  0.14752212115E+03  0.20006684596E+03  0.12510073661E+03 0.  0.
          5    1    3    3  502    0  0.38010453814E+02  0.11961194558E+02  0.11898915875E+03  0.12555380152E+03  0.41800000000E+01 0.  1.
         -5    1    3    3    0  502 -0.29000599305E+02 -0.62286087438E+02  0.28532962401E+02  0.74513044441E+02  0.41800000000E+01 0.  1.
        -11    1    1    2    0    0  0.15161548178E+02  0.50906904629E+02 -0.81715900137E+01  0.53741607395E+02  0.00000000000E+00 0. -1.
         11    1    1    2    0    0 -0.24171402686E+02 -0.58201174919E+00  0.55723475898E+02  0.60742910793E+02  0.00000000000E+00 0.  1.
</event>
<event>
 7    1  0.2644565E-009  0.1291011E+03  0.7561462E-02  0.1228796E+00
          1   -1    0    0  501    0  0.00000000000E+00  0.00000000000E+00  0.32743520666E+02  0.32743520666E+02  0.00000000000E+00 0. -1.
         -1   -1    0    0    0  501 -0.00000000000E+00 -0.00000000000E+00 -0.75499142412E+03  0.75499142412E+03  0.00000000000E+00 0.  1.
         25    2    1    2    0    0 -0.36810361894E+02  0.10697476724E+03 -0.39250203188E+03  0.42720547163E+03  0.12509223155E+03 0.  0.
          5    1    3    3  502    0 -0.16671084797E+02  0.97500375249E+02 -0.12841116033E+03  0.16214544933E+03  0.41800000000E+01 0. -1.
         -5    1    3    3    0  502 -0.20139277097E+02  0.94743919880E+01 -0.26409087155E+03  0.26506002230E+03  0.41800000000E+01 0. -1.
        -11    1    1    2    0    0  0.51354967694E+02 -0.32733061316E+02 -0.86479348462E+02  0.10577080751E+03  0.00000000000E+00 0. -1.
         11    1    1    2    0    0 -0.14544605800E+02 -0.74241705921E+02 -0.24326652312E+03  0.25475866565E+03  0.00000000000E+00 0.  1.
</event>
<event>
 7    1  0.2644565E-009  0.1055807E+03  0.7561462E-02  0.1268980E+00
         -2   -1    0    0    0  501 -0.00000000000E+00  0.00000000000E+00  0.61369983144E+03  0.61369983144E+03  0.00000000000E+00 0.  1.
          2   -1    0    0  501    0  0.00000000000E+00 -0.00000000000E+00 -0.22277677666E+02  0.22277677666E+02  0.00000000000E+00 0. -1.
         25    2    1    2    0    0 -0.10335368617E+01 -0.39402288142E+01  0.45525919607E+03  0.47214857555E+03  0.12508696248E+03 0.  0.
          5    1    3    3  502    0  0.84103509942E+01 -0.63696443370E+02  0.24501862292E+03  0.25333686838E+03  0.41800000000E+01 0.  1.
         -5    1    3    3    0  502 -0.94438878559E+01  0.59756214556E+02  0.21024057315E+03  0.21881170717E+03  0.41800000000E+01 0.  1.
        -11    1    1    2    0    0  0.25106338622E+01  0.44988914516E+02  0.97550974755E+02  0.10745463409E+03  0.00000000000E+00 0. -1.
         11    1    1    2    0    0 -0.14770970005E+01 -0.41048685701E+02  0.38611982945E+02  0.56374299466E+02  0.00000000000E+00 0.  1.
</event>
<event>
 7    1  0.2644565E-009  0.9008193E+02  0.7561462E-02  0.1302653E+00
          3   -1    0    0  501    0  0.00000000000E+00  0.00000000000E+00  0.33446515570E+03  0.33446515570E+03  0.00000000000E+00 0.  1.
         -3   -1    0    0    0  501 -0.00000000000E+00 -0.00000000000E+00 -0.29708554375E+02  0.29708554375E+02  0.00000000000E+00 0. -1.
         25    2    1    2    0    0 -0.27153581544E+02  0.87808206663E+00  0.26432597921E+03  0.29369117690E+03  0.12509274993E+03 0.  0.
          5    1    3    3  502    0 -0.73686699133E+02 -0.17754186118E+02  0.18227456115E+03  0.19744981336E+03  0.41800000000E+01 0. -1.
         -5    1    3    3    0  502  0.46533117589E+02  0.18632268184E+02  0.82051418056E+02  0.96241363536E+02  0.41800000000E+01 0. -1.
        -11    1    1    2    0    0  0.91695138514E+01  0.22594638700E+02  0.60286793305E+01  0.25118571948E+02  0.00000000000E+00 0. -1.
         11    1    1    2    0    0  0.17984067693E+02 -0.23472720766E+02  0.34401942792E+02  0.45363961234E+02  0.00000000000E+00 0.  1.
</event>
<event>
 7    1  0.2644565E-009  0.1082858E+03  0.7561462E-02  0.1263778E+00
          1   -1    0    0  501    0  0.00000000000E+00  0.00000000000E+00  0.10570000697E+04  0.10570000697E+04  0.00000000000E+00 0. -1.
         -1   -1    0    0    0  501 -0.00000000000E+00 -0.00000000000E+00 -0.32891667200E+02  0.32891667200E+02  0.00000000000E+00 0.  1.
         25    2    1    2    0    0 -0.96394108129E+01  0.94387566902E+02  0.88398721486E+03  0.89782123897E+03  0.12509056757E+03 0.  0.
          5    1    3    3  502    0 -0.23027962111E+02  0.47048691825E+02  0.78918653972E+03  0.79093408911E+03  0.41800000000E+01 0.  1.
         -5    1    3    3    0  502  0.13388551298E+02  0.47338875077E+02  0.94800675141E+02  0.10688714987E+03  0.41800000000E+01 0.  1.
        -11    1    1    2    0    0 -0.23761891288E+02 -0.13951942878E+02  0.55787676313E+00  0.27560758592E+02  0.00000000000E+00 0.  1.
         11    1    1    2    0    0  0.33401302101E+02 -0.80435624024E+02  0.13956331092E+03  0.16450973937E+03  0.00000000000E+00 0. -1.
</event>
<event>
 6    1  0.2644565E-009  0.1865281E+03  0.7561462E-02  0.1161631E+00
         -2   -1    0    0    0  501 -0.00000000000E+00  0.00000000000E+00  0.41777977911E+03  0.41777977911E+03  0.00000000000E+00 0. -1.
          2   -1    0    0  501    0  0.00000000000E+00 -0.00000000000E+00 -0.10586379642E+03  0.10586379642E+03  0.00000000000E+00 0.  1.
          5    1    1    2  502    0  0.10157168707E+03 -0.46110060767E+02  0.13510357271E+03  0.17525236968E+03  0.41800000000E+01 0.  1.
         -5    1    1    2    0  502 -0.17023978050E+02 -0.86877685973E+02  0.13414604394E+03  0.16077991683E+03  0.41800000000E+01 0.  1.
        -11    1    1    2    0    0 -0.48875620665E+02  0.12770738419E+03  0.70428477887E+01  0.13692189005E+03  0.00000000000E+00 0.  1.
         11    1    1    2    0    0 -0.35672088354E+02  0.52803625529E+01  0.35623518251E+02  0.50689398979E+02  0.00000000000E+00 0. -1.
</event>
<event>
 7    1  0.2644565E-009  0.1146447E+03  0.7561462E-02  0.1252202E+00
         -2   -1    0    0    0  501 -0.00000000000E+00  0.00000000000E+00  0.15713016472E+02  0.15713016472E+02  0.00000000000E+00 0.  1.
          2   -1    0    0  501    0  0.00000000000E+00 -0.00000000000E+00 -0.10132432965E+04  0.10132432965E+04  0.00000000000E+00 0. -1.
         25    2    1    2    0    0 -0.53235681296E+02 -0.34486284452E+02 -0.61986075414E+03  0.63552696128E+03  0.12507526700E+03 0.  0.
          5    1    3    3  502    0  0.24993278254E+02  0.17920272953E+02 -0.57681631890E+02  0.65501474778E+02  0.41800000000E+01 0.  1.
         -5    1    3    3    0  502 -0.78228959550E+02 -0.52406557405E+02 -0.56217912225E+03  0.57002548650E+03  0.41800000000E+01 0.  1.
        -11    1    1    2    0    0  0.13973305547E+02  0.57035736616E+02 -0.14581407597E+03  0.15719438053E+03  0.00000000000E+00 0. -1.
         11    1    1    2    0    0  0.39262375748E+02 -0.22549452165E+02 -0.23185544993E+03  0.23623497117E+03  0.00000000000E+00 0.  1.
</event>
<event>
 7    1  0.2644565E-009  0.1562256E+03  0.7561462E-02  0.1193025E+00
         -1   -1    0    0    0  501 -0.00000000000E+00  0.00000000000E+00  0.16332825211E+03  0.16332825211E+03  0.00000000000E+00 0.  1.
          1   -1    0    0  501    0  0.00000000000E+00 -0.00000000000E+00 -0.17079696926E+03  0.17079696926E+03  0.00000000000E+00 0. -1.
         25    2    1    2    0    0  0.94974388611E+02 -0.78009381841E+02 -0.49508652692E+02  0.18222043148E+03  0.12509029063E+03 0.  0.
          5    1    3    3  502    0  0.55958821497E+02 -0.11065382180E+03 -0.39506088596E+02  0.13020699451E+03  0.41800000000E+01 0. -1.
         -5    1    3    3    0  502  0.39015567113E+02  0.32644439960E+02 -0.10002564096E+02  0.52013436975E+02  0.41800000000E+01 0. -1.
        -11    1    1    2    0    0  0.56845826393E+00  0.30735898134E+02 -0.11241513265E+02  0.32732097387E+02  0.00000000000E+00 0. -1.
         11    1    1    2    0    0 -0.95542846875E+02  0.47273483707E+02  0.53281448807E+02  0.11917269250E+03  0.00000000000E+00 0.  1.
</event>
<event>
 7    1  0.2644565E-009  0.1637182E+03  0.7561462E-02  0.1184562E+00
          3   -1    0    0  501    0  0.00000000000E+00  0.00000000000E+00  0.10886655486E+03  0.10886655486E+03  0.00000000000E+00 0. -1.
         -3   -1    0    0    0  501 -0.00000000000E+00 -0.00000000000E+00 -0.29354617727E+03  0.29354617727E+03  0.00000000000E+00 0.  1.
         25    2    1    2    0    0 -0.11776276306E+03 -0.77103234312E+02 -0.10824572692E+03  0.21720428294E+03  0.12509031148E+03 0.  0.
          5    1    3    3  502    0 -0.10275080222E+03 -0.12716277307E+02 -0.17868742717E+02  0.10514844474E+03  0.41800000000E+01 0. -1.
         -5    1    3    3    0  502 -0.15011960839E+02 -0.64386957005E+02 -0.90376984203E+02  0.11205583820E+03  0.41800000000E+01 0. -1.
        -11    1    1    2    0    0  0.44175736433E+02  0.71144180201E+02 -0.72940681568E+01  0.84060653674E+02  0.00000000000E+00 0. -1.
         11    1    1    2    0    0  0.73587026626E+02  0.59590541116E+01 -0.69139827339E+02  0.10114779552E+03  0.00000000000E+00 0.  1.
</event>
<event>
 7    1  0.2644565E-009  0.7963642E+02  0.7561462E-02  0.1330086E+00
          1   -1    0    0  501    0  0.00000000000E+00  0.00000000000E+00  0.78595685461E+02  0.78595685461E+02  0.00000000000E+00 0. -1.
         -1   -1    0    0    0  501 -0.00000000000E+00 -0.00000000000E+00 -0.15955362848E+03  0.15955362848E+03  0.00000000000E+00 0.  1.
         25    2    1    2    0    0 -0.19734566595E+02 -0.41705763435E+01 -0.23883670335E+02  0.12893974126E+03  0.12509268700E+03 0.  0.
          5    1    3    3  502    0  0.44414949105E+02  0.57321747575E+00 -0.42734397617E+02  0.61779587422E+02  0.41800000000E+01 0. -1.
         -5    1    3    3    0  502 -0.64149515700E+02 -0.47437938192E+01  0.18850727282E+02  0.67160153838E+02  0.41800000000E+01 0. -1.
        -11    1    1    2    0    0  0.12747364784E+02 -0.20729746349E+02 -0.74268157456E+02  0.78153546974E+02  0.00000000000E+00 0.  1.
         11    1    1    2    0    0  0.69872018118E+01  0.24900322692E+02  0.17193884771E+02  0.31056025709E+02  0.00000000000E+00 0. -1.
</event>
<event>
 7    1  0.2644565E-009  0.8772268E+02  0.7561462E-02  0.1308462E+00
          1   -1    0    0  501    0  0.00000000000E+00  0.00000000000E+00  0.41086482525E+03  0.41086482525E+03  0.00000000000E+00 0. -1.
         -1   -1    0    0    0  501 -0.00000000000E+00 -0.00000000000E+00 -0.32620783626E+02  0.32620783626E+02  0.00000000000E+00 0.  1.
         25    2    1    2    0    0  0.36273261738E+02  0.19490350707E+02  0.22797354984E+03  0.26328002630E+03  0.12509520189E+03 0.  0.
          5    1    3    3  502    0 -0.35004810466E+02  0.23723505192E+02  0.15649214394E+03  0.16215857969E+03  0.41800000000E+01 0. -1.
         -5    1    3    3    0  502  0.71278072204E+02 -0.42331544846E+01  0.71481405898E+02  0.10112144660E+03  0.41800000000E+01 0. -1.
        -11    1    1    2    0    0 -0.31995486878E+02  0.85050417781E+01  0.14815213387E+03  0.15180613191E+03  0.00000000000E+00 0. -1.
         11    1    1    2    0    0 -0.42777748600E+01 -0.27995392485E+02  0.21183579259E+01  0.28399450672E+02  0.00000000000E+00 0.  1.
</event>
<event>
 7    1  0.2644565E-009  0.1214993E+03  0.7561462E-02  0.1240644E+00
          2   -1    0    0  501    0  0.00000000000E+00  0.00000000000E+00  0.13897199253E+04  0.13897199253E+04  0.00000000000E+00 0. -1.
         -2   -1    0    0    0  501 -0.00000000000E+00 -0.00000000000E+00 -0.12461908287E+02  0.12461908287E+02  0.00000000000E+00 0.  1.
         25    2    1    2    0    0 -0.27440509948E+02 -0.62822060076E+02  0.96388924065E+03  0.97438685789E+03  0.12509071815E+03 0.  0.
          5    1    3    3  502    0 -0.84526777088E+01  0.37735927100E+02  0.32868546282E+03  0.33097893260E+03  0.41800000000E+01 0.  1.
         -5    1    3    3    0  502 -0.18987832239E+02 -0.10055798718E+03  0.63520377783E+03  0.64340792529E+03  0.41800000000E+01 0.  1.
        -11    1    1    2    0    0 -0.28763731345E+01  0.70378837015E+02  0.35145743482E+03  0.35844634565E+03  0.00000000000E+00 0. -1.
         11    1    1    2    0    0  0.30316883083E+02 -0.75567769383E+01  0.61911341549E+02  0.69348630051E+02  0.00000000000E+00 0.  1.
</event>
<event>
 7    1  0.2644565E-009  0.1229850E+03  0.7561462E-02  0.1238252E+00
         -2   -1    0    0    0  501 -0.00000000000E+00  0.00000000000E+00  0.41444103936E+02  0.41444103936E+02  0.00000000000E+00 0. -1.
          2   -1    0    0  501    0  0.00000000000E+00 -0.00000000000E+00 -0.40800980977E+03  0.40800980977E+03  0.00000000000E+00 0.  1.
         25    2    1    2    0    0  0.27038039249E+02 -0.33448863805E+02 -0.14159634738E+03  0.19377650968E+03  0.12509967248E+03 0.  0.
          5    1    3    3  502    0 -0.45516290917E+02 -0.26768174252E+02 -0.31314910248E+02  0.61533437215E+02  0.41800000000E+01 0. -1.
         -5    1    3    3    0  502  0.72554330167E+02 -0.66806895532E+01 -0.11028143713E+03  0.13224307246E+03  0.41800000000E+01 0. -1.
        -11    1    1    2    0    0 -0.63207634311E+02 -0.94472763503E+01 -0.13940456501E+03  0.15335608502E+03  0.00000000000E+00 0.  1.
         11    1    1    2    0    0  0.36169595062E+02  0.42896140155E+02 -0.85564793438E+02  0.10232131901E+03  0.00000000000E+00 0. -1.
</event>
<event>
 7    1  0.2644565E-009  0.1389767E+03  0.7561462E-02  0.1214713E+00
          1   -1    0    0  501    0  0.00000000000E+00  0.00000000000E+00  0.35787901153E+03  0.35787901153E+03  0.00000000000E+00 0. -1.
         -1   -1    0    0    0  501 -0.00000000000E+00 -0.00000000000E+00 -0.54714845610E+02  0.54714845610E+02  0.00000000000E+00 0.  1.
         25    2    1    2    0    0 -0.77924790140E+02 -0.26500050152E+02  0.16261385141E+03  0.22105517934E+03  0.12509037560E+03 0.  0.
          5    1    3    3  502    0 -0.87285774874E+02 -0.64700243801E+02  0.10486142374E+03  0.15105733558E+03  0.41800000000E+01 0. -1.
         -5    1    3    3    0  502  0.93609847342E+01  0.38200193649E+02  0.57752427671E+02  0.69997843766E+02  0.41800000000E+01 0. -1.
        -11    1    1    2    0    0  0.31731104612E+02 -0.38523352965E+02  0.46420666660E+02  0.68160032399E+02  0.00000000000E+00 0.  1.
         11    1    1    2    0    0  0.46193685528E+02  0.65023403118E+02  0.94129647857E+02  0.12337864540E+03  0.00000000000E+00 0. -1.
</event>
<event>
 7    1  0.2644565E-009  0.1429247E+03  0.7561462E-02  0.1209447E+00
         -2   -1    0    0    0  501 -0.00000000000E+00  0.00000000000E+00  0.87470149520E+02  0.87470149520E+02  0.00000000000E+00 0.  1.
          2   -1    0    0  501    0  0.00000000000E+00 -0.00000000000E+00 -0.29548183497E+03  0.29548183497E+03  0.00000000000E+00 0. -1.
         25    2    1    2    0    0  0.10367626886E+03  0.56395593289E+02 -0.11313997848E+03  0.20585685264E+03  0.12508859812E+03 0.  0.
          5    1    3    3  502    0  0.11669639847E+03  0.52622201971E+02 -0.13089272779E+03  0.18313253164E+03  0.41800000000E+01 0. -1.
         -5    1    3    3    0  502 -0.13020129603E+02  0.37733913177E+01  0.17752749310E+02  0.22724321001E+02  0.41800000000E+01 0. -1.
        -11    1    1    2    0    0 -0.95622959402E+02 -0.76156722062E+02 -0.96429519928E+02  0.15569922605E+03  0.00000000000E+00 0. -1.
         11    1    1    2    0    0 -0.80533094607E+01  0.19761128773E+02  0.15578129598E+01  0.21395905797E+02  0.00000000000E+00 0.  1.
</event>
<event>
 7    1  0.2644565E-009  0.1124679E+03  0.7561462E-02  0.1256067E+00
         -2   -1    0    0    0  501 -0.00000000000E+00  0.00000000000E+00  0.73054460731E+02  0.73054460731E+02  0.00000000000E+00 0.  1.
          2   -1    0    0  501    0  0.00000000000E+00 -0.00000000000E+00 -0.22028343829E+03  0.22028343829E+03  0.00000000000E+00 0. -1.
         25    2    1    2    0    0 -0.55198794789E+02 -0.12187047463E+02 -0.11395204334E+03  0.17842423543E+03  0.12511877771E+03 0.  0.
          5    1    3    3  502    0  0.37521761450E+02  0.89686642032E+01 -0.16420494194E+02  0.42135787040E+02  0.41800000000E+01 0.  1.
         -5    1    3    3    0  502 -0.92720556239E+02 -0.21155711666E+02 -0.97531549143E+02  0.13628844839E+03  0.41800000000E+01 0.  1.
        -11    1    1    2    0    0 -0.14186656640E+02 -0.10813133023E+02 -0.37673797649E+02  0.41683331221E+02  0.00000000000E+00 0. -1.
         11    1    1    2    0    0  0.69385451429E+02  0.23000180486E+02  0.43968634225E+01  0.73230332379E+02  0.00000000000E+00 0.  1.
</event>
<event>
 7    1  0.2644565E-009  0.1015563E+03  0.7561462E-02  0.1277057E+00
         -1   -1    0    0    0  501 -0.00000000000E+00  0.00000000000E+00  0.48661640927E+02  0.48661640927E+02  0.00000000000E+00 0.  1.
          1   -1    0    0  501    0  0.00000000000E+00 -0.00000000000E+00 -0.29969427934E+03  0.29969427934E+03  0.00000000000E+00 0. -1.
         25    2    1    2    0    0  0.10584110236E+02  0.44575317213E+02 -0.19872343342E+03  0.23924412180E+03  0.12509102498E+03 0.  0.
          5    1    3    3  502    0 -0.42674780531E+02 -0.15926907811E+02 -0.11091258361E+03  0.11997448432E+03  0.41800000000E+01 0.  1.
         -5    1    3    3    0  502  0.53258890766E+02  0.60502225024E+02 -0.87810849812E+02  0.11926963747E+03  0.41800000000E+01 0.  1.
        -11    1    1    2    0    0 -0.34989252102E+02 -0.14367763275E+02  0.67567417188E+01  0.38423091271E+02  0.00000000000E+00 0.  1.
         11    1    1    2    0    0  0.24405141867E+02 -0.30207553939E+02 -0.59065946714E+02  0.70688707201E+02  0.00000000000E+00 0. -1.
</event>
<event>
 7    1  0.2644565E-009  0.1999265E+03  0.7561462E-02  0.1149801E+00
         -4   -1    0    0    0  501 -0.00000000000E+00  0.00000000000E+00  0.53514377930E+03  0.53514377930E+03  0.00000000000E+00 0.  1.
          4   -1    0    0  501    0  0.00000000000E+00 -0.00000000000E+00 -0.76907146326E+02  0.76907146326E+02  0.00000000000E+00 0. -1.
         25    2    1    2    0    0  0.14650169067E+03 -0.86426613750E+02  0.21309189240E+03  0.29998245640E+03  0.12509602154E+03 0.  0.
          5    1    3    3  502    0 -0.17746101370E+02  0.98354685896E+01  0.21433421861E+02  0.29808128571E+02  0.41800000000E+01 0. -1.
         -5    1    3    3    0  502  0.16424779204E+03 -0.96262082340E+02  0.19165847054E+03  0.27017432783E+03  0.41800000000E+01 0. -1.
        -11    1    1    2    0    0 -0.11304771168E+03  0.20649731688E+02  0.11574114302E+03  0.16310183544E+03  0.00000000000E+00 0. -1.
         11    1    1    2    0    0 -0.33453978987E+02  0.65776882063E+02  0.12940359755E+03  0.14896663379E+03  0.00000000000E+00 0.  1.
</event>
<event>
 7    1  0.2644565E-009  0.1416000E+03  0.7561462E-02  0.1211192E+00
          2   -1    0    0  501    0  0.00000000000E+00  0.00000000000E+00  0.65049796700E+03  0.65049796700E+03  0.00000000000E+00 0. -1.
         -2   -1    0    0    0  501 -0.00000000000E+00 -0.00000000000E+00 -0.37145527544E+02  0.37145527544E+02  0.00000000000E+00 0.  1.
         25    2    1    2    0    0 -0.74365229912E+02  0.79205432254E+02  0.37065035257E+03  0.40599629173E+03  0.12509043577E+03 0.  0.
          5    1    3    3  502    0  0.19877837552E+02  0.44393515008E+01  0.54851955421E+01  0.21503395955E+02  0.41800000000E+01 0. -1.
         -5    1    3    3    0  502 -0.94243067463E+02  0.74766080753E+02  0.36516515703E+03  0.38449289577E+03  0.41800000000E+01 0. -1.
        -11    1    1    2    0    0  0.78290601175E+02 -0.17520370215E+02  0.12155744797E+03  0.14564544195E+03  0.00000000000E+00 0. -1.
         11    1    1    2    0    0 -0.39253712633E+01 -0.61685062039E+02  0.12114463892E+03  0.13600176086E+03  0.00000000000E+00 0.  1.
</event>
<event>
 7    1  0.2644565E-009  0.9665210E+02  0.7561462E-02  0.1287498E+00
         -1   -1    0    0    0  501 -0.00000000000E+00  0.00000000000E+00  0.11847095916E+03  0.11847095916E+03  0.00000000000E+00 0. -1.
          1   -1    0    0  501    0  0.00000000000E+00 -0.00000000000E+00 -0.10065495343E+03  0.10065495343E+03  0.00000000000E+00 0.  1.
         25    2    1    2    0    0 -0.12354425766E+02  0.16932398322E+02  0.17521193994E+02  0.12805820984E+03  0.12511025106E+03 0.  0.
          5    1    3    3  502    0 -0.49644175825E+02 -0.33271228718E+02  0.25042367683E+02  0.64931590408E+02  0.41800000000E+01 0.  1.
         -5    1    3    3    0  502  0.37289750058E+02  0.50203627039E+02 -0.75211736890E+01  0.63126619432E+02  0.41800000000E+01 0.  1.
        -11    1    1    2    0    0 -0.20740281969E+02  0.14317218641E+02 -0.27843585522E+02  0.37555389766E+02  0.00000000000E+00 0.  1.
         11    1    1    2    0    0  0.33094707736E+02 -0.31249616962E+02  0.28138397257E+02  0.53512312981E+02  0.00000000000E+00 0. -1.
</event>
<event>
 7    1  0.2644565E-009  0.5947654E+02  0.7561462E-02  0.1400042E+00
         -2   -1    0    0    0  501 -0.00000000000E+00  0.00000000000E+00  0.36522932715E+03  0.36522932715E+03  0.00000000000E+00 0. -1.
          2   -1    0    0  501    0  0.00000000000E+00 -0.00000000000E+00 -0.35421502468E+02  0.35421502468E+02  0.00000000000E+00 0.  1.
         25    2    1    2    0    0 -0.14576769531E+00 -0.52787952711E+01  0.12435758257E+03  0.17646525453E+03  0.12508913137E+03 0.  0.
          5    1    3    3  502    0  0.21308041073E+01 -0.29934740856E+02  0.14237207981E+03  0.14556067651E+03  0.41800000000E+01 0.  1.
         -5    1    3    3    0  502 -0.22765718026E+01  0.24655945585E+02 -0.18014497239E+02  0.30904578021E+02  0.41800000000E+01 0.  1.
        -11    1    1    2    0    0  0.29787174255E+02 -0.83235693524E+01  0.22237752774E+02  0.38092981051E+02  0.00000000000E+00 0.  1.
         11    1    1    2    0    0 -0.29641406560E+02  0.13602364623E+02  0.18321248934E+03  0.18609259404E+03  0.00000000000E+00 0. -1.
</event>
<event>
 7    1  0.2644565E-009  0.9790297E+02  0.7561462E-02  0.1284769E+00
         -1   -1    0    0    0  501 -0.00000000000E+00  0.00000000000E+00  0.10485632133E+03  0.10485632133E+03  0.00000000000E+00 0.  1.
          1   -1    0    0  501    0  0.00000000000E+00 -0.00000000000E+00 -0.15819202737E+03  0.15819202737E+03  0.00000000000E+00 0. -1.
         25    2    1    2    0    0  0.10990433379E+01 -0.12580384595E+02  0.39447046379E+02  0.13177056685E+03  0.12509172174E+03 0.  0.
          5    1    3    3  502    0  0.95563908314E+01 -0.57109619971E+02  0.58508424241E+02  0.82422942232E+02  0.41800000000E+01 0.  1.
         -5    1    3    3    0  502 -0.84573474934E+01  0.44529235377E+02 -0.19061377862E+02  0.49347624622E+02  0.41800000000E+01 0.  1.
        -11    1    1    2    0    0  0.45132601506E+02  0.56133389224E+01 -0.38079511866E+02  0.59317033949E+02  0.00000000000E+00 0.  1.
         11    1    1    2    0    0 -0.46231644844E+02  0.69670456722E+01 -0.54703240556E+02  0.71960747896E+02  0.00000000000E+00 0. -1.
</event>
<event>
 7    1  0.2644565E-009  0.1010835E+03  0.7561462E-02  0.1278034E+00
          1   -1    0    0  501    0  0.00000000000E+00  0.00000000000E+00  0.60293668309E+03  0.60293668309E+03  0.00000000000E+00 0. -1.
         -1   -1    0    0    0  501 -0.00000000000E+00 -0.00000000000E+00 -0.28074952197E+02  0.28074952197E+02  0.00000000000E+00 0.  1.
         25    2    1    2    0    0  0.42297841815E+02 -0.28903916542E+02  0.41069552339E+03  0.43236933766E+03  0.12509151610E+03 0.  0.
          5    1    3    3  502    0  0.72233368323E+02 -0.48619669757E+02  0.35827772551E+03  0.36873016257E+03  0.41800000000E+01 0.  1.
         -5    1    3    3    0  502 -0.29935526508E+02  0.19715753215E+02  0.52417797875E+02  0.63639175091E+02  0.41800000000E+01 0.  1.
        -11    1    1    2    0    0 -0.46802828065E+02  0.43337971997E+02  0.17065640788E+03  0.18218752450E+03  0.00000000000E+00 0. -1.
         11    1    1    2    0    0  0.45049862502E+01 -0.14434055455E+02 -0.64902003756E+01  0.16454773135E+02  0.00000000000E+00 0.  1.
</event>
<event>
 7    1  0.2644565E-009  0.1471496E+03  0.7561462E-02  0.1204020E+00
          2   -1    0    0  501    0  0.00000000000E+00  0.00000000000E+00  0.13868623347E+03  0.13868623347E+03  0.00000000000E+00 0. -1.
         -2   -1    0    0    0  501 -0.00000000000E+00 -0.00000000000E+00 -0.18294071896E+03  0.18294071896E+03  0.00000000000E+00 0.  1.
         25    2    1    2    0    0  0.61920204879E+02 -0.94585518349E+02 -0.54006022161E+02  0.17704487816E+03  0.12509079263E+03 0.  0.
          5    1    3    3  502    0  0.53811153314E+02 -0.11539213914E+03 -0.73530513994E+02  0.14708907126E+03  0.41800000000E+01 0. -1.
         -5    1    3    3    0  502  0.81090515650E+01  0.20806620788E+02  0.19524491833E+02  0.29955806903E+02  0.41800000000E+01 0. -1.
        -11    1    1    2    0    0 -0.68746942925E+02  0.23315230079E+02  0.70517734734E+01  0.72934694243E+02  0.00000000000E+00 0.  1.
         11    1    1    2    0    0  0.68267380463E+01  0.71270288270E+02  0.26997632013E+01  0.71647380020E+02  0.00000000000E+00 0. -1.
</event>
<event>
 7    1  0.2644565E-009  0.7115195E+02  0.7561462E-02  0.1356219E+00
         -1   -1    0    0    0  501 -0.00000000000E+00  0.00000000000E+00  0.37963583242E+03  0.37963583242E+03  0.00000000000E+00 0.  1.
          1   -1    0    0  501    0  0.00000000000E+00 -0.00000000000E+00 -0.42546246495E+02  0.42546246495E+02  0.00000000000E+00 0. -1.
         25    2    1    2    0    0 -0.54982225678E+01 -0.35668733783E+02  0.28637989348E+03  0.31459945995E+03  0.12512748616E+03 0.  0.
          5    1    3    3  502    0  0.32719238838E+01 -0.50767581648E+02  0.33438831168E+02  0.61021968685E+02  0.41800000000E+01 0. -1.
         -5    1    3    3    0  502 -0.87701464516E+01  0.15098847865E+02  0.25294106231E+03  0.25357749127E+03  0.41800000000E+01 0. -1.
        -11    1    1    2    0    0 -0.43494575229E+01 -0.18113664436E+02  0.49503783977E+02  0.52892790133E+02  0.00000000000E+00 0.  1.
         11    1    1    2    0    0  0.98476800907E+01  0.53782398219E+02  0.12059084657E+01  0.54689828822E+02  0.00000000000E+00 0. -1.
</event>
<event>
 7    1  0.2644565E-009  0.1329668E+03  0.7561462E-02  0.1223119E+00
         -1   -1    0    0    0  501 -0.00000000000E+00  0.00000000000E+00  0.13649952333E+04  0.13649952333E+04  0.00000000000E+00 0.  1.
          1   -1    0    0  501    0  0.00000000000E+00 -0.00000000000E+00 -0.23897098876E+02  0.23897098876E+02  0.00000000000E+00 0. -1.
         25    2    1    2    0    0 -0.66621831745E+02  0.98426748270E+02  0.10217200215E+04  0.10361880537E+04  0.12509031541E+03 0.  0.
          5    1    3    3  502    0 -0.23119507648E+02  0.43365755120E+02  0.83843830799E+03  0.83988771217E+03  0.41800000000E+01 0.  1.
         -5    1    3    3    0  502 -0.43502324097E+02  0.55060993150E+02  0.18328171353E+03  0.19630034152E+03  0.41800000000E+01 0.  1.
        -11    1    1    2    0    0  0.56180335987E+02 -0.97423295422E+01  0.89820541954E+02  0.10639019172E+03  0.00000000000E+00 0. -1.
         11    1    1    2    0    0  0.10441495758E+02 -0.88684418728E+02  0.22955757100E+03  0.24631408681E+03  0.00000000000E+00 0.  1.
</event>
<event>
 6    1  0.2644565E-009  0.1085646E+03  0.7561462E-02  0.1263251E+00
         -2   -1    0    0    0  501 -0.00000000000E+00  0.00000000000E+00  0.16230951405E+03  0.16230951405E+03  0.00000000000E+00 0.  1.
          2   -1    0    0  501    0  0.00000000000E+00 -0.00000000000E+00 -0.95882395326E+02  0.95882395326E+02  0.00000000000E+00 0. -1.
          5    1    1    2  502    0  0.10430490562E+02  0.71973009047E+02 -0.12044126013E+02  0.73833884742E+02  0.41800000000E+01 0. -1.
         -5    1    1    2    0  502  0.31778822388E+02 -0.23370111408E+02  0.65881686519E+02  0.76902045995E+02  0.41800000000E+01 0. -1.
        -11    1    1    2    0    0  0.23010460249E+02 -0.27953018843E+02  0.14542954824E+02  0.39017304857E+02  0.00000000000E+00 0.  1.
         11    1    1    2    0    0 -0.65219773199E+02 -0.20649878796E+02 -0.19533966088E+01  0.68438673779E+02  0.00000000000E+00 0. -1.
</event>
<event>
 7    1  0.2644565E-009  0.8214911E+02  0.7561462E-02  0.1323061E+00
          2   -1    0    0  501    0  0.00000000000E+00  0.00000000000E+00  0.59591131044E+03  0.59591131044E+03  0.00000000000E+00 0. -1.
         -2   -1    0    0    0  501 -0.00000000000E+00 -0.00000000000E+00 -0.30637074892E+02  0.30637074892E+02  0.00000000000E+00 0.  1.
         25    2    1    2    0    0 -0.33004980346E+02  0.59593002548E+01  0.47598466525E+03  0.49328866289E+03  0.12508981331E+03 0.  0.
          5    1    3    3  502    0 -0.58588441211E+02  0.52283612358E+01  0.97706563897E+02  0.11412268063E+03  0.41800000000E+01 0.  1.
         -5    1    3    3    0  502  0.25583460865E+02  0.73093901897E+00  0.37827810135E+03  0.37916598226E+03  0.41800000000E+01 0.  1.
        -11    1    1    2    0    0 -0.14630101708E+02  0.20284191996E+02 -0.39481541794E+01  0.25319483453E+02  0.00000000000E+00 0.  1.
         11    1    1    2    0    0  0.47635082054E+02 -0.26243492251E+02  0.93237724479E+02  0.10794023899E+03  0.00000000000E+00 0. -1.
</event>
<event>
 7    1  0.2644565E-009  0.1402845E+03  0.7561462E-02  0.1212947E+00
          4   -1    0    0  501    0  0.00000000000E+00  0.00000000000E+00  0.78106932693E+03  0.78106932693E+03  0.00000000000E+00 0. -1.
         -4   -1    0    0    0  501 -0.00000000000E+00 -0.00000000000E+00 -0.31190653320E+02  0.31190653320E+02  0.00000000000E+00 0.  1.
         25    2    1    2    0    0 -0.77869131934E+02  0.47481734538E+02  0.57114682040E+03  0.59175518393E+03  0.12508952966E+03 0.  0.
          5    1    3    3  502    0 -0.10845917681E+03  0.55268808737E+02  0.47976633653E+03  0.49498610518E+03  0.41800000000E+01 0. -1.
         -5    1    3    3    0  502  0.30590044871E+02 -0.77870741986E+01  0.91380483871E+02  0.96769078751E+02  0.41800000000E+01 0. -1.
        -11    1    1    2    0    0  0.61480821760E+02  0.14204622632E+02  0.68544933165E+02  0.93166896541E+02  0.00000000000E+00 0.  1.
         11    1    1    2    0    0  0.16388310174E+02 -0.61686357171E+02  0.11018692004E+03  0.12733789978E+03  0.00000000000E+00 0. -1.
</event>
<event>
 7    1  0.2644565E-009  0.1045849E+03  0.7561462E-02  0.1270940E+00
         -3   -1    0    0    0  501 -0.00000000000E+00  0.00000000000E+00  0.10963362039E+03  0.10963362039E+03  0.00000000000E+00 0.  1.
          3   -1    0    0  501    0  0.00000000000E+00 -0.00000000000E+00 -0.16428754407E+03  0.16428754407E+03  0.00000000000E+00 0. -1.
         25    2    1    2    0    0  0.37138758944E+01  0.71858119231E+02 -0.61186361322E+02  0.15674419370E+03  0.12509032446E+03 0.  0.
          5    1    3    3  502    0  0.56762491129E+02  0.36034186771E+02 -0.63471136000E+02  0.92555391634E+02  0.41800000000E+01 0. -1.
         -5    1    3    3    0  502 -0.53048615234E+02  0.35823932460E+02  0.22847746784E+01  0.64188802065E+02  0.41800000000E+01 0. -1.
        -11    1    1    2    0    0  0.12751325579E+02 -0.26624820693E+02  0.46183422836E+02  0.54812278969E+02  0.00000000000E+00 0.  1.
         11    1    1    2    0    0 -0.16465201474E+02 -0.45233298539E+02 -0.39650985195E+02  0.62364691799E+02  0.00000000000E+00 0. -1.
</event>
<event>
 7    1  0.2644565E-009  0.1210708E+03  0.7561462E-02  0.1241341E+00
         -1   -1    0    0    0  501 -0.00000000000E+00  0.00000000000E+00  0.10582827022E+03  0.10582827022E+03  0.00000000000E+00 0. -1.
          1   -1    0    0  501    0  0.00000000000E+00 -0.00000000000E+00 -0.38080662025E+03  0.38080662025E+03  0.00000000000E+00 0.  1.
         25    2    1    2    0    0  0.70492727346E+01 -0.11303157243E+03  0.75447198562E+01  0.16891036297E+03  0.12509180352E+03 0.  0.
          5    1    3    3  502    0  0.27896053859E+02 -0.59455882579E+02  0.61416211295E+02  0.90014527738E+02  0.41800000000E+01 0.  1.
         -5    1    3    3    0  502 -0.20846781124E+02 -0.53575689853E+02 -0.53871491439E+02  0.78895835228E+02  0.41800000000E+01 0.  1.
        -11    1    1    2    0    0  0.10890536364E+02  0.83000914421E+02 -0.26633171696E+03  0.27917797018E+03  0.00000000000E+00 0.  1.
         11    1    1    2    0    0 -0.17939809099E+02  0.30030658011E+02 -0.16191352929E+02  0.38546557314E+02  0.00000000000E+00 0. -1.
</event>
<event>
 7    1  0.2644565E-009  0.9523960E+02  0.7561462E-02  0.1290637E+00
          2   -1    0    0  501    0  0.00000000000E+00  0.00000000000E+00  0.54012735070E+03  0.54012735070E+03  0.00000000000E+00 0.  1.
         -2   -1    0    0    0  501 -0.00000000000E+00 -0.00000000000E+00 -0.32687956740E+02  0.32687956740E+02  0.00000000000E+00 0. -1.
         25    2    1    2    0    0  0.22113839047E+02  0.73730457528E+02  0.26512973617E+03  0.30308029131E+03  0.12505472295E+03 0.  0.
          5    1    3    3  502    0  0.24710405136E+02  0.34714471671E+01 -0.33449786078E+01  0.25520900245E+02  0.41800000000E+01 0. -1.
         -5    1    3    3    0  502 -0.25965660888E+01  0.70259010361E+02  0.26847471478E+03  0.27755939107E+03  0.41800000000E+01 0. -1.
        -11    1    1    2    0    0  0.18695708651E+02 -0.23159137028E+02  0.16970904273E+03  0.17229925808E+03  0.00000000000E+00 0.  1.
         11    1    1    2    0    0 -0.40809547698E+02 -0.50571320499E+02  0.72600615056E+02  0.97435758051E+02  0.00000000000E+00 0. -1.
</event>
<event>
 7    1  0.2644565E-009  0.7429549E+02  0.7561462E-02  0.1346067E+00
          1   -1    0    0  501    0  0.00000000000E+00  0.00000000000E+00  0.77972634635E+02  0.77972634635E+02  0.00000000000E+00 0. -1.
         -1   -1    0    0    0  501 -0.00000000000E+00 -0.00000000000E+00 -0.15795146332E+03  0.15795146332E+03  0.00000000000E+00 0.  1.
         25    2    1    2    0    0 -0.75718191262E+01  0.15926392148E+02 -0.40476743448E+02  0.13265246907E+03  0.12508928163E+03 0.  0.
          5    1    3    3  502    0 -0.10533382973E+02 -0.18000352071E+02  0.39923880067E+02  0.45236638150E+02  0.41800000000E+01 0. -1.
         -5    1    3    3    0  502  0.29615638467E+01  0.33926744219E+02 -0.80400623515E+02  0.87415830919E+02  0.41800000000E+01 0. -1.
        -11    1    1    2    0    0 -0.32042647631E+02 -0.36335913866E+02 -0.32054554559E+02  0.58090656492E+02  0.00000000000E+00 0. -1.
         11    1    1    2    0    0  0.39614466757E+02  0.20409521719E+02 -0.74475306775E+01  0.45180972394E+02  0.00000000000E+00 0.  1.
</event>
<event>
 7    1  0.3129729E-009  0.1166654E+03  0.7561462E-02  0.1248702E+00
         -4   -1    0    0    0  501 -0.00000000000E+00  0.00000000000E+00  0.16456553250E+03  0.16456553250E+03  0.00000000000E+00 0.  1.
          4   -1    0    0  501    0  0.00000000000E+00 -0.00000000000E+00 -0.16764787221E+03  0.16764787221E+03  0.00000000000E+00 0. -1.
         25    2    1    2    0    0 -0.94936178526E+02 -0.62722621713E+02  0.51227754020E+02  0.17668887482E+03  0.12509064887E+03 0.  0.
          5    1    3    3  502    0 -0.24020871124E+02 -0.45841007888E+01 -0.40129745076E+02  0.47179286445E+02  0.41800000000E+01 0. -1.
         -5    1    3    3    0  502 -0.70915307402E+02 -0.58138520925E+02  0.91357499097E+02  0.12950958837E+03  0.41800000000E+01 0. -1.
        -11    1    1    2    0    0  0.37195159604E+02  0.40144654385E+02 -0.72570449620E+02  0.90893032361E+02  0.00000000000E+00 0. -1.
         11    1    1    2    0    0  0.57741018922E+02  0.22577967329E+02  0.18260355889E+02  0.64631497523E+02  0.00000000000E+00 0.  1.
</event>
<event>
 7    1  0.2644565E-009  0.1000502E+03  0.7561462E-02  0.1280190E+00
         -2   -1    0    0    0  501 -0.00000000000E+00  0.00000000000E+00  0.68717237017E+02  0.68717237017E+02  0.00000000000E+00 0.  1.
          2   -1    0    0  501    0  0.00000000000E+00 -0.00000000000E+00 -0.22189758390E+03  0.22189758390E+03  0.00000000000E+00 0. -1.
         25    2    1    2    0    0  0.47998867443E+02 -0.37695395226E+02 -0.74449611290E+02  0.15784629258E+03  0.12509146000E+03 0.  0.
          5    1    3    3  502    0  0.20223958871E+02 -0.75471745120E+02 -0.78198567798E+02  0.11062314961E+03  0.41800000000E+01 0. -1.
         -5    1    3    3    0  502  0.27774908572E+02  0.37776349894E+02  0.37489565079E+01  0.47223142974E+02  0.41800000000E+01 0. -1.
        -11    1    1    2    0    0 -0.40296448093E+02  0.43199413201E+01  0.63775974131E+01  0.41026081590E+02  0.00000000000E+00 0.  1.
         11    1    1    2    0    0 -0.77024193505E+01  0.33375453906E+02 -0.85108333003E+02  0.91742446739E+02  0.00000000000E+00 0. -1.
</event>
<event>
 7    1  0.2908207E-009  0.1299391E+03  0.7561462E-02  0.1227546E+00
          4   -1    0    0  501    0  0.00000000000E+00  0.00000000000E+00  0.13280398698E+03  0.13280398698E+03  0.00000000000E+00 0.  1.
         -4   -1    0    0    0  501 -0.00000000000E+00 -0.00000000000E+00 -0.16480075622E+03  0.16480075622E+03  0.00000000000E+00 0. -1.
         25    2    1    2    0    0 -0.46939433112E+02  0.76858672619E+02 -0.62189311013E+02  0.16620760846E+03  0.12508754042E+03 0.  0.
          5    1    3    3  502    0 -0.36806457649E+02  0.10878603702E+03 -0.28254331436E+02  0.11834228669E+03  0.41800000000E+01 0. -1.
         -5    1    3    3    0  502 -0.10132975463E+02 -0.31927364400E+02 -0.33934979577E+02  0.47865321770E+02  0.41800000000E+01 0. -1.
        -11    1    1    2    0    0 -0.94624744381E+01 -0.45893223657E+02  0.45439405332E+02  0.65272244921E+02  0.00000000000E+00 0.  1.
         11    1    1    2    0    0  0.56401907550E+02 -0.30965448961E+02 -0.15246863557E+02  0.66124889815E+02  0.00000000000E+00 0. -1.
</event>
<event>
 7    1  0.2644565E-009  0.1537984E+03  0.7561462E-02  0.1195882E+00
          2   -1    0    0  501    0  0.00000000000E+00  0.00000000000E+00  0.52901192333E+03  0.52901192333E+03  0.00000000000E+00 0. -1.
         -2   -1    0    0    0  501 -0.00000000000E+00 -0.00000000000E+00 -0.61676376812E+02  0.61676376812E+02  0.00000000000E+00 0.  1.
         25    2    1    2    0    0  0.12477591998E+02 -0.11759965585E+03  0.11143175392E+03  0.20506161227E+03  0.12509140533E+03 0.  0.
          5    1    3    3  502    0 -0.34955474202E+02  0.60784389893E+01  0.43014269784E+02  0.55915403980E+02  0.41800000000E+01 0.  1.
         -5    1    3    3    0  502  0.47433066201E+02 -0.12367809484E+03  0.68417484135E+02  0.14914620829E+03  0.41800000000E+01 0.  1.
        -11    1    1    2    0    0 -0.38342304554E+02  0.32062411335E+02  0.69503494915E+02  0.85608798289E+02  0.00000000000E+00 0.  1.
         11    1    1    2    0    0  0.25864712556E+02  0.85537244516E+02  0.28640029769E+03  0.30001788958E+03  0.00000000000E+00 0. -1.
</event>
<event>
 7    1  0.2644565E-009  0.1193194E+03  0.7561462E-02  0.1244224E+00
          1   -1    0    0  501    0  0.00000000000E+00  0.00000000000E+00  0.23487322925E+03  0.23487322925E+03  0.00000000000E+00 0. -1.
         -1   -1    0    0    0  501 -0.00000000000E+00 -0.00000000000E+00 -0.62018750326E+02  0.62018750326E+02  0.00000000000E+00 0.  1.
         25    2    1    2    0    0 -0.11147633248E+02 -0.50881014687E+02  0.11700931010E+03  0.17903043269E+03  0.12509024661E+03 0.  0.
          5    1    3    3  502    0 -0.68072591742E+02 -0.32393853937E+02  0.65570168152E+02  0.10000079435E+03  0.41800000000E+01 0. -1.
         -5    1    3    3    0  502  0.56924958494E+02 -0.18487160750E+02  0.51439141950E+02  0.79029638343E+02  0.41800000000E+01 0. -1.
        -11    1    1    2    0    0  0.46711432166E+02  0.48740653017E+02  0.42727690704E+02  0.79895335936E+02  0.00000000000E+00 0.  1.
         11    1    1    2    0    0 -0.35563798918E+02  0.21403616702E+01  0.13117478124E+02  0.37966210950E+02  0.00000000000E+00 0. -1.
</event>
<event>
 7    1  0.2935020E-009  0.6863514E+02  0.7561462E-02  0.1364797E+00
         -1   -1    0    0    0  501 -0.00000000000E+00  0.00000000000E+00  0.10082283374E+03  0.10082283374E+03  0.00000000000E+00 0.  1.
          1   -1    0    0  501    0  0.00000000000E+00 -0.00000000000E+00 -0.14034220187E+03  0.14034220187E+03  0.00000000000E+00 0. -1.
         25    2    1    2    0    0 -0.23071413176E+02  0.42019680160E+02 -0.14639582637E+02  0.13475998580E+03  0.12509193725E+03 0.  0.
          5    1    3    3  502    0 -0.26176871872E+02  0.20141157783E+02  0.53495602785E+02  0.63009100733E+02  0.41800000000E+01 0.  1.
         -5    1    3    3    0  502  0.31054586958E+01  0.21878522377E+02 -0.68135185422E+02  0.71750885065E+02  0.41800000000E+01 0.  1.
        -11    1    1    2    0    0 -0.19832229049E+02  0.21055310690E+01  0.21511538709E+02  0.29334226899E+02  0.00000000000E+00 0.  1.
         11    1    1    2    0    0  0.42903642226E+02 -0.44125211229E+02 -0.46391324204E+02  0.77070822907E+02  0.00000000000E+00 0. -1.
</event>
<event>
 7    1  0.2644565E-009  0.6703704E+02  0.7561462E-02  0.1370469E+00
          1   -1    0    0  501    0  0.00000000000E+00  0.00000000000E+00  0.46230991447E+02  0.46230991447E+02  0.00000000000E+00 0. -1.
         -1   -1    0    0    0  501 -0.00000000000E+00 -0.00000000000E+00 -0.41417308299E+03  0.41417308299E+03  0.00000000000E+00 0.  1.
         25    2    1    2    0    0  0.38597824892E+02 -0.45053840324E+02 -0.94679909039E+02  0.16772514493E+03  0.12509116056E+03 0.  0.
          5    1    3    3  502    0  0.20073399871E+02 -0.23121677041E+02 -0.12321564434E+03  0.12703196740E+03  0.41800000000E+01 0. -1.
         -5    1    3    3    0  502  0.18524425021E+02 -0.21932163283E+02  0.28535735297E+02  0.40693177531E+02  0.41800000000E+01 0. -1.
        -11    1    1    2    0    0 -0.48732274540E+02  0.36271458377E+02 -0.27256247287E+03  0.27925034448E+03  0.00000000000E+00 0.  1.
         11    1    1    2    0    0  0.10134449648E+02  0.87823819464E+01 -0.69970963284E+00  0.13428585029E+02  0.00000000000E+00 0. -1.
</event>
<event>
 7    1  0.2644565E-009  0.6487730E+02  0.7561462E-02  0.1378434E+00
          1   -1    0    0  501    0  0.00000000000E+00  0.00000000000E+00  0.35469645434E+02  0.35469645434E+02  0.00000000000E+00 0. -1.
         -1   -1    0    0    0  501 -0.00000000000E+00 -0.00000000000E+00 -0.47388028113E+03  0.47388028113E+03  0.00000000000E+00 0.  1.
         25    2    1    2    0    0  0.27396014511E+02 -0.15385182678E+02 -0.12023016413E+03  0.17632645357E+03  0.12509388636E+03 0.  0.
          5    1    3    3  502    0  0.15278168394E+02 -0.16732355565E+02  0.22977634927E+02  0.32539795006E+02  0.41800000000E+01 0.  1.
         -5    1    3    3    0  502  0.12117846117E+02  0.13471728866E+01 -0.14320779906E+03  0.14378665856E+03  0.41800000000E+01 0.  1.
        -11    1    1    2    0    0  0.10692597728E+02  0.44573754958E+02 -0.20550658788E+03  0.21055666443E+03  0.00000000000E+00 0. -1.
         11    1    1    2    0    0 -0.38088612239E+02 -0.29188572279E+02 -0.11267388369E+03  0.12246680856E+03  0.00000000000E+00 0.  1.
</event>
<event>
 7    1  0.2644565E-009  0.1814255E+03  0.7561462E-02  0.1166431E+00
          2   -1    0    0  501    0  0.00000000000E+00  0.00000000000E+00  0.12795730717E+03  0.12795730717E+03  0.00000000000E+00 0. -1.
         -2   -1    0    0    0  501 -0.00000000000E+00 -0.00000000000E+00 -0.39340307221E+03  0.39340307221E+03  0.00000000000E+00 0.  1.
         25    2    1    2    0    0  0.14172727461E+03  0.65857695803E+02 -0.27647538445E+03  0.34133485849E+03  0.12508793286E+03 0.  0.
          5    1    3    3  502    0  0.59472358497E+02 -0.21341311367E+02 -0.36593737329E+02  0.73136769192E+02  0.41800000000E+01 0.  1.
         -5    1    3    3    0  502  0.82254916115E+02  0.87199007170E+02 -0.23988164712E+03  0.26819808930E+03  0.41800000000E+01 0.  1.
        -11    1    1    2    0    0 -0.36279703826E+02 -0.64641895679E+02  0.15115107751E+01  0.74142270342E+02  0.00000000000E+00 0.  1.
         11    1    1    2    0    0 -0.10544757079E+03 -0.12158001243E+01  0.95181086446E+01  0.10588325055E+03  0.00000000000E+00 0. -1.
</event>
<event>
 7    1  0.2644565E-009  0.1836979E+03  0.7561462E-02  0.1164271E+00
         -1   -1    0    0    0  501 -0.00000000000E+00  0.00000000000E+00  0.68573239366E+03  0.68573239366E+03  0.00000000000E+00 0.  1.
          1   -1    0    0  501    0  0.00000000000E+00 -0.00000000000E+00 -0.54385302598E+02  0.54385302598E+02  0.00000000000E+00 0. -1.
         25    2    1    2    0    0 -0.75733796252E+02  0.13378480552E+03  0.22814522213E+03  0.30221174104E+03  0.12509081484E+03 0.  0.
          5    1    3    3  502    0  0.21017143685E+02 -0.10481248884E+02  0.20455641065E+02  0.31424235205E+02  0.41800000000E+01 0.  1.
         -5    1    3    3    0  502 -0.96750939938E+02  0.14426605440E+03  0.20768958106E+03  0.27078750583E+03  0.41800000000E+01 0.  1.
        -11    1    1    2    0    0  0.43776311923E+02 -0.14226292510E+02  0.13219058232E+03  0.13997536547E+03  0.00000000000E+00 0. -1.
         11    1    1    2    0    0  0.31957484329E+02 -0.11955851301E+03  0.27101128661E+03  0.29793058975E+03  0.00000000000E+00 0.  1.
</event>
<event>
 7    1  0.2644565E-009  0.1085441E+03  0.7561462E-02  0.1263290E+00
          2   -1    0    0  501    0  0.00000000000E+00  0.00000000000E+00  0.34247007061E+02  0.34247007061E+02  0.00000000000E+00 0. -1.
         -2   -1    0    0    0  501 -0.00000000000E+00 -0.00000000000E+00 -0.39988228644E+03  0.39988228644E+03  0.00000000000E+00 0.  1.
         25    2    1    2    0    0  0.18555242595E+02  0.30971878251E+02 -0.26042805176E+03  0.29115706453E+03  0.12508441873E+03 0.  0.
          5    1    3    3  502    0  0.31742060118E+01  0.74663037062E+02 -0.10518206585E+03  0.12909447728E+03  0.41800000000E+01 0.  1.
         -5    1    3    3    0  502  0.15381036584E+02 -0.43691158810E+02 -0.15524598591E+03  0.16206258725E+03  0.41800000000E+01 0.  1.
        -11    1    1    2    0    0  0.13439771560E+02  0.26637199889E+02 -0.23352685720E+02  0.37888201433E+02  0.00000000000E+00 0. -1.
         11    1    1    2    0    0 -0.31995014156E+02 -0.57609078140E+02 -0.81854541898E+02  0.10508402754E+03  0.00000000000E+00 0.  1.
</event>
<event>
 7    1  0.2644565E-009  0.9743923E+02  0.7561462E-02  0.1285775E+00
         -2   -1    0    0    0  501 -0.00000000000E+00  0.00000000000E+00  0.32253824111E+03  0.32253824111E+03  0.00000000000E+00 0.  1.
          2   -1    0    0  501    0  0.00000000000E+00 -0.00000000000E+00 -0.41350313716E+02  0.41350313716E+02  0.00000000000E+00 0. -1.
         25    2    1    2    0    0 -0.16890204081E+02 -0.33417623949E+02  0.15369837692E+03  0.20170161191E+03  0.12513325934E+03 0.  0.
          5    1    3    3  502    0  0.19373619235E+02 -0.73327474539E+02  0.98942118760E+02  0.12473680655E+03  0.41800000000E+01 0. -1.
         -5    1    3    3    0  502 -0.36263823316E+02  0.39909850590E+02  0.54756258164E+02  0.76964805358E+02  0.41800000000E+01 0. -1.
        -11    1    1    2    0    0  0.36088179582E+02  0.24811926004E+02  0.12861707653E+02  0.45644407120E+02  0.00000000000E+00 0. -1.
         11    1    1    2    0    0 -0.19197975501E+02  0.86056979458E+01  0.11462784282E+03  0.11654253579E+03  0.00000000000E+00 0.  1.
</event>
<event>
 7    1  0.2644565E-009  0.1262201E+03  0.7561462E-02  0.1233175E+00
          1   -1    0    0  501    0  0.00000000000E+00  0.00000000000E+00  0.28701364038E+02  0.28701364038E+02  0.00000000000E+00 0. -1.
         -1   -1    0    0    0  501 -0.00000000000E+00 -0.00000000000E+00 -0.61684947101E+03  0.61684947101E+03  0.00000000000E+00 0.  1.
         25    2    1    2    0    0 -0.66287433873E+02  0.11407183714E+02 -0.41755425981E+03  0.44104775910E+03  0.12508964061E+03 0.  0.
          5    1    3    3  502    0 -0.21504553001E+02 -0.56447865526E+02 -0.17134771051E+03  0.18173144367E+03  0.41800000000E+01 0.  1.
         -5    1    3    3    0  502 -0.44782880872E+02  0.67855049241E+02 -0.24620654930E+03  0.25931631542E+03  0.41800000000E+01 0.  1.
        -11    1    1    2    0    0 -0.21113484221E+02  0.46476901063E+01 -0.18990666678E+02  0.28775435012E+02  0.00000000000E+00 0. -1.
         11    1    1    2    0    0  0.87400918094E+02 -0.16054873821E+02 -0.15160318048E+03  0.17572764094E+03  0.00000000000E+00 0.  1.
</event>
<event>
 7    1  0.2644565E-009  0.1173065E+03  0.7561462E-02  0.1247608E+00
          1   -1    0    0  501    0  0.00000000000E+00  0.00000000000E+00  0.20037727698E+02  0.20037727698E+02  0.00000000000E+00 0. -1.
         -1   -1    0    0    0  501 -0.00000000000E+00 -0.00000000000E+00 -0.77672150300E+03  0.77672150300E+03  0.00000000000E+00 0.  1.
         25    2    1    2    0    0 -0.48462539646E+02  0.10800414941E+02 -0.54675000426E+03  0.56306880261E+03  0.12508254315E+03 0.  0.
          5    1    3    3  502    0 -0.74093143389E+02  0.47286716713E+02 -0.40339941696E+03  0.41288544353E+03  0.41800000000E+01 0. -1.
         -5    1    3    3    0  502  0.25630603744E+02 -0.36486301772E+02 -0.14335058730E+03  0.15018335908E+03  0.41800000000E+01 0. -1.
        -11    1    1    2    0    0 -0.36398982238E+01 -0.41299608843E+02 -0.71233551690E+02  0.82420418806E+02  0.00000000000E+00 0.  1.
         11    1    1    2    0    0  0.52102437869E+02  0.30499193902E+02 -0.13870021935E+03  0.15127000928E+03  0.00000000000E+00 0. -1.
</event>
<event>
 6    1  0.2644565E-009  0.1051378E+03  0.7561462E-02  0.1269848E+00
         -2   -1    0    0    0  501 -0.00000000000E+00  0.00000000000E+00  0.17666354519E+03  0.17666354519E+03  0.00000000000E+00 0. -1.
          2   -1    0    0  501    0  0.00000000000E+00 -0.00000000000E+00 -0.89124284297E+02  0.89124284297E+02  0.00000000000E+00 0.  1.
          5    1    1    2  502    0 -0.48760728886E+02  0.80586594137E+02 -0.35884151544E+01  0.94351242490E+02  0.41800000000E+01 0. -1.
         -5    1    1    2    0  502  0.19314809198E+02 -0.32742105988E+02  0.21979233869E+02  0.44109709593E+02  0.41800000000E+01 0. -1.
        -11    1    1    2    0    0  0.28604884845E+02 -0.59523303426E+02  0.97145286692E+01  0.66750544230E+02  0.00000000000E+00 0.  1.
         11    1    1    2    0    0  0.84103484352E+00  0.11678815277E+02  0.59433913509E+02  0.60576333174E+02  0.00000000000E+00 0. -1.
</event>
<event>
 7    1  0.2644565E-009  0.1361569E+03  0.7561462E-02  0.1218596E+00
          3   -1    0    0  501    0  0.00000000000E+00  0.00000000000E+00  0.49710532397E+03  0.49710532397E+03  0.00000000000E+00 0. -1.
         -3   -1    0    0    0  501 -0.00000000000E+00 -0.00000000000E+00 -0.57864337612E+02  0.57864337612E+02  0.00000000000E+00 0.  1.
         25    2    1    2    0    0  0.95155358986E+02 -0.70622304319E+02  0.14559638354E+03  0.22558438870E+03  0.12509179554E+03 0.  0.
          5    1    3    3  502    0  0.10847557350E+03 -0.46133535351E+02  0.15596882380E+03  0.19554794688E+03  0.41800000000E+01 0.  1.
         -5    1    3    3    0  502 -0.13320214517E+02 -0.24488768968E+02 -0.10372440257E+02  0.30036441820E+02  0.41800000000E+01 0.  1.
        -11    1    1    2    0    0 -0.46938682909E+02  0.87756368089E+01  0.35251850011E+02  0.59354399027E+02  0.00000000000E+00 0.  1.
         11    1    1    2    0    0 -0.48216676077E+02  0.61846667510E+02  0.25839275281E+03  0.27003087386E+03  0.00000000000E+00 0. -1.
</event>
<event>
 7    1  0.2644565E-009  0.2240895E+03  0.7561462E-02  0.1130870E+00
         -2   -1    0    0    0  501 -0.00000000000E+00  0.00000000000E+00  0.78655878003E+02  0.78655878003E+02  0.00000000000E+00 0.  1.
          2   -1    0    0  501    0  0.00000000000E+00 -0.00000000000E+00 -0.11844275635E+04  0.11844275635E+04  0.00000000000E+00 0. -1.
         25    2    1    2    0    0  0.20672387734E+03  0.54603076644E+02 -0.17400971881E+03  0.30272585882E+03  0.12508919185E+03 0.  0.
          5    1    3    3  502    0  0.34361156134E+02  0.22091107196E+02  0.16027592026E+02  0.44080178926E+02  0.41800000000E+01 0.  1.
         -5    1    3    3    0  502  0.17236272121E+03  0.32511969448E+02 -0.19003731083E+03  0.25864567990E+03  0.41800000000E+01 0.  1.
        -11    1    1    2    0    0 -0.80232507178E+02 -0.67051084685E+02 -0.37790952574E+03  0.39210803717E+03  0.00000000000E+00 0.  1.
         11    1    1    2    0    0 -0.12649137016E+03  0.12448008041E+02 -0.55385244093E+03  0.56824954549E+03  0.00000000000E+00 0. -1.
</event>
<event>
 7    1  0.2644565E-009  0.1263386E+03  0.7561462E-02  0.1232992E+00
         -1   -1    0    0    0  501 -0.00000000000E+00  0.00000000000E+00  0.11350261054E+03  0.11350261054E+03  0.00000000000E+00 0.  1.
          1   -1    0    0  501    0  0.00000000000E+00 -0.00000000000E+00 -0.26568680473E+03  0.26568680473E+03  0.00000000000E+00 0. -1.
         25    2    1    2    0    0 -0.34054119472E+02 -0.48717279820E+02 -0.20872634636E+03  0.25049294656E+03  0.12508785795E+03 0.  0.
          5    1    3    3  502    0 -0.33496515049E+02  0.37713575991E+02 -0.94369336327E+02  0.10708582714E+03  0.41800000000E+01 0.  1.
         -5    1    3    3    0  502 -0.55760442302E+00 -0.86430855811E+02 -0.11435701003E+03  0.14340711943E+03  0.41800000000E+01 0.  1.
        -11    1    1    2    0    0  0.58832136133E+02  0.63589578399E+02  0.44467055842E+02  0.97376453921E+02  0.00000000000E+00 0.  1.
         11    1    1    2    0    0 -0.24778016661E+02 -0.14872298579E+02  0.12075096333E+02  0.31320014785E+02  0.00000000000E+00 0. -1.
</event>
<event>
 7    1  0.2644565E-009  0.8880079E+02  0.7561462E-02  0.1305782E+00
          2   -1    0    0  501    0  0.00000000000E+00  0.00000000000E+00  0.86600720743E+02  0.86600720743E+02  0.00000000000E+00 0. -1.
         -2   -1    0    0    0  501 -0.00000000000E+00 -0.00000000000E+00 -0.22272382783E+03  0.22272382783E+03  0.00000000000E+00 0.  1.
         25    2    1    2    0    0  0.18151578725E+02  0.24298283820E+02  0.14142067165E+02  0.12949043213E+03  0.12509151667E+03 0.  0.
          5    1    3    3  502    0  0.43062124342E+02 -0.99915224554E+00 -0.43694073234E+02  0.61497880402E+02  0.41800000000E+01 0. -1.
         -5    1    3    3    0  502 -0.24910545617E+02  0.25297436066E+02  0.57836140400E+02  0.67992551730E+02  0.41800000000E+01 0. -1.
        -11    1    1    2    0    0  0.30450508499E+01 -0.58370240107E+02 -0.83151078087E+02  0.10163886585E+03  0.00000000000E+00 0.  1.
         11    1    1    2    0    0 -0.21196629575E+02  0.34071956287E+02 -0.67114096164E+02  0.78195250588E+02  0.00000000000E+00 0. -1.
</event>
<event>
 7    1  0.2644565E-009  0.1096318E+03  0.7561462E-02  0.1261253E+00
         -1   -1    0    0    0  501 -0.00000000000E+00  0.00000000000E+00  0.16627219401E+02  0.16627219401E+02  0.00000000000E+00 0.  1.
          1   -1    0    0  501    0  0.00000000000E+00 -0.00000000000E+00 -0.75688436987E+03  0.75688436987E+03  0.00000000000E+00 0. -1.
         25    2    1    2    0    0 -0.17220024432E+02 -0.19775482590E+02 -0.45033193699E+03  0.46811730577E+03  0.12508940616E+03 0.  0.
          5    1    3    3  502    0  0.31587544975E+02 -0.55917108399E+02 -0.18445415892E+03  0.19535942555E+03  0.41800000000E+01 0.  1.
         -5    1    3    3    0  502 -0.48807569408E+02  0.36141625809E+02 -0.26587777807E+03  0.27275788022E+03  0.41800000000E+01 0.  1.
        -11    1    1    2    0    0  0.49958285560E+02  0.31723181774E+02 -0.15146705724E+03  0.16261752669E+03  0.00000000000E+00 0.  1.
         11    1    1    2    0    0 -0.32738261127E+02 -0.11947699184E+02 -0.13845815624E+03  0.14277675682E+03  0.00000000000E+00 0. -1.
</event>
<event>
 7    1  0.2644565E-009  0.1719361E+03  0.7561462E-02  0.1175844E+00
          2   -1    0    0  501    0  0.00000000000E+00  0.00000000000E+00  0.29874616242E+03  0.29874616242E+03  0.00000000000E+00 0. -1.
         -2   -1    0    0    0  501 -0.00000000000E+00 -0.00000000000E+00 -0.12080761154E+03  0.12080761154E+03  0.00000000000E+00 0.  1.
         25    2    1    2    0    0 -0.64952258203E+02  0.12603960452E+03  0.16285923673E+03  0.24955149248E+03  0.12509212068E+03 0.  0.
          5    1    3    3  502    0 -0.24815041793E+02  0.13578347303E+03  0.87408399997E+02  0.16343389684E+03  0.41800000000E+01 0.  1.
         -5    1    3    3    0  502 -0.40137216410E+02 -0.97438685074E+01  0.75450836734E+02  0.86117595638E+02  0.41800000000E+01 0.  1.
        -11    1    1    2    0    0  0.83060034317E+02 -0.11835405112E+03  0.26871756148E+02  0.14706713431E+03  0.00000000000E+00 0. -1.
         11    1    1    2    0    0 -0.18107776114E+02 -0.76855534021E+01 -0.11792442005E+02  0.22935147162E+02  0.00000000000E+00 0.  1.
</event>
<event>
 7    1  0.2644565E-009  0.1059790E+03  0.7561462E-02  0.1268203E+00
         -1   -1    0    0    0  501 -0.00000000000E+00  0.00000000000E+00  0.44647954589E+03  0.44647954589E+03  0.00000000000E+00 0.  1.
          1   -1    0    0  501    0  0.00000000000E+00 -0.00000000000E+00 -0.35955128521E+02  0.35955128521E+02  0.00000000000E+00 0. -1.
         25    2    1    2    0    0  0.23978645503E+02 -0.53919721683E+02  0.28079170190E+03  0.31299217614E+03  0.12505123208E+03 0.  0.
          5    1    3    3  502    0  0.71907813896E+02 -0.51690218144E+02  0.20273358333E+03  0.22127130532E+03  0.41800000000E+01 0. -1.
         -5    1    3    3    0  502 -0.47929168393E+02 -0.22295035392E+01  0.78058118572E+02  0.91720870820E+02  0.41800000000E+01 0. -1.
        -11    1    1    2    0    0  0.12884777514E+02  0.48567780281E+01 -0.98732337172E+01  0.16943627959E+02  0.00000000000E+00 0. -1.
         11    1    1    2    0    0 -0.36863423016E+02  0.49062943655E+02  0.13960594919E+03  0.15249887031E+03  0.00000000000E+00 0.  1.
</event>
<event>
 7    1  0.2644565E-009  0.1099700E+03  0.7561462E-02  0.1260626E+00
          3   -1    0    0  501    0  0.00000000000E+00  0.00000000000E+00  0.50272362871E+02  0.50272362871E+02  0.00000000000E+00 0. -1.
         -3   -1    0    0    0  501 -0.00000000000E+00 -0.00000000000E+00 -0.31238774017E+03  0.31238774017E+03  0.00000000000E+00 0.  1.
         25    2    1    2    0    0  0.51798041242E+02 -0.44885081940E+02 -0.14957165069E+03  0.20667982912E+03  0.12508863025E+03 0.  0.
          5    1    3    3  502    0  0.69622894580E+02 -0.71662117609E+02 -0.73886095079E+02  0.12433597225E+03  0.41800000000E+01 0. -1.
         -5    1    3    3    0  502 -0.17824853338E+02  0.26777035670E+02 -0.75685555615E+02  0.82343856872E+02  0.41800000000E+01 0. -1.
        -11    1    1    2    0    0 -0.17151909552E+02  0.49649422923E+02 -0.10878930481E+03  0.12080714399E+03  0.00000000000E+00 0.  1.
         11    1    1    2    0    0 -0.34646131690E+02 -0.47643409834E+01 -0.37544217992E+01  0.35173129931E+02  0.00000000000E+00 0. -1.
</event>
<event>
 7    1  0.2644565E-009  0.1631107E+03  0.7561462E-02  0.1185229E+00
          2   -1    0    0  501    0  0.00000000000E+00  0.00000000000E+00  0.95593639427E+03  0.95593639427E+03  0.00000000000E+00 0. -1.
         -2   -1    0    0    0  501 -0.00000000000E+00 -0.00000000000E+00 -0.49493049494E+02  0.49493049494E+02  0.00000000000E+00 0.  1.
         25    2    1    2    0    0 -0.14947936198E+03 -0.49190550611E+02  0.71197751464E+03  0.73981317415E+03  0.12509101227E+03 0.  0.
          5    1    3    3  502    0 -0.11289296031E+03 -0.37126708297E+02  0.67777529709E+03  0.68812792321E+03  0.41800000000E+01 0.  1.
         -5    1    3    3    0  502 -0.36586401669E+02 -0.12063842313E+02  0.34202217554E+02  0.51685250934E+02  0.41800000000E+01 0.  1.
        -11    1    1    2    0    0  0.45066265886E+02 -0.13154208908E+02  0.10381685323E+03  0.11393831905E+03  0.00000000000E+00 0.  1.
         11    1    1    2    0    0  0.10441309610E+03  0.62344759519E+02  0.90648976901E+02  0.15167795057E+03  0.00000000000E+00 0. -1.
</event>
<event>
 7    1  0.2644565E-009  0.1050131E+03  0.7561462E-02  0.1270094E+00
         -1   -1    0    0    0  501 -0.00000000000E+00  0.00000000000E+00  0.60367439166E+03  0.60367439166E+03  0.00000000000E+00 0.  1.
          1   -1    0    0  501    0  0.00000000000E+00 -0.00000000000E+00 -0.28578577337E+02  0.28578577337E+02  0.00000000000E+00 0. -1.
         25    2    1    2    0    0  0.24038689393E+02 -0.68628797413E+02  0.33790672770E+03  0.36758155090E+03  0.12508984580E+03 0.  0.
          5    1    3    3  502    0 -0.21616262445E+02 -0.30387392460E+02  0.17048370704E+02  0.41216207568E+02  0.41800000000E+01 0.  1.
         -5    1    3    3    0  502  0.45654951838E+02 -0.38241404954E+02  0.32085835699E+03  0.32636534334E+03  0.41800000000E+01 0.  1.
        -11    1    1    2    0    0 -0.32699159093E+02 -0.96108524508E+01  0.41232206562E+02  0.53494844127E+02  0.00000000000E+00 0. -1.
         11    1    1    2    0    0  0.86604697000E+01  0.78239649864E+02  0.19595688006E+03  0.21117657396E+03  0.00000000000E+00 0.  1.
</event>
<event>
 7    1  0.2719393E-009  0.2390495E+03  0.7561462E-02  0.1120428E+00
         -1   -1    0    0    0  501 -0.00000000000E+00  0.00000000000E+00  0.53498054844E+02  0.53498054844E+02  0.00000000000E+00 0.  1.
          1   -1    0    0  501    0  0.00000000000E+00 -0.00000000000E+00 -0.13724325040E+04  0.13724325040E+04  0.00000000000E+00 0. -1.
         25    2    1    2    0    0 -0.20758408610E+03 -0.10081114505E+03 -0.43640880439E+03  0.50926981918E+03  0.12509622061E+03 0.  0.
          5    1    3    3  502    0 -0.16700474254E+03 -0.82183791510E+02 -0.42347844028E+03  0.46259725615E+03  0.41800000000E+01 0. -1.
         -5    1    3    3    0  502 -0.40579343560E+02 -0.18627353536E+02 -0.12930364109E+02  0.46672563027E+02  0.41800000000E+01 0. -1.
        -11    1    1    2    0    0  0.10461243517E+03  0.24002587674E+01 -0.40928481543E+03  0.42244950346E+03  0.00000000000E+00 0.  1.
         11    1    1    2    0    0  0.10297165093E+03  0.98410886278E+02 -0.47324082932E+03  0.49421123618E+03  0.00000000000E+00 0. -1.
</event>
<event>
 7    1  0.2644565E-009  0.8815878E+02  0.7561462E-02  0.1307373E+00
         -2   -1    0    0    0  501 -0.00000000000E+00  0.00000000000E+00  0.58376316765E+02  0.58376316765E+02  0.00000000000E+00 0.  1.
          2   -1    0    0  501    0  0.00000000000E+00 -0.00000000000E+00 -0.23357812161E+03  0.23357812161E+03  0.00000000000E+00 0. -1.
         25    2    1    2    0    0  0.10673693021E+02 -0.35954632099E+02 -0.10276949250E+03  0.16617534207E+03  0.12508402149E+03 0.  0.
          5    1    3    3  502    0  0.19223971174E+02 -0.57801882972E+02 -0.12142443916E+03  0.13591168297E+03  0.41800000000E+01 0. -1.
         -5    1    3    3    0  502 -0.85502781524E+01  0.21847250873E+02  0.18654946661E+02  0.30263659099E+02  0.41800000000E+01 0. -1.
        -11    1    1    2    0    0 -0.23130119271E+02  0.60024661369E+02 -0.21043698272E+02  0.67681604790E+02  0.00000000000E+00 0.  1.
         11    1    1    2    0    0  0.12456426250E+02 -0.24070029270E+02 -0.51388614078E+02  0.58097491519E+02  0.00000000000E+00 0. -1.
</event>
<event>
 7    1  0.2644565E-009  0.7682644E+02  0.7561462E-02  0.1338307E+00
          1   -1    0    0  501    0  0.00000000000E+00  0.00000000000E+00  0.86385037876E+02  0.86385037876E+02  0.00000000000E+00 0. -1.
         -1   -1    0    0    0  501 -0.00000000000E+00 -0.00000000000E+00 -0.14590941830E+03  0.14590941830E+03  0.00000000000E+00 0.  1.
         25    2    1    2    0    0 -0.30543372190E+02 -0.38373252558E+01 -0.46690979811E+02  0.13702085931E+03  0.12508815148E+03 0.  0.
          5    1    3    3  502    0  0.15442105849E+02 -0.42189247010E+02  0.18174735958E+02  0.48643443787E+02  0.41800000000E+01 0. -1.
         -5    1    3    3    0  502 -0.45985478039E+02  0.38351921754E+02 -0.64865715769E+02  0.88377415525E+02  0.41800000000E+01 0. -1.
        -11    1    1    2    0    0  0.39199822136E+00 -0.13647381955E+02  0.34147360160E+02  0.36775629195E+02  0.00000000000E+00 0. -1.
         11    1    1    2    0    0  0.30151373969E+02  0.17484707211E+02 -0.46980760768E+02  0.58497967664E+02  0.00000000000E+00 0.  1.
</event>
<event>
 7    1  0.2644565E-009  0.1193653E+03  0.7561462E-02  0.1244148E+00
         -1   -1    0    0    0  501 -0.00000000000E+00  0.00000000000E+00  0.28908309106E+03  0.28908309106E+03  0.00000000000E+00 0.  1.
          1   -1    0    0  501    0  0.00000000000E+00 -0.00000000000E+00 -0.10811413642E+03  0.10811413642E+03  0.00000000000E+00 0. -1.
         25    2    1    2    0    0  0.76058642794E+02  0.49358984530E+02 -0.21767732008E+02  0.15602788439E+03  0.12509852138E+03 0.  0.
          5    1    3    3  502    0  0.87262934989E+02  0.60882802954E+02 -0.54278785012E+02  0.11952068616E+03  0.41800000000E+01 0.  1.
         -5    1    3    3    0  502 -0.11204292195E+02 -0.11523818424E+02  0.32511053005E+02  0.36507198223E+02  0.41800000000E+01 0.  1.
        -11    1    1    2    0    0 -0.61766400363E+02  0.25289508379E+01  0.16282514545E+03  0.17416518538E+03  0.00000000000E+00 0.  1.
         11    1    1    2    0    0 -0.14292242431E+02 -0.51887935368E+02  0.39911541198E+02  0.67004157716E+02  0.00000000000E+00 0. -1.
</event>
<event>
 7    1  0.2644565E-009  0.9616346E+02  0.7561462E-02  0.1288577E+00
          3   -1    0    0  501    0  0.00000000000E+00  0.00000000000E+00  0.66441184121E+02  0.66441184121E+02  0.00000000000E+00 0. -1.
         -3   -1    0    0    0  501 -0.00000000000E+00 -0.00000000000E+00 -0.19203955193E+03  0.19203955193E+03  0.00000000000E+00 0.  1.
         25    2    1    2    0    0 -0.23148097716E+02 -0.17192492246E+02 -0.89412387667E+02  0.15644150243E+03  0.12509177590E+03 0.  0.
          5    1    3    3  502    0 -0.38481263402E+02  0.37929787747E+02 -0.50592452085E+01  0.54429264129E+02  0.41800000000E+01 0. -1.
         -5    1    3    3    0  502  0.15333165686E+02 -0.55122279992E+02 -0.84353142458E+02  0.10201223831E+03  0.41800000000E+01 0. -1.
        -11    1    1    2    0    0 -0.62200291685E+01  0.41916848386E+02 -0.45868649259E+02  0.62447129048E+02  0.00000000000E+00 0.  1.
         11    1    1    2    0    0  0.29368126885E+02 -0.24724356140E+02  0.96826691149E+01  0.39592104572E+02  0.00000000000E+00 0. -1.
</event>
<event>
 7    1  0.2644565E-009  0.1142503E+03  0.7561462E-02  0.1252895E+00
          1   -1    0    0  501    0  0.00000000000E+00  0.00000000000E+00  0.61215510450E+03  0.61215510450E+03  0.00000000000E+00 0. -1.
         -1   -1    0    0    0  501 -0.00000000000E+00 -0.00000000000E+00 -0.26097238197E+02  0.26097238197E+02  0.00000000000E+00 0.  1.
         25    2    1    2    0    0  0.53356801425E+02  0.70428075116E+00  0.34204430798E+03  0.36808689997E+03  0.12508482338E+03 0.  0.
          5    1    3    3  502    0 -0.39372750379E+02 -0.13972077765E+02  0.10222507721E+03  0.11051186018E+03  0.41800000000E+01 0. -1.
         -5    1    3    3    0  502  0.92729551803E+02  0.14676358516E+02  0.23981923077E+03  0.25757503979E+03  0.41800000000E+01 0. -1.
        -11    1    1    2    0    0 -0.10705081994E+02  0.35195654132E+02  0.25774533449E+02  0.44918364004E+02  0.00000000000E+00 0.  1.
         11    1    1    2    0    0 -0.42651719430E+02 -0.35899934883E+02  0.21823902487E+03  0.22524707872E+03  0.00000000000E+00 0. -1.
</event>
<event>
 7    1  0.2644565E-009  0.1332143E+03  0.7561462E-02  0.1222763E+00
         -1   -1    0    0    0  501 -0.00000000000E+00  0.00000000000E+00  0.27231405766E+02  0.27231405766E+02  0.00000000000E+00 0.  1.
          1   -1    0    0  501    0  0.00000000000E+00 -0.00000000000E+00 -0.70973717922E+03  0.70973717922E+03  0.00000000000E+00 0. -1.
         25    2    1    2    0    0  0.52883921887E+02 -0.58748344371E+02 -0.28714851731E+03  0.32304130212E+03  0.12511328754E+03 0.  0.
          5    1    3    3  502    0 -0.27882966936E+02 -0.56988992586E+02 -0.16193197337E+03  0.17396735763E+03  0.41800000000E+01 0.  1.
         -5    1    3    3    0  502  0.80766888823E+02 -0.17593517843E+01 -0.12521654394E+03  0.14907394448E+03  0.41800000000E+01 0.  1.
        -11    1    1    2    0    0  0.50580701532E+01 -0.21995835211E+02 -0.90897062342E+02  0.93657230274E+02  0.00000000000E+00 0.  1.
         11    1    1    2    0    0 -0.57941992040E+02  0.80744179582E+02 -0.30446019380E+03  0.32027005260E+03  0.00000000000E+00 0. -1.
</event>
<event>
 7    1  0.2644565E-009  0.1310662E+03  0.7561462E-02  0.1225882E+00
         -1   -1    0    0    0  501 -0.00000000000E+00  0.00000000000E+00  0.68748711684E+02  0.68748711684E+02  0.00000000000E+00 0.  1.
          1   -1    0    0  501    0  0.00000000000E+00 -0.00000000000E+00 -0.35385341540E+03  0.35385341540E+03  0.00000000000E+00 0. -1.
         25    2    1    2    0    0 -0.94527556496E+02 -0.57027204086E+02 -0.14156112728E+03  0.21880238158E+03  0.12508944194E+03 0.  0.
          5    1    3    3  502    0 -0.10396180604E+03 -0.31295534412E+02 -0.43732978693E+02  0.11712178881E+03  0.41800000000E+01 0. -1.
         -5    1    3    3    0  502  0.94342495467E+01 -0.25731669675E+02 -0.97828148590E+02  0.10168059277E+03  0.41800000000E+01 0. -1.
        -11    1    1    2    0    0  0.65111032586E+02  0.41423935930E+01 -0.12415583678E+03  0.14025433254E+03  0.00000000000E+00 0. -1.
         11    1    1    2    0    0  0.29416523910E+02  0.52884810493E+02 -0.19387739648E+02  0.63545412962E+02  0.00000000000E+00 0.  1.
</event>
<event>
 7    1  0.2644565E-009  0.1085450E+03  0.7561462E-02  0.1263288E+00
          1   -1    0    0  501    0  0.00000000000E+00  0.00000000000E+00  0.31899624002E+02  0.31899624002E+02  0.00000000000E+00 0. -1.
         -1   -1    0    0    0  501 -0.00000000000E+00 -0.00000000000E+00 -0.43958787638E+03  0.43958787638E+03  0.00000000000E+00 0.  1.
         25    2    1    2    0    0 -0.23249518511E+02  0.27408969583E+02 -0.20049646181E+03  0.23904038777E+03  0.12509869728E+03 0.  0.
          5    1    3    3  502    0  0.83979835617E+01 -0.47126091736E+02 -0.60524344263E+02  0.77279125892E+02  0.41800000000E+01 0. -1.
         -5    1    3    3    0  502 -0.31647502073E+02  0.74535061319E+02 -0.13997211755E+03  0.16176126188E+03  0.41800000000E+01 0. -1.
        -11    1    1    2    0    0  0.12513463468E+02  0.28447007909E+02 -0.14447547417E+03  0.14778018021E+03  0.00000000000E+00 0.  1.
         11    1    1    2    0    0  0.10736055043E+02 -0.55855977492E+02 -0.62716316393E+02  0.84666932397E+02  0.00000000000E+00 0. -1.
</event>
<event>
 6    1  0.2644565E-009  0.1602237E+03  0.7561462E-02  0.1188444E+00
          2   -1    0    0  501    0  0.00000000000E+00  0.00000000000E+00  0.16944274320E+04  0.16944274320E+04  0.00000000000E+00 0. -1.
         -2   -1    0    0    0  501 -0.00000000000E+00 -0.00000000000E+00 -0.20358547697E+02  0.20358547697E+02  0.00000000000E+00 0.  1.
          5    1    1    2  502    0  0.24736353511E+02 -0.27359958462E+02  0.30849949551E+03  0.31072474256E+03  0.41800000000E+01 0. -1.
         -5    1    1    2    0  502  0.59876529959E+02  0.13253511016E+03  0.87708673453E+03  0.88907219423E+03  0.41800000000E+01 0. -1.
        -11    1    1    2    0    0 -0.11793588214E+02 -0.34083538607E+02  0.35105777865E+02  0.50330825211E+02  0.00000000000E+00 0. -1.
         11    1    1    2    0    0 -0.72819295256E+02 -0.71091613096E+02  0.45337687642E+03  0.46465821771E+03  0.00000000000E+00 0.  1.
</event>
<event>
 7    1  0.2644565E-009  0.1045367E+03  0.7561462E-02  0.1271035E+00
          1   -1    0    0  501    0  0.00000000000E+00  0.00000000000E+00  0.65189824721E+02  0.65189824721E+02  0.00000000000E+00 0. -1.
         -1   -1    0    0    0  501 -0.00000000000E+00 -0.00000000000E+00 -0.28658125603E+03  0.28658125603E+03  0.00000000000E+00 0.  1.
         25    2    1    2    0    0 -0.34230593582E+02  0.66213455769E+02 -0.92948567600E+02  0.17272242294E+03  0.12505056539E+03 0.  0.
          5    1    3    3  502    0  0.10766777732E+02  0.43446479870E+02  0.19812605451E+02  0.49127709600E+02  0.41800000000E+01 0. -1.
         -5    1    3    3    0  502 -0.44997371314E+02  0.22766975899E+02 -0.11276117305E+03  0.12359471334E+03  0.41800000000E+01 0. -1.
        -11    1    1    2    0    0 -0.28986130330E+02 -0.20510747168E+02 -0.94138630108E+01  0.36735640973E+02  0.00000000000E+00 0.  1.
         11    1    1    2    0    0  0.63216723912E+02 -0.45702708601E+02 -0.11902900070E+03  0.14231301684E+03  0.00000000000E+00 0. -1.
</event>
<event>
 7    1  0.2644565E-009  0.1420147E+03  0.7561462E-02  0.1210644E+00
          1   -1    0    0  501    0  0.00000000000E+00  0.00000000000E+00  0.48957955704E+02  0.48957955704E+02  0.00000000000E+00 0. -1.
         -1   -1    0    0    0  501 -0.00000000000E+00 -0.00000000000E+00 -0.66830116580E+03  0.66830116580E+03  0.00000000000E+00 0.  1.
         25    2    1    2    0    0 -0.76261088428E+02  0.10811161040E+03 -0.43769219232E+03  0.47405229153E+03  0.12508895226E+03 0.  0.
          5    1    3    3  502    0 -0.41181494636E+02  0.62790010730E+02 -0.72823844477E+02  0.10468660694E+03  0.41800000000E+01 0. -1.
         -5    1    3    3    0  502 -0.35079593792E+02  0.45321599668E+02 -0.36486834784E+03  0.36936568459E+03  0.41800000000E+01 0. -1.
        -11    1    1    2    0    0  0.55587540027E+02 -0.11647376095E+03 -0.11477980827E+03  0.17271512957E+03  0.00000000000E+00 0. -1.
         11    1    1    2    0    0  0.20673548401E+02  0.83621505483E+01 -0.66871209501E+02  0.70491700401E+02  0.00000000000E+00 0.  1.
</event>
<event>
 7    1  0.2644565E-009  0.1088567E+03  0.7561462E-02  0.1262702E+00
         -1   -1    0    0    0  501 -0.00000000000E+00  0.00000000000E+00  0.11953931628E+03  0.11953931628E+03  0.00000000000E+00 0.  1.
          1   -1    0    0  501    0  0.00000000000E+00 -0.00000000000E+00 -0.12500440753E+03  0.12500440753E+03  0.00000000000E+00 0. -1.
         25    2    1    2    0    0  0.21257684140E+02 -0.14278550112E+02 -0.38565402910E+02  0.13338188560E+03  0.12509065103E+03 0.  0.
          5    1    3    3  502    0 -0.27141245025E+02 -0.56464244842E+02 -0.25274307515E+02  0.67683979991E+02  0.41800000000E+01 0. -1.
         -5    1    3    3    0  502  0.48398929165E+02  0.42185694730E+02 -0.13291095395E+02  0.65697905606E+02  0.41800000000E+01 0. -1.
        -11    1    1    2    0    0  0.21690783108E+02 -0.24499194462E+02  0.41330210210E+02  0.52715148460E+02  0.00000000000E+00 0.  1.
         11    1    1    2    0    0 -0.42948467248E+02  0.38777744574E+02 -0.82298985445E+01  0.58446689754E+02  0.00000000000E+00 0. -1.
</event>
<event>
 7    1  0.2644565E-009  0.1471818E+03  0.7561462E-02  0.1203979E+00
         -2   -1    0    0    0  501 -0.00000000000E+00  0.00000000000E+00  0.37924073397E+02  0.37924073397E+02  0.00000000000E+00 0.  1.
          2   -1    0    0  501    0  0.00000000000E+00 -0.00000000000E+00 -0.83688866909E+03  0.83688866909E+03  0.00000000000E+00 0. -1.
         25    2    1    2    0    0 -0.71320162931E+02 -0.88963083520E+02 -0.27149176445E+03  0.31993016248E+03  0.12508610967E+03 0.  0.
          5    1    3    3  502    0 -0.13050376007E+02 -0.53865315280E+02 -0.23722340639E+03  0.24364769944E+03  0.41800000000E+01 0.  1.
         -5    1    3    3    0  502 -0.58269786924E+02 -0.35097768240E+02 -0.34268358060E+02  0.76282463042E+02  0.41800000000E+01 0.  1.
        -11    1    1    2    0    0 -0.36683491272E+02  0.14499227871E+02 -0.92538163106E+02  0.10059432276E+03  0.00000000000E+00 0. -1.
         11    1    1    2    0    0  0.10800365420E+03  0.74463855648E+02 -0.43493466813E+03  0.45428825724E+03  0.00000000000E+00 0.  1.
</event>
<event>
 7    1  0.2644565E-009  0.9901445E+02  0.7561462E-02  0.1282382E+00
          1   -1    0    0  501    0  0.00000000000E+00  0.00000000000E+00  0.46515534890E+02  0.46515534890E+02  0.00000000000E+00 0. -1.
         -1   -1    0    0    0  501 -0.00000000000E+00 -0.00000000000E+00 -0.25722190823E+03  0.25722190823E+03  0.00000000000E+00 0.  1.
         25    2    1    2    0    0  0.29300749934E+01  0.13922784015E+02 -0.13398504052E+03  0.18385696921E+03  0.12509582242E+03 0.  0.
          5    1    3    3  502    0  0.15401863135E+02 -0.53731134408E+02 -0.71292449425E+02  0.90688135596E+02  0.41800000000E+01 0. -1.
         -5    1    3    3    0  502 -0.12471788142E+02  0.67653918424E+02 -0.62692591099E+02  0.93168833610E+02  0.41800000000E+01 0. -1.
        -11    1    1    2    0    0 -0.22066096340E+02  0.22749002744E+02  0.11404161817E+01  0.31713250899E+02  0.00000000000E+00 0. -1.
         11    1    1    2    0    0  0.19136021346E+02 -0.36671786760E+02 -0.77861748999E+02  0.88167223015E+02  0.00000000000E+00 0.  1.
</event>
<event>
 7    1  0.2644565E-009  0.8950624E+02  0.7561462E-02  0.1304052E+00
          3   -1    0    0  501    0  0.00000000000E+00  0.00000000000E+00  0.53376629079E+02  0.53376629079E+02  0.00000000000E+00 0. -1.
         -3   -1    0    0    0  501 -0.00000000000E+00 -0.00000000000E+00 -0.36215706572E+03  0.36215706572E+03  0.00000000000E+00 0.  1.
         25    2    1    2    0    0  0.23540448485E+02 -0.64970385311E+02 -0.25569664761E+03  0.29292185615E+03  0.12508850677E+03 0.  0.
          5    1    3    3  502    0  0.25721929727E+02 -0.50025972635E+02 -0.26744994362E+03  0.27333342340E+03  0.41800000000E+01 0. -1.
         -5    1    3    3    0  502 -0.21814812418E+01 -0.14944412676E+02  0.11753296003E+02  0.19588432749E+02  0.41800000000E+01 0. -1.
        -11    1    1    2    0    0  0.29786005860E+02  0.13088212050E+02 -0.24722330790E+01  0.32628505576E+02  0.00000000000E+00 0. -1.
         11    1    1    2    0    0 -0.53326454345E+02  0.51882173261E+02 -0.50611555946E+02  0.89983333072E+02  0.00000000000E+00 0.  1.
</event>
<event>
 7    1  0.2644565E-009  0.1265318E+03  0.7561462E-02  0.1232695E+00
         -1   -1    0    0    0  501 -0.00000000000E+00  0.00000000000E+00  0.66476128355E+03  0.66476128355E+03  0.00000000000E+00 0.  1.
          1   -1    0    0  501    0  0.00000000000E+00 -0.00000000000E+00 -0.39832189881E+02  0.39832189881E+02  0.00000000000E+00 0. -1.
         25    2    1    2    0    0 -0.77771713975E+02  0.60815440014E+02  0.47400679081E+03  0.50007667883E+03  0.12508912720E+03 0.  0.
          5    1    3    3  502    0 -0.86793295704E+02  0.29756838391E+02  0.45077359329E+03  0.46003570559E+03  0.41800000000E+01 0.  1.
         -5    1    3    3    0  502  0.90215817291E+01  0.31058601623E+02  0.23233197521E+02  0.40040973249E+02  0.41800000000E+01 0.  1.
        -11    1    1    2    0    0  0.44508049960E+02  0.14057276440E+02  0.21610384002E+02  0.51435223621E+02  0.00000000000E+00 0.  1.
         11    1    1    2    0    0  0.33263664015E+02 -0.74872716454E+02  0.12931191886E+03  0.15308157097E+03  0.00000000000E+00 0. -1.
</event>
<event>
 7    1  0.2644565E-009  0.1209096E+03  0.7561462E-02  0.1241604E+00
         -1   -1    0    0    0  501 -0.00000000000E+00  0.00000000000E+00  0.27665884347E+03  0.27665884347E+03  0.00000000000E+00 0.  1.
          1   -1    0    0  501    0  0.00000000000E+00 -0.00000000000E+00 -0.61923763800E+02  0.61923763800E+02  0.00000000000E+00 0. -1.
         25    2    1    2    0    0  0.44091606465E+02  0.44779167510E+02  0.17087076376E+03  0.22087381382E+03  0.12505670762E+03 0.  0.
          5    1    3    3  502    0  0.69964452153E+02 -0.17370375512E+02  0.95551557486E+02  0.11976780472E+03  0.41800000000E+01 0.  1.
         -5    1    3    3    0  502 -0.25872845689E+02  0.62149543022E+02  0.75319206277E+02  0.10110600910E+03  0.41800000000E+01 0.  1.
        -11    1    1    2    0    0 -0.62686267999E+02 -0.52751427721E+02  0.16328995343E+02  0.83539915078E+02  0.00000000000E+00 0. -1.
         11    1    1    2    0    0  0.18594661535E+02  0.79722602107E+01  0.27535320565E+02  0.34168878370E+02  0.00000000000E+00 0.  1.
</event>
<event>
 7    1  0.2644565E-009  0.8105376E+02  0.7561462E-02  0.1326087E+00
         -2   -1    0    0    0  501 -0.00000000000E+00  0.00000000000E+00  0.39064665009E+03  0.39064665009E+03  0.00000000000E+00 0.  1.
          2   -1    0    0  501    0  0.00000000000E+00 -0.00000000000E+00 -0.39767986663E+02  0.39767986663E+02  0.00000000000E+00 0. -1.
         25    2    1    2    0    0  0.23208816049E+02 -0.49542959461E+02  0.24710491907E+03  0.28231521014E+03  0.12509149799E+03 0.  0.
          5    1    3    3  502    0  0.69717193480E+00 -0.15381064347E+02 -0.12002224727E+02  0.19964693525E+02  0.41800000000E+01 0. -1.
         -5    1    3    3    0  502  0.22511644114E+02 -0.34161895114E+02  0.25910714380E+03  0.26235051661E+03  0.41800000000E+01 0. -1.
        -11    1    1    2    0    0  0.31126476201E+02  0.38626511715E+02  0.40962737468E+02  0.64333589896E+02  0.00000000000E+00 0. -1.
         11    1    1    2    0    0 -0.54335292250E+02  0.10916447745E+02  0.62811006885E+02  0.83765836719E+02  0.00000000000E+00 0.  1.
</event>
<event>
 7    1  0.2644565E-009  0.1667985E+03  0.7561462E-02  0.1181228E+00
         -2   -1    0    0    0  501 -0.00000000000E+00  0.00000000000E+00  0.25592493602E+02  0.25592493602E+02  0.00000000000E+00 0.  1.
          2   -1    0    0  501    0  0.00000000000E+00 -0.00000000000E+00 -0.19177120920E+04  0.19177120920E+04  0.00000000000E+00 0. -1.
         25    2    1    2    0    0 -0.10528720316E+03  0.78490780453E+02 -0.16000332195E+04  0.16102795225E+04  0.12509052405E+03 0.  0.
          5    1    3    3  502    0  0.25566576912E+02  0.31643523417E+02 -0.28584992098E+03  0.28876047540E+03  0.41800000000E+01 0.  1.
         -5    1    3    3    0  502 -0.13085378007E+03  0.46847257036E+02 -0.13141832986E+04  0.13215190471E+04  0.41800000000E+01 0.  1.
        -11    1    1    2    0    0  0.53148533523E+02 -0.85876267923E+02 -0.23260286831E+03  0.25358153393E+03  0.00000000000E+00 0.  1.
         11    1    1    2    0    0  0.52138669634E+02  0.73854874695E+01 -0.59483510507E+02  0.79443529117E+02  0.00000000000E+00 0. -1.
</event>
<event>
 7    1  0.2644565E-009  0.1991762E+03  0.7561462E-02  0.1150436E+00
          1   -1    0    0  501    0  0.00000000000E+00  0.00000000000E+00  0.10969203223E+03  0.10969203223E+03  0.00000000000E+00 0. -1.
         -1   -1    0    0    0  501 -0.00000000000E+00 -0.00000000000E+00 -0.58067617162E+03  0.58067617162E+03  0.00000000000E+00 0.  1.
         25    2    1    2    0    0 -0.15073219003E+03  0.11195239181E+03 -0.66476199326E+02  0.23520673485E+03  0.12509832892E+03 0.  0.
          5    1    3    3  502    0 -0.15573188542E+03  0.90077046479E+02 -0.17045374114E+02  0.18076037070E+03  0.41800000000E+01 0. -1.
         -5    1    3    3    0  502  0.49996953904E+01  0.21875345327E+02 -0.49430825212E+02  0.54446364142E+02  0.41800000000E+01 0.  1.
        -11    1    1    2    0    0  0.30345268741E+02  0.11816298622E+01 -0.19195080215E+02  0.35926072546E+02  0.00000000000E+00 0. -1.
         11    1    1    2    0    0  0.12038692129E+03 -0.11313402167E+03 -0.38531285985E+03  0.41923539645E+03  0.00000000000E+00 0.  1.
</event>
<event>
 7    1  0.2644565E-009  0.9512021E+02  0.7561462E-02  0.1290906E+00
          2   -1    0    0  501    0  0.00000000000E+00  0.00000000000E+00  0.43576990435E+03  0.43576990435E+03  0.00000000000E+00 0. -1.
         -2   -1    0    0    0  501 -0.00000000000E+00 -0.00000000000E+00 -0.42713019858E+02  0.42713019858E+02  0.00000000000E+00 0.  1.
         25    2    1    2    0    0  0.43382439903E+02 -0.69735889691E+02  0.24265014042E+03  0.28508243685E+03  0.12509106584E+03 0.  0.
          5    1    3    3  502    0  0.52639188777E+02 -0.20336968119E+02  0.25346218946E+02  0.62003061878E+02  0.41800000000E+01 0.  1.
         -5    1    3    3    0  502 -0.92567488736E+01 -0.49398921572E+02  0.21730392147E+03  0.22307937497E+03  0.41800000000E+01 0.  1.
        -11    1    1    2    0    0 -0.23472001411E+02  0.25197342821E+02 -0.87463855522E+00  0.34447146878E+02  0.00000000000E+00 0.  1.
         11    1    1    2    0    0 -0.19910438492E+02  0.44538546870E+02  0.15128138263E+03  0.15895334048E+03  0.00000000000E+00 0. -1.
</event>
<event>
 7    1  0.2644565E-009  0.1106589E+03  0.7561462E-02  0.1259355E+00
          1   -1    0    0  501    0  0.00000000000E+00  0.00000000000E+00  0.13067342805E+03  0.13067342805E+03  0.00000000000E+00 0. -1.
         -1   -1    0    0    0  501 -0.00000000000E+00 -0.00000000000E+00 -0.13577924642E+03  0.13577924642E+03  0.00000000000E+00 0.  1.
         25    2    1    2    0    0 -0.71540831562E+02 -0.25061588691E+02  0.83771063561E+01  0.14650393104E+03  0.12508817726E+03 0.  0.
          5    1    3    3  502    0  0.10730738649E+02  0.75390086675E+01 -0.42270188614E+02  0.44454770825E+02  0.41800000000E+01 0.  1.
         -5    1    3    3    0  502 -0.82271570211E+02 -0.32600597359E+02  0.50647294970E+02  0.10204916022E+03  0.41800000000E+01 0.  1.
        -11    1    1    2    0    0 -0.21895303780E+02  0.10892913374E+02  0.21941340529E+00  0.24456247292E+02  0.00000000000E+00 0. -1.
         11    1    1    2    0    0  0.93436135342E+02  0.14168675317E+02 -0.13702338133E+02  0.95492496136E+02  0.00000000000E+00 0.  1.
</event>
<event>
 6    1  0.2644565E-009  0.2554766E+03  0.7561462E-02  0.1109892E+00
         -2   -1    0    0    0  501 -0.00000000000E+00  0.00000000000E+00  0.80791315292E+02  0.80791315292E+02  0.00000000000E+00 0.  1.
          2   -1    0    0  501    0  0.00000000000E+00 -0.00000000000E+00 -0.90871450924E+03  0.90871450924E+03  0.00000000000E+00 0. -1.
          5    1    1    2  502    0 -0.11056612148E+03 -0.73973785723E+02 -0.18735938164E+03  0.22982166669E+03  0.41800000000E+01 0. -1.
         -5    1    1    2    0  502 -0.78948569015E+01 -0.13623828109E+03 -0.13936483715E+03  0.19509799649E+03  0.41800000000E+01 0. -1.
        -11    1    1    2    0    0  0.46863784914E+02  0.87219638606E+02 -0.10845853428E+03  0.14685616553E+03  0.00000000000E+00 0.  1.
         11    1    1    2    0    0  0.71597193472E+02  0.12299242821E+03 -0.39274044088E+03  0.41772999582E+03  0.00000000000E+00 0. -1.
</event>
<event>
 7    1  0.2644565E-009  0.1094178E+03  0.7561462E-02  0.1261652E+00
          1   -1    0    0  501    0  0.00000000000E+00  0.00000000000E+00  0.65901672131E+02  0.65901672131E+02  0.00000000000E+00 0. -1.
         -1   -1    0    0    0  501 -0.00000000000E+00 -0.00000000000E+00 -0.33635812386E+03  0.33635812386E+03  0.00000000000E+00 0.  1.
         25    2    1    2    0    0 -0.96263862889E+02 -0.18990970046E+02 -0.17530798279E+03  0.23666096031E+03  0.12509249804E+03 0.  0.
          5    1    3    3  502    0 -0.93421951564E+02  0.16373622654E+01 -0.18935694300E+03  0.21119627424E+03  0.41800000000E+01 0. -1.
         -5    1    3    3    0  502 -0.28419113254E+01 -0.20628332311E+02  0.14048960212E+02  0.25464686076E+02  0.41800000000E+01 0. -1.
        -11    1    1    2    0    0  0.18416966388E+02 -0.10049146517E+02  0.16313561805E+02  0.26576348422E+02  0.00000000000E+00 0. -1.
         11    1    1    2    0    0  0.77846896501E+02  0.29040116563E+02 -0.11146203074E+03  0.13902248725E+03  0.00000000000E+00 0.  1.
</event>
<event>
 7    1  0.2644565E-009  0.8879224E+02  0.7561462E-02  0.1305803E+00
          1   -1    0    0  501    0  0.00000000000E+00  0.00000000000E+00  0.11078852247E+03  0.11078852247E+03  0.00000000000E+00 0. -1.
         -1   -1    0    0    0  501 -0.00000000000E+00 -0.00000000000E+00 -0.95730425633E+02  0.95730425633E+02  0.00000000000E+00 0.  1.
         25    2    1    2    0    0  0.19998220140E+02 -0.48020798249E+01 -0.51750273392E+01  0.12687201659E+03  0.12508692540E+03 0.  0.
          5    1    3    3  502    0  0.42913148476E+02  0.43221347178E+02  0.24523816840E+02  0.65791436802E+02  0.41800000000E+01 0. -1.
         -5    1    3    3    0  502 -0.22914928336E+02 -0.48023427003E+02 -0.29698844179E+02  0.61080579789E+02  0.41800000000E+01 0. -1.
        -11    1    1    2    0    0 -0.39874463069E+02 -0.63379886375E+01  0.34207434707E+02  0.52917780511E+02  0.00000000000E+00 0. -1.
         11    1    1    2    0    0  0.19876242929E+02  0.11140068462E+02 -0.13974310532E+02  0.26729151000E+02  0.00000000000E+00 0.  1.
</event>
<event>
 7    1  0.2644565E-009  0.1142415E+03  0.7561462E-02  0.1252911E+00
         -4   -1    0    0    0  501 -0.00000000000E+00  0.00000000000E+00  0.12160658185E+03  0.12160658185E+03  0.00000000000E+00 0.  1.
          4   -1    0    0  501    0  0.00000000000E+00 -0.00000000000E+00 -0.10889451441E+03  0.10889451441E+03  0.00000000000E+00 0. -1.
         25    2    1    2    0    0 -0.34979667704E+02  0.13941768457E+02  0.11807438003E+02  0.13114789427E+03  0.12506959870E+03 0.  0.
          5    1    3    3  502    0 -0.51585665187E+02  0.60479928061E+02  0.16647853981E+02  0.81323588172E+02  0.41800000000E+01 0. -1.
         -5    1    3    3    0  502  0.16605997483E+02 -0.46538159604E+02 -0.48404159775E+01  0.49824306102E+02  0.41800000000E+01 0. -1.
        -11    1    1    2    0    0 -0.24537056114E+02  0.19213309650E+02  0.18342223797E+01  0.31218308125E+02  0.00000000000E+00 0.  1.
         11    1    1    2    0    0  0.59516723818E+02 -0.33155078108E+02 -0.92959293990E+00  0.68134893861E+02  0.00000000000E+00 0. -1.
</event>
<event>
 7    1  0.2644565E-009  0.1392278E+03  0.7561462E-02  0.1214372E+00
          1   -1    0    0  501    0  0.00000000000E+00  0.00000000000E+00  0.52259818649E+03  0.52259818649E+03  0.00000000000E+00 0. -1.
         -1   -1    0    0    0  501 -0.00000000000E+00 -0.00000000000E+00 -0.73942372922E+02  0.73942372922E+02  0.00000000000E+00 0.  1.
         25    2    1    2    0    0 -0.63434341942E+02  0.87158213052E+02  0.41981582610E+03  0.45112584098E+03  0.12509487086E+03 0.  0.
          5    1    3    3  502    0  0.46020447007E+01 -0.16806707129E+02  0.18104394368E+03  0.18192862931E+03  0.41800000000E+01 0. -1.
         -5    1    3    3    0  502 -0.68036386643E+02  0.10396492018E+03  0.23877188242E+03  0.26919721167E+03  0.41800000000E+01 0. -1.
        -11    1    1    2    0    0  0.23604441405E+02 -0.93011171653E+02  0.39497252135E+02  0.10377032636E+03  0.00000000000E+00 0. -1.
         11    1    1    2    0    0  0.39829900537E+02  0.58529586006E+01 -0.10657264666E+02  0.41644392076E+02  0.00000000000E+00 0.  1.
</event>
<event>
 7    1  0.2644565E-009  0.3792734E+03  0.7561462E-02  0.1051203E+00
          1   -1    0    0  501    0  0.00000000000E+00  0.00000000000E+00  0.76603121002E+03  0.76603121002E+03  0.00000000000E+00 0. -1.
         -1   -1    0    0    0  501 -0.00000000000E+00 -0.00000000000E+00 -0.19146852609E+03  0.19146852609E+03  0.00000000000E+00 0.  1.
         25    2    1    2    0    0 -0.34628028511E+03 -0.11512521212E+03  0.24371178692E+03  0.45629657008E+03  0.12508906611E+03 0.  0.
          5    1    3    3  502    0 -0.30366650500E+03 -0.13968795188E+03  0.19527337631E+03  0.38713722897E+03  0.41800000000E+01 0. -1.
         -5    1    3    3    0  502 -0.42613780111E+02  0.24562739763E+02  0.48438410615E+02  0.69159341111E+02  0.41800000000E+01 0. -1.
        -11    1    1    2    0    0  0.25493585297E+03  0.43045482264E+02  0.20637536030E+03  0.33081111229E+03  0.00000000000E+00 0. -1.
         11    1    1    2    0    0  0.91344432143E+02  0.72079729851E+02  0.12447553671E+03  0.17039205374E+03  0.00000000000E+00 0.  1.
</event>
<event>
 7    1  0.2644565E-009  0.1254227E+03  0.7561462E-02  0.1234410E+00
         -1   -1    0    0    0  501 -0.00000000000E+00  0.00000000000E+00  0.10618952202E+03  0.10618952202E+03  0.00000000000E+00 0.  1.
          1   -1    0    0  501    0  0.00000000000E+00 -0.00000000000E+00 -0.19399294866E+03  0.19399294866E+03  0.00000000000E+00 0. -1.
         25    2    1    2    0    0  0.92922302175E+02  0.16537177122E+02 -0.41330679030E+02  0.16206007077E+03  0.12508880462E+03 0.  0.
          5    1    3    3  502    0  0.31162422854E+02  0.47871498357E+02 -0.66946070681E+02  0.88102359405E+02  0.41800000000E+01 0.  1.
         -5    1    3    3    0  502  0.61759879321E+02 -0.31334321235E+02  0.25615391651E+02  0.73957711366E+02  0.41800000000E+01 0.  1.
        -11    1    1    2    0    0 -0.83151830476E+02 -0.44684027105E+02 -0.52070894542E+02  0.10780661969E+03  0.00000000000E+00 0.  1.
         11    1    1    2    0    0 -0.97704716994E+01  0.28146849983E+02  0.55981469299E+01  0.30315780219E+02  0.00000000000E+00 0. -1.
</event>
<event>
 7    1  0.2644565E-009  0.1051468E+03  0.7561462E-02  0.1269831E+00
          3   -1    0    0  501    0  0.00000000000E+00  0.00000000000E+00  0.25669414278E+03  0.25669414278E+03  0.00000000000E+00 0. -1.
         -3   -1    0    0    0  501 -0.00000000000E+00 -0.00000000000E+00 -0.73693756514E+02  0.73693756514E+02  0.00000000000E+00 0.  1.
         25    2    1    2    0    0 -0.27051827506E+02 -0.41562201838E+02  0.18170015580E+03  0.22608492057E+03  0.12506089195E+03 0.  0.
          5    1    3    3  502    0  0.44968145432E+00 -0.67705832714E+02  0.38746603183E+02  0.78122043337E+02  0.41800000000E+01 0. -1.
         -5    1    3    3    0  502 -0.27501508960E+02  0.26143630876E+02  0.14295355262E+03  0.14796287723E+03  0.41800000000E+01 0. -1.
        -11    1    1    2    0    0  0.61190146630E+02  0.30688691503E+02  0.98398386996E-01  0.68454652968E+02  0.00000000000E+00 0.  1.
         11    1    1    2    0    0 -0.34138319124E+02  0.10873510335E+02  0.12018320769E+01  0.35848325763E+02  0.00000000000E+00 0. -1.
</event>
<event>
 7    1  0.2644565E-009  0.9282472E+02  0.7561462E-02  0.1296152E+00
         -1   -1    0    0    0  501 -0.00000000000E+00  0.00000000000E+00  0.54649589660E+02  0.54649589660E+02  0.00000000000E+00 0.  1.
          1   -1    0    0  501    0  0.00000000000E+00 -0.00000000000E+00 -0.22037698900E+03  0.22037698900E+03  0.00000000000E+00 0. -1.
         25    2    1    2    0    0  0.80020461938E+01  0.51622504930E+01 -0.78252911203E+02  0.14785827024E+03  0.12509144012E+03 0.  0.
          5    1    3    3  502    0 -0.50748820462E+02  0.54656426031E+01 -0.16642528626E+01  0.51240200673E+02  0.41800000000E+01 0.  1.
         -5    1    3    3    0  502  0.58750866656E+02 -0.30339211019E+00 -0.76588658340E+02  0.96618069563E+02  0.41800000000E+01 0.  1.
        -11    1    1    2    0    0 -0.29636870541E+02  0.24755244121E+02 -0.80932190558E+02  0.89672658461E+02  0.00000000000E+00 0. -1.
         11    1    1    2    0    0  0.21634824347E+02 -0.29917494614E+02 -0.65422975769E+01  0.37495649962E+02  0.00000000000E+00 0.  1.
</event>
<event>
 7    1  0.2644565E-009  0.1053900E+03  0.7561462E-02  0.1269353E+00
         -2   -1    0    0    0  501 -0.00000000000E+00  0.00000000000E+00  0.46016685026E+02  0.46016685026E+02  0.00000000000E+00 0. -1.
          2   -1    0    0  501    0  0.00000000000E+00 -0.00000000000E+00 -0.30471405078E+03  0.30471405078E+03  0.00000000000E+00 0.  1.
         25    2    1    2    0    0  0.33151574938E+02  0.27201813224E+02 -0.13102614982E+03  0.18615516330E+03  0.12508767854E+03 0.  0.
          5    1    3    3  502    0  0.80294553246E+02  0.13593719378E+02 -0.94644602175E+02  0.12492828986E+03  0.41800000000E+01 0.  1.
         -5    1    3    3    0  502 -0.47142978307E+02  0.13608093846E+02 -0.36381547643E+02  0.61226873436E+02  0.41800000000E+01 0.  1.
        -11    1    1    2    0    0  0.20377669447E+02 -0.14397974353E+02 -0.99819415733E+02  0.10289055756E+03  0.00000000000E+00 0. -1.
         11    1    1    2    0    0 -0.53529244385E+02 -0.12803838871E+02 -0.27851800199E+02  0.61685014943E+02  0.00000000000E+00 0.  1.
</event>
<event>
 7    1  0.2644565E-009  0.1134322E+03  0.7561462E-02  0.1254343E+00
         -1   -1    0    0    0  501 -0.00000000000E+00  0.00000000000E+00  0.15776988559E+03  0.15776988559E+03  0.00000000000E+00 0.  1.
          1   -1    0    0  501    0  0.00000000000E+00 -0.00000000000E+00 -0.12659441230E+03  0.12659441230E+03  0.00000000000E+00 0. -1.
         25    2    1    2    0    0  0.50793427489E+02 -0.64467678774E+02 -0.19646113069E+02  0.15087305431E+03  0.12506260383E+03 0.  0.
          5    1    3    3  502    0  0.41999152881E+02 -0.38038209390E+01  0.44913562437E+02  0.61750290584E+02  0.41800000000E+01 0.  1.
         -5    1    3    3    0  502  0.87942746087E+01 -0.60663857835E+02 -0.64559675507E+02  0.89122763730E+02  0.41800000000E+01 0.  1.
        -11    1    1    2    0    0 -0.86886079052E+01 -0.23753478692E+02  0.14845379233E+02  0.29327545787E+02  0.00000000000E+00 0. -1.
         11    1    1    2    0    0 -0.42104819584E+02  0.88221157466E+02  0.35976207128E+02  0.10416369778E+03  0.00000000000E+00 0.  1.
</event>
<event>
 7    1  0.2644565E-009  0.1454884E+03  0.7561462E-02  0.1206129E+00
          3   -1    0    0  501    0  0.00000000000E+00  0.00000000000E+00  0.52156717943E+03  0.52156717943E+03  0.00000000000E+00 0. -1.
         -3   -1    0    0    0  501 -0.00000000000E+00 -0.00000000000E+00 -0.53658043635E+02  0.53658043635E+02  0.00000000000E+00 0.  1.
         25    2    1    2    0    0 -0.73234665628E+01 -0.10438958047E+03  0.37448700919E+03  0.40845935336E+03  0.12509078949E+03 0.  0.
          5    1    3    3  502    0  0.53201770230E+02 -0.48155266580E+02  0.11056355646E+03  0.13187543544E+03  0.41800000000E+01 0. -1.
         -5    1    3    3    0  502 -0.60525236792E+02 -0.56234313894E+02  0.26392345273E+03  0.27658391792E+03  0.41800000000E+01 0. -1.
        -11    1    1    2    0    0  0.13380792702E+02  0.11942047183E+03  0.72656775552E+02  0.14042543124E+03  0.00000000000E+00 0. -1.
         11    1    1    2    0    0 -0.60573261396E+01 -0.15030891351E+02  0.20765351054E+02  0.26340438477E+02  0.00000000000E+00 0.  1.
</event>
<event>
 7    1  0.2644565E-009  0.1350791E+03  0.7561462E-02  0.1220108E+00
         -3   -1    0    0    0  501 -0.00000000000E+00  0.00000000000E+00  0.68115037747E+02  0.68115037747E+02  0.00000000000E+00 0.  1.
          3   -1    0    0  501    0  0.00000000000E+00 -0.00000000000E+00 -0.30758120030E+03  0.30758120030E+03  0.00000000000E+00 0. -1.
         25    2    1    2    0    0 -0.34829925770E+02  0.81336106082E+02 -0.17659111856E+03  0.23379181146E+03  0.12508198139E+03 0.  0.
          5    1    3    3  502    0 -0.70178376225E+02  0.21076665039E+02 -0.48943057796E+02  0.88216356789E+02  0.41800000000E+01 0.  1.
         -5    1    3    3    0  502  0.35348450455E+02  0.60259441043E+02 -0.12764806077E+03  0.14557545467E+03  0.41800000000E+01 0.  1.
        -11    1    1    2    0    0  0.53202544681E+02 -0.11323950353E+02 -0.21185682802E+02  0.58374444476E+02  0.00000000000E+00 0.  1.
         11    1    1    2    0    0 -0.18372618911E+02 -0.70012155729E+02 -0.41689361189E+02  0.83529982113E+02  0.00000000000E+00 0. -1.
</event>
<event>
 6    1  0.2644565E-009  0.1616381E+03  0.7561462E-02  0.1186860E+00
         -1   -1    0    0    0  501 -0.00000000000E+00  0.00000000000E+00  0.10425767862E+03  0.10425767862E+03  0.00000000000E+00 0.  1.
          1   -1    0    0  501    0  0.00000000000E+00 -0.00000000000E+00 -0.36134781843E+03  0.36134781843E+03  0.00000000000E+00 0. -1.
          5    1    1    2  502    0  0.13942258655E+03  0.22342357382E+02 -0.19789830922E+03  0.24314409671E+03  0.41800000000E+01 0.  1.
         -5    1    1    2    0  502 -0.25163826263E+02  0.19566351857E+02 -0.62771279898E+02  0.70524933585E+02  0.41800000000E+01 0.  1.
        -11    1    1    2    0    0 -0.24725039588E+02 -0.54121275445E+02  0.13551011970E+02  0.61025158450E+02  0.00000000000E+00 0.  1.
         11    1    1    2    0    0 -0.89533720698E+02  0.12212566206E+02 -0.99715626569E+01  0.90911308302E+02  0.00000000000E+00 0. -1.
</event>
<event>
 7    1  0.2644565E-009  0.6556443E+02  0.7561462E-02  0.1375861E+00
          2   -1    0    0  501    0  0.00000000000E+00  0.00000000000E+00  0.44885860798E+03  0.44885860798E+03  0.00000000000E+00 0. -1.
         -2   -1    0    0    0  501 -0.00000000000E+00 -0.00000000000E+00 -0.28193025876E+02  0.28193025876E+02  0.00000000000E+00 0.  1.
         25    2    1    2    0    0  0.75926289764E+01 -0.34045210071E+02  0.24159786720E+03  0.27428852887E+03  0.12509173948E+03 0.  0.
          5    1    3    3  502    0  0.37410435947E+01 -0.11956917088E+02  0.24972643557E+03  0.25007544520E+03  0.41800000000E+01 0. -1.
         -5    1    3    3    0  502  0.38515853817E+01 -0.22088292983E+02 -0.81285683609E+01  0.24213083663E+02  0.41800000000E+01 0. -1.
        -11    1    1    2    0    0  0.40035442008E+02  0.23180541285E+02  0.86010305205E+02  0.97662411974E+02  0.00000000000E+00 0.  1.
         11    1    1    2    0    0 -0.47628070984E+02  0.10864668787E+02  0.93057409691E+02  0.10510069301E+03  0.00000000000E+00 0. -1.
</event>
<event>
 7    1  0.2644565E-009  0.9113542E+02  0.7561462E-02  0.1300125E+00
         -3   -1    0    0    0  501 -0.00000000000E+00  0.00000000000E+00  0.74570976572E+03  0.74570976572E+03  0.00000000000E+00 0.  1.
          3   -1    0    0  501    0  0.00000000000E+00 -0.00000000000E+00 -0.19571071950E+02  0.19571071950E+02  0.00000000000E+00 0. -1.
         25    2    1    2    0    0 -0.27960489064E+02  0.34152388964E+02  0.49267174257E+03  0.51021769883E+03  0.12509388335E+03 0.  0.
          5    1    3    3  502    0  0.38930470943E+00 -0.19091843849E+02  0.69497977650E+01  0.20746617765E+02  0.41800000000E+01 0. -1.
         -5    1    3    3    0  502 -0.28349793774E+02  0.53244232813E+02  0.48572194480E+03  0.48947108106E+03  0.41800000000E+01 0. -1.
        -11    1    1    2    0    0 -0.24452974577E+02 -0.42646490588E+02  0.12430149654E+03  0.13366949229E+03  0.00000000000E+00 0. -1.
         11    1    1    2    0    0  0.52413463641E+02  0.84941016245E+01  0.10916545466E+03  0.12139364656E+03  0.00000000000E+00 0.  1.
</event>
<event>
 7    1  0.2644565E-009  0.1863406E+03  0.7561462E-02  0.1161804E+00
          2   -1    0    0  501    0  0.00000000000E+00  0.00000000000E+00  0.17030818148E+03  0.17030818148E+03  0.00000000000E+00 0.  1.
         -2   -1    0    0    0  501 -0.00000000000E+00 -0.00000000000E+00 -0.30145992160E+03  0.30145992160E+03  0.00000000000E+00 0. -1.
         25    2    1    2    0    0  0.15715637754E+03 -0.93555067103E+02  0.11521212108E+02  0.22188061988E+03  0.12509034163E+03 0.  0.
          5    1    3    3  502    0  0.11597833533E+03 -0.83731273689E+02  0.61920877552E+02  0.15592808579E+03  0.41800000000E+01 0.  1.
         -5    1    3    3    0  502  0.41178042201E+02 -0.98237934140E+01 -0.50399665444E+02  0.65952534094E+02  0.41800000000E+01 0.  1.
        -11    1    1    2    0    0 -0.85215856922E+02  0.73019992179E+02 -0.32717063712E+02  0.11689340352E+03  0.00000000000E+00 0.  1.
         11    1    1    2    0    0 -0.71940520614E+02  0.20535074924E+02 -0.10995588852E+03  0.13299407968E+03  0.00000000000E+00 0. -1.
</event>
<event>
 7    1  0.2644565E-009  0.1089186E+03  0.7561462E-02  0.1262586E+00
          2   -1    0    0  501    0  0.00000000000E+00  0.00000000000E+00  0.64593844560E+03  0.64593844560E+03  0.00000000000E+00 0. -1.
         -2   -1    0    0    0  501 -0.00000000000E+00 -0.00000000000E+00 -0.21714489533E+02  0.21714489533E+02  0.00000000000E+00 0.  1.
         25    2    1    2    0    0 -0.39297451962E+02 -0.27394092304E+02  0.32915656118E+03  0.35536845382E+03  0.12509184697E+03 0.  0.
          5    1    3    3  502    0  0.32263808650E+01  0.40553734547E+02  0.19324376122E+03  0.19752376710E+03  0.41800000000E+01 0.  1.
         -5    1    3    3    0  502 -0.42523832827E+02 -0.67947826851E+02  0.13591279996E+03  0.15784468672E+03  0.41800000000E+01 0.  1.
        -11    1    1    2    0    0 -0.12668128232E+02 -0.21738138977E+02  0.38946047774E+02  0.46366181601E+02  0.00000000000E+00 0. -1.
         11    1    1    2    0    0  0.51965580193E+02  0.49132231281E+02  0.25612134711E+03  0.26591829971E+03  0.00000000000E+00 0.  1.
</event>
<event>
 7    1  0.2644565E-009  0.9822463E+02  0.7561462E-02  0.1284074E+00
          2   -1    0    0  501    0  0.00000000000E+00  0.00000000000E+00  0.20596360616E+03  0.20596360616E+03  0.00000000000E+00 0. -1.
         -2   -1    0    0    0  501 -0.00000000000E+00 -0.00000000000E+00 -0.79407436093E+02  0.79407436093E+02  0.00000000000E+00 0.  1.
         25    2    1    2    0    0 -0.48162287025E+02 -0.15951349094E+02  0.11973813183E+03  0.18044126710E+03  0.12509108373E+03 0.  0.
          5    1    3    3  502    0  0.32452588106E+02 -0.28402003824E+02  0.76764873171E+02  0.88148524939E+02  0.41800000000E+01 0. -1.
         -5    1    3    3    0  502 -0.80614875132E+02  0.12450654730E+02  0.42973258659E+02  0.92292742160E+02  0.41800000000E+01 0. -1.
        -11    1    1    2    0    0  0.85866842720E+01  0.28627385589E+02 -0.34966327308E+02  0.45998939095E+02  0.00000000000E+00 0.  1.
         11    1    1    2    0    0  0.39575602753E+02 -0.12676036495E+02  0.41784365540E+02  0.58930836055E+02  0.00000000000E+00 0. -1.
</event>
<event>
 7    1  0.2644565E-009  0.1324458E+03  0.7561462E-02  0.1223871E+00
         -1   -1    0    0    0  501 -0.00000000000E+00  0.00000000000E+00  0.54440283079E+03  0.54440283079E+03  0.00000000000E+00 0.  1.
          1   -1    0    0  501    0  0.00000000000E+00 -0.00000000000E+00 -0.33667601575E+02  0.33667601575E+02  0.00000000000E+00 0. -1.
         25    2    1    2    0    0 -0.64667971754E+02 -0.42065592365E+02  0.33978256766E+03  0.37020502619E+03  0.12509239583E+03 0.  0.
          5    1    3    3  502    0 -0.90712653313E+02 -0.65017205934E+02  0.26876211343E+03  0.29104392891E+03  0.41800000000E+01 0.  1.
         -5    1    3    3    0  502  0.26044681559E+02  0.22951613569E+02  0.71020454230E+02  0.79161097276E+02  0.41800000000E+01 0.  1.
        -11    1    1    2    0    0  0.58466051732E+02 -0.15385619872E+02  0.86119577392E+02  0.10522156677E+03  0.00000000000E+00 0.  1.
         11    1    1    2    0    0  0.62019200222E+01  0.57451212237E+02  0.84833084155E+02  0.10264383940E+03  0.00000000000E+00 0. -1.
</event>
<event>
 7    1  0.2644565E-009  0.1764436E+03  0.7561462E-02  0.1171290E+00
          4   -1    0    0  501    0  0.00000000000E+00  0.00000000000E+00  0.45136186018E+02  0.45136186018E+02  0.00000000000E+00 0. -1.
         -4   -1    0    0    0  501 -0.00000000000E+00 -0.00000000000E+00 -0.70242387109E+03  0.70242387109E+03  0.00000000000E+00 0.  1.
         25    2    1    2    0    0 -0.50064217794E+02  0.13092689521E+03 -0.31416190722E+03  0.36605047344E+03  0.12508783859E+03 0.  0.
          5    1    3    3  502    0 -0.63866014397E+02  0.14990376499E+03 -0.25986831024E+03  0.30675563177E+03  0.41800000000E+01 0.  1.
         -5    1    3    3    0  502  0.13801796602E+02 -0.18976869777E+02 -0.54293596980E+02  0.59294841672E+02  0.41800000000E+01 0.  1.
        -11    1    1    2    0    0 -0.25920407272E+02 -0.38390997718E+02 -0.11225122244E+03  0.12143341039E+03  0.00000000000E+00 0.  1.
         11    1    1    2    0    0  0.75984625067E+02 -0.92535897497E+02 -0.23087455541E+03  0.26007617328E+03  0.00000000000E+00 0. -1.
</event>
<event>
 7    1  0.2644565E-009  0.3793880E+02  0.7561462E-02  0.1523952E+00
          2   -1    0    0  501    0  0.00000000000E+00  0.00000000000E+00  0.13499442654E+03  0.13499442654E+03  0.00000000000E+00 0. -1.
         -2   -1    0    0    0  501 -0.00000000000E+00 -0.00000000000E+00 -0.95204108802E+02  0.95204108802E+02  0.00000000000E+00 0.  1.
         25    2    1    2    0    0  0.33602671930E+02  0.93693345127E+01  0.30041791585E+02  0.13328907809E+03  0.12508615074E+03 0.  0.
          5    1    3    3  502    0  0.30041711555E+02  0.13437681479E+02  0.78044326681E+02  0.84802506118E+02  0.41800000000E+01 0.  1.
         -5    1    3    3    0  502  0.35609603748E+01 -0.40683469665E+01 -0.48002535096E+02  0.48486571971E+02  0.41800000000E+01 0.  1.
        -11    1    1    2    0    0 -0.91587094247E+01 -0.65567633949E+01 -0.39920934681E+02  0.41479562803E+02  0.00000000000E+00 0.  1.
         11    1    1    2    0    0 -0.24443962506E+02 -0.28125711178E+01  0.49669460834E+02  0.55429894450E+02  0.00000000000E+00 0. -1.
</event>
<event>
 7    1  0.2644565E-009  0.9998306E+02  0.7561462E-02  0.1280332E+00
          1   -1    0    0  501    0  0.00000000000E+00  0.00000000000E+00  0.10682357822E+03  0.10682357822E+03  0.00000000000E+00 0. -1.
         -1   -1    0    0    0  501 -0.00000000000E+00 -0.00000000000E+00 -0.12390151279E+03  0.12390151279E+03  0.00000000000E+00 0.  1.
         25    2    1    2    0    0 -0.46560825964E+01 -0.38538725038E+02  0.10278081395E+01  0.13098616496E+03  0.12509758826E+03 0.  0.
          5    1    3    3  502    0 -0.48776447891E+02  0.16761048024E+02  0.23233362221E+02  0.56721566620E+02  0.41800000000E+01 0.  1.
         -5    1    3    3    0  502  0.44120365295E+02 -0.55299773062E+02 -0.22205554082E+02  0.74264598339E+02  0.41800000000E+01 0.  1.
        -11    1    1    2    0    0  0.17813001467E+02 -0.14337003869E+02  0.22272454971E+02  0.31920447234E+02  0.00000000000E+00 0. -1.
         11    1    1    2    0    0 -0.13156918871E+02  0.52875728906E+02 -0.40378197673E+02  0.67818478816E+02  0.00000000000E+00 0.  1.
</event>
<event>
 7    1  0.2644565E-009  0.1376057E+03  0.7561462E-02  0.1216587E+00
          2   -1    0    0  501    0  0.00000000000E+00  0.00000000000E+00  0.93887184578E+02  0.93887184578E+02  0.00000000000E+00 0. -1.
         -2   -1    0    0    0  501 -0.00000000000E+00 -0.00000000000E+00 -0.31776473682E+03  0.31776473682E+03  0.00000000000E+00 0.  1.
         25    2    1    2    0    0  0.12918790558E+03 -0.43861203034E+01 -0.75608589584E+02  0.19512360924E+03  0.12509121098E+03 0.  0.
          5    1    3    3  502    0  0.29329012201E+02  0.26747905813E+02 -0.81001486258E+02  0.90301465094E+02  0.41800000000E+01 0.  1.
         -5    1    3    3    0  502  0.99858893378E+02 -0.31134026117E+02  0.53928966742E+01  0.10482214415E+03  0.41800000000E+01 0.  1.
        -11    1    1    2    0    0 -0.80065247729E+02  0.11817398604E+02 -0.14583503678E+03  0.16678714805E+03  0.00000000000E+00 0.  1.
         11    1    1    2    0    0 -0.49122657850E+02 -0.74312783002E+01 -0.24339258819E+01  0.49741164106E+02  0.00000000000E+00 0. -1.
</event>
<event>
 7    1  0.2644565E-009  0.1043432E+03  0.7561462E-02  0.1271419E+00
          2   -1    0    0  501    0  0.00000000000E+00  0.00000000000E+00  0.13729052023E+04  0.13729052023E+04  0.00000000000E+00 0. -1.
         -2   -1    0    0    0  501 -0.00000000000E+00 -0.00000000000E+00 -0.12731125945E+02  0.12731125945E+02  0.00000000000E+00 0.  1.
         25    2    1    2    0    0 -0.10983623836E+02  0.75523710218E+02  0.76904413792E+03  0.78287953408E+03  0.12508800106E+03 0.  0.
          5    1    3    3  502    0 -0.12956884434E+02  0.82076471574E+02  0.77028501532E+03  0.77476506457E+03  0.41800000000E+01 0.  1.
         -5    1    3    3    0  502  0.19732605979E+01 -0.65527613566E+01 -0.12408773992E+01  0.81144695146E+01  0.41800000000E+01 0.  1.
        -11    1    1    2    0    0  0.40825806878E+02 -0.77464439507E+02  0.45999387664E+03  0.46825404691E+03  0.00000000000E+00 0. -1.
         11    1    1    2    0    0 -0.29842183041E+02  0.19407292893E+01  0.13113606184E+03  0.13450274730E+03  0.00000000000E+00 0.  1.
</event>
<event>
 7    1  0.2644565E-009  0.1053825E+03  0.7561462E-02  0.1269368E+00
          3   -1    0    0  501    0  0.00000000000E+00  0.00000000000E+00  0.38444226326E+03  0.38444226326E+03  0.00000000000E+00 0. -1.
         -3   -1    0    0    0  501 -0.00000000000E+00 -0.00000000000E+00 -0.40940583609E+02  0.40940583609E+02  0.00000000000E+00 0.  1.
         25    2    1    2    0    0  0.20644277270E+02 -0.42065616605E+02  0.12173784985E+03  0.18073024581E+03  0.12509042882E+03 0.  0.
          5    1    3    3  502    0  0.28006234789E+02 -0.77901195592E+02  0.42045239307E+02  0.92942024994E+02  0.41800000000E+01 0. -1.
         -5    1    3    3    0  502 -0.73619575198E+01  0.35835578987E+02  0.79692610542E+02  0.87788220820E+02  0.41800000000E+01 0. -1.
        -11    1    1    2    0    0  0.29829907213E+02  0.11037102472E+02  0.29190695073E+02  0.43171028180E+02  0.00000000000E+00 0.  1.
         11    1    1    2    0    0 -0.50474184482E+02  0.31028514133E+02  0.19257313473E+03  0.20148157288E+03  0.00000000000E+00 0. -1.
</event>
<event>
 7    1  0.2644565E-009  0.1113144E+03  0.7561462E-02  0.1258155E+00
          1   -1    0    0  501    0  0.00000000000E+00  0.00000000000E+00  0.26856429545E+04  0.26856429545E+04  0.00000000000E+00 0. -1.
         -1   -1    0    0    0  501 -0.00000000000E+00 -0.00000000000E+00 -0.14679285091E+02  0.14679285091E+02  0.00000000000E+00 0.  1.
         25    2    1    2    0    0 -0.35693192755E+02  0.72410805815E+02  0.23820808982E+04  0.23867283591E+04  0.12508207505E+03 0.  0.
          5    1    3    3  502    0 -0.61185046241E+02  0.81491488902E+02  0.22207126949E+04  0.22230534898E+04  0.41800000000E+01 0. -1.
         -5    1    3    3    0  502  0.25491853485E+02 -0.90806830864E+01  0.16136820331E+03  0.16367486930E+03  0.41800000000E+01 0. -1.
        -11    1    1    2    0    0 -0.29956221663E+01 -0.46718220211E+02  0.24588874790E+03  0.25030549774E+03  0.00000000000E+00 0. -1.
         11    1    1    2    0    0  0.38688814922E+02 -0.25692585605E+02  0.42994023226E+02  0.63288382727E+02  0.00000000000E+00 0.  1.
</event>
<event>
 7    1  0.2644565E-009  0.2481186E+03  0.7561462E-02  0.1114500E+00
          1   -1    0    0  501    0  0.00000000000E+00  0.00000000000E+00  0.34729366330E+03  0.34729366330E+03  0.00000000000E+00 0. -1.
         -1   -1    0    0    0  501 -0.00000000000E+00 -0.00000000000E+00 -0.19611945284E+03  0.19611945284E+03  0.00000000000E+00 0.  1.
         25    2    1    2    0    0 -0.58770422526E+02 -0.21953170229E+03  0.14713305698E+02  0.25983095888E+03  0.12509002741E+03 0.  0.
          5    1    3    3  502    0  0.62970012050E+01 -0.16626517721E+03 -0.22181025009E+02  0.16790840255E+03  0.41800000000E+01 0. -1.
         -5    1    3    3    0  502 -0.65067423731E+02 -0.53266525082E+02  0.36894330707E+02  0.91922556338E+02  0.41800000000E+01 0. -1.
        -11    1    1    2    0    0  0.53111207589E+01  0.17756056478E+03  0.11762724107E+03  0.21305428888E+03  0.00000000000E+00 0.  1.
         11    1    1    2    0    0  0.53459301768E+02  0.41971137508E+02  0.18833663704E+02  0.70527868376E+02  0.00000000000E+00 0. -1.
</event>
<event>
 7    1  0.2644565E-009  0.1167807E+03  0.7561462E-02  0.1248504E+00
          1   -1    0    0  501    0  0.00000000000E+00  0.00000000000E+00  0.39847054295E+02  0.39847054295E+02  0.00000000000E+00 0. -1.
         -1   -1    0    0    0  501 -0.00000000000E+00 -0.00000000000E+00 -0.44163091894E+03  0.44163091894E+03  0.00000000000E+00 0.  1.
         25    2    1    2    0    0 -0.27000609696E+02  0.64929053957E+02 -0.27477708169E+03  0.30999190340E+03  0.12509084931E+03 0.  0.
          5    1    3    3  502    0 -0.64484373441E+02  0.59254125574E+02 -0.10900489221E+03  0.13988861548E+03  0.41800000000E+01 0. -1.
         -5    1    3    3    0  502  0.37483763745E+02  0.56749283824E+01 -0.16577218948E+03  0.17010328792E+03  0.41800000000E+01 0. -1.
        -11    1    1    2    0    0  0.43688585478E+02 -0.76040702756E+02 -0.73768654773E+02  0.11459797295E+03  0.00000000000E+00 0. -1.
         11    1    1    2    0    0 -0.16687975782E+02  0.11111648799E+02 -0.53238128192E+02  0.56888096893E+02  0.00000000000E+00 0.  1.
</event>
<event>
 7    1  0.2644565E-009  0.1652153E+03  0.7561462E-02  0.1182931E+00
          2   -1    0    0  501    0  0.00000000000E+00  0.00000000000E+00  0.48298330258E+03  0.48298330258E+03  0.00000000000E+00 0.  1.
         -2   -1    0    0    0  501 -0.00000000000E+00 -0.00000000000E+00 -0.77668539437E+02  0.77668539437E+02  0.00000000000E+00 0. -1.
         25    2    1    2    0    0  0.13234809883E+03 -0.21432030966E+02  0.87541357307E+02  0.20318933844E+03  0.12508823606E+03 0.  0.
          5    1    3    3  502    0  0.14423532986E+03 -0.27830908665E-01  0.40302287156E+02  0.14981848318E+03  0.41800000000E+01 0.  1.
         -5    1    3    3    0  502 -0.11887231028E+02 -0.21404200057E+02  0.47239070150E+02  0.53370855251E+02  0.41800000000E+01 0.  1.
        -11    1    1    2    0    0 -0.20803160715E+02 -0.31563732988E+02  0.50913503339E+02  0.63413133956E+02  0.00000000000E+00 0. -1.
         11    1    1    2    0    0 -0.11154493811E+03  0.52995763954E+02  0.26685990249E+03  0.29404936962E+03  0.00000000000E+00 0.  1.
</event>
<event>
 7    1  0.2644565E-009  0.1025608E+03  0.7561462E-02  0.1275001E+00
          1   -1    0    0  501    0  0.00000000000E+00  0.00000000000E+00  0.26808819567E+03  0.26808819567E+03  0.00000000000E+00 0. -1.
         -1   -1    0    0    0  501 -0.00000000000E+00 -0.00000000000E+00 -0.57869460171E+02  0.57869460171E+02  0.00000000000E+00 0.  1.
         25    2    1    2    0    0  0.18323177253E+02  0.59483980008E+00  0.40497351427E+02  0.13275803901E+03  0.12509423964E+03 0.  0.
          5    1    3    3  502    0 -0.42804049060E+02 -0.28849289882E+02  0.38885435905E+02  0.64761235845E+02  0.41800000000E+01 0. -1.
         -5    1    3    3    0  502  0.61127226312E+02  0.29444129682E+02  0.16119155219E+01  0.67996803168E+02  0.41800000000E+01 0. -1.
        -11    1    1    2    0    0 -0.48697804762E+02 -0.16051917430E+02  0.13561007764E+03  0.14498011381E+03  0.00000000000E+00 0. -1.
         11    1    1    2    0    0  0.30374627509E+02  0.15457077629E+02  0.34111306430E+02  0.48219503020E+02  0.00000000000E+00 0.  1.
</event>
<event>
 7    1  0.2644565E-009  0.1710228E+03  0.7561462E-02  0.1176785E+00
         -1   -1    0    0    0  501 -0.00000000000E+00  0.00000000000E+00  0.37942317948E+02  0.37942317948E+02  0.00000000000E+00 0.  1.
          1   -1    0    0  501    0  0.00000000000E+00 -0.00000000000E+00 -0.89045150447E+03  0.89045150447E+03  0.00000000000E+00 0. -1.
         25    2    1    2    0    0  0.10177358843E+02  0.14716707968E+03 -0.47711217984E+03  0.51482713180E+03  0.12509682455E+03 0.  0.
          5    1    3    3  502    0 -0.78381695931E+01  0.15061608944E+03 -0.29120256956E+03  0.32796806585E+03  0.41800000000E+01 0. -1.
         -5    1    3    3    0  502  0.18015528436E+02 -0.34490097537E+01 -0.18590961028E+03  0.18685906595E+03  0.41800000000E+01 0. -1.
        -11    1    1    2    0    0 -0.41521632847E+02 -0.30418103642E+02 -0.13520067628E+03  0.14466696199E+03  0.00000000000E+00 0. -1.
         11    1    1    2    0    0  0.31344274004E+02 -0.11674897604E+03 -0.24019633040E+03  0.26889972863E+03  0.00000000000E+00 0.  1.
</event>
<event>
 7    1  0.2644565E-009  0.1125653E+03  0.7561462E-02  0.1255892E+00
          2   -1    0    0  501    0  0.00000000000E+00  0.00000000000E+00  0.17258169216E+03  0.17258169216E+03  0.00000000000E+00 0. -1.
         -2   -1    0    0    0  501 -0.00000000000E+00 -0.00000000000E+00 -0.77779257634E+02  0.77779257634E+02  0.00000000000E+00 0.  1.
         25    2    1    2    0    0 -0.26612388588E+02 -0.17947800712E+02  0.29713066044E+02  0.13250761706E+03  0.12508021230E+03 0.  0.
          5    1    3    3  502    0  0.48429405318E+02  0.87135865694E+01  0.11728212226E+02  0.50757829469E+02  0.41800000000E+01 0.  1.
         -5    1    3    3    0  502 -0.75041793906E+02 -0.26661387281E+02  0.17984853818E+02  0.81749787592E+02  0.41800000000E+01 0.  1.
        -11    1    1    2    0    0  0.48576848554E+01 -0.36783540940E+02  0.37715268705E+02  0.52906214000E+02  0.00000000000E+00 0.  1.
         11    1    1    2    0    0  0.21754703733E+02  0.54731341652E+02  0.27374099781E+02  0.64947118738E+02  0.00000000000E+00 0. -1.
</event>
<event>
 7    1  0.2644565E-009  0.2780267E+03  0.7561462E-02  0.1096772E+00
         -2   -1    0    0    0  501 -0.00000000000E+00  0.00000000000E+00  0.42536302996E+03  0.42536302996E+03  0.00000000000E+00 0.  1.
          2   -1    0    0  501    0  0.00000000000E+00 -0.00000000000E+00 -0.24434661705E+03  0.24434661705E+03  0.00000000000E+00 0. -1.
         25    2    1    2    0    0  0.26367858012E+03  0.55473541782E+02  0.23683951445E+03  0.37992401118E+03  0.12508233774E+03 0.  0.
          5    1    3    3  502    0  0.10355427717E+03  0.46123910969E+02  0.17377512497E+03  0.20752390210E+03  0.41800000000E+01 0. -1.
         -5    1    3    3    0  502  0.16012430295E+03  0.93496308122E+01  0.63064389479E+02  0.17240010908E+03  0.41800000000E+01 0. -1.
        -11    1    1    2    0    0 -0.21591654265E+03 -0.98948644886E+01 -0.57793468573E+02  0.22373633308E+03  0.00000000000E+00 0. -1.
         11    1    1    2    0    0 -0.47762037472E+02 -0.45578677293E+02  0.19703670394E+01  0.66049302748E+02  0.00000000000E+00 0.  1.
</event>
<event>
 7    1  0.2644565E-009  0.2637235E+03  0.7561462E-02  0.1104926E+00
          2   -1    0    0  501    0  0.00000000000E+00  0.00000000000E+00  0.66377973142E+03  0.66377973142E+03  0.00000000000E+00 0. -1.
         -2   -1    0    0    0  501 -0.00000000000E+00 -0.00000000000E+00 -0.13109302050E+03  0.13109302050E+03  0.00000000000E+00 0.  1.
         25    2    1    2    0    0 -0.25902568828E+03  0.26919626820E+02  0.15952407714E+03  0.33002169076E+03  0.12508961465E+03 0.  0.
          5    1    3    3  502    0 -0.20365037601E+03  0.38001124238E+02  0.17510749856E+03  0.27128890420E+03  0.41800000000E+01 0. -1.
         -5    1    3    3    0  502 -0.55375312270E+02 -0.11081497417E+02 -0.15583421423E+02  0.58732786561E+02  0.41800000000E+01 0. -1.
        -11    1    1    2    0    0  0.15098007671E+03 -0.35912608571E+02  0.14569083861E+03  0.21286267749E+03  0.00000000000E+00 0.  1.
         11    1    1    2    0    0  0.10804561157E+03  0.89929817513E+01  0.22747179517E+03  0.25198838366E+03  0.00000000000E+00 0. -1.
</event>
<event>
 7    1  0.2644565E-009  0.1064754E+03  0.7561462E-02  0.1267240E+00
          2   -1    0    0  501    0  0.00000000000E+00  0.00000000000E+00  0.18738181493E+02  0.18738181493E+02  0.00000000000E+00 0. -1.
         -2   -1    0    0    0  501 -0.00000000000E+00 -0.00000000000E+00 -0.78643815698E+03  0.78643815698E+03  0.00000000000E+00 0.  1.
         25    2    1    2    0    0 -0.40910919506E+02 -0.81328658794E+01 -0.55190133507E+03  0.56743514176E+03  0.12509080545E+03 0.  0.
          5    1    3    3  502    0 -0.83549120527E+02  0.13562756687E+01 -0.28783917794E+03  0.29975183032E+03  0.41800000000E+01 0.  1.
         -5    1    3    3    0  502  0.42638201021E+02 -0.94891415481E+01 -0.26406215713E+03  0.26768331143E+03  0.41800000000E+01 0.  1.
        -11    1    1    2    0    0  0.51097685481E+02  0.31421815452E+02 -0.19753164216E+03  0.20643898276E+03  0.00000000000E+00 0.  1.
         11    1    1    2    0    0 -0.10186765975E+02 -0.23288949572E+02 -0.18266998259E+02  0.31302213957E+02  0.00000000000E+00 0. -1.
</event>
<event>
 7    1  0.2644565E-009  0.1459816E+03  0.7561462E-02  0.1205500E+00
         -1   -1    0    0    0  501 -0.00000000000E+00  0.00000000000E+00  0.40786329580E+02  0.40786329580E+02  0.00000000000E+00 0.  1.
          1   -1    0    0  501    0  0.00000000000E+00 -0.00000000000E+00 -0.65022825653E+03  0.65022825653E+03  0.00000000000E+00 0. -1.
         25    2    1    2    0    0  0.92370505466E+02  0.77895680921E+02 -0.33761054158E+03  0.37977239580E+03  0.12508456113E+03 0.  0.
          5    1    3    3  502    0  0.52724446488E+02  0.10569213343E+03 -0.28288996868E+03  0.30658587884E+03  0.41800000000E+01 0. -1.
         -5    1    3    3    0  502  0.39646058979E+02 -0.27796452509E+02 -0.54720572902E+02  0.73186516950E+02  0.41800000000E+01 0. -1.
        -11    1    1    2    0    0 -0.35275379741E+02 -0.51132682165E+02 -0.47450276909E+02  0.78169254698E+02  0.00000000000E+00 0.  1.
         11    1    1    2    0    0 -0.57095125725E+02 -0.26762998756E+02 -0.22438110846E+03  0.23307293562E+03  0.00000000000E+00 0. -1.
</event>
<event>
 7    1  0.2644565E-009  0.1147124E+03  0.7561462E-02  0.1252084E+00
         -2   -1    0    0    0  501 -0.00000000000E+00  0.00000000000E+00  0.30220926983E+02  0.30220926983E+02  0.00000000000E+00 0.  1.
          2   -1    0    0  501    0  0.00000000000E+00 -0.00000000000E+00 -0.46096123983E+03  0.46096123983E+03  0.00000000000E+00 0. -1.
         25    2    1    2    0    0  0.29759933146E+02 -0.28404792136E+02 -0.20079719232E+03  0.24012495423E+03  0.12509194765E+03 0.  0.
          5    1    3    3  502    0 -0.46247457193E+02 -0.25731346220E+02 -0.10570791551E+03  0.11829017405E+03  0.41800000000E+01 0. -1.
         -5    1    3    3    0  502  0.76007390339E+02 -0.26734459158E+01 -0.95089276808E+02  0.12183478019E+03  0.41800000000E+01 0. -1.
        -11    1    1    2    0    0 -0.62260640334E+02  0.10754192531E+02 -0.13136819024E+03  0.14577256738E+03  0.00000000000E+00 0.  1.
         11    1    1    2    0    0  0.32500707189E+02  0.17650599605E+02 -0.98574930286E+02  0.10528464520E+03  0.00000000000E+00 0. -1.
</event>
<event>
 7    1  0.2644565E-009  0.8832477E+02  0.7561462E-02  0.1306960E+00
         -1   -1    0    0    0  501 -0.00000000000E+00  0.00000000000E+00  0.59451821470E+02  0.59451821470E+02  0.00000000000E+00 0.  1.
          1   -1    0    0  501    0  0.00000000000E+00 -0.00000000000E+00 -0.26579547517E+03  0.26579547517E+03  0.00000000000E+00 0. -1.
         25    2    1    2    0    0 -0.46925091868E+02  0.27958987082E+02 -0.15441139461E+03  0.20608978983E+03  0.12508578448E+03 0.  0.
          5    1    3    3  502    0  0.20403269215E+02  0.18738726325E+02  0.87023497147E+01  0.29336607669E+02  0.41800000000E+01 0. -1.
         -5    1    3    3    0  502 -0.67328361083E+02  0.92202607572E+01 -0.16311374433E+03  0.17675318216E+03  0.41800000000E+01 0. -1.
        -11    1    1    2    0    0  0.55398607042E+02 -0.44712890718E+01  0.61670346999E+01  0.55919856985E+02  0.00000000000E+00 0.  1.
         11    1    1    2    0    0 -0.84735151747E+01 -0.23487698011E+02 -0.58099293784E+02  0.63237649826E+02  0.00000000000E+00 0. -1.
</event>
<event>
 7    1  0.2644565E-009  0.9941539E+02  0.7561462E-02  0.1281530E+00
         -2   -1    0    0    0  501 -0.00000000000E+00  0.00000000000E+00  0.17076482211E+03  0.17076482211E+03  0.00000000000E+00 0.  1.
          2   -1    0    0  501    0  0.00000000000E+00 -0.00000000000E+00 -0.10268693956E+03  0.10268693956E+03  0.00000000000E+00 0. -1.
         25    2    1    2    0    0  0.15682031207E+02 -0.63118741181E+02 -0.11375685064E+01  0.14099411467E+03  0.12509254462E+03 0.  0.
          5    1    3    3  502    0 -0.84777459376E+01 -0.93901924937E+02  0.19778540469E+02  0.96426691046E+02  0.41800000000E+01 0. -1.
         -5    1    3    3    0  502  0.24159777144E+02  0.30783183755E+02 -0.20916108975E+02  0.44567423624E+02  0.41800000000E+01 0. -1.
        -11    1    1    2    0    0 -0.91971478675E+01  0.31118265245E+02  0.88690225029E+02  0.94439874929E+02  0.00000000000E+00 0.  1.
         11    1    1    2    0    0 -0.64848833394E+01  0.32000475936E+02 -0.19474773969E+02  0.38017772071E+02  0.00000000000E+00 0. -1.
</event>
<event>
 7    1  0.2644565E-009  0.1314732E+03  0.7561462E-02  0.1225286E+00
         -2   -1    0    0    0  501 -0.00000000000E+00  0.00000000000E+00  0.54544062673E+02  0.54544062673E+02  0.00000000000E+00 0.  1.
          2   -1    0    0  501    0  0.00000000000E+00 -0.00000000000E+00 -0.38268376678E+03  0.38268376678E+03  0.00000000000E+00 0. -1.
         25    2    1    2    0    0  0.80993197984E+02 -0.49223832685E+02 -0.16107607681E+03  0.22490192476E+03  0.12510990935E+03 0.  0.
          5    1    3    3  502    0  0.10712146452E+03 -0.57560095477E+02 -0.98845744682E+02  0.15676774666E+03  0.41800000000E+01 0. -1.
         -5    1    3    3    0  502 -0.26128266531E+02  0.83362627918E+01 -0.62230332125E+02  0.68134178102E+02  0.41800000000E+01 0. -1.
        -11    1    1    2    0    0 -0.83231284408E+02  0.59946163050E+02 -0.17203873004E+03  0.20029556611E+03  0.00000000000E+00 0. -1.
         11    1    1    2    0    0  0.22380864239E+01 -0.10722330365E+02  0.49751027356E+01  0.12030338587E+02  0.00000000000E+00 0.  1.
</event>
<event>
 7    1  0.2896135E-009  0.1136385E+03  0.7561462E-02  0.1253977E+00
          2   -1    0    0  501    0  0.00000000000E+00  0.00000000000E+00  0.46095658753E+03  0.46095658753E+03  0.00000000000E+00 0. -1.
         -2   -1    0    0    0  501 -0.00000000000E+00 -0.00000000000E+00 -0.33961934297E+02  0.33961934297E+02  0.00000000000E+00 0.  1.
         25    2    1    2    0    0  0.17180618236E+02  0.38972505931E+02  0.14836973798E+03  0.19868416376E+03  0.12509111846E+03 0.  0.
          5    1    3    3  502    0  0.16971396414E+02 -0.43266885402E+02  0.75334543079E+02  0.88616124095E+02  0.41800000000E+01 0. -1.
         -5    1    3    3    0  502  0.20922182270E+00  0.82239391333E+02  0.73035194904E+02  0.11006803966E+03  0.41800000000E+01 0. -1.
        -11    1    1    2    0    0 -0.53071397908E+02 -0.31136517044E+02  0.14202748946E+03  0.15478327988E+03  0.00000000000E+00 0. -1.
         11    1    1    2    0    0  0.35890779672E+02 -0.78359888869E+01  0.13659742579E+03  0.14145107819E+03  0.00000000000E+00 0.  1.
</event>
<event>
 7    1  0.2693708E-009  0.9941408E+02  0.7561462E-02  0.1281533E+00
         -1   -1    0    0    0  501 -0.00000000000E+00  0.00000000000E+00  0.65765739902E+02  0.65765739902E+02  0.00000000000E+00 0.  1.
          1   -1    0    0  501    0  0.00000000000E+00 -0.00000000000E+00 -0.26101686748E+03  0.26101686748E+03  0.00000000000E+00 0. -1.
         25    2    1    2    0    0 -0.22720628029E+02 -0.35648307766E+01 -0.20527913716E+02  0.12884188252E+03  0.12509956232E+03 0.  0.
          5    1    3    3  502    0 -0.61477323268E+02 -0.40108957526E+02 -0.15791152969E+02  0.75199884721E+02  0.41800000000E+01 0.  1.
         -5    1    3    3    0  502  0.38756695239E+02  0.36544126749E+02 -0.47367607465E+01  0.53641997801E+02  0.41800000000E+01 0.  1.
        -11    1    1    2    0    0  0.18886967466E+02  0.35231462606E+02 -0.30633460563E+02  0.50362509900E+02  0.00000000000E+00 0.  1.
         11    1    1    2    0    0  0.38336605636E+01 -0.31666631829E+02 -0.14408975330E+03  0.14757821496E+03  0.00000000000E+00 0. -1.
</event>
<event>
 7    1  0.2644565E-009  0.9609816E+02  0.7561462E-02  0.1288722E+00
          2   -1    0    0  501    0  0.00000000000E+00  0.00000000000E+00  0.17808577382E+03  0.17808577382E+03  0.00000000000E+00 0. -1.
         -2   -1    0    0    0  501 -0.00000000000E+00 -0.00000000000E+00 -0.11007115092E+03  0.11007115092E+03  0.00000000000E+00 0.  1.
         25    2    1    2    0    0  0.70137445966E+02 -0.25543177883E+02  0.81415457993E+02  0.16687604834E+03  0.12508966163E+03 0.  0.
          5    1    3    3  502    0  0.58506405912E+02 -0.42701342206E+02 -0.98271763272E+01  0.73215093755E+02  0.41800000000E+01 0.  1.
         -5    1    3    3    0  502  0.11631040054E+02  0.17158164323E+02  0.91242634320E+02  0.93660954582E+02  0.41800000000E+01 0.  1.
        -11    1    1    2    0    0 -0.11093730845E+02 -0.20710062482E+02 -0.35963201986E+02  0.42957297973E+02  0.00000000000E+00 0.  1.
         11    1    1    2    0    0 -0.59043715121E+02  0.46253240365E+02  0.22562366892E+02  0.78323578438E+02  0.00000000000E+00 0. -1.
</event>
<event>
 7    1  0.2644565E-009  0.1219293E+03  0.7561462E-02  0.1239948E+00
         -2   -1    0    0    0  501 -0.00000000000E+00  0.00000000000E+00  0.58921180732E+02  0.58921180732E+02  0.00000000000E+00 0.  1.
          2   -1    0    0  501    0  0.00000000000E+00 -0.00000000000E+00 -0.31266419552E+03  0.31266419552E+03  0.00000000000E+00 0. -1.
         25    2    1    2    0    0  0.58381355933E+02  0.10572485298E+02 -0.68163332699E+02  0.15431838413E+03  0.12509102122E+03 0.  0.
          5    1    3    3  502    0  0.45690692511E+02 -0.50609010217E+02 -0.60458168809E+02  0.91222660962E+02  0.41800000000E+01 0.  1.
         -5    1    3    3    0  502  0.12690663422E+02  0.61181495516E+02 -0.77051638904E+01  0.63095723169E+02  0.41800000000E+01 0.  1.
        -11    1    1    2    0    0 -0.64961384930E+02  0.30190103659E+02 -0.11432618368E+03  0.13491441793E+03  0.00000000000E+00 0.  1.
         11    1    1    2    0    0  0.65800289964E+01 -0.40762588958E+02 -0.71253498408E+02  0.82352574189E+02  0.00000000000E+00 0. -1.
</event>
<event>
 7    1  0.2644565E-009  0.1242674E+03  0.7561462E-02  0.1236219E+00
          1   -1    0    0  501    0  0.00000000000E+00  0.00000000000E+00  0.11433135867E+04  0.11433135867E+04  0.00000000000E+00 0. -1.
         -1   -1    0    0    0  501 -0.00000000000E+00 -0.00000000000E+00 -0.20731868918E+02  0.20731868918E+02  0.00000000000E+00 0.  1.
         25    2    1    2    0    0 -0.23289363330E+02  0.99045402067E+02  0.76537199423E+03  0.78217303640E+03  0.12509189908E+03 0.  0.
          5    1    3    3  502    0  0.49643526758E+01 -0.20100098895E+02  0.30646354202E+03  0.30719054960E+03  0.41800000000E+01 0. -1.
         -5    1    3    3    0  502 -0.28253716006E+02  0.11914550096E+03  0.45890845220E+03  0.47498248680E+03  0.41800000000E+01 0. -1.
        -11    1    1    2    0    0 -0.46373833644E+01 -0.30902653199E+02  0.20899167469E+02  0.37593277326E+02  0.00000000000E+00 0.  1.
         11    1    1    2    0    0  0.27926746694E+02 -0.68142748868E+02  0.33631055604E+03  0.34427914184E+03  0.00000000000E+00 0. -1.
</event>
<event>
 7    1  0.2644565E-009  0.1007523E+03  0.7561462E-02  0.1278722E+00
         -1   -1    0    0    0  501 -0.00000000000E+00  0.00000000000E+00  0.38703588513E+02  0.38703588513E+02  0.00000000000E+00 0.  1.
          1   -1    0    0  501    0  0.00000000000E+00 -0.00000000000E+00 -0.38490057335E+03  0.38490057335E+03  0.00000000000E+00 0. -1.
         25    2    1    2    0    0  0.22568430191E+02  0.19470442215E+02 -0.27195456298E+03  0.30082464497E+03  0.12509096905E+03 0.  0.
          5    1    3    3  502    0  0.69484925591E+02  0.57071211849E+01 -0.21278177177E+03  0.22395151465E+03  0.41800000000E+01 0.  1.
         -5    1    3    3    0  502 -0.46916495400E+02  0.13763321031E+02 -0.59172791211E+02  0.76873130326E+02  0.41800000000E+01 0.  1.
        -11    1    1    2    0    0  0.16974021800E+02  0.20329939601E+02  0.37031893465E+01  0.26742054363E+02  0.00000000000E+00 0.  1.
         11    1    1    2    0    0 -0.39542451991E+02 -0.39800381816E+02 -0.77945611204E+02  0.96037462524E+02  0.00000000000E+00 0. -1.
</event>
<event>
 7    1  0.2644565E-009  0.9385594E+02  0.7561462E-02  0.1293774E+00
          1   -1    0    0  501    0  0.00000000000E+00  0.00000000000E+00  0.29807009473E+03  0.29807009473E+03  0.00000000000E+00 0. -1.
         -1   -1    0    0    0  501 -0.00000000000E+00 -0.00000000000E+00 -0.41294802123E+02  0.41294802123E+02  0.00000000000E+00 0.  1.
         25    2    1    2    0    0 -0.10366269981E+02  0.15584157703E+02  0.17612435133E+03  0.21683852352E+03  0.12509529418E+03 0.  0.
          5    1    3    3  502    0  0.39043765866E+02  0.29997175285E+02  0.21626027201E+02  0.53938887925E+02  0.41800000000E+01 0.  1.
         -5    1    3    3    0  502 -0.49410035847E+02 -0.14413017582E+02  0.15449832413E+03  0.16289963559E+03  0.41800000000E+01 0.  1.
        -11    1    1    2    0    0 -0.34140907366E+02  0.96733925732E+01  0.54560424635E+02  0.65084683421E+02  0.00000000000E+00 0. -1.
         11    1    1    2    0    0  0.44507177347E+02 -0.25257550276E+02  0.26090516642E+02  0.57441689913E+02  0.00000000000E+00 0.  1.
</event>
<event>
 7    1  0.2644565E-009  0.1049020E+03  0.7561462E-02  0.1270313E+00
         -2   -1    0    0    0  501 -0.00000000000E+00  0.00000000000E+00  0.32794743771E+02  0.32794743771E+02  0.00000000000E+00 0.  1.
          2   -1    0    0  501    0  0.00000000000E+00 -0.00000000000E+00 -0.52523708182E+03  0.52523708182E+03  0.00000000000E+00 0. -1.
         25    2    1    2    0    0  0.52254515948E+02 -0.52173857237E+02 -0.23405525865E+03  0.27546598522E+03  0.12508796543E+03 0.  0.
          5    1    3    3  502    0 -0.27167445760E+02 -0.37885348441E+02 -0.28996052530E+02  0.55060087159E+02  0.41800000000E+01 0.  1.
         -5    1    3    3    0  502  0.79421961708E+02 -0.14288508796E+02 -0.20505920612E+03  0.22040589806E+03  0.41800000000E+01 0.  1.
        -11    1    1    2    0    0 -0.48047191967E+02  0.24003144465E+02 -0.24549381909E+03  0.25130041546E+03  0.00000000000E+00 0. -1.
         11    1    1    2    0    0 -0.42073239811E+01  0.28170712772E+02 -0.12893260303E+02  0.31265424904E+02  0.00000000000E+00 0.  1.
</event>
<event>
 7    1  0.2644565E-009  0.1024789E+03  0.7561462E-02  0.1275168E+00
          3   -1    0    0  501    0  0.00000000000E+00  0.00000000000E+00  0.40185827726E+03  0.40185827726E+03  0.00000000000E+00 0. -1.
         -3   -1    0    0    0  501 -0.00000000000E+00 -0.00000000000E+00 -0.46356717753E+02  0.46356717753E+02  0.00000000000E+00 0.  1.
         25    2    1    2    0    0 -0.63897172876E+02 -0.23493082481E+02  0.27317382409E+03  0.30806217455E+03  0.12507434427E+03 0.  0.
          5    1    3    3  502    0 -0.60829524828E+02 -0.65395768823E+02  0.12298564454E+03  0.15205189520E+03  0.41800000000E+01 0. -1.
         -5    1    3    3    0  502 -0.30676480480E+01  0.41902686342E+02  0.15018817954E+03  0.15601027935E+03  0.41800000000E+01 0. -1.
        -11    1    1    2    0    0  0.24958412029E+02  0.23652595467E+02  0.93516712688E+02  0.99638060777E+02  0.00000000000E+00 0. -1.
         11    1    1    2    0    0  0.38938760847E+02 -0.15951298626E+00 -0.11188977265E+02  0.40514759692E+02  0.00000000000E+00 0.  1.
</event>
<event>
 7    1  0.2644565E-009  0.7775262E+02  0.7561462E-02  0.1335553E+00
         -1   -1    0    0    0  501 -0.00000000000E+00  0.00000000000E+00  0.18952471791E+03  0.18952471791E+03  0.00000000000E+00 0.  1.
          1   -1    0    0  501    0  0.00000000000E+00 -0.00000000000E+00 -0.80412895347E+02  0.80412895347E+02  0.00000000000E+00 0. -1.
         25    2    1    2    0    0 -0.26447414230E+02 -0.39167059628E+02  0.32072881102E+02  0.13750878153E+03  0.12508585458E+03 0.  0.
          5    1    3    3  502    0  0.22442446994E+02 -0.45719128567E+02  0.61467900214E+02  0.79935457093E+02  0.41800000000E+01 0. -1.
         -5    1    3    3    0  502 -0.48889861223E+02  0.65520689390E+01 -0.29395019112E+02  0.57573324434E+02  0.41800000000E+01 0. -1.
        -11    1    1    2    0    0  0.12057699965E+02  0.38664923776E+02  0.98547558415E+02  0.10654569784E+03  0.00000000000E+00 0.  1.
         11    1    1    2    0    0  0.14389714265E+02  0.50213585213E+00 -0.21508616949E+02  0.25883133892E+02  0.00000000000E+00 0. -1.
</event>
<event>
 7    1  0.2644565E-009  0.2722966E+03  0.7561462E-02  0.1099972E+00
         -2   -1    0    0    0  501 -0.00000000000E+00  0.00000000000E+00  0.10888061276E+03  0.10888061276E+03  0.00000000000E+00 0.  1.
          2   -1    0    0  501    0  0.00000000000E+00 -0.00000000000E+00 -0.78047680890E+03  0.78047680890E+03  0.00000000000E+00 0. -1.
         25    2    1    2    0    0  0.85529326137E+02 -0.25252372246E+03 -0.27308003903E+03  0.40162518105E+03  0.12508629942E+03 0.  0.
          5    1    3    3  502    0  0.59207585930E+01 -0.49609691872E+02  0.25463479787E+01  0.50200928259E+02  0.41800000000E+01 0. -1.
         -5    1    3    3    0  502  0.79608567544E+02 -0.20291403059E+03 -0.27562638701E+03  0.35142425279E+03  0.41800000000E+01 0. -1.
        -11    1    1    2    0    0 -0.15524186319E+02  0.15831301995E+03 -0.18419321597E+03  0.24337451275E+03  0.00000000000E+00 0.  1.
         11    1    1    2    0    0 -0.70005139818E+02  0.94210702514E+02 -0.21432294114E+03  0.24435772787E+03  0.00000000000E+00 0. -1.
</event>
<event>
 7    1  0.2644565E-009  0.2117270E+03  0.7561462E-02  0.1140206E+00
         -1   -1    0    0    0  501 -0.00000000000E+00  0.00000000000E+00  0.70671281331E+03  0.70671281331E+03  0.00000000000E+00 0.  1.
          1   -1    0    0  501    0  0.00000000000E+00 -0.00000000000E+00 -0.77629269126E+02  0.77629269126E+02  0.00000000000E+00 0. -1.
         25    2    1    2    0    0  0.10894567415E+03  0.14881400856E+03  0.16699301869E+03  0.27847480194E+03  0.12508708153E+03 0.  0.
          5    1    3    3  502    0 -0.48814502087E+01  0.88525600610E+02  0.98274432858E+02  0.13242336302E+03  0.41800000000E+01 0. -1.
         -5    1    3    3    0  502  0.11382712436E+03  0.60288407951E+02  0.68718585835E+02  0.14605143892E+03  0.41800000000E+01 0. -1.
        -11    1    1    2    0    0 -0.92531558183E+02 -0.49075216966E+02  0.23089421683E+03  0.25354014583E+03  0.00000000000E+00 0.  1.
         11    1    1    2    0    0 -0.16414115963E+02 -0.99738791595E+02  0.23119630866E+03  0.25232713467E+03  0.00000000000E+00 0. -1.
</event>
<event>
 7    1  0.2644565E-009  0.1328400E+03  0.7561462E-02  0.1223301E+00
          2   -1    0    0  501    0  0.00000000000E+00  0.00000000000E+00  0.10276862390E+04  0.10276862390E+04  0.00000000000E+00 0. -1.
         -2   -1    0    0    0  501 -0.00000000000E+00 -0.00000000000E+00 -0.27773408734E+02  0.27773408734E+02  0.00000000000E+00 0.  1.
         25    2    1    2    0    0 -0.30195195815E+02  0.10268394926E+03  0.75966147056E+03  0.77729499175E+03  0.12508481552E+03 0.  0.
          5    1    3    3  502    0 -0.46501847894E+02  0.89719464536E+01  0.99185656851E+02  0.10999174790E+03  0.41800000000E+01 0.  1.
         -5    1    3    3    0  502  0.16306652078E+02  0.93712002809E+02  0.66047581370E+03  0.66730324386E+03  0.41800000000E+01 0.  1.
        -11    1    1    2    0    0  0.46911779763E+02 -0.54426584466E+02  0.69601666720E+02  0.10003679417E+03  0.00000000000E+00 0.  1.
         11    1    1    2    0    0 -0.16716583948E+02 -0.48257364797E+02  0.17064969300E+03  0.17812786183E+03  0.00000000000E+00 0. -1.
</event>
<event>
 7    1  0.2644565E-009  0.1025112E+03  0.7561462E-02  0.1275102E+00
         -1   -1    0    0    0  501 -0.00000000000E+00  0.00000000000E+00  0.64010659208E+03  0.64010659208E+03  0.00000000000E+00 0.  1.
          1   -1    0    0  501    0  0.00000000000E+00 -0.00000000000E+00 -0.19964887531E+02  0.19964887531E+02  0.00000000000E+00 0. -1.
         25    2    1    2    0    0 -0.28005339913E+02  0.31143090087E-01  0.29027486629E+03  0.31731956539E+03  0.12509160062E+03 0.  0.
          5    1    3    3  502    0  0.41310602556E+02 -0.85642306252E+01  0.19233633616E+03  0.19695342225E+03  0.41800000000E+01 0.  1.
         -5    1    3    3    0  502 -0.69315942469E+02  0.85953737152E+01  0.97938530136E+02  0.12036614314E+03  0.41800000000E+01 0.  1.
        -11    1    1    2    0    0  0.23516120448E+02 -0.43236001034E+02  0.19174321140E+03  0.19795913423E+03  0.00000000000E+00 0. -1.
         11    1    1    2    0    0  0.44892194653E+01  0.43204857944E+02  0.13812362686E+03  0.14479277999E+03  0.00000000000E+00 0.  1.
</event>
<event>
 7    1  0.2644565E-009  0.9746408E+02  0.7561462E-02  0.1285721E+00
         -2   -1    0    0    0  501 -0.00000000000E+00  0.00000000000E+00  0.23878139880E+03  0.23878139880E+03  0.00000000000E+00 0.  1.
          2   -1    0    0  501    0  0.00000000000E+00 -0.00000000000E+00 -0.61257577462E+02  0.61257577462E+02  0.00000000000E+00 0. -1.
         25    2    1    2    0    0  0.35326263350E+02  0.31469367390E+02  0.10722057584E+03  0.17141132931E+03  0.12508927199E+03 0.  0.
          5    1    3    3  502    0  0.30646870067E+02 -0.19736094152E+02  0.11364804868E+03  0.11942401528E+03  0.41800000000E+01 0. -1.
         -5    1    3    3    0  502  0.46793932821E+01  0.51205461543E+02 -0.64274728364E+01  0.51987314033E+02  0.41800000000E+01 0. -1.
        -11    1    1    2    0    0 -0.14375972417E+02 -0.65296093241E+02  0.35161901783E+02  0.75542092322E+02  0.00000000000E+00 0.  1.
         11    1    1    2    0    0 -0.20950290933E+02  0.33826725851E+02  0.35141343712E+02  0.53085554625E+02  0.00000000000E+00 0. -1.
</event>
<event>
 7    1  0.2644565E-009  0.2904743E+03  0.7561462E-02  0.1090102E+00
          3   -1    0    0  501    0  0.00000000000E+00  0.00000000000E+00  0.37219313753E+03  0.37219313753E+03  0.00000000000E+00 0. -1.
         -3   -1    0    0    0  501 -0.00000000000E+00 -0.00000000000E+00 -0.23871541835E+03  0.23871541835E+03  0.00000000000E+00 0.  1.
         25    2    1    2    0    0  0.25034772100E+03  0.11836383217E+03  0.28729787302E+02  0.30521563070E+03  0.12508877796E+03 0.  0.
          5    1    3    3  502    0  0.97598771725E+02  0.10836880187E+03  0.41116408924E+02  0.15158281217E+03  0.41800000000E+01 0. -1.
         -5    1    3    3    0  502  0.15274894927E+03  0.99950302922E+01 -0.12386621621E+02  0.15363281853E+03  0.41800000000E+01 0. -1.
        -11    1    1    2    0    0 -0.77652754665E+02 -0.64702440790E+02  0.10093137646E+02  0.10157867679E+03  0.00000000000E+00 0.  1.
         11    1    1    2    0    0 -0.17269496633E+03 -0.53661391377E+02  0.94654794236E+02  0.20411424838E+03  0.00000000000E+00 0. -1.
</event>
<event>
 7    1  0.2644565E-009  0.7827149E+02  0.7561462E-02  0.1334030E+00
         -2   -1    0    0    0  501 -0.00000000000E+00  0.00000000000E+00  0.79673839670E+02  0.79673839670E+02  0.00000000000E+00 0.  1.
          2   -1    0    0  501    0  0.00000000000E+00 -0.00000000000E+00 -0.17732528313E+03  0.17732528313E+03  0.00000000000E+00 0. -1.
         25    2    1    2    0    0  0.34079608261E+02 -0.33641699737E+01 -0.97184709467E+02  0.16206025700E+03  0.12508365922E+03 0.  0.
          5    1    3    3  502    0  0.61268934258E+02 -0.21135892510E+02 -0.60597523444E+01  0.65228837609E+02  0.41800000000E+01 0. -1.
         -5    1    3    3    0  502 -0.27189325997E+02  0.17771722536E+02 -0.91124957123E+02  0.96831419388E+02  0.41800000000E+01 0. -1.
        -11    1    1    2    0    0  0.10589864341E+02  0.89024242411E+01 -0.35370614180E+02  0.37979978036E+02  0.00000000000E+00 0. -1.
         11    1    1    2    0    0 -0.44669472602E+02 -0.55382542674E+01  0.34903880191E+02  0.56958887763E+02  0.00000000000E+00 0.  1.
</event>
<event>
 7    1  0.2644565E-009  0.1721098E+03  0.7561462E-02  0.1175665E+00
          2   -1    0    0  501    0  0.00000000000E+00  0.00000000000E+00  0.19365873285E+04  0.19365873285E+04  0.00000000000E+00 0. -1.
         -2   -1    0    0    0  501 -0.00000000000E+00 -0.00000000000E+00 -0.26714220917E+02  0.26714220917E+02  0.00000000000E+00 0.  1.
         25    2    1    2    0    0 -0.29647102799E+02  0.12970858307E+03  0.16233951495E+04  0.16336347218E+04  0.12508927052E+03 0.  0.
          5    1    3    3  502    0  0.21664939392E+02 -0.15667050185E+02  0.32149108611E+03  0.32262798532E+03  0.41800000000E+01 0.  1.
         -5    1    3    3    0  502 -0.51312042191E+02  0.14537563325E+03  0.13019040634E+04  0.13110067365E+04  0.41800000000E+01 0.  1.
        -11    1    1    2    0    0 -0.33158118181E+02 -0.27997940391E+02  0.83513393765E+02  0.94116058171E+02  0.00000000000E+00 0.  1.
         11    1    1    2    0    0  0.62805220981E+02 -0.10171064268E+03  0.20296456423E+03  0.23555076937E+03  0.00000000000E+00 0. -1.
</event>
<event>
 7    1  0.2644565E-009  0.1603254E+03  0.7561462E-02  0.1188330E+00
          2   -1    0    0  501    0  0.00000000000E+00  0.00000000000E+00  0.90490503455E+02  0.90490503455E+02  0.00000000000E+00 0. -1.
         -2   -1    0    0    0  501 -0.00000000000E+00 -0.00000000000E+00 -0.42952208951E+03  0.42952208951E+03  0.00000000000E+00 0.  1.
         25    2    1    2    0    0  0.93262263291E+02 -0.90754809538E+02 -0.30944085328E+03  0.35824079025E+03  0.12509411222E+03 0.  0.
          5    1    3    3  502    0 -0.17504138586E+02 -0.52136996847E+02 -0.15315747767E+03  0.16278619927E+03  0.41800000000E+01 0. -1.
         -5    1    3    3    0  502  0.11076640188E+03 -0.38617812691E+02 -0.15628337561E+03  0.19545459098E+03  0.41800000000E+01 0. -1.
        -11    1    1    2    0    0 -0.25636831561E+02  0.74184748503E+02 -0.44981346971E+02  0.90465162456E+02  0.00000000000E+00 0. -1.
         11    1    1    2    0    0 -0.67625431731E+02  0.16570061035E+02  0.15390614196E+02  0.71306640257E+02  0.00000000000E+00 0.  1.
</event>
<event>
 7    1  0.2644565E-009  0.2131948E+03  0.7561462E-02  0.1139061E+00
         -1   -1    0    0    0  501 -0.00000000000E+00  0.00000000000E+00  0.83695555205E+02  0.83695555205E+02  0.00000000000E+00 0.  1.
          1   -1    0    0  501    0  0.00000000000E+00 -0.00000000000E+00 -0.74249511322E+03  0.74249511322E+03  0.00000000000E+00 0. -1.
         25    2    1    2    0    0  0.94770685567E+02  0.17707284240E+03 -0.17300839679E+03  0.29311495825E+03  0.12509276170E+03 0.  0.
          5    1    3    3  502    0  0.99149832386E+02  0.18512986592E+03 -0.12579495834E+03  0.24483790650E+03  0.41800000000E+01 0. -1.
         -5    1    3    3    0  502 -0.43791468192E+01 -0.80570235190E+01 -0.47213438450E+02  0.48277051744E+02  0.41800000000E+01 0. -1.
        -11    1    1    2    0    0 -0.31961188874E+02 -0.21586833271E+02 -0.34915548706E+02  0.52025037303E+02  0.00000000000E+00 0. -1.
         11    1    1    2    0    0 -0.62809496693E+02 -0.15548600913E+03 -0.45087561252E+03  0.48105067287E+03  0.00000000000E+00 0.  1.
</event>
<event>
 7    1  0.2644565E-009  0.1403663E+03  0.7561462E-02  0.1212837E+00
         -1   -1    0    0    0  501 -0.00000000000E+00  0.00000000000E+00  0.13669257426E+03  0.13669257426E+03  0.00000000000E+00 0.  1.
          1   -1    0    0  501    0  0.00000000000E+00 -0.00000000000E+00 -0.28453289034E+03  0.28453289034E+03  0.00000000000E+00 0. -1.
         25    2    1    2    0    0  0.11350006046E+03 -0.70170292430E+02  0.25077193449E+02  0.18458092601E+03  0.12504046925E+03 0.  0.
          5    1    3    3  502    0  0.22309750735E+02 -0.67906448813E+01 -0.46643824156E+02  0.52315930343E+02  0.41800000000E+01 0.  1.
         -5    1    3    3    0  502  0.91190309727E+02 -0.63379647548E+02  0.71721017605E+02  0.13226499566E+03  0.41800000000E+01 0.  1.
        -11    1    1    2    0    0 -0.49288941035E+02  0.64882586406E+02 -0.14521485010E+03  0.16651276953E+03  0.00000000000E+00 0. -1.
         11    1    1    2    0    0 -0.64211119427E+02  0.52877060234E+01 -0.27702659426E+02  0.70131769066E+02  0.00000000000E+00 0.  1.
</event>
<event>
 7    1  0.2644565E-009  0.9809987E+02  0.7561462E-02  0.1284343E+00
          1   -1    0    0  501    0  0.00000000000E+00  0.00000000000E+00  0.86183194172E+02  0.86183194172E+02  0.00000000000E+00 0. -1.
         -1   -1    0    0    0  501 -0.00000000000E+00 -0.00000000000E+00 -0.23255327019E+03  0.23255327019E+03  0.00000000000E+00 0.  1.
         25    2    1    2    0    0 -0.14863874708E+02  0.63791394389E+02 -0.11641576823E+03  0.18300488358E+03  0.12509148473E+03 0.  0.
          5    1    3    3  502    0 -0.23085284669E+02  0.32624368699E+02  0.18493601777E+02  0.44235342295E+02  0.41800000000E+01 0.  1.
         -5    1    3    3    0  502  0.82214099609E+01  0.31167025690E+02 -0.13490937001E+03  0.13876954128E+03  0.41800000000E+01 0.  1.
        -11    1    1    2    0    0 -0.36658325236E+02 -0.61918536704E+02 -0.41265310911E+02  0.82949164440E+02  0.00000000000E+00 0. -1.
         11    1    1    2    0    0  0.51522199945E+02 -0.18728576845E+01  0.11311003126E+02  0.52782416341E+02  0.00000000000E+00 0.  1.
</event>
<event>
 7    1  0.2644565E-009  0.1478744E+03  0.7561462E-02  0.1203110E+00
          1   -1    0    0  501    0  0.00000000000E+00  0.00000000000E+00  0.57069701356E+03  0.57069701356E+03  0.00000000000E+00 0. -1.
         -1   -1    0    0    0  501 -0.00000000000E+00 -0.00000000000E+00 -0.52052966290E+02  0.52052966290E+02  0.00000000000E+00 0.  1.
         25    2    1    2    0    0 -0.26876964979E+02  0.13121666821E+03  0.27369989374E+03  0.32939093493E+03  0.12508625392E+03 0.  0.
          5    1    3    3  502    0 -0.21042293944E+02  0.87078962906E+02  0.52929093546E+02  0.10413685831E+03  0.41800000000E+01 0.  1.
         -5    1    3    3    0  502 -0.58346710351E+01  0.44137705306E+02  0.22077080020E+03  0.22525407662E+03  0.41800000000E+01 0.  1.
        -11    1    1    2    0    0  0.10502548248E+02 -0.14158078773E+03  0.21226542052E+03  0.25536646554E+03  0.00000000000E+00 0.  1.
         11    1    1    2    0    0  0.16374416731E+02  0.10364119517E+02  0.32678733014E+02  0.37992579381E+02  0.00000000000E+00 0. -1.
</event>
<event>
 7    1  0.2644565E-009  0.1211494E+03  0.7561462E-02  0.1241213E+00
          2   -1    0    0  501    0  0.00000000000E+00  0.00000000000E+00  0.56645650271E+03  0.56645650271E+03  0.00000000000E+00 0. -1.
         -2   -1    0    0    0  501 -0.00000000000E+00 -0.00000000000E+00 -0.44206450601E+02  0.44206450601E+02  0.00000000000E+00 0.  1.
         25    2    1    2    0    0 -0.28791058860E+02  0.87934068900E+02  0.14784891446E+03  0.21463622451E+03  0.12509229321E+03 0.  0.
          5    1    3    3  502    0  0.26097400568E+02  0.24327653284E+02  0.12117823446E+03  0.12639045034E+03  0.41800000000E+01 0. -1.
         -5    1    3    3    0  502 -0.54888459429E+02  0.63606415616E+02  0.26670679996E+02  0.88245774162E+02  0.41800000000E+01 0. -1.
        -11    1    1    2    0    0  0.46400866881E+02 -0.93000944020E+02  0.35233157296E+03  0.36734146695E+03  0.00000000000E+00 0. -1.
         11    1    1    2    0    0 -0.17609808021E+02  0.50668751204E+01  0.22069564686E+02  0.28685261851E+02  0.00000000000E+00 0.  1.
</event>
<event>
 7    1  0.2644565E-009  0.1392994E+03  0.7561462E-02  0.1214275E+00
         -1   -1    0    0    0  501 -0.00000000000E+00  0.00000000000E+00  0.34406635559E+02  0.34406635559E+02  0.00000000000E+00 0.  1.
          1   -1    0    0  501    0  0.00000000000E+00 -0.00000000000E+00 -0.91367697495E+03  0.91367697495E+03  0.00000000000E+00 0. -1.
         25    2    1    2    0    0  0.99176003215E+02 -0.84020738087E+02 -0.60457068786E+03  0.63091080400E+03  0.12508941575E+03 0.  0.
          5    1    3    3  502    0  0.53258706890E+02 -0.34767755428E+01 -0.42893179880E+03  0.43225980411E+03  0.41800000000E+01 0. -1.
         -5    1    3    3    0  502  0.45917296325E+02 -0.80543962544E+02 -0.17563888906E+03  0.19865099988E+03  0.41800000000E+01 0. -1.
        -11    1    1    2    0    0 -0.35344614490E+02  0.15450809090E+02 -0.15515528998E+02  0.41577649225E+02  0.00000000000E+00 0. -1.
         11    1    1    2    0    0 -0.63831388725E+02  0.68569928997E+02 -0.25918412253E+03  0.27559515729E+03  0.00000000000E+00 0.  1.
</event>
<event>
 7    1  0.2644565E-009  0.1310538E+03  0.7561462E-02  0.1225900E+00
         -1   -1    0    0    0  501 -0.00000000000E+00  0.00000000000E+00  0.85104050720E+03  0.85104050720E+03  0.00000000000E+00 0.  1.
          1   -1    0    0  501    0  0.00000000000E+00 -0.00000000000E+00 -0.24919934342E+02  0.24919934342E+02  0.00000000000E+00 0. -1.
         25    2    1    2    0    0 -0.38292981839E+02 -0.82726998560E+02  0.54718270693E+03  0.56865385793E+03  0.12509271209E+03 0.  0.
          5    1    3    3  502    0 -0.20094043974E+02 -0.11497068169E+03  0.38973223808E+03  0.40685466453E+03  0.41800000000E+01 0.  1.
         -5    1    3    3    0  502 -0.18198937865E+02  0.32243683130E+02  0.15745046885E+03  0.16179919339E+03  0.41800000000E+01 0.  1.
        -11    1    1    2    0    0  0.19208321512E+02  0.86498301846E+02  0.27292063261E+03  0.28694352675E+03  0.00000000000E+00 0. -1.
         11    1    1    2    0    0  0.19084660328E+02 -0.37713032858E+01  0.60172333127E+01  0.20363056869E+02  0.00000000000E+00 0.  1.
</event>
<event>
 7    1  0.2644565E-009  0.2286775E+03  0.7561462E-02  0.1127574E+00
         -1   -1    0    0    0  501 -0.00000000000E+00  0.00000000000E+00  0.12522287396E+03  0.12522287396E+03  0.00000000000E+00 0.  1.
          1   -1    0    0  501    0  0.00000000000E+00 -0.00000000000E+00 -0.51272435430E+03  0.51272435430E+03  0.00000000000E+00 0. -1.
         25    2    1    2    0    0 -0.34546482593E+02  0.21511507406E+03 -0.28585483826E+03  0.38056429045E+03  0.12509290971E+03 0.  0.
          5    1    3    3  502    0 -0.16980289952E+02  0.18490264551E+03 -0.29077108221E+03  0.34502552546E+03  0.41800000000E+01 0.  1.
         -5    1    3    3    0  502 -0.17566192641E+02  0.30212428548E+02  0.49162439515E+01  0.35538764993E+02  0.41800000000E+01 0.  1.
        -11    1    1    2    0    0  0.16047272326E+02  0.39978024891E+01 -0.81867159732E+01  0.18453175669E+02  0.00000000000E+00 0.  1.
         11    1    1    2    0    0  0.18499210266E+02 -0.21911287655E+03 -0.93459926100E+02  0.23892976214E+03  0.00000000000E+00 0. -1.
</event>
<event>
 7    1  0.2644565E-009  0.1389754E+03  0.7561462E-02  0.1214714E+00
          1   -1    0    0  501    0  0.00000000000E+00  0.00000000000E+00  0.83133773757E+03  0.83133773757E+03  0.00000000000E+00 0. -1.
         -1   -1    0    0    0  501 -0.00000000000E+00 -0.00000000000E+00 -0.30163039347E+02  0.30163039347E+02  0.00000000000E+00 0.  1.
         25    2    1    2    0    0  0.82707662689E+02  0.52479603883E+02  0.58458733729E+03  0.60579158138E+03  0.12508564612E+03 0.  0.
          5    1    3    3  502    0 -0.28213408022E+02  0.10265241344E+02  0.22665092314E+03  0.22866894177E+03  0.41800000000E+01 0. -1.
         -5    1    3    3    0  502  0.11092107071E+03  0.42214362539E+02  0.35793641415E+03  0.37712263961E+03  0.41800000000E+01 0. -1.
        -11    1    1    2    0    0  0.58640406276E+01 -0.38823596641E+02  0.32512348627E+02  0.50977558219E+02  0.00000000000E+00 0.  1.
         11    1    1    2    0    0 -0.88571703317E+02 -0.13656007242E+02  0.18407501231E+03  0.20473163732E+03  0.00000000000E+00 0. -1.
</event>
<event>
 7    1  0.2644565E-009  0.2971106E+03  0.7561462E-02  0.1086694E+00
          1   -1    0    0  501    0  0.00000000000E+00  0.00000000000E+00  0.18770828239E+04  0.18770828239E+04  0.00000000000E+00 0. -1.
         -1   -1    0    0    0  501 -0.00000000000E+00 -0.00000000000E+00 -0.53682123394E+02  0.53682123394E+02  0.00000000000E+00 0.  1.
         25    2    1    2    0    0  0.29284847549E+02  0.28713711163E+03  0.11534751082E+04  0.11956002607E+04  0.12509929990E+03 0.  0.
          5    1    3    3  502    0 -0.43273335615E+01  0.26309095377E+03  0.10757612517E+04  0.11074815207E+04  0.41800000000E+01 0. -1.
         -5    1    3    3    0  502  0.33612181111E+02  0.24046157864E+02  0.77713856580E+02  0.88118739957E+02  0.41800000000E+01 0. -1.
        -11    1    1    2    0    0 -0.17818699775E+02 -0.75462658306E+02  0.96383722398E+02  0.12370101375E+03  0.00000000000E+00 0.  1.
         11    1    1    2    0    0 -0.11466147774E+02 -0.21167445333E+03  0.57354186987E+03  0.61146367286E+03  0.00000000000E+00 0. -1.
</event>
<event>
 7    1  0.2644565E-009  0.6875418E+02  0.7561462E-02  0.1364381E+00
         -1   -1    0    0    0  501 -0.00000000000E+00  0.00000000000E+00  0.26063737971E+02  0.26063737971E+02  0.00000000000E+00 0.  1.
          1   -1    0    0  501    0  0.00000000000E+00 -0.00000000000E+00 -0.65922484405E+03  0.65922484405E+03  0.00000000000E+00 0. -1.
         25    2    1    2    0    0 -0.55063731518E+01  0.15695125807E+02 -0.54010987393E+03  0.55465568492E+03  0.12509035047E+03 0.  0.
          5    1    3    3  502    0  0.12484059690E+02 -0.82837463474E+01 -0.19855067064E+01  0.15680779215E+02  0.41800000000E+01 0. -1.
         -5    1    3    3    0  502 -0.17990432842E+02  0.23978872154E+02 -0.53812436722E+03  0.53897490571E+03  0.41800000000E+01 0. -1.
        -11    1    1    2    0    0  0.45471869333E+02 -0.23159342383E+02 -0.51900123097E+02  0.72785086506E+02  0.00000000000E+00 0.  1.
         11    1    1    2    0    0 -0.39965496182E+02  0.74642165756E+01 -0.41151109054E+02  0.57847810594E+02  0.00000000000E+00 0. -1.
</event>
<event>
 7    1  0.2644565E-009  0.1240355E+03  0.7561462E-02  0.1236584E+00
          3   -1    0    0  501    0  0.00000000000E+00  0.00000000000E+00  0.10611875827E+04  0.10611875827E+04  0.00000000000E+00 0. -1.
         -3   -1    0    0    0  501 -0.00000000000E+00 -0.00000000000E+00 -0.17504814248E+02  0.17504814248E+02  0.00000000000E+00 0.  1.
         25    2    1    2    0    0  0.48898645549E+02 -0.66874541901E+02  0.60832405620E+03  0.62655387347E+03  0.12509323371E+03 0.  0.
          5    1    3    3  502    0  0.90520248404E+02 -0.34858395162E+02  0.41202945006E+03  0.42331402434E+03  0.41800000000E+01 0.  1.
         -5    1    3    3    0  502 -0.41621602856E+02 -0.32016146739E+02  0.19629460614E+03  0.20323984914E+03  0.41800000000E+01 0.  1.
        -11    1    1    2    0    0 -0.58352883513E+02  0.42585375771E+02  0.40802194893E+03  0.41436757119E+03  0.00000000000E+00 0.  1.
         11    1    1    2    0    0  0.94542379643E+01  0.24289166130E+02  0.27336763271E+02  0.37770952237E+02  0.00000000000E+00 0. -1.
</event>
<event>
 7    1  0.2644565E-009  0.9136123E+02  0.7561462E-02  0.1299588E+00
         -1   -1    0    0    0  501 -0.00000000000E+00  0.00000000000E+00  0.42737841602E+03  0.42737841602E+03  0.00000000000E+00 0.  1.
          1   -1    0    0  501    0  0.00000000000E+00 -0.00000000000E+00 -0.32791405930E+02  0.32791405930E+02  0.00000000000E+00 0. -1.
         25    2    1    2    0    0 -0.24561301075E+00  0.16635040567E+01  0.27083508025E+03  0.29833372317E+03  0.12509413301E+03 0.  0.
          5    1    3    3  502    0 -0.29427593288E+02 -0.41029482999E+02  0.21977905614E+03  0.22554313920E+03  0.41800000000E+01 0.  1.
         -5    1    3    3    0  502  0.29181980277E+02  0.42692987056E+02  0.51056024110E+02  0.72790583969E+02  0.41800000000E+01 0.  1.
        -11    1    1    2    0    0  0.25142144038E+02 -0.32151122219E+02  0.11428177956E+03  0.12135133789E+03  0.00000000000E+00 0.  1.
         11    1    1    2    0    0 -0.24896531027E+02  0.30487618162E+02  0.94701502733E+01  0.40484760893E+02  0.00000000000E+00 0. -1.
</event>
<event>
 7    1  0.2644565E-009  0.1074903E+03  0.7561462E-02  0.1265289E+00
          2   -1    0    0  501    0  0.00000000000E+00  0.00000000000E+00  0.92585077597E+03  0.92585077597E+03  0.00000000000E+00 0. -1.
         -2   -1    0    0    0  501 -0.00000000000E+00 -0.00000000000E+00 -0.17006329655E+02  0.17006329655E+02  0.00000000000E+00 0.  1.
         25    2    1    2    0    0  0.38897258290E+02  0.34529183049E+02  0.74348425105E+03  0.75572659142E+03  0.12509431732E+03 0.  0.
          5    1    3    3  502    0 -0.34813464391E+02 -0.19474805668E+02  0.15161240921E+03  0.15682805994E+03  0.41800000000E+01 0.  1.
         -5    1    3    3    0  502  0.73710722681E+02  0.54003988716E+02  0.59187184185E+03  0.59889853148E+03  0.41800000000E+01 0.  1.
        -11    1    1    2    0    0 -0.32105212192E+02 -0.53974975316E+02  0.14568914913E+03  0.15864857637E+03  0.00000000000E+00 0. -1.
         11    1    1    2    0    0 -0.67920460977E+01  0.19445792267E+02  0.19671046138E+02  0.28481937842E+02  0.00000000000E+00 0.  1.
</event>
<event>
 7    1  0.2644565E-009  0.9172957E+02  0.7561462E-02  0.1298717E+00
         -4   -1    0    0    0  501 -0.00000000000E+00  0.00000000000E+00  0.23623388223E+03  0.23623388223E+03  0.00000000000E+00 0.  1.
          4   -1    0    0  501    0  0.00000000000E+00 -0.00000000000E+00 -0.81125975571E+02  0.81125975571E+02  0.00000000000E+00 0. -1.
         25    2    1    2    0    0 -0.34657672360E+02  0.26775941696E+02  0.31714702210E-02  0.13253563748E+03  0.12509032690E+03 0.  0.
          5    1    3    3  502    0 -0.56188236870E+02  0.22861911979E+02 -0.49398905690E+02  0.78342257213E+02  0.41800000000E+01 0. -1.
         -5    1    3    3    0  502  0.21530564510E+02  0.39140297175E+01  0.49402077160E+02  0.54193380264E+02  0.41800000000E+01 0. -1.
        -11    1    1    2    0    0 -0.10161488653E+02 -0.49214558876E+02  0.72842204233E+02  0.88494719473E+02  0.00000000000E+00 0. -1.
         11    1    1    2    0    0  0.44819161013E+02  0.22438617180E+02  0.82262530955E+02  0.96329500850E+02  0.00000000000E+00 0.  1.
</event>
<event>
 7    1  0.2909994E-009  0.1253895E+03  0.7561462E-02  0.1234462E+00
         -2   -1    0    0    0  501 -0.00000000000E+00  0.00000000000E+00  0.29221788874E+02  0.29221788874E+02  0.00000000000E+00 0.  1.
          2   -1    0    0  501    0  0.00000000000E+00 -0.00000000000E+00 -0.61994741809E+03  0.61994741809E+03  0.00000000000E+00 0. -1.
         25    2    1    2    0    0  0.49795420358E+02  0.62410238432E+02 -0.32027225660E+03  0.35298137172E+03  0.12508760405E+03 0.  0.
          5    1    3    3  502    0  0.88254367431E+02  0.23635347030E+02 -0.17005169295E+03  0.19308680347E+03  0.41800000000E+01 0.  1.
         -5    1    3    3    0  502 -0.38458947073E+02  0.38774891402E+02 -0.15022056365E+03  0.15989456825E+03  0.41800000000E+01 0.  1.
        -11    1    1    2    0    0 -0.61905228621E+02 -0.27766699779E+02 -0.93817619308E+02  0.11577993194E+03  0.00000000000E+00 0.  1.
         11    1    1    2    0    0  0.12109808263E+02 -0.34643538653E+02 -0.17663575331E+03  0.18040790330E+03  0.00000000000E+00 0. -1.
</event>
<event>
 7    1  0.2644565E-009  0.1027579E+03  0.7561462E-02  0.1274601E+00
         -2   -1    0    0    0  501 -0.00000000000E+00  0.00000000000E+00  0.16298329576E+02  0.16298329576E+02  0.00000000000E+00 0.  1.
          2   -1    0    0  501    0  0.00000000000E+00 -0.00000000000E+00 -0.81810698041E+03  0.81810698041E+03  0.00000000000E+00 0. -1.
         25    2    1    2    0    0 -0.16976637282E+02 -0.33888994946E+02 -0.48951031839E+03  0.50666135405E+03  0.12509478679E+03 0.  0.
          5    1    3    3  502    0  0.33814373255E+01  0.34345277029E+02 -0.47111308141E+02  0.58548953256E+02  0.41800000000E+01 0. -1.
         -5    1    3    3    0  502 -0.20358074607E+02 -0.68234271976E+02 -0.44239901025E+03  0.44811240079E+03  0.41800000000E+01 0. -1.
        -11    1    1    2    0    0  0.36857442869E+02 -0.20035088583E+02 -0.13022528692E+03  0.13681557376E+03  0.00000000000E+00 0.  1.
         11    1    1    2    0    0 -0.19880805588E+02  0.53924083529E+02 -0.18207304553E+03  0.19092838218E+03  0.00000000000E+00 0. -1.
</event>
<event>
 7    1  0.2644565E-009  0.2416451E+03  0.7561462E-02  0.1118702E+00
         -1   -1    0    0    0  501 -0.00000000000E+00  0.00000000000E+00  0.80125324674E+02  0.80125324674E+02  0.00000000000E+00 0.  1.
          1   -1    0    0  501    0  0.00000000000E+00 -0.00000000000E+00 -0.12728134965E+04  0.12728134965E+04  0.00000000000E+00 0. -1.
         25    2    1    2    0    0  0.14217301660E+02 -0.23115566486E+03 -0.10121634581E+04  0.10458289465E+04  0.12509295048E+03 0.  0.
          5    1    3    3  502    0  0.56372183964E+02 -0.13502807019E+03 -0.42918754556E+03  0.45346424835E+03  0.41800000000E+01 0. -1.
         -5    1    3    3    0  502 -0.42154882303E+02 -0.96127594663E+02 -0.58297591254E+03  0.59236469810E+03  0.41800000000E+01 0. -1.
        -11    1    1    2    0    0 -0.13714541184E+02  0.13343059612E+03 -0.48030972211E+02  0.14247381132E+03  0.00000000000E+00 0.  1.
         11    1    1    2    0    0 -0.50276047584E+00  0.97725068735E+02 -0.13249374146E+03  0.16463606335E+03  0.00000000000E+00 0. -1.
</event>
<event>
 7    1  0.2644565E-009  0.9131832E+02  0.7561462E-02  0.1299690E+00
          1   -1    0    0  501    0  0.00000000000E+00  0.00000000000E+00  0.57123021287E+02  0.57123021287E+02  0.00000000000E+00 0. -1.
         -1   -1    0    0    0  501 -0.00000000000E+00 -0.00000000000E+00 -0.28225279339E+03  0.28225279339E+03  0.00000000000E+00 0.  1.
         25    2    1    2    0    0 -0.59611678678E+02  0.81969385331E+01 -0.99123341651E+02  0.17056834606E+03  0.12508949509E+03 0.  0.
          5    1    3    3  502    0  0.27775252823E+02 -0.66055322351E+01 -0.72342551550E+02  0.77884625506E+02  0.41800000000E+01 0.  1.
         -5    1    3    3    0  502 -0.87386931501E+02  0.14802470768E+02 -0.26780790101E+02  0.92683720558E+02  0.41800000000E+01 0.  1.
        -11    1    1    2    0    0  0.17349431766E+02 -0.14129961111E+02  0.11267829676E+02  0.25052396476E+02  0.00000000000E+00 0. -1.
         11    1    1    2    0    0  0.42262246913E+02  0.59330225784E+01 -0.13727426013E+03  0.14375507214E+03  0.00000000000E+00 0.  1.
</event>
<event>
 7    1  0.2644565E-009  0.1770433E+03  0.7561462E-02  0.1170696E+00
         -2   -1    0    0    0  501 -0.00000000000E+00  0.00000000000E+00  0.16574098682E+03  0.16574098682E+03  0.00000000000E+00 0.  1.
          2   -1    0    0  501    0  0.00000000000E+00 -0.00000000000E+00 -0.24557595875E+03  0.24557595875E+03  0.00000000000E+00 0. -1.
         25    2    1    2    0    0 -0.98886696983E+02 -0.12334892576E+03 -0.93252374216E+02  0.22211685595E+03  0.12508539512E+03 0.  0.
          5    1    3    3  502    0 -0.74433874712E+02 -0.52559704610E+02  0.12913363988E+02  0.92125738113E+02  0.41800000000E+01 0.  1.
         -5    1    3    3    0  502 -0.24452822271E+02 -0.70789221152E+02 -0.10616573820E+03  0.12999111784E+03  0.41800000000E+01 0.  1.
        -11    1    1    2    0    0  0.86289561186E+02  0.14151851397E+03  0.59287173586E+01  0.16585694998E+03  0.00000000000E+00 0. -1.
         11    1    1    2    0    0  0.12597135797E+02 -0.18169588213E+02  0.74886849331E+01  0.23343139637E+02  0.00000000000E+00 0.  1.
</event>
<event>
 7    1  0.2644565E-009  0.1219309E+03  0.7561462E-02  0.1239945E+00
         -2   -1    0    0    0  501 -0.00000000000E+00  0.00000000000E+00  0.22550162276E+02  0.22550162276E+02  0.00000000000E+00 0.  1.
          2   -1    0    0  501    0  0.00000000000E+00 -0.00000000000E+00 -0.73959896463E+03  0.73959896463E+03  0.00000000000E+00 0. -1.
         25    2    1    2    0    0 -0.66184745330E+02  0.84646054958E+00 -0.46258438968E+03  0.48374924988E+03  0.12509149521E+03 0.  0.
          5    1    3    3  502    0  0.35961342763E+02 -0.10363527089E+02 -0.99772729354E+02  0.10664281874E+03  0.41800000000E+01 0. -1.
         -5    1    3    3    0  502 -0.10214608809E+03  0.11209987638E+02 -0.36281166033E+03  0.37710643114E+03  0.41800000000E+01 0. -1.
        -11    1    1    2    0    0  0.11003875342E+01 -0.31429016185E+02 -0.33142209067E+02  0.45688072108E+02  0.00000000000E+00 0.  1.
         11    1    1    2    0    0  0.65084357796E+02  0.30582555636E+02 -0.22132220361E+03  0.23271180492E+03  0.00000000000E+00 0. -1.
</event>
<event>
 7    1  0.2644565E-009  0.1125237E+03  0.7561462E-02  0.1255967E+00
         -1   -1    0    0    0  501 -0.00000000000E+00  0.00000000000E+00  0.13414113937E+02  0.13414113937E+02  0.00000000000E+00 0.  1.
          1   -1    0    0  501    0  0.00000000000E+00 -0.00000000000E+00 -0.96181417279E+03  0.96181417279E+03  0.00000000000E+00 0. -1.
         25    2    1    2    0    0 -0.29924449645E+02  0.31988799095E+02 -0.54494916463E+03  0.56083410662E+03  0.12508615895E+03 0.  0.
          5    1    3    3  502    0 -0.38840892131E+02  0.75951841157E+02 -0.30709803316E+03  0.31875377872E+03  0.41800000000E+01 0.  1.
         -5    1    3    3    0  502  0.89164424865E+01 -0.43963042061E+02 -0.23785113147E+03  0.24208032790E+03  0.41800000000E+01 0.  1.
        -11    1    1    2    0    0 -0.29382677018E+02 -0.14422627130E+02 -0.14354099944E+03  0.14722558338E+03  0.00000000000E+00 0.  1.
         11    1    1    2    0    0  0.59307126663E+02 -0.17566171965E+02 -0.25990989479E+03  0.26716859673E+03  0.00000000000E+00 0. -1.
</event>
<event>
 7    1  0.2644565E-009  0.9984211E+02  0.7561462E-02  0.1280628E+00
         -2   -1    0    0    0  501 -0.00000000000E+00  0.00000000000E+00  0.18368650518E+03  0.18368650518E+03  0.00000000000E+00 0.  1.
          2   -1    0    0  501    0  0.00000000000E+00 -0.00000000000E+00 -0.10922934920E+03  0.10922934920E+03  0.00000000000E+00 0. -1.
         25    2    1    2    0    0 -0.71683501987E+02  0.15413119339E+02  0.97038894515E+02  0.17447015612E+03  0.12508876697E+03 0.  0.
          5    1    3    3  502    0 -0.72865636147E+02  0.20901977074E+01  0.12410555412E+03  0.14399107896E+03  0.41800000000E+01 0. -1.
         -5    1    3    3    0  502  0.11821341607E+01  0.13322921632E+02 -0.27066659604E+02  0.30479077153E+02  0.41800000000E+01 0. -1.
        -11    1    1    2    0    0  0.89410786173E+01  0.32502170355E+02 -0.20537643385E+02  0.39473139734E+02  0.00000000000E+00 0. -1.
         11    1    1    2    0    0  0.62742423369E+02 -0.47915289694E+02 -0.20440951543E+01  0.78972558536E+02  0.00000000000E+00 0.  1.
</event>
<event>
 7    1  0.2644565E-009  0.1277665E+03  0.7561462E-02  0.1230808E+00
         -2   -1    0    0    0  501 -0.00000000000E+00  0.00000000000E+00  0.26354695344E+02  0.26354695344E+02  0.00000000000E+00 0.  1.
          2   -1    0    0  501    0  0.00000000000E+00 -0.00000000000E+00 -0.69705469175E+03  0.69705469175E+03  0.00000000000E+00 0. -1.
         25    2    1    2    0    0 -0.69265233647E+02 -0.36268608664E+02 -0.41236652157E+03  0.43795387821E+03  0.12507744304E+03 0.  0.
          5    1    3    3  502    0 -0.68368504650E+01 -0.67117310480E+02 -0.12354603020E+03  0.14082815723E+03  0.41800000000E+01 0. -1.
         -5    1    3    3    0  502 -0.62428383182E+02  0.30848701816E+02 -0.28882049137E+03  0.29712572097E+03  0.41800000000E+01 0. -1.
        -11    1    1    2    0    0  0.82564736504E+02  0.33015898816E+01 -0.20819761227E+03  0.22399571863E+03  0.00000000000E+00 0. -1.
         11    1    1    2    0    0 -0.13299502858E+02  0.32967018782E+02 -0.50135862572E+02  0.61459790266E+02  0.00000000000E+00 0.  1.
</event>
<event>
 7    1  0.2644565E-009  0.1498220E+03  0.7561462E-02  0.1200692E+00
         -1   -1    0    0    0  501 -0.00000000000E+00  0.00000000000E+00  0.51150020070E+02  0.51150020070E+02  0.00000000000E+00 0.  1.
          1   -1    0    0  501    0  0.00000000000E+00 -0.00000000000E+00 -0.54520407326E+03  0.54520407326E+03  0.00000000000E+00 0. -1.
         25    2    1    2    0    0  0.77275580569E+02  0.10040195835E+03 -0.26617609245E+03  0.32023304407E+03  0.12508965477E+03 0.  0.
          5    1    3    3  502    0  0.57380876718E+02  0.20105953744E+02 -0.26151853451E+02  0.66318973362E+02  0.41800000000E+01 0.  1.
         -5    1    3    3    0  502  0.19894703851E+02  0.80296004610E+02 -0.24002423900E+03  0.25391407071E+03  0.41800000000E+01 0.  1.
        -11    1    1    2    0    0 -0.66579724638E+02 -0.13026638291E+02 -0.95356498495E+02  0.11702741065E+03  0.00000000000E+00 0.  1.
         11    1    1    2    0    0 -0.10695855931E+02 -0.87375320063E+02 -0.13252146224E+03  0.15909363861E+03  0.00000000000E+00 0. -1.
</event>
<event>
 7    1  0.2644565E-009  0.1691004E+03  0.7561462E-02  0.1178789E+00
         -1   -1    0    0    0  501 -0.00000000000E+00  0.00000000000E+00  0.47642234627E+02  0.47642234627E+02  0.00000000000E+00 0.  1.
          1   -1    0    0  501    0  0.00000000000E+00 -0.00000000000E+00 -0.70099340415E+03  0.70099340415E+03  0.00000000000E+00 0. -1.
         25    2    1    2    0    0  0.56669820605E+02 -0.11995120316E+03 -0.21137122173E+03  0.27915147017E+03  0.12509192707E+03 0.  0.
          5    1    3    3  502    0  0.87004103856E+02 -0.12214873967E+03 -0.18825038047E+03  0.24071914514E+03  0.41800000000E+01 0. -1.
         -5    1    3    3    0  502 -0.30334283251E+02  0.21975365065E+01 -0.23120841261E+02  0.38432325036E+02  0.41800000000E+01 0. -1.
        -11    1    1    2    0    0 -0.22061617268E+02 -0.91001836591E+01 -0.86213283781E+02  0.89455344164E+02  0.00000000000E+00 0. -1.
         11    1    1    2    0    0 -0.34608203337E+02  0.12905138682E+03 -0.35576666401E+03  0.38002882444E+03  0.00000000000E+00 0.  1.
</event>
<event>
 7    1  0.2644565E-009  0.1422352E+03  0.7561462E-02  0.1210353E+00
         -1   -1    0    0    0  501 -0.00000000000E+00  0.00000000000E+00  0.19355541028E+03  0.19355541028E+03  0.00000000000E+00 0.  1.
          1   -1    0    0  501    0  0.00000000000E+00 -0.00000000000E+00 -0.11517253974E+03  0.11517253974E+03  0.00000000000E+00 0. -1.
         25    2    1    2    0    0  0.30131688896E+02  0.96635560881E+02  0.21197861265E+02  0.16230737507E+03  0.12509190373E+03 0.  0.
          5    1    3    3  502    0 -0.32345365669E+02  0.92176667047E+02  0.75637895774E+01  0.98068567548E+02  0.41800000000E+01 0. -1.
         -5    1    3    3    0  502  0.62477054565E+02  0.44588938338E+01  0.13634071688E+02  0.64238807524E+02  0.41800000000E+01 0.  1.
        -11    1    1    2    0    0  0.52494574834E+01 -0.87123146963E+02  0.11772426053E+02  0.88071502518E+02  0.00000000000E+00 0. -1.
         11    1    1    2    0    0 -0.35381146379E+02 -0.95124139180E+01  0.45412583221E+02  0.58349072421E+02  0.00000000000E+00 0.  1.
</event>
<event>
 7    1  0.2644565E-009  0.8739726E+02  0.7561462E-02  0.1309280E+00
         -2   -1    0    0    0  501 -0.00000000000E+00  0.00000000000E+00  0.48252875016E+02  0.48252875016E+02  0.00000000000E+00 0.  1.
          2   -1    0    0  501    0  0.00000000000E+00 -0.00000000000E+00 -0.38121818863E+03  0.38121818863E+03  0.00000000000E+00 0. -1.
         25    2    1    2    0    0 -0.30075008937E+02 -0.26232714329E+02 -0.67833594476E+02  0.14778866925E+03  0.12508969884E+03 0.  0.
          5    1    3    3  502    0 -0.80456372811E+01 -0.62558596778E+02  0.49543798087E+01  0.63406061140E+02  0.41800000000E+01 0. -1.
         -5    1    3    3    0  502 -0.22029371656E+02  0.36325882449E+02 -0.72787974285E+02  0.84382608112E+02  0.41800000000E+01 0. -1.
        -11    1    1    2    0    0  0.78194622893E+01 -0.17863142774E+02 -0.10193481283E+02  0.22003247963E+02  0.00000000000E+00 0.  1.
         11    1    1    2    0    0  0.22255546648E+02  0.44095857103E+02 -0.25493823785E+03  0.25967914643E+03  0.00000000000E+00 0. -1.
</event>
<event>
 7    1  0.2644565E-009  0.2019177E+03  0.7561462E-02  0.1148131E+00
          2   -1    0    0  501    0  0.00000000000E+00  0.00000000000E+00  0.11358097103E+04  0.11358097103E+04  0.00000000000E+00 0. -1.
         -2   -1    0    0    0  501 -0.00000000000E+00 -0.00000000000E+00 -0.45102565161E+02  0.45102565161E+02  0.00000000000E+00 0.  1.
         25    2    1    2    0    0 -0.95888338198E+02  0.15673121352E+03  0.75978877296E+03  0.79163458596E+03  0.12508833466E+03 0.  0.
          5    1    3    3  502    0  0.82044952397E+01 -0.94228902538E+01  0.16123167182E+03  0.16176906071E+03  0.41800000000E+01 0.  1.
         -5    1    3    3    0  502 -0.10409283344E+03  0.16615410377E+03  0.59855710114E+03  0.62986552525E+03  0.41800000000E+01 0.  1.
        -11    1    1    2    0    0  0.97833600156E+02 -0.10778863327E+03  0.18528235019E+03  0.23562544869E+03  0.00000000000E+00 0. -1.
         11    1    1    2    0    0 -0.19452619582E+01 -0.48942580253E+02  0.14563602201E+03  0.15365224083E+03  0.00000000000E+00 0.  1.
</event>
<event>
 7    1  0.2644565E-009  0.1012670E+03  0.7561462E-02  0.1277654E+00
          2   -1    0    0  501    0  0.00000000000E+00  0.00000000000E+00  0.30111903055E+03  0.30111903055E+03  0.00000000000E+00 0. -1.
         -2   -1    0    0    0  501 -0.00000000000E+00 -0.00000000000E+00 -0.89404025619E+02  0.89404025619E+02  0.00000000000E+00 0.  1.
         25    2    1    2    0    0 -0.51505968988E+02  0.46635499347E+02 -0.21048161442E+02  0.14462960348E+03  0.12508781900E+03 0.  0.
          5    1    3    3  502    0 -0.49010618203E+01  0.70457302957E+02 -0.48110470923E+02  0.85558995782E+02  0.41800000000E+01 0. -1.
         -5    1    3    3    0  502 -0.46604907168E+02 -0.23821803610E+02  0.27062309481E+02  0.59070607698E+02  0.41800000000E+01 0. -1.
        -11    1    1    2    0    0  0.38422900020E+02 -0.90440488667E+01  0.11661038013E+03  0.12311009227E+03  0.00000000000E+00 0. -1.
         11    1    1    2    0    0  0.13083068968E+02 -0.37591450480E+02  0.11615278625E+03  0.12278336042E+03  0.00000000000E+00 0.  1.
</event>
<event>
 7    1  0.2644565E-009  0.9035000E+02  0.7561462E-02  0.1302006E+00
         -2   -1    0    0    0  501 -0.00000000000E+00  0.00000000000E+00  0.25468653747E+02  0.25468653747E+02  0.00000000000E+00 0.  1.
          2   -1    0    0  501    0  0.00000000000E+00 -0.00000000000E+00 -0.51891324013E+03  0.51891324013E+03  0.00000000000E+00 0. -1.
         25    2    1    2    0    0 -0.18283673905E+02  0.26742309095E+02 -0.33703538983E+03  0.36095695095E+03  0.12509045773E+03 0.  0.
          5    1    3    3  502    0  0.18604040566E+02 -0.18758207863E+02 -0.27208024969E+03  0.27339187143E+03  0.41800000000E+01 0. -1.
         -5    1    3    3    0  502 -0.36887714471E+02  0.45500516958E+02 -0.64955140134E+02  0.87565079525E+02  0.41800000000E+01 0. -1.
        -11    1    1    2    0    0  0.43571780673E+02  0.15288833149E+02 -0.86016608439E+02  0.97627380470E+02  0.00000000000E+00 0. -1.
         11    1    1    2    0    0 -0.25288106768E+02 -0.42031142244E+02 -0.70392588117E+02  0.85797562460E+02  0.00000000000E+00 0.  1.
</event>
<event>
 7    1  0.2759427E-009  0.9849541E+02  0.7561462E-02  0.1283492E+00
         -1   -1    0    0    0  501 -0.00000000000E+00  0.00000000000E+00  0.50637813115E+02  0.50637813115E+02  0.00000000000E+00 0.  1.
          1   -1    0    0  501    0  0.00000000000E+00 -0.00000000000E+00 -0.31111136804E+03  0.31111136804E+03  0.00000000000E+00 0. -1.
         25    2    1    2    0    0 -0.35110265299E+02 -0.22832364182E+02 -0.78066862973E+02  0.15328512923E+03  0.12509135928E+03 0.  0.
          5    1    3    3  502    0  0.28751075930E+02  0.35018469835E+02 -0.23566903894E+02  0.51242452672E+02  0.41800000000E+01 0.  1.
         -5    1    3    3    0  502 -0.63861341229E+02 -0.57850834017E+02 -0.54499959078E+02  0.10204267656E+03  0.41800000000E+01 0.  1.
        -11    1    1    2    0    0 -0.85971328580E+01  0.19588405578E+02 -0.54829683984E+00  0.21398994273E+02  0.00000000000E+00 0.  1.
         11    1    1    2    0    0  0.43707398157E+02  0.32439586047E+01 -0.18185839512E+03  0.18706505766E+03  0.00000000000E+00 0. -1.
</event>
<event>
 7    1  0.3324071E-009  0.2016544E+03  0.7561462E-02  0.1148351E+00
          1   -1    0    0  501    0  0.00000000000E+00  0.00000000000E+00  0.28698296217E+03  0.28698296217E+03  0.00000000000E+00 0. -1.
         -1   -1    0    0    0  501 -0.00000000000E+00 -0.00000000000E+00 -0.19656910637E+03  0.19656910637E+03  0.00000000000E+00 0.  1.
         25    2    1    2    0    0 -0.18953430638E+03  0.22098977300E+02  0.13869615029E+03  0.26701329653E+03  0.12509140788E+03 0.  0.
          5    1    3    3  502    0 -0.59838819546E+02 -0.10804696667E+02 -0.15423751044E+02  0.62871219894E+02  0.41800000000E+01 0.  1.
         -5    1    3    3    0  502 -0.12969548683E+03  0.32903673967E+02  0.15411990133E+03  0.20414207663E+03  0.41800000000E+01 0.  1.
        -11    1    1    2    0    0  0.77000341624E+02  0.32295457663E+02 -0.36058110045E+02  0.90951836132E+02  0.00000000000E+00 0.  1.
         11    1    1    2    0    0  0.11253396475E+03 -0.54394434962E+02 -0.12224184445E+02  0.12558693588E+03  0.00000000000E+00 0. -1.
</event>
<event>
 7    1  0.2644565E-009  0.9817401E+02  0.7561462E-02  0.1284183E+00
          1   -1    0    0  501    0  0.00000000000E+00  0.00000000000E+00  0.20506972576E+03  0.20506972576E+03  0.00000000000E+00 0. -1.
         -1   -1    0    0    0  501 -0.00000000000E+00 -0.00000000000E+00 -0.59597742362E+02  0.59597742362E+02  0.00000000000E+00 0.  1.
         25    2    1    2    0    0 -0.25505168963E+02  0.78536087701E+00  0.50403189350E+02  0.13725313907E+03  0.12508721858E+03 0.  0.
          5    1    3    3  502    0  0.44143014777E+02  0.16857136568E+02 -0.35960392975E+01  0.47572814773E+02  0.41800000000E+01 0.  1.
         -5    1    3    3    0  502 -0.69648183739E+02 -0.16071775691E+02  0.53999228647E+02  0.89680324300E+02  0.41800000000E+01 0.  1.
        -11    1    1    2    0    0 -0.14956859236E+02  0.25141955673E+02  0.63505050496E+02  0.69919360779E+02  0.00000000000E+00 0. -1.
         11    1    1    2    0    0  0.40462028199E+02 -0.25927316550E+02  0.31563743555E+02  0.57494968273E+02  0.00000000000E+00 0.  1.
</event>
<event>
 7    1  0.2644565E-009  0.1457905E+03  0.7561462E-02  0.1205743E+00
          4   -1    0    0  501    0  0.00000000000E+00  0.00000000000E+00  0.40729643713E+03  0.40729643713E+03  0.00000000000E+00 0. -1.
         -4   -1    0    0    0  501 -0.00000000000E+00 -0.00000000000E+00 -0.64813550497E+02  0.64813550497E+02  0.00000000000E+00 0.  1.
         25    2    1    2    0    0  0.48633130196E+02  0.92962523620E+02  0.26781886714E+03  0.31365850980E+03  0.12508997972E+03 0.  0.
          5    1    3    3  502    0  0.52208703594E+02  0.11664010249E+03  0.25700510090E+03  0.28705357781E+03  0.41800000000E+01 0. -1.
         -5    1    3    3    0  502 -0.35755733977E+01 -0.23677578873E+02  0.10813766233E+02  0.26604931997E+02  0.41800000000E+01 0. -1.
        -11    1    1    2    0    0 -0.12979443754E+02 -0.10184564042E+03  0.49996961130E+02  0.11419586926E+03  0.00000000000E+00 0.  1.
         11    1    1    2    0    0 -0.35653686442E+02  0.88831168052E+01  0.24667058368E+02  0.44255608567E+02  0.00000000000E+00 0. -1.
</event>
<event>
 7    1  0.3152849E-009  0.9294724E+02  0.7561462E-02  0.1295868E+00
         -1   -1    0    0    0  501 -0.00000000000E+00  0.00000000000E+00  0.64281918683E+02  0.64281918683E+02  0.00000000000E+00 0.  1.
          1   -1    0    0  501    0  0.00000000000E+00 -0.00000000000E+00 -0.30136318870E+03  0.30136318870E+03  0.00000000000E+00 0. -1.
         25    2    1    2    0    0 -0.71087567798E+02  0.46342323971E+02 -0.10413024680E+03  0.18355295231E+03  0.12509006641E+03 0.  0.
          5    1    3    3  502    0 -0.59959264317E+02  0.12278805211E+02 -0.12685824808E+03  0.14091263230E+03  0.41800000000E+01 0.  1.
         -5    1    3    3    0  502 -0.11128303481E+02  0.34063518760E+02  0.22728001275E+02  0.42640320011E+02  0.41800000000E+01 0.  1.
        -11    1    1    2    0    0  0.49339793128E+02 -0.17508403534E+02 -0.13611647410E+03  0.14583776569E+03  0.00000000000E+00 0. -1.
         11    1    1    2    0    0  0.21747774670E+02 -0.28833920437E+02  0.31654508817E+01  0.36254389391E+02  0.00000000000E+00 0.  1.
</event>
<event>
 7    1  0.2644565E-009  0.9682443E+02  0.7561462E-02  0.1287119E+00
         -1   -1    0    0    0  501 -0.00000000000E+00  0.00000000000E+00  0.89122290161E+02  0.89122290161E+02  0.00000000000E+00 0.  1.
          1   -1    0    0  501    0  0.00000000000E+00 -0.00000000000E+00 -0.17444886162E+03  0.17444886162E+03  0.00000000000E+00 0. -1.
         25    2    1    2    0    0 -0.33511587914E+02  0.44231529849E+02 -0.74366542577E+02  0.15574953797E+03  0.12509229059E+03 0.  0.
          5    1    3    3  502    0 -0.37207345533E+02 -0.11137309867E+02  0.21732036013E+02  0.44701006945E+02  0.41800000000E+01 0. -1.
         -5    1    3    3    0  502  0.36957576192E+01  0.55368839716E+02 -0.96098578590E+02  0.11104853103E+03  0.41800000000E+01 0. -1.
        -11    1    1    2    0    0 -0.18679085473E+02  0.12012569037E+02  0.15023859008E+02  0.26812802697E+02  0.00000000000E+00 0.  1.
         11    1    1    2    0    0  0.52190673387E+02 -0.56244098886E+02 -0.25983887890E+02  0.81008811113E+02  0.00000000000E+00 0. -1.
</event>
<event>
 7    1  0.2644565E-009  0.1608683E+03  0.7561462E-02  0.1187720E+00
          1   -1    0    0  501    0  0.00000000000E+00  0.00000000000E+00  0.32827638428E+03  0.32827638428E+03  0.00000000000E+00 0. -1.
         -1   -1    0    0    0  501 -0.00000000000E+00 -0.00000000000E+00 -0.17811580482E+03  0.17811580482E+03  0.00000000000E+00 0.  1.
         25    2    1    2    0    0  0.44297040945E+02 -0.14481357817E+03 -0.86604499287E+02  0.21466677856E+03  0.12509311036E+03 0.  0.
          5    1    3    3  502    0  0.59181148149E+02 -0.14263390300E+03 -0.10777580721E+03  0.18836118390E+03  0.41800000000E+01 0.  1.
         -5    1    3    3    0  502 -0.14884107205E+02 -0.21796751770E+01  0.21171307921E+02  0.26305594657E+02  0.41800000000E+01 0.  1.
        -11    1    1    2    0    0 -0.25645496780E+02  0.70336938055E+02  0.50633831294E+02  0.90381199547E+02  0.00000000000E+00 0.  1.
         11    1    1    2    0    0 -0.18651544164E+02  0.74476640119E+02  0.18613124746E+03  0.20134421100E+03  0.00000000000E+00 0. -1.
</event>
<event>
 7    1  0.2644565E-009  0.1457946E+03  0.7561462E-02  0.1205738E+00
         -1   -1    0    0    0  501 -0.00000000000E+00  0.00000000000E+00  0.58300420861E+03  0.58300420861E+03  0.00000000000E+00 0.  1.
          1   -1    0    0  501    0  0.00000000000E+00 -0.00000000000E+00 -0.96407091363E+02  0.96407091363E+02  0.00000000000E+00 0. -1.
         25    2    1    2    0    0 -0.11790526184E+03 -0.16604357572E+02  0.27835237316E+01  0.17272911812E+03  0.12510093837E+03 0.  0.
          5    1    3    3  502    0 -0.12097808345E+03  0.15343859838E+02 -0.31049457285E+02  0.12590739418E+03  0.41800000000E+01 0. -1.
         -5    1    3    3    0  502  0.30728216127E+01 -0.31948217410E+02  0.33832981017E+02  0.46821723941E+02  0.41800000000E+01 0. -1.
        -11    1    1    2    0    0  0.56303822094E+02 -0.26290078886E+02  0.32670777908E+03  0.33256467272E+03  0.00000000000E+00 0.  1.
         11    1    1    2    0    0  0.61601439747E+02  0.42894436458E+02  0.15710581444E+03  0.17411750914E+03  0.00000000000E+00 0. -1.
</event>
<event>
 7    1  0.2644565E-009  0.8599980E+02  0.7561462E-02  0.1312838E+00
         -4   -1    0    0    0  501 -0.00000000000E+00  0.00000000000E+00  0.27297597418E+02  0.27297597418E+02  0.00000000000E+00 0.  1.
          4   -1    0    0  501    0  0.00000000000E+00 -0.00000000000E+00 -0.63509832932E+03  0.63509832932E+03  0.00000000000E+00 0. -1.
         25    2    1    2    0    0 -0.87289594246E+01 -0.26646607041E+02 -0.19255625329E+03  0.23132938025E+03  0.12509650310E+03 0.  0.
          5    1    3    3  502    0 -0.38742505097E+01 -0.40797756763E+02 -0.20643121318E+03  0.21050127066E+03  0.41800000000E+01 0. -1.
         -5    1    3    3    0  502 -0.48547089149E+01  0.14151149723E+02  0.13874959892E+02  0.20828109591E+02  0.41800000000E+01 0. -1.
        -11    1    1    2    0    0  0.19864250718E+02 -0.41612484368E+02 -0.14792022890E+03  0.15494057386E+03  0.00000000000E+00 0.  1.
         11    1    1    2    0    0 -0.11135291293E+02  0.68259091409E+02 -0.26732424971E+03  0.27612597262E+03  0.00000000000E+00 0. -1.
</event>
<event>
 7    1  0.2644565E-009  0.7248825E+02  0.7561462E-02  0.1351830E+00
         -1   -1    0    0    0  501 -0.00000000000E+00  0.00000000000E+00  0.23753676848E+02  0.23753676848E+02  0.00000000000E+00 0.  1.
          1   -1    0    0  501    0  0.00000000000E+00 -0.00000000000E+00 -0.64219688523E+03  0.64219688523E+03  0.00000000000E+00 0. -1.
         25    2    1    2    0    0  0.41559139145E+02  0.89773983217E+01 -0.23621547107E+03  0.27065253735E+03  0.12508913412E+03 0.  0.
          5    1    3    3  502    0  0.37934959043E+02  0.88493558366E+01 -0.51423266430E+01  0.39513138822E+02  0.41800000000E+01 0. -1.
         -5    1    3    3    0  502  0.36241801023E+01  0.12804248509E+00 -0.23107314442E+03  0.23113939852E+03  0.41800000000E+01 0. -1.
        -11    1    1    2    0    0  0.26865173422E+02 -0.16343430295E+02 -0.13967992980E+03  0.14317586405E+03  0.00000000000E+00 0.  1.
         11    1    1    2    0    0 -0.68424312567E+02  0.73660319730E+01 -0.24254780752E+03  0.25212216068E+03  0.00000000000E+00 0. -1.
</event>
<event>
 7    1  0.2644565E-009  0.8493276E+02  0.7561462E-02  0.1315608E+00
         -2   -1    0    0    0  501 -0.00000000000E+00  0.00000000000E+00  0.13889300207E+03  0.13889300207E+03  0.00000000000E+00 0.  1.
          2   -1    0    0  501    0  0.00000000000E+00 -0.00000000000E+00 -0.10020644159E+03  0.10020644159E+03  0.00000000000E+00 0. -1.
         25    2    1    2    0    0 -0.45876029502E+01  0.42328383110E+01  0.69971755148E+02  0.14346563681E+03  0.12508948560E+03 0.  0.
          5    1    3    3  502    0  0.21936464201E+02  0.35811687345E+02  0.88510456081E+02  0.98057425256E+02  0.41800000000E+01 0. -1.
         -5    1    3    3    0  502 -0.26524067151E+02 -0.31578849034E+02 -0.18538700933E+02  0.45408211557E+02  0.41800000000E+01 0. -1.
        -11    1    1    2    0    0  0.99065816237E-01 -0.45098642199E+02 -0.19717420237E+01  0.45141833246E+02  0.00000000000E+00 0.  1.
         11    1    1    2    0    0  0.44885371339E+01  0.40865803888E+02 -0.29313452640E+02  0.50491973606E+02  0.00000000000E+00 0. -1.
</event>
<event>
 7    1  0.2644565E-009  0.1474082E+03  0.7561462E-02  0.1203694E+00
         -1   -1    0    0    0  501 -0.00000000000E+00  0.00000000000E+00  0.21687082247E+02  0.21687082247E+02  0.00000000000E+00 0.  1.
          1   -1    0    0  501    0  0.00000000000E+00 -0.00000000000E+00 -0.10196368089E+04  0.10196368089E+04  0.00000000000E+00 0. -1.
         25    2    1    2    0    0  0.45160016590E+01  0.11148584973E+03 -0.60149914571E+03  0.62441838986E+03  0.12509042469E+03 0.  0.
          5    1    3    3  502    0 -0.52799185716E+02  0.15431589025E+02 -0.22239476228E+03  0.22913487434E+03  0.41800000000E+01 0. -1.
         -5    1    3    3    0  502  0.57315187375E+02  0.96054260705E+02 -0.37910438343E+03  0.39528351552E+03  0.41800000000E+01 0. -1.
        -11    1    1    2    0    0  0.15847482650E+02 -0.10522675850E+03 -0.30582903860E+03  0.32381354861E+03  0.00000000000E+00 0.  1.
         11    1    1    2    0    0 -0.20363484309E+02 -0.62590912297E+01 -0.90621542306E+02  0.93091952639E+02  0.00000000000E+00 0. -1.
</event>
<event>
 7    1  0.2824501E-009  0.1237492E+03  0.7561462E-02  0.1237037E+00
          2   -1    0    0  501    0  0.00000000000E+00  0.00000000000E+00  0.99870906542E+03  0.99870906542E+03  0.00000000000E+00 0. -1.
         -2   -1    0    0    0  501 -0.00000000000E+00 -0.00000000000E+00 -0.19019904186E+02  0.19019904186E+02  0.00000000000E+00 0.  1.
         25    2    1    2    0    0  0.15236124617E+02  0.81389324411E+02  0.46784994831E+03  0.49131090425E+03  0.12508584604E+03 0.  0.
          5    1    3    3  502    0  0.12951240875E+02 -0.23245156076E+02  0.26811442641E+02  0.38005233557E+02  0.41800000000E+01 0.  1.
         -5    1    3    3    0  502  0.22848837423E+01  0.10463448049E+03  0.44103850567E+03  0.45330567070E+03  0.41800000000E+01 0.  1.
        -11    1    1    2    0    0 -0.45410179810E+02 -0.24930947005E+02  0.14365633709E+03  0.15271142634E+03  0.00000000000E+00 0.  1.
         11    1    1    2    0    0  0.30174055193E+02 -0.56458377406E+02  0.36818287583E+03  0.37370663901E+03  0.00000000000E+00 0. -1.
</event>
<event>
 7    1  0.2644565E-009  0.1804957E+03  0.7561462E-02  0.1167324E+00
          2   -1    0    0  501    0  0.00000000000E+00  0.00000000000E+00  0.78184735842E+02  0.78184735842E+02  0.00000000000E+00 0. -1.
         -2   -1    0    0    0  501 -0.00000000000E+00 -0.00000000000E+00 -0.43252806820E+03  0.43252806820E+03  0.00000000000E+00 0.  1.
         25    2    1    2    0    0  0.14804901918E+03  0.11183272593E+02 -0.19145031711E+03  0.27266084159E+03  0.12508850047E+03 0.  0.
          5    1    3    3  502    0 -0.19336371812E+01 -0.34537076010E+02 -0.53103824017E+02  0.63514070073E+02  0.41800000000E+01 0.  1.
         -5    1    3    3    0  502  0.14998265636E+03  0.45720348603E+02 -0.13834649309E+03  0.20914677152E+03  0.41800000000E+01 0.  1.
        -11    1    1    2    0    0 -0.44842059514E+02  0.34354895471E+02 -0.30782829477E+02  0.64332353717E+02  0.00000000000E+00 0. -1.
         11    1    1    2    0    0 -0.10320695966E+03 -0.45538168064E+02 -0.13211018577E+03  0.17371960873E+03  0.00000000000E+00 0.  1.
</event>
<event>
 7    1  0.2644565E-009  0.1641545E+03  0.7561462E-02  0.1184085E+00
          1   -1    0    0  501    0  0.00000000000E+00  0.00000000000E+00  0.14317749537E+03  0.14317749537E+03  0.00000000000E+00 0. -1.
         -1   -1    0    0    0  501 -0.00000000000E+00 -0.00000000000E+00 -0.45887185700E+03  0.45887185700E+03  0.00000000000E+00 0.  1.
         25    2    1    2    0    0 -0.14745726427E+03 -0.60527885470E+02  0.35806213399E+02  0.20575805339E+03  0.12508805663E+03 0.  0.
          5    1    3    3  502    0 -0.10224266849E+03 -0.54106807402E+02 -0.35415725469E+02  0.12104898132E+03  0.41800000000E+01 0. -1.
         -5    1    3    3    0  502 -0.45214595779E+02 -0.64210780686E+01  0.71221938868E+02  0.84709072071E+02  0.41800000000E+01 0. -1.
        -11    1    1    2    0    0  0.58049913627E+02 -0.11813301209E+01 -0.21011310223E+03  0.21798785228E+03  0.00000000000E+00 0.  1.
         11    1    1    2    0    0  0.89407350647E+02  0.61709215591E+02 -0.14138747281E+03  0.17830344670E+03  0.00000000000E+00 0. -1.
</event>
<event>
 7    1  0.2644565E-009  0.8950015E+02  0.7561462E-02  0.1304067E+00
          1   -1    0    0  501    0  0.00000000000E+00  0.00000000000E+00  0.12690930620E+03  0.12690930620E+03  0.00000000000E+00 0. -1.
         -1   -1    0    0    0  501 -0.00000000000E+00 -0.00000000000E+00 -0.16449667973E+03  0.16449667973E+03  0.00000000000E+00 0.  1.
         25    2    1    2    0    0 -0.24959772035E+02 -0.82914138669E+02  0.21773593548E+02  0.15369165826E+03  0.12509712959E+03 0.  0.
          5    1    3    3  502    0  0.39472030892E+00 -0.32974671392E+02 -0.51545235049E+02  0.61334072210E+02  0.41800000000E+01 0. -1.
         -5    1    3    3    0  502 -0.25354492344E+02 -0.49939467277E+02  0.73318828597E+02  0.92357586049E+02  0.41800000000E+01 0. -1.
        -11    1    1    2    0    0  0.28867881534E+02  0.62951975616E+02 -0.81964627063E+02  0.10730566578E+03  0.00000000000E+00 0.  1.
         11    1    1    2    0    0 -0.39081094988E+01  0.19962163053E+02  0.22603659982E+02  0.30408661894E+02  0.00000000000E+00 0. -1.
</event>
<event>
 7    1  0.2644565E-009  0.1614535E+03  0.7561462E-02  0.1187065E+00
         -2   -1    0    0    0  501 -0.00000000000E+00  0.00000000000E+00  0.53605435524E+02  0.53605435524E+02  0.00000000000E+00 0. -1.
          2   -1    0    0  501    0  0.00000000000E+00 -0.00000000000E+00 -0.70633861553E+03  0.70633861553E+03  0.00000000000E+00 0.  1.
         25    2    1    2    0    0  0.26660879438E+02 -0.14901499715E+03 -0.22504433305E+03  0.29870145606E+03  0.12514526019E+03 0.  0.
          5    1    3    3  502    0  0.11469966864E+02 -0.12118438717E+03 -0.70181175844E+02  0.14057057187E+03  0.41800000000E+01 0.  1.
         -5    1    3    3    0  502  0.15190912574E+02 -0.27830609983E+02 -0.15486315720E+03  0.15813088419E+03  0.41800000000E+01 0.  1.
        -11    1    1    2    0    0  0.25427489260E+02  0.70132607806E+02 -0.23605906855E+03  0.24756620071E+03  0.00000000000E+00 0.  1.
         11    1    1    2    0    0 -0.52088368699E+02  0.78882389343E+02 -0.19162977841E+03  0.21367639429E+03  0.00000000000E+00 0. -1.
</event>
<event>
 7    1  0.2644565E-009  0.1496343E+03  0.7561462E-02  0.1200923E+00
         -2   -1    0    0    0  501 -0.00000000000E+00  0.00000000000E+00  0.51626907383E+02  0.51626907383E+02  0.00000000000E+00 0.  1.
          2   -1    0    0  501    0  0.00000000000E+00 -0.00000000000E+00 -0.48278673112E+03  0.48278673112E+03  0.00000000000E+00 0. -1.
         25    2    1    2    0    0  0.17893163963E+02 -0.10833603788E+03 -0.28244749064E+03  0.32784319646E+03  0.12509082331E+03 0.  0.
          5    1    3    3  502    0  0.68161903215E+02 -0.46774225250E+02 -0.10776874539E+03  0.13588763035E+03  0.41800000000E+01 0. -1.
         -5    1    3    3    0  502 -0.50268739252E+02 -0.61561812631E+02 -0.17467874525E+03  0.19195556612E+03  0.41800000000E+01 0. -1.
        -11    1    1    2    0    0 -0.42711415064E+02  0.23993359604E+02 -0.84593167088E+02  0.97754540559E+02  0.00000000000E+00 0.  1.
         11    1    1    2    0    0  0.24818251101E+02  0.84342678277E+02 -0.64119166010E+02  0.10881590149E+03  0.00000000000E+00 0. -1.
</event>
<event>
 7    1  0.2644565E-009  0.7788396E+02  0.7561462E-02  0.1335166E+00
         -1   -1    0    0    0  501 -0.00000000000E+00  0.00000000000E+00  0.14083805458E+03  0.14083805458E+03  0.00000000000E+00 0.  1.
          1   -1    0    0  501    0  0.00000000000E+00 -0.00000000000E+00 -0.91707526661E+02  0.91707526661E+02  0.00000000000E+00 0. -1.
         25    2    1    2    0    0 -0.12169530760E+02 -0.27605494183E+01 -0.40195076808E+01  0.12577070768E+03  0.12508555615E+03 0.  0.
          5    1    3    3  502    0  0.81853662246E+01 -0.46325146053E+02  0.38896774255E+02  0.61183746408E+02  0.41800000000E+01 0. -1.
         -5    1    3    3    0  502 -0.20354896985E+02  0.43564596635E+02 -0.42916281936E+02  0.64586961272E+02  0.41800000000E+01 0. -1.
        -11    1    1    2    0    0  0.35978886814E+02  0.51444132536E+01  0.69060029404E+02  0.78039944550E+02  0.00000000000E+00 0.  1.
         11    1    1    2    0    0 -0.23809356054E+02 -0.23838638353E+01 -0.15909993803E+02  0.28734929011E+02  0.00000000000E+00 0. -1.
</event>
<event>
 7    1  0.2644565E-009  0.1061731E+03  0.7561462E-02  0.1267825E+00
         -1   -1    0    0    0  501 -0.00000000000E+00  0.00000000000E+00  0.10452191263E+03  0.10452191263E+03  0.00000000000E+00 0.  1.
          1   -1    0    0  501    0  0.00000000000E+00 -0.00000000000E+00 -0.12097366321E+03  0.12097366321E+03  0.00000000000E+00 0. -1.
         25    2    1    2    0    0  0.12999579361E+02  0.64025322852E+01 -0.34975735380E+02  0.13068745566E+03  0.12508368207E+03 0.  0.
          5    1    3    3  502    0  0.43952555901E+02 -0.43780159248E+02 -0.33949760920E+00  0.62178108468E+02  0.41800000000E+01 0.  1.
         -5    1    3    3    0  502 -0.30952976540E+02  0.50182691534E+02 -0.34636237771E+02  0.68509347196E+02  0.41800000000E+01 0.  1.
        -11    1    1    2    0    0 -0.38386071556E+02 -0.35611381847E+02  0.20076225713E+02  0.56077766052E+02  0.00000000000E+00 0. -1.
         11    1    1    2    0    0  0.25386492195E+02  0.29208849561E+02 -0.15522409148E+01  0.38730354123E+02  0.00000000000E+00 0.  1.
</event>
<event>
 7    1  0.2644565E-009  0.1163384E+03  0.7561462E-02  0.1249263E+00
          1   -1    0    0  501    0  0.00000000000E+00  0.00000000000E+00  0.20296207611E+03  0.20296207611E+03  0.00000000000E+00 0. -1.
         -1   -1    0    0    0  501 -0.00000000000E+00 -0.00000000000E+00 -0.10562293810E+03  0.10562293810E+03  0.00000000000E+00 0.  1.
         25    2    1    2    0    0 -0.13590795270E+02  0.76763688797E+02 -0.10158445272E+02  0.14774267972E+03  0.12508929517E+03 0.  0.
          5    1    3    3  502    0 -0.28386475803E+02 -0.13300613308E+02  0.33853668278E+02  0.46327546652E+02  0.41800000000E+01 0.  1.
         -5    1    3    3    0  502  0.14795680534E+02  0.90064302105E+02 -0.44012113550E+02  0.10141513307E+03  0.41800000000E+01 0.  1.
        -11    1    1    2    0    0  0.32480842595E+02 -0.83526770899E+02  0.56257897210E+02  0.10581435437E+03  0.00000000000E+00 0.  1.
         11    1    1    2    0    0 -0.18890047325E+02  0.67630821023E+01  0.51239686067E+02  0.55027980117E+02  0.00000000000E+00 0. -1.
</event>
<event>
 7    1  0.3115534E-009  0.1044263E+03  0.7561462E-02  0.1271254E+00
         -1   -1    0    0    0  501 -0.00000000000E+00  0.00000000000E+00  0.14484134781E+02  0.14484134781E+02  0.00000000000E+00 0.  1.
          1   -1    0    0  501    0  0.00000000000E+00 -0.00000000000E+00 -0.13910843856E+04  0.13910843856E+04  0.00000000000E+00 0. -1.
         25    2    1    2    0    0  0.18458329547E+02  0.56205554474E+02 -0.10953455480E+04  0.11040515386E+04  0.12509259017E+03 0.  0.
          5    1    3    3  502    0  0.43579348996E+02  0.87005385674E+02 -0.83396945669E+03  0.83963779327E+03  0.41800000000E+01 0. -1.
         -5    1    3    3    0  502 -0.25121019449E+02 -0.30799831200E+02 -0.26137609129E+03  0.26441374533E+03  0.41800000000E+01 0. -1.
        -11    1    1    2    0    0 -0.31302279072E+02 -0.38625718176E+02 -0.27414039056E+03  0.27861215429E+03  0.00000000000E+00 0. -1.
         11    1    1    2    0    0  0.12843949525E+02 -0.17579836298E+02 -0.71143122830E+01  0.22904827502E+02  0.00000000000E+00 0.  1.
</event>
<event>
 7    1  0.2644565E-009  0.1055734E+03  0.7561462E-02  0.1268994E+00
         -2   -1    0    0    0  501 -0.00000000000E+00  0.00000000000E+00  0.34943569768E+03  0.34943569768E+03  0.00000000000E+00 0.  1.
          2   -1    0    0  501    0  0.00000000000E+00 -0.00000000000E+00 -0.49778538248E+02  0.49778538248E+02  0.00000000000E+00 0. -1.
         25    2    1    2    0    0  0.64133784517E+02 -0.33775544740E+02  0.14441056344E+03  0.20433338814E+03  0.12507514916E+03 0.  0.
          5    1    3    3  502    0  0.48474110304E+02 -0.75391492438E+02  0.57361496322E+02  0.10649615093E+03  0.41800000000E+01 0.  1.
         -5    1    3    3    0  502  0.15659674213E+02  0.41615947699E+02  0.87049067122E+02  0.97837237216E+02  0.41800000000E+01 0.  1.
        -11    1    1    2    0    0 -0.19881783576E+02  0.24486800589E+02 -0.16635279452E+01  0.31585693699E+02  0.00000000000E+00 0. -1.
         11    1    1    2    0    0 -0.44252000941E+02  0.92887441508E+01  0.15691012393E+03  0.16329515409E+03  0.00000000000E+00 0.  1.
</event>
<event>
 7    1  0.2644565E-009  0.1498775E+03  0.7561462E-02  0.1200624E+00
          1   -1    0    0  501    0  0.00000000000E+00  0.00000000000E+00  0.69866544075E+03  0.69866544075E+03  0.00000000000E+00 0. -1.
         -1   -1    0    0    0  501 -0.00000000000E+00 -0.00000000000E+00 -0.34594659095E+02  0.34594659095E+02  0.00000000000E+00 0.  1.
         25    2    1    2    0    0  0.62609608637E+02 -0.99175277900E+02  0.43392902015E+03  0.46658331805E+03  0.12509955761E+03 0.  0.
          5    1    3    3  502    0 -0.18017902386E+02  0.19985358426E+02  0.59240737283E+02  0.65199668033E+02  0.41800000000E+01 0.  1.
         -5    1    3    3    0  502  0.80627511023E+02 -0.11916063633E+03  0.37468828286E+03  0.40138365001E+03  0.41800000000E+01 0.  1.
        -11    1    1    2    0    0  0.90853428247E+00  0.45270845021E+02  0.45898687236E+02  0.64474524686E+02  0.00000000000E+00 0.  1.
         11    1    1    2    0    0 -0.63518142920E+02  0.53904432879E+02  0.18424307427E+03  0.20220225711E+03  0.00000000000E+00 0. -1.
</event>
<event>
 7    1  0.2644565E-009  0.7464720E+02  0.7561462E-02  0.1344967E+00
         -1   -1    0    0    0  501 -0.00000000000E+00  0.00000000000E+00  0.76580467835E+02  0.76580467835E+02  0.00000000000E+00 0.  1.
          1   -1    0    0  501    0  0.00000000000E+00 -0.00000000000E+00 -0.17149397757E+03  0.17149397757E+03  0.00000000000E+00 0. -1.
         25    2    1    2    0    0 -0.24131440161E+02  0.15400709336E+02 -0.30145893988E+02  0.13178321342E+03  0.12505411694E+03 0.  0.
          5    1    3    3  502    0 -0.37152084919E+02 -0.36427500713E+02 -0.52200410591E+02  0.73821375549E+02  0.41800000000E+01 0. -1.
         -5    1    3    3    0  502  0.13020644758E+02  0.51828210048E+02  0.22054516604E+02  0.57961837871E+02  0.41800000000E+01 0. -1.
        -11    1    1    2    0    0  0.14831403310E+02  0.90221433032E+01  0.20642799327E+02  0.26972110744E+02  0.00000000000E+00 0.  1.
         11    1    1    2    0    0  0.93000368512E+01 -0.24422852639E+02 -0.85410415078E+02  0.89319121247E+02  0.00000000000E+00 0. -1.
</event>
<event>
 7    1  0.2644565E-009  0.1219399E+03  0.7561462E-02  0.1239931E+00
          4   -1    0    0  501    0  0.00000000000E+00  0.00000000000E+00  0.18823544993E+03  0.18823544993E+03  0.00000000000E+00 0.  1.
         -4   -1    0    0    0  501 -0.00000000000E+00 -0.00000000000E+00 -0.10990386767E+03  0.10990386767E+03  0.00000000000E+00 0. -1.
         25    2    1    2    0    0  0.64157695621E+02  0.58081393570E+02  0.83692592592E+02  0.17361229170E+03  0.12508844706E+03 0.  0.
          5    1    3    3  502    0  0.87967223164E+02  0.12765163589E+02  0.83825670267E+02  0.12225136870E+03  0.41800000000E+01 0.  1.
         -5    1    3    3    0  502 -0.23809527543E+02  0.45316229981E+02 -0.13307767549E+00  0.51360922998E+02  0.41800000000E+01 0.  1.
        -11    1    1    2    0    0 -0.60806333460E+02 -0.69082796489E+02  0.22192530986E+02  0.94669696267E+02  0.00000000000E+00 0.  1.
         11    1    1    2    0    0 -0.33513621610E+01  0.11001402919E+02 -0.27553541317E+02  0.29857329647E+02  0.00000000000E+00 0. -1.
</event>
<event>
 7    1  0.2644565E-009  0.2106371E+03  0.7561462E-02  0.1141062E+00
          1   -1    0    0  501    0  0.00000000000E+00  0.00000000000E+00  0.21153178958E+03  0.21153178958E+03  0.00000000000E+00 0. -1.
         -1   -1    0    0    0  501 -0.00000000000E+00 -0.00000000000E+00 -0.21290513309E+03  0.21290513309E+03  0.00000000000E+00 0.  1.
         25    2    1    2    0    0  0.28118035100E+02  0.17806591564E+03 -0.16640902013E+02  0.22005148591E+03  0.12509053769E+03 0.  0.
          5    1    3    3  502    0  0.27287449561E+01  0.19025065324E+03 -0.87919947718E+01  0.19051910319E+03  0.41800000000E+01 0. -1.
         -5    1    3    3    0  502  0.25389290144E+02 -0.12184737596E+02 -0.78489072408E+01  0.29532382721E+02  0.41800000000E+01 0. -1.
        -11    1    1    2    0    0 -0.59756716471E+02 -0.82841166692E+02 -0.39393085956E+01  0.10222055671E+03  0.00000000000E+00 0.  1.
         11    1    1    2    0    0  0.31638681371E+02 -0.95224748951E+02  0.19206867095E+02  0.10216488005E+03  0.00000000000E+00 0. -1.
</event>
<event>
 7    1  0.2644565E-009  0.1321345E+03  0.7561462E-02  0.1224322E+00
         -2   -1    0    0    0  501 -0.00000000000E+00  0.00000000000E+00  0.43425471623E+03  0.43425471623E+03  0.00000000000E+00 0.  1.
          2   -1    0    0  501    0  0.00000000000E+00 -0.00000000000E+00 -0.47213715821E+02  0.47213715821E+02  0.00000000000E+00 0. -1.
         25    2    1    2    0    0  0.19193699732E+02 -0.88775762402E+02  0.25743165551E+03  0.30027914291E+03  0.12508785836E+03 0.  0.
          5    1    3    3  502    0  0.64563874734E+01 -0.11375182517E+03  0.14568857956E+03  0.18499674938E+03  0.41800000000E+01 0.  1.
         -5    1    3    3    0  502  0.12737312258E+02  0.24976062763E+02  0.11174307595E+03  0.11528239353E+03  0.41800000000E+01 0.  1.
        -11    1    1    2    0    0  0.31831474286E+02  0.26630758591E+02  0.22353522435E+02  0.47139368086E+02  0.00000000000E+00 0.  1.
         11    1    1    2    0    0 -0.51025174018E+02  0.62145003812E+02  0.10725582246E+03  0.13404992105E+03  0.00000000000E+00 0. -1.
</event>
<event>
 7    1  0.2644565E-009  0.9467556E+02  0.7561462E-02  0.1291908E+00
          2   -1    0    0  501    0  0.00000000000E+00  0.00000000000E+00  0.44215249438E+03  0.44215249438E+03  0.00000000000E+00 0. -1.
         -2   -1    0    0    0  501 -0.00000000000E+00 -0.00000000000E+00 -0.35143089356E+02  0.35143089356E+02  0.00000000000E+00 0.  1.
         25    2    1    2    0    0  0.45406071107E+02 -0.31916202162E+02  0.17099841350E+03  0.21901671449E+03  0.12509000181E+03 0.  0.
          5    1    3    3  502    0  0.30325470754E+02 -0.73482897764E+02  0.15016171538E+03  0.16995700517E+03  0.41800000000E+01 0.  1.
         -5    1    3    3    0  502  0.15080600354E+02  0.41566695603E+02  0.20836698120E+02  0.49059709323E+02  0.41800000000E+01 0.  1.
        -11    1    1    2    0    0  0.14026280756E+01  0.15746769725E+02 -0.12935761010E+01  0.15861950114E+02  0.00000000000E+00 0.  1.
         11    1    1    2    0    0 -0.46808699183E+02  0.16169432436E+02  0.23730456763E+03  0.24241691913E+03  0.00000000000E+00 0. -1.
</event>
<event>
 7    1  0.2644565E-009  0.1300243E+03  0.7561462E-02  0.1227420E+00
         -1   -1    0    0    0  501 -0.00000000000E+00  0.00000000000E+00  0.56129468806E+03  0.56129468806E+03  0.00000000000E+00 0.  1.
          1   -1    0    0  501    0  0.00000000000E+00 -0.00000000000E+00 -0.54777280826E+02  0.54777280826E+02  0.00000000000E+00 0. -1.
         25    2    1    2    0    0  0.10556735304E+03  0.28190367266E+02  0.38490100627E+03  0.41920873758E+03  0.12509203894E+03 0.  0.
          5    1    3    3  502    0 -0.49803461704E+01  0.18872364013E+02  0.21704412443E+03  0.21796007507E+03  0.41800000000E+01 0. -1.
         -5    1    3    3    0  502  0.11054769921E+03  0.93180032531E+01  0.16785688183E+03  0.20124866252E+03  0.41800000000E+01 0. -1.
        -11    1    1    2    0    0 -0.62854077136E+02 -0.50731254731E+02  0.12458272958E+03  0.14847609817E+03  0.00000000000E+00 0.  1.
         11    1    1    2    0    0 -0.42713275907E+02  0.22540887465E+02 -0.29663286200E+01  0.48387133124E+02  0.00000000000E+00 0. -1.
</event>
<event>
 7    1  0.2644565E-009  0.1097612E+03  0.7561462E-02  0.1261013E+00
         -1   -1    0    0    0  501 -0.00000000000E+00  0.00000000000E+00  0.17436867759E+03  0.17436867759E+03  0.00000000000E+00 0.  1.
          1   -1    0    0  501    0  0.00000000000E+00 -0.00000000000E+00 -0.90840571132E+02  0.90840571132E+02  0.00000000000E+00 0. -1.
         25    2    1    2    0    0 -0.39409403713E+02 -0.24448854597E+02 -0.11341088771E+02  0.13388986897E+03  0.12508808547E+03 0.  0.
          5    1    3    3  502    0  0.41843733289E+02  0.12727733195E+02 -0.48487420433E+01  0.44202668553E+02  0.41800000000E+01 0.  1.
         -5    1    3    3    0  502 -0.81253137002E+02 -0.37176587792E+02 -0.64923467277E+01  0.89687200417E+02  0.41800000000E+01 0.  1.
        -11    1    1    2    0    0  0.23571779709E+01 -0.24572746075E+02  0.10219067163E+02  0.26717138157E+02  0.00000000000E+00 0.  1.
         11    1    1    2    0    0  0.37052225742E+02  0.49021600672E+02  0.84650128066E+02  0.10460224159E+03  0.00000000000E+00 0. -1.
</event>
<event>
 7    1  0.2644565E-009  0.1088769E+03  0.7561462E-02  0.1262664E+00
         -2   -1    0    0    0  501 -0.00000000000E+00  0.00000000000E+00  0.17356485685E+03  0.17356485685E+03  0.00000000000E+00 0. -1.
          2   -1    0    0  501    0  0.00000000000E+00 -0.00000000000E+00 -0.28414575831E+03  0.28414575831E+03  0.00000000000E+00 0.  1.
         25    2    1    2    0    0  0.21215652312E+02 -0.21972669037E+02 -0.25169223881E+03  0.28271985552E+03  0.12509449045E+03 0.  0.
          5    1    3    3  502    0 -0.47642438898E+02 -0.21020418636E+01 -0.52814070629E+02  0.71281266968E+02  0.41800000000E+01 0.  1.
         -5    1    3    3    0  502  0.68858091210E+02 -0.19870627173E+02 -0.19887816819E+03  0.21143858856E+03  0.41800000000E+01 0.  1.
        -11    1    1    2    0    0 -0.58025604736E+02  0.73692269395E+01  0.11017328101E+03  0.12473743688E+03  0.00000000000E+00 0. -1.
         11    1    1    2    0    0  0.36809952423E+02  0.14603442098E+02  0.30938056340E+02  0.50253322762E+02  0.00000000000E+00 0.  1.
</event>
<event>
 7    1  0.2644565E-009  0.1734054E+03  0.7561462E-02  0.1174342E+00
          2   -1    0    0  501    0  0.00000000000E+00  0.00000000000E+00  0.11049913589E+04  0.11049913589E+04  0.00000000000E+00 0.  1.
         -2   -1    0    0    0  501 -0.00000000000E+00 -0.00000000000E+00 -0.80871821641E+02  0.80871821641E+02  0.00000000000E+00 0. -1.
         25    2    1    2    0    0 -0.16128973339E+03 -0.32964235557E+02  0.96544997707E+03  0.98734096002E+03  0.12508994437E+03 0.  0.
          5    1    3    3  502    0 -0.10455745022E+03 -0.11717699820E+02  0.85360347682E+03  0.86007321370E+03  0.41800000000E+01 0. -1.
         -5    1    3    3    0  502 -0.56732283170E+02 -0.21246535737E+02  0.11184650025E+03  0.12726774631E+03  0.41800000000E+01 0. -1.
        -11    1    1    2    0    0  0.33738206883E+02 -0.23689148313E+02  0.40477666377E+02  0.57774421908E+02  0.00000000000E+00 0.  1.
         11    1    1    2    0    0  0.12755152650E+03  0.56653383870E+02  0.18191893822E+02  0.14074779863E+03  0.00000000000E+00 0. -1.
</event>
<event>
 7    1  0.2644565E-009  0.1290592E+03  0.7561462E-02  0.1228858E+00
         -2   -1    0    0    0  501 -0.00000000000E+00  0.00000000000E+00  0.67077831137E+02  0.67077831137E+02  0.00000000000E+00 0.  1.
          2   -1    0    0  501    0  0.00000000000E+00 -0.00000000000E+00 -0.31715271036E+03  0.31715271036E+03  0.00000000000E+00 0. -1.
         25    2    1    2    0    0  0.47126446946E+02  0.83416882045E+02 -0.16201483619E+03  0.22599881104E+03  0.12508947691E+03 0.  0.
          5    1    3    3  502    0 -0.42045230113E+00 -0.31259981251E+02 -0.20096350500E+02  0.37399183298E+02  0.41800000000E+01 0. -1.
         -5    1    3    3    0  502  0.47546899247E+02  0.11467686330E+03 -0.14191848569E+03  0.18859962774E+03  0.41800000000E+01 0. -1.
        -11    1    1    2    0    0 -0.51121391196E+02 -0.60977148856E+02 -0.14063803148E+02  0.80804702087E+02  0.00000000000E+00 0.  1.
         11    1    1    2    0    0  0.39949442502E+01 -0.22439733189E+02 -0.73996239888E+02  0.77427028373E+02  0.00000000000E+00 0. -1.
</event>
<event>
 7    1  0.2644565E-009  0.8244786E+02  0.7561462E-02  0.1322245E+00
          2   -1    0    0  501    0  0.00000000000E+00  0.00000000000E+00  0.18477017331E+03  0.18477017331E+03  0.00000000000E+00 0. -1.
         -2   -1    0    0    0  501 -0.00000000000E+00 -0.00000000000E+00 -0.62484052097E+02  0.62484052097E+02  0.00000000000E+00 0.  1.
         25    2    1    2    0    0 -0.30561808518E+01  0.30397125053E+01  0.81509172468E+02  0.14938879705E+03  0.12511869322E+03 0.  0.
          5    1    3    3  502    0  0.26867707745E+02  0.27077786911E+02  0.99610251775E+02  0.10674621737E+03  0.41800000000E+01 0. -1.
         -5    1    3    3    0  502 -0.29923888597E+02 -0.24038074406E+02 -0.18101079306E+02  0.42642579682E+02  0.41800000000E+01 0. -1.
        -11    1    1    2    0    0 -0.38348000430E+02 -0.19902868545E+02  0.12540156206E+02  0.44988318828E+02  0.00000000000E+00 0.  1.
         11    1    1    2    0    0  0.41404181282E+02  0.16863156040E+02  0.28236792539E+02  0.52877109529E+02  0.00000000000E+00 0. -1.
</event>
<event>
 7    1  0.2644565E-009  0.1203738E+03  0.7561462E-02  0.1242482E+00
          4   -1    0    0  501    0  0.00000000000E+00  0.00000000000E+00  0.65444961808E+02  0.65444961808E+02  0.00000000000E+00 0. -1.
         -4   -1    0    0    0  501 -0.00000000000E+00 -0.00000000000E+00 -0.26272034981E+03  0.26272034981E+03  0.00000000000E+00 0.  1.
         25    2    1    2    0    0  0.25059354165E+02 -0.65407160994E+02 -0.14503621886E+03  0.20393266799E+03  0.12508781057E+03 0.  0.
          5    1    3    3  502    0 -0.28346103433E+02  0.24770574400E+02 -0.30530348933E+02  0.48648304615E+02  0.41800000000E+01 0.  1.
         -5    1    3    3    0  502  0.53405457598E+02 -0.90177735394E+02 -0.11450586992E+03  0.15528436338E+03  0.41800000000E+01 0.  1.
        -11    1    1    2    0    0 -0.48982205135E+02  0.45655723665E+02 -0.62460010788E+02  0.91569397022E+02  0.00000000000E+00 0.  1.
         11    1    1    2    0    0  0.23922850970E+02  0.19751437328E+02  0.10220841641E+02  0.32663246607E+02  0.00000000000E+00 0. -1.
</event>
<event>
 7    1  0.2644565E-009  0.1140131E+03  0.7561462E-02  0.1253314E+00
         -4   -1    0    0    0  501 -0.00000000000E+00  0.00000000000E+00  0.15815790179E+03  0.15815790179E+03  0.00000000000E+00 0.  1.
          4   -1    0    0  501    0  0.00000000000E+00 -0.00000000000E+00 -0.15661312808E+03  0.15661312808E+03  0.00000000000E+00 0. -1.
         25    2    1    2    0    0 -0.60280700304E+02  0.74176263960E+02 -0.62227809409E+02  0.16928301680E+03  0.12509419871E+03 0.  0.
          5    1    3    3  502    0 -0.78229420284E+02  0.34357073588E+02 -0.84357472337E+02  0.12014119295E+03  0.41800000000E+01 0.  1.
         -5    1    3    3    0  502  0.17948719980E+02  0.39819190372E+02  0.22129662928E+02  0.49141823858E+02  0.41800000000E+01 0.  1.
        -11    1    1    2    0    0  0.21588905992E+02 -0.45768952314E+02 -0.15404067098E+02  0.52897666687E+02  0.00000000000E+00 0. -1.
         11    1    1    2    0    0  0.38691794312E+02 -0.28407311646E+02  0.79176650222E+02  0.92590346378E+02  0.00000000000E+00 0.  1.
</event>
<event>
 7    1  0.2644565E-009  0.1079498E+03  0.7561462E-02  0.1264414E+00
         -2   -1    0    0    0  501 -0.00000000000E+00  0.00000000000E+00  0.11793753137E+02  0.11793753137E+02  0.00000000000E+00 0.  1.
          2   -1    0    0  501    0  0.00000000000E+00 -0.00000000000E+00 -0.11710067851E+04  0.11710067851E+04  0.00000000000E+00 0. -1.
         25    2    1    2    0    0 -0.27021995857E+02 -0.23771990755E+01 -0.75714563979E+03  0.76788629480E+03  0.12507598709E+03 0.  0.
          5    1    3    3  502    0  0.33461610749E+02  0.31218642140E+02 -0.48038258652E+03  0.48257557423E+03  0.41800000000E+01 0.  1.
         -5    1    3    3    0  502 -0.60483606607E+02 -0.33595841215E+02 -0.27676305327E+03  0.28531072057E+03  0.41800000000E+01 0.  1.
        -11    1    1    2    0    0  0.40960209620E+02 -0.39251895899E+02 -0.18717989598E+03  0.19558825006E+03  0.00000000000E+00 0.  1.
         11    1    1    2    0    0 -0.13938213762E+02  0.41629094974E+02 -0.21488749621E+03  0.21932599339E+03  0.00000000000E+00 0. -1.
</event>
<event>
 7    1  0.2644565E-009  0.8954828E+02  0.7561462E-02  0.1303949E+00
          1   -1    0    0  501    0  0.00000000000E+00  0.00000000000E+00  0.12767743940E+04  0.12767743940E+04  0.00000000000E+00 0. -1.
         -1   -1    0    0    0  501 -0.00000000000E+00 -0.00000000000E+00 -0.16289515056E+02  0.16289515056E+02  0.00000000000E+00 0.  1.
         25    2    1    2    0    0  0.11814643597E+02 -0.15805186586E+02  0.10989964200E+04  0.11062681557E+04  0.12508681478E+03 0.  0.
          5    1    3    3  502    0 -0.39776566213E+02 -0.63199292915E+01  0.88395114456E+03  0.88487807922E+03  0.41800000000E+01 0. -1.
         -5    1    3    3    0  502  0.51591209810E+02 -0.94852572947E+01  0.21504527548E+03  0.22139007643E+03  0.41800000000E+01 0. -1.
        -11    1    1    2    0    0 -0.26478990648E+02 -0.28744280644E+02  0.11195780738E+03  0.11858297201E+03  0.00000000000E+00 0. -1.
         11    1    1    2    0    0  0.14664347052E+02  0.44549467230E+02  0.49530651508E+02  0.68212781381E+02  0.00000000000E+00 0.  1.
</event>
<event>
 7    1  0.2644565E-009  0.1627376E+03  0.7561462E-02  0.1185640E+00
         -1   -1    0    0    0  501 -0.00000000000E+00  0.00000000000E+00  0.29960710728E+02  0.29960710728E+02  0.00000000000E+00 0.  1.
          1   -1    0    0  501    0  0.00000000000E+00 -0.00000000000E+00 -0.11724184069E+04  0.11724184069E+04  0.00000000000E+00 0. -1.
         25    2    1    2    0    0 -0.93812781337E+02 -0.11799564566E+03 -0.68339250862E+03  0.71091291439E+03  0.12509212876E+03 0.  0.
          5    1    3    3  502    0 -0.18884644570E+02 -0.13503433236E+02 -0.38806743170E+03  0.38878371423E+03  0.41800000000E+01 0. -1.
         -5    1    3    3    0  502 -0.74928136767E+02 -0.10449221242E+03 -0.29532507692E+03  0.32212920016E+03  0.41800000000E+01 0. -1.
        -11    1    1    2    0    0  0.10663165844E+03  0.80483488227E+02 -0.31766426164E+03  0.34461353076E+03  0.00000000000E+00 0.  1.
         11    1    1    2    0    0 -0.12818877101E+02  0.37512157429E+02 -0.14140092595E+03  0.14685267251E+03  0.00000000000E+00 0. -1.
</event>
<event>
 7    1  0.2644565E-009  0.2261665E+03  0.7561462E-02  0.1129367E+00
          1   -1    0    0  501    0  0.00000000000E+00  0.00000000000E+00  0.10492954891E+04  0.10492954891E+04  0.00000000000E+00 0. -1.
         -1   -1    0    0    0  501 -0.00000000000E+00 -0.00000000000E+00 -0.50712994366E+02  0.50712994366E+02  0.00000000000E+00 0.  1.
         25    2    1    2    0    0  0.15049308057E+03  0.13488232931E+03  0.52705877372E+03  0.57816966686E+03  0.12509117739E+03 0.  0.
          5    1    3    3  502    0  0.41269065826E+02 -0.20923534950E+02  0.84685467302E+02  0.96592084982E+02  0.41800000000E+01 0.  1.
         -5    1    3    3    0  502  0.10922401474E+03  0.15580586426E+03  0.44237330642E+03  0.48157758187E+03  0.41800000000E+01 0.  1.
        -11    1    1    2    0    0 -0.11661220434E+03 -0.13898207371E+03  0.33344535792E+03  0.37960536051E+03  0.00000000000E+00 0.  1.
         11    1    1    2    0    0 -0.33880876222E+02  0.40997443991E+01  0.13807836307E+03  0.14223345607E+03  0.00000000000E+00 0. -1.
</event>
<event>
 7    1  0.2644565E-009  0.1092713E+03  0.7561462E-02  0.1261925E+00
          2   -1    0    0  501    0  0.00000000000E+00  0.00000000000E+00  0.64670716205E+02  0.64670716205E+02  0.00000000000E+00 0. -1.
         -2   -1    0    0    0  501 -0.00000000000E+00 -0.00000000000E+00 -0.20001842861E+03  0.20001842861E+03  0.00000000000E+00 0.  1.
         25    2    1    2    0    0 -0.19137270502E+02 -0.10849128481E+02 -0.45932396103E+02  0.13506385210E+03  0.12509404630E+03 0.  0.
          5    1    3    3  502    0 -0.16293657422E+02  0.56106311783E+02 -0.11838988356E+02  0.59758142034E+02  0.41800000000E+01 0.  1.
         -5    1    3    3    0  502 -0.28436130803E+01 -0.66955440264E+02 -0.34093407747E+02  0.75305710063E+02  0.41800000000E+01 0.  1.
        -11    1    1    2    0    0  0.37371475323E+02 -0.30107643226E+02 -0.36644011089E+02  0.60381130306E+02  0.00000000000E+00 0.  1.
         11    1    1    2    0    0 -0.18234204821E+02  0.40956771706E+02 -0.52771305213E+02  0.69244162411E+02  0.00000000000E+00 0. -1.
</event>
<event>
 7    1  0.2644565E-009  0.1194251E+03  0.7561462E-02  0.1244048E+00
          2   -1    0    0  501    0  0.00000000000E+00  0.00000000000E+00  0.38464182920E+03  0.38464182920E+03  0.00000000000E+00 0. -1.
         -2   -1    0    0    0  501 -0.00000000000E+00 -0.00000000000E+00 -0.42672739739E+02  0.42672739739E+02  0.00000000000E+00 0.  1.
         25    2    1    2    0    0  0.56875687501E+02  0.38356023756E+02  0.20492369136E+03  0.24969653287E+03  0.12509440778E+03 0.  0.
          5    1    3    3  502    0 -0.59502439679E+01 -0.35599319187E+02  0.10153477507E+03  0.10784015893E+03  0.41800000000E+01 0.  1.
         -5    1    3    3    0  502  0.62825931469E+02  0.73955342943E+02  0.10338891629E+03  0.14185637394E+03  0.41800000000E+01 0.  1.
        -11    1    1    2    0    0 -0.56568799336E+02  0.96450507817E+01  0.10574577684E+03  0.12031303081E+03  0.00000000000E+00 0. -1.
         11    1    1    2    0    0 -0.30688816423E+00 -0.48001074537E+02  0.31299621264E+02  0.57305005264E+02  0.00000000000E+00 0.  1.
</event>
<event>
 7    1  0.2644565E-009  0.8909569E+02  0.7561462E-02  0.1305057E+00
         -3   -1    0    0    0  501 -0.00000000000E+00  0.00000000000E+00  0.43858310172E+02  0.43858310172E+02  0.00000000000E+00 0.  1.
          3   -1    0    0  501    0  0.00000000000E+00 -0.00000000000E+00 -0.39527020979E+03  0.39527020979E+03  0.00000000000E+00 0. -1.
         25    2    1    2    0    0  0.55849812483E+02 -0.26048128227E+02 -0.26667785927E+03  0.30093540146E+03  0.12508928287E+03 0.  0.
          5    1    3    3  502    0  0.17951602294E+02  0.10619123646E+02 -0.24135094490E+03  0.24228655930E+03  0.41800000000E+01 0. -1.
         -5    1    3    3    0  502  0.37898210189E+02 -0.36667251873E+02 -0.25326914366E+02  0.58648842160E+02  0.41800000000E+01 0. -1.
        -11    1    1    2    0    0 -0.20692461025E+02 -0.30844212843E+02 -0.51542384425E+02  0.63530786249E+02  0.00000000000E+00 0. -1.
         11    1    1    2    0    0 -0.35157351459E+02  0.56892341070E+02 -0.33191655922E+02  0.74662332249E+02  0.00000000000E+00 0.  1.
</event>
<event>
 7    1  0.2644565E-009  0.1037037E+03  0.7561462E-02  0.1272695E+00
         -2   -1    0    0    0  501 -0.00000000000E+00  0.00000000000E+00  0.12367938608E+02  0.12367938608E+02  0.00000000000E+00 0.  1.
          2   -1    0    0  501    0  0.00000000000E+00 -0.00000000000E+00 -0.12646991325E+04  0.12646991325E+04  0.00000000000E+00 0. -1.
         25    2    1    2    0    0 -0.38437268703E+02  0.18195758520E+02 -0.90960376741E+03  0.91914905624E+03  0.12508982629E+03 0.  0.
          5    1    3    3  502    0 -0.68094686545E+01  0.56923828654E+02 -0.20929520998E+03  0.21704526821E+03  0.41800000000E+01 0.  1.
         -5    1    3    3    0  502 -0.31627800049E+02 -0.38728070134E+02 -0.70030855742E+03  0.70210378802E+03  0.41800000000E+01 0.  1.
        -11    1    1    2    0    0 -0.28408205264E+02 -0.16562922200E+02 -0.15991341794E+03  0.16325947984E+03  0.00000000000E+00 0. -1.
         11    1    1    2    0    0  0.66845473967E+02 -0.16328363193E+01 -0.18281400857E+03  0.19465853506E+03  0.00000000000E+00 0.  1.
</event>
<event>
 7    1  0.2644565E-009  0.1204234E+03  0.7561462E-02  0.1242400E+00
         -1   -1    0    0    0  501 -0.00000000000E+00  0.00000000000E+00  0.36690834771E+02  0.36690834771E+02  0.00000000000E+00 0.  1.
          1   -1    0    0  501    0  0.00000000000E+00 -0.00000000000E+00 -0.60227364719E+03  0.60227364719E+03  0.00000000000E+00 0. -1.
         25    2    1    2    0    0  0.70099926197E+02 -0.54855764405E+02 -0.20062730064E+03  0.25262981797E+03  0.12508939452E+03 0.  0.
          5    1    3    3  502    0 -0.15071814643E+02 -0.34062063238E+02 -0.14251872001E+03  0.14736499484E+03  0.41800000000E+01 0. -1.
         -5    1    3    3    0  502  0.85171740840E+02 -0.20793701166E+02 -0.58108580628E+02  0.10526482313E+03  0.41800000000E+01 0. -1.
        -11    1    1    2    0    0 -0.65644561086E+02  0.53232818923E+01 -0.12509781524E+03  0.14137541904E+03  0.00000000000E+00 0.  1.
         11    1    1    2    0    0 -0.44553651110E+01  0.49532482512E+02 -0.23985769654E+03  0.24495924496E+03  0.00000000000E+00 0. -1.
</event>
<event>
 7    1  0.2644565E-009  0.1402503E+03  0.7561462E-02  0.1212993E+00
          2   -1    0    0  501    0  0.00000000000E+00  0.00000000000E+00  0.11084677064E+03  0.11084677064E+03  0.00000000000E+00 0. -1.
         -2   -1    0    0    0  501 -0.00000000000E+00 -0.00000000000E+00 -0.24415761271E+03  0.24415761271E+03  0.00000000000E+00 0.  1.
         25    2    1    2    0    0 -0.31469559584E+02 -0.12061468837E+03 -0.10309570954E+03  0.20449151322E+03  0.12509923031E+03 0.  0.
          5    1    3    3  502    0 -0.52797361911E+02 -0.37952077386E+02  0.65303688448E+01  0.65483125459E+02  0.41800000000E+01 0.  1.
         -5    1    3    3    0  502  0.21327802327E+02 -0.82662610986E+02 -0.10962607838E+03  0.13900838776E+03  0.41800000000E+01 0.  1.
        -11    1    1    2    0    0  0.38795802351E+02  0.83928524264E+02 -0.53132944431E+02  0.10664061726E+03  0.00000000000E+00 0. -1.
         11    1    1    2    0    0 -0.73262427670E+01  0.36686164108E+02  0.22917811899E+02  0.43872252875E+02  0.00000000000E+00 0.  1.
</event>
<event>
 7    1  0.2644565E-009  0.1644812E+03  0.7561462E-02  0.1183728E+00
          4   -1    0    0  501    0  0.00000000000E+00  0.00000000000E+00  0.46668383509E+02  0.46668383509E+02  0.00000000000E+00 0. -1.
         -4   -1    0    0    0  501 -0.00000000000E+00 -0.00000000000E+00 -0.73466278024E+03  0.73466278024E+03  0.00000000000E+00 0.  1.
         25    2    1    2    0    0 -0.12186800973E+03  0.88434327913E+02 -0.33200875395E+03  0.38542208581E+03  0.12509168390E+03 0.  0.
          5    1    3    3  502    0  0.62147949284E+01  0.33053119445E+02 -0.11433673677E+02  0.35767774250E+02  0.41800000000E+01 0. -1.
         -5    1    3    3    0  502 -0.12808280466E+03  0.55381208469E+02 -0.32057508028E+03  0.34965431156E+03  0.41800000000E+01 0. -1.
        -11    1    1    2    0    0  0.74118463662E+02 -0.29891614347E+02 -0.26937383716E+03  0.28097921527E+03  0.00000000000E+00 0.  1.
         11    1    1    2    0    0  0.47749546069E+02 -0.58542713566E+02 -0.86611805616E+02  0.11492986267E+03  0.00000000000E+00 0. -1.
</event>
<event>
 7    1  0.2644565E-009  0.1580836E+03  0.7561462E-02  0.1190877E+00
          1   -1    0    0  501    0  0.00000000000E+00  0.00000000000E+00  0.97675548680E+02  0.97675548680E+02  0.00000000000E+00 0. -1.
         -1   -1    0    0    0  501 -0.00000000000E+00 -0.00000000000E+00 -0.35019893891E+03  0.35019893891E+03  0.00000000000E+00 0.  1.
         25    2    1    2    0    0 -0.14716294930E+03  0.19103317187E+02 -0.15452441261E+03  0.24808728406E+03  0.12509051143E+03 0.  0.
          5    1    3    3  502    0 -0.46862248699E+02  0.17354215847E+02  0.13872583960E+02  0.52030377151E+02  0.41800000000E+01 0. -1.
         -5    1    3    3    0  502 -0.10030070060E+03  0.17491013408E+01 -0.16839699657E+03  0.19605690691E+03  0.41800000000E+01 0. -1.
        -11    1    1    2    0    0  0.14346581037E+03 -0.36333321255E+02 -0.63489501151E+02  0.16103870881E+03  0.00000000000E+00 0. -1.
         11    1    1    2    0    0  0.36971389272E+01  0.17230004067E+02 -0.34509476473E+02  0.38748494717E+02  0.00000000000E+00 0.  1.
</event>
<event>
 7    1  0.2644565E-009  0.1004103E+03  0.7561462E-02  0.1279435E+00
          1   -1    0    0  501    0  0.00000000000E+00  0.00000000000E+00  0.21826601719E+03  0.21826601719E+03  0.00000000000E+00 0. -1.
         -1   -1    0    0    0  501 -0.00000000000E+00 -0.00000000000E+00 -0.53558465253E+02  0.53558465253E+02  0.00000000000E+00 0.  1.
         25    2    1    2    0    0 -0.12598081008E+02  0.13437487035E+02  0.12202657432E+03  0.17572041924E+03  0.12509157923E+03 0.  0.
          5    1    3    3  502    0 -0.58492210127E+02  0.29883909499E+02  0.10497880205E+03  0.12390483434E+03  0.41800000000E+01 0. -1.
         -5    1    3    3    0  502  0.45894129119E+02 -0.16446422463E+02  0.17047772275E+02  0.51815584904E+02  0.41800000000E+01 0. -1.
        -11    1    1    2    0    0  0.45703279300E+02 -0.23608262749E+02  0.24190253521E+02  0.56844596702E+02  0.00000000000E+00 0. -1.
         11    1    1    2    0    0 -0.33105198292E+02  0.10170775714E+02  0.18490724096E+02  0.39259466504E+02  0.00000000000E+00 0.  1.
</event>
<event>
 7    1  0.2644565E-009  0.1327525E+03  0.7561462E-02  0.1223428E+00
         -3   -1    0    0    0  501 -0.00000000000E+00  0.00000000000E+00  0.41671883346E+03  0.41671883346E+03  0.00000000000E+00 0.  1.
          3   -1    0    0  501    0  0.00000000000E+00 -0.00000000000E+00 -0.55438853788E+02  0.55438853788E+02  0.00000000000E+00 0. -1.
         25    2    1    2    0    0 -0.77505440671E+02  0.49663250055E+02  0.27835553008E+03  0.31875112240E+03  0.12508774986E+03 0.  0.
          5    1    3    3  502    0 -0.75298961555E+02  0.82822284853E+02  0.15702855096E+03  0.19288572445E+03  0.41800000000E+01 0. -1.
         -5    1    3    3    0  502 -0.22064791167E+01 -0.33159034798E+02  0.12132697912E+03  0.12586539795E+03  0.41800000000E+01 0. -1.
        -11    1    1    2    0    0  0.12126583429E+02 -0.53159835398E+02  0.66329303936E+02  0.85863838056E+02  0.00000000000E+00 0.  1.
         11    1    1    2    0    0  0.65378857243E+02  0.34965853426E+01  0.16595145658E+02  0.67542726795E+02  0.00000000000E+00 0. -1.
</event>
<event>
 7    1  0.2644565E-009  0.7313502E+02  0.7561462E-02  0.1349745E+00
         -1   -1    0    0    0  501 -0.00000000000E+00  0.00000000000E+00  0.46700172358E+03  0.46700172358E+03  0.00000000000E+00 0.  1.
          1   -1    0    0  501    0  0.00000000000E+00 -0.00000000000E+00 -0.34987180589E+02  0.34987180589E+02  0.00000000000E+00 0. -1.
         25    2    1    2    0    0  0.50417163488E+02  0.89472694948E+01  0.15031918929E+03  0.20215209518E+03  0.12509063478E+03 0.  0.
          5    1    3    3  502    0 -0.96538405109E+01  0.48680275668E+01  0.14053219355E+03  0.14100944703E+03  0.41800000000E+01 0.  1.
         -5    1    3    3    0  502  0.60071003999E+02  0.40792419280E+01  0.97869957371E+01  0.61142648142E+02  0.41800000000E+01 0.  1.
        -11    1    1    2    0    0  0.78907795811E+01 -0.13713546638E+02  0.43785561668E+01  0.16416379561E+02  0.00000000000E+00 0. -1.
         11    1    1    2    0    0 -0.58307943069E+02  0.47662771432E+01  0.27731679754E+03  0.28342042943E+03  0.00000000000E+00 0.  1.
</event>
<event>
 7    1  0.2644565E-009  0.3493475E+03  0.7561462E-02  0.1062883E+00
          2   -1    0    0  501    0  0.00000000000E+00  0.00000000000E+00  0.32468269940E+04  0.32468269940E+04  0.00000000000E+00 0. -1.
         -2   -1    0    0    0  501 -0.00000000000E+00 -0.00000000000E+00 -0.41337842241E+02  0.41337842241E+02  0.00000000000E+00 0.  1.
         25    2    1    2    0    0 -0.31309682099E+03 -0.13540561308E+03  0.19680925600E+04  0.20013497310E+04  0.12509245293E+03 0.  0.
          5    1    3    3  502    0 -0.27170073314E+02 -0.40024379429E+02  0.13139732848E+03  0.14008174101E+03  0.41800000000E+01 0. -1.
         -5    1    3    3    0  502 -0.28592674768E+03 -0.95381233648E+02  0.18366952315E+04  0.18612679900E+04  0.41800000000E+01 0. -1.
        -11    1    1    2    0    0  0.14181947956E+03  0.10070424045E+03  0.71960394726E+03  0.74032692085E+03  0.00000000000E+00 0. -1.
         11    1    1    2    0    0  0.17127734143E+03  0.34701372630E+02  0.51779264445E+03  0.54648818432E+03  0.00000000000E+00 0.  1.
</event>
<event>
 7    1  0.2644565E-009  0.1123425E+03  0.7561462E-02  0.1256292E+00
         -4   -1    0    0    0  501 -0.00000000000E+00  0.00000000000E+00  0.16134081671E+03  0.16134081671E+03  0.00000000000E+00 0.  1.
          4   -1    0    0  501    0  0.00000000000E+00 -0.00000000000E+00 -0.10566331032E+03  0.10566331032E+03  0.00000000000E+00 0. -1.
         25    2    1    2    0    0 -0.66855995338E+02 -0.11618187014E+02  0.48714156183E+02  0.15041562697E+03  0.12508831058E+03 0.  0.
          5    1    3    3  502    0  0.87223530215E+01 -0.29331380856E+02  0.64114906930E+02  0.71166024449E+02  0.41800000000E+01 0.  1.
         -5    1    3    3    0  502 -0.75578348359E+02  0.17713193842E+02 -0.15400750748E+02  0.79249602525E+02  0.41800000000E+01 0.  1.
        -11    1    1    2    0    0  0.91166398113E+02  0.89380090623E+01  0.90088075757E+01  0.92045416860E+02  0.00000000000E+00 0. -1.
         11    1    1    2    0    0 -0.24310402776E+02  0.26801779520E+01 -0.20454573638E+01  0.24543083197E+02  0.00000000000E+00 0.  1.
</event>
<event>
 7    1  0.2644565E-009  0.2218135E+03  0.7561462E-02  0.1132538E+00
         -3   -1    0    0    0  501 -0.00000000000E+00  0.00000000000E+00  0.24908309622E+03  0.24908309622E+03  0.00000000000E+00 0.  1.
          3   -1    0    0  501    0  0.00000000000E+00 -0.00000000000E+00 -0.26535899482E+03  0.26535899482E+03  0.00000000000E+00 0. -1.
         25    2    1    2    0    0  0.12090097466E+03  0.18516781822E+03  0.64601920931E+02  0.26215546062E+03  0.12509160949E+03 0.  0.
          5    1    3    3  502    0  0.85608373185E+02  0.11099750329E+03  0.10038408362E+03  0.17246354960E+03  0.41800000000E+01 0.  1.
         -5    1    3    3    0  502  0.35292601476E+02  0.74170314931E+02 -0.35782162686E+02  0.89691911020E+02  0.41800000000E+01 0.  1.
        -11    1    1    2    0    0 -0.91040742042E+02 -0.13990404744E+03 -0.10024440698E+03  0.19470618976E+03  0.00000000000E+00 0. -1.
         11    1    1    2    0    0 -0.29860232620E+02 -0.45263770787E+02  0.19366587446E+02  0.57580440666E+02  0.00000000000E+00 0.  1.
</event>
<event>
 7    1  0.2644565E-009  0.1371146E+03  0.7561462E-02  0.1217265E+00
         -1   -1    0    0    0  501 -0.00000000000E+00  0.00000000000E+00  0.20393761315E+02  0.20393761315E+02  0.00000000000E+00 0.  1.
          1   -1    0    0  501    0  0.00000000000E+00 -0.00000000000E+00 -0.14013184303E+04  0.14013184303E+04  0.00000000000E+00 0. -1.
         25    2    1    2    0    0 -0.45897276322E+02  0.11153131847E+03 -0.93772031554E+03  0.95368581231E+03  0.12510572909E+03 0.  0.
          5    1    3    3  502    0 -0.54056876564E+01  0.93805557618E+02 -0.29945450148E+03  0.31387764329E+03  0.41800000000E+01 0.  1.
         -5    1    3    3    0  502 -0.40491588665E+02  0.17725760856E+02 -0.63826581406E+03  0.63980816902E+03  0.41800000000E+01 0.  1.
        -11    1    1    2    0    0  0.37026651666E+01 -0.86778153623E+02 -0.17468375187E+03  0.19508606010E+03  0.00000000000E+00 0.  1.
         11    1    1    2    0    0  0.42194611155E+02 -0.24753164850E+02 -0.26852060155E+03  0.27294031919E+03  0.00000000000E+00 0. -1.
</event>
<event>
 7    1  0.2644565E-009  0.1072271E+03  0.7561462E-02  0.1265793E+00
         -2   -1    0    0    0  501 -0.00000000000E+00  0.00000000000E+00  0.47316955894E+02  0.47316955894E+02  0.00000000000E+00 0.  1.
          2   -1    0    0  501    0  0.00000000000E+00 -0.00000000000E+00 -0.29113410761E+03  0.29113410761E+03  0.00000000000E+00 0. -1.
         25    2    1    2    0    0  0.53442033511E+00  0.10511758958E+02 -0.82297066160E+02  0.15010340387E+03  0.12508973608E+03 0.  0.
          5    1    3    3  502    0 -0.40477821412E+02  0.52419187575E+02 -0.37752613994E+02  0.76347609757E+02  0.41800000000E+01 0. -1.
         -5    1    3    3    0  502  0.41012241747E+02 -0.41907428617E+02 -0.44544452167E+02  0.73755794113E+02  0.41800000000E+01 0. -1.
        -11    1    1    2    0    0  0.12905652293E+01  0.39371189705E+02 -0.36387860205E+02  0.53626789087E+02  0.00000000000E+00 0.  1.
         11    1    1    2    0    0 -0.18249855644E+01 -0.49882948663E+02 -0.12513222535E+03  0.13472087054E+03  0.00000000000E+00 0. -1.
</event>
<event>
 7    1  0.3680953E-009  0.5022948E+02  0.7561462E-02  0.1444108E+00
         -2   -1    0    0    0  501 -0.00000000000E+00  0.00000000000E+00  0.13045129452E+03  0.13045129452E+03  0.00000000000E+00 0.  1.
          2   -1    0    0  501    0  0.00000000000E+00 -0.00000000000E+00 -0.98390196807E+02  0.98390196807E+02  0.00000000000E+00 0. -1.
         25    2    1    2    0    0  0.33483235304E+02  0.34927540460E+01  0.25233608589E+02  0.13197552544E+03  0.12508987943E+03 0.  0.
          5    1    3    3  502    0 -0.16123690680E+02 -0.15767202170E+01 -0.43700450619E+02  0.46793816173E+02  0.41800000000E+01 0. -1.
         -5    1    3    3    0  502  0.49606925984E+02  0.50694742630E+01  0.68934059208E+02  0.85181709268E+02  0.41800000000E+01 0. -1.
        -11    1    1    2    0    0 -0.17912039934E+02 -0.24885455662E+01  0.48823426476E+02  0.52064969091E+02  0.00000000000E+00 0.  1.
         11    1    1    2    0    0 -0.15571195371E+02 -0.10042084797E+01 -0.41995937351E+02  0.44800996796E+02  0.00000000000E+00 0. -1.
</event>
<event>
 7    1  0.2644565E-009  0.1074485E+03  0.7561462E-02  0.1265369E+00
         -2   -1    0    0    0  501 -0.00000000000E+00  0.00000000000E+00  0.11047617487E+03  0.11047617487E+03  0.00000000000E+00 0.  1.
          2   -1    0    0  501    0  0.00000000000E+00 -0.00000000000E+00 -0.14001215829E+03  0.14001215829E+03  0.00000000000E+00 0. -1.
         25    2    1    2    0    0  0.15901656344E+01 -0.61304956204E+02 -0.10691554336E+02  0.13972329901E+03  0.12508982641E+03 0.  0.
          5    1    3    3  502    0 -0.53772744334E+02 -0.56268994822E+02 -0.25557889465E+02  0.82026739088E+02  0.41800000000E+01 0.  1.
         -5    1    3    3    0  502  0.55362909968E+02 -0.50359613816E+01  0.14866335128E+02  0.57696559926E+02  0.41800000000E+01 0.  1.
        -11    1    1    2    0    0  0.19412078840E+02  0.56386871768E+02  0.22816911372E+02  0.63850760036E+02  0.00000000000E+00 0.  1.
         11    1    1    2    0    0 -0.21002244475E+02  0.49180844363E+01 -0.41661340446E+02  0.46914274110E+02  0.00000000000E+00 0. -1.
</event>
<event>
 7    1  0.2644565E-009  0.1354737E+03  0.7561462E-02  0.1219552E+00
         -2   -1    0    0    0  501 -0.00000000000E+00  0.00000000000E+00  0.40697513832E+02  0.40697513832E+02  0.00000000000E+00 0.  1.
          2   -1    0    0  501    0  0.00000000000E+00 -0.00000000000E+00 -0.66126482721E+03  0.66126482721E+03  0.00000000000E+00 0. -1.
         25    2    1    2    0    0 -0.56031611093E+02  0.74134060004E+02 -0.50170064364E+03  0.52534424362E+03  0.12509051993E+03 0.  0.
          5    1    3    3  502    0 -0.26821959540E+01  0.88151852547E+02 -0.39942399391E+03  0.40906593918E+03  0.41800000000E+01 0.  1.
         -5    1    3    3    0  502 -0.53349415139E+02 -0.14017792543E+02 -0.10227664973E+03  0.11627830444E+03  0.41800000000E+01 0.  1.
        -11    1    1    2    0    0  0.59146719713E+02 -0.91906597439E+02 -0.85800167306E+02  0.13894900437E+03  0.00000000000E+00 0.  1.
         11    1    1    2    0    0 -0.31151086192E+01  0.17772537436E+02 -0.33066502428E+02  0.37669093053E+02  0.00000000000E+00 0. -1.
</event>
<event>
 7    1  0.2644565E-009  0.1169872E+03  0.7561462E-02  0.1248152E+00
          1   -1    0    0  501    0  0.00000000000E+00  0.00000000000E+00  0.55920841304E+02  0.55920841304E+02  0.00000000000E+00 0. -1.
         -1   -1    0    0    0  501 -0.00000000000E+00 -0.00000000000E+00 -0.26597995767E+03  0.26597995767E+03  0.00000000000E+00 0.  1.
         25    2    1    2    0    0 -0.11400616102E+02  0.45595984311E+02 -0.83695191065E+02  0.15767548383E+03  0.12509078848E+03 0.  0.
          5    1    3    3  502    0  0.54485703705E+02  0.17805987004E+02 -0.17334884481E+02  0.60030956193E+02  0.41800000000E+01 0. -1.
         -5    1    3    3    0  502 -0.65886319807E+02  0.27789997307E+02 -0.66360306584E+02  0.97644527640E+02  0.41800000000E+01 0. -1.
        -11    1    1    2    0    0 -0.36729135866E+02 -0.43170205644E+02 -0.66718405687E+02  0.87544512873E+02  0.00000000000E+00 0. -1.
         11    1    1    2    0    0  0.48129751968E+02 -0.24257786676E+01 -0.59645519615E+02  0.76680802270E+02  0.00000000000E+00 0.  1.
</event>
<event>
 7    1  0.2644565E-009  0.1203825E+03  0.7561462E-02  0.1242467E+00
         -2   -1    0    0    0  501 -0.00000000000E+00  0.00000000000E+00  0.19356285323E+03  0.19356285323E+03  0.00000000000E+00 0.  1.
          2   -1    0    0  501    0  0.00000000000E+00 -0.00000000000E+00 -0.12182353321E+03  0.12182353321E+03  0.00000000000E+00 0. -1.
         25    2    1    2    0    0  0.86130942011E+02  0.50306349324E+02  0.23914965337E+02  0.16176579478E+03  0.12508788447E+03 0.  0.
          5    1    3    3  502    0  0.51482880108E+02  0.26481909756E+02  0.75403686974E+02  0.95157589807E+02  0.41800000000E+01 0.  1.
         -5    1    3    3    0  502  0.34648061903E+02  0.23824439568E+02 -0.51488721636E+02  0.66608204976E+02  0.41800000000E+01 0.  1.
        -11    1    1    2    0    0  0.21708489262E+02 -0.17078862735E+02 -0.65100508857E+01  0.28378280795E+02  0.00000000000E+00 0. -1.
         11    1    1    2    0    0 -0.10783943127E+03 -0.33227486589E+02  0.54334405568E+02  0.12524231087E+03  0.00000000000E+00 0.  1.
</event>
<event>
 7    1  0.2644565E-009  0.1001917E+03  0.7561462E-02  0.1279893E+00
         -3   -1    0    0    0  501 -0.00000000000E+00  0.00000000000E+00  0.20169174909E+03  0.20169174909E+03  0.00000000000E+00 0.  1.
          3   -1    0    0  501    0  0.00000000000E+00 -0.00000000000E+00 -0.79226638597E+02  0.79226638597E+02  0.00000000000E+00 0. -1.
         25    2    1    2    0    0  0.66736686786E+02 -0.67486710453E+01  0.73746186817E+02  0.15994758274E+03  0.12508157030E+03 0.  0.
          5    1    3    3  502    0  0.20633201805E+02  0.48846174264E+02  0.69445768196E+02  0.87474938567E+02  0.41800000000E+01 0. -1.
         -5    1    3    3    0  502  0.46103484982E+02 -0.55594845309E+02  0.43004186205E+01  0.72472644168E+02  0.41800000000E+01 0. -1.
        -11    1    1    2    0    0 -0.42442611917E+02  0.20281676373E+02 -0.16676441690E+02  0.49908169775E+02  0.00000000000E+00 0. -1.
         11    1    1    2    0    0 -0.24294074870E+02 -0.13533005328E+02  0.65395365368E+02  0.71062635179E+02  0.00000000000E+00 0.  1.
</event>
<event>
 7    1  0.2644565E-009  0.8598534E+02  0.7561462E-02  0.1312876E+00
          1   -1    0    0  501    0  0.00000000000E+00  0.00000000000E+00  0.24808054169E+03  0.24808054169E+03  0.00000000000E+00 0. -1.
         -1   -1    0    0    0  501 -0.00000000000E+00 -0.00000000000E+00 -0.58160599107E+02  0.58160599107E+02  0.00000000000E+00 0.  1.
         25    2    1    2    0    0  0.32002729383E+02  0.38156707358E+02  0.89776360904E+02  0.16182162117E+03  0.12508530327E+03 0.  0.
          5    1    3    3  502    0  0.51516146943E+01 -0.12008094553E+02  0.10246174186E+03  0.10337608241E+03  0.41800000000E+01 0. -1.
         -5    1    3    3    0  502  0.26851114689E+02  0.50164801912E+02 -0.12685380955E+02  0.58445538759E+02  0.41800000000E+01 0. -1.
        -11    1    1    2    0    0 -0.86902403713E+01 -0.65038920522E+02  0.48030978615E+02  0.81317626423E+02  0.00000000000E+00 0. -1.
         11    1    1    2    0    0 -0.23312489012E+02  0.26882213163E+02  0.52112603063E+02  0.63101893209E+02  0.00000000000E+00 0.  1.
</event>
<event>
 7    1  0.2644565E-009  0.1567279E+03  0.7561462E-02  0.1192441E+00
         -2   -1    0    0    0  501 -0.00000000000E+00  0.00000000000E+00  0.27964412969E+02  0.27964412969E+02  0.00000000000E+00 0. -1.
          2   -1    0    0  501    0  0.00000000000E+00 -0.00000000000E+00 -0.10358853853E+04  0.10358853853E+04  0.00000000000E+00 0.  1.
         25    2    1    2    0    0  0.33644417999E+02 -0.12419698083E+03 -0.51658403001E+03  0.54686722300E+03  0.12509141701E+03 0.  0.
          5    1    3    3  502    0  0.78009850718E+02 -0.80599095591E+02 -0.26740838658E+03  0.29001115260E+03  0.41800000000E+01 0. -1.
         -5    1    3    3    0  502 -0.44365432719E+02 -0.43597885239E+02 -0.24917564344E+03  0.25685607040E+03  0.41800000000E+01 0. -1.
        -11    1    1    2    0    0 -0.23939526430E+02  0.12662107936E+03 -0.49027003474E+03  0.50692278073E+03  0.00000000000E+00 0.  1.
         11    1    1    2    0    0 -0.97048915687E+01 -0.24240985257E+01 -0.10669075548E+01  0.10059794518E+02  0.00000000000E+00 0. -1.
</event>
<event>
 7    1  0.2793488E-009  0.8183632E+02  0.7561462E-02  0.1323920E+00
          2   -1    0    0  501    0  0.00000000000E+00  0.00000000000E+00  0.79932242986E+02  0.79932242986E+02  0.00000000000E+00 0. -1.
         -2   -1    0    0    0  501 -0.00000000000E+00 -0.00000000000E+00 -0.17827724316E+03  0.17827724316E+03  0.00000000000E+00 0.  1.
         25    2    1    2    0    0  0.30694773803E+02 -0.80874442988E+01 -0.96367094324E+02  0.16106053115E+03  0.12508517871E+03 0.  0.
          5    1    3    3  502    0  0.17357907401E+02 -0.63267657730E+02 -0.76277528525E+02  0.10069670909E+03  0.41800000000E+01 0. -1.
         -5    1    3    3    0  502  0.13336866402E+02  0.55180213431E+02 -0.20089565799E+02  0.60363822060E+02  0.41800000000E+01 0. -1.
        -11    1    1    2    0    0 -0.33657538966E+01  0.12838487810E+02  0.42614188671E+02  0.44633217950E+02  0.00000000000E+00 0. -1.
         11    1    1    2    0    0 -0.27329019906E+02 -0.47510435111E+01 -0.44592094524E+02  0.52515737046E+02  0.00000000000E+00 0.  1.
</event>
<event>
 7    1  0.2899065E-009  0.9075339E+02  0.7561462E-02  0.1301037E+00
          1   -1    0    0  501    0  0.00000000000E+00  0.00000000000E+00  0.18804640329E+03  0.18804640329E+03  0.00000000000E+00 0. -1.
         -1   -1    0    0    0  501 -0.00000000000E+00 -0.00000000000E+00 -0.72048864548E+02  0.72048864548E+02  0.00000000000E+00 0.  1.
         25    2    1    2    0    0  0.35489983070E+02 -0.22760653481E+02  0.69821119586E+02  0.14934283654E+03  0.12510278910E+03 0.  0.
          5    1    3    3  502    0  0.31937184116E+02 -0.68812390478E+02  0.14839147768E+02  0.77413186984E+02  0.41800000000E+01 0.  1.
         -5    1    3    3    0  502  0.35527989538E+01  0.46051736997E+02  0.54981971818E+02  0.71929649560E+02  0.41800000000E+01 0.  1.
        -11    1    1    2    0    0 -0.14497695530E+02  0.32815787526E+02  0.69241647868E+02  0.77983747576E+02  0.00000000000E+00 0. -1.
         11    1    1    2    0    0 -0.20992287540E+02 -0.10055134044E+02 -0.23065228714E+02  0.32768683715E+02  0.00000000000E+00 0.  1.
</event>
<event>
 7    1  0.2644565E-009  0.1585479E+03  0.7561462E-02  0.1190346E+00
          1   -1    0    0  501    0  0.00000000000E+00  0.00000000000E+00  0.22050328419E+03  0.22050328419E+03  0.00000000000E+00 0.  1.
         -1   -1    0    0    0  501 -0.00000000000E+00 -0.00000000000E+00 -0.15563514388E+03  0.15563514388E+03  0.00000000000E+00 0. -1.
         25    2    1    2    0    0  0.14297839071E+03 -0.14423584530E+02 -0.82924598394E+01  0.19070150021E+03  0.12508971697E+03 0.  0.
          5    1    3    3  502    0  0.22426745143E+01  0.10590859007E+02 -0.42172748746E+02  0.43740244859E+02  0.41800000000E+01 0.  1.
         -5    1    3    3    0  502  0.14073571619E+03 -0.25014443537E+02  0.33880288907E+02  0.14696125535E+03  0.41800000000E+01 0.  1.
        -11    1    1    2    0    0 -0.61165540005E+02  0.44158209439E+02  0.63535383942E+01  0.75706923033E+02  0.00000000000E+00 0.  1.
         11    1    1    2    0    0 -0.81812850703E+02 -0.29734624909E+02  0.66807061752E+02  0.10973000482E+03  0.00000000000E+00 0. -1.
</event>
<event>
 7    1  0.2644565E-009  0.1426349E+03  0.7561462E-02  0.1209827E+00
          1   -1    0    0  501    0  0.00000000000E+00  0.00000000000E+00  0.13219139607E+03  0.13219139607E+03  0.00000000000E+00 0. -1.
         -1   -1    0    0    0  501 -0.00000000000E+00 -0.00000000000E+00 -0.17723264857E+03  0.17723264857E+03  0.00000000000E+00 0.  1.
         25    2    1    2    0    0 -0.74971499836E+02 -0.63047688003E+02  0.15117252021E+02  0.15960167859E+03  0.12509367589E+03 0.  0.
          5    1    3    3  502    0 -0.24878866001E+02  0.32336967845E+02 -0.20762199084E+02  0.45969324269E+02  0.41800000000E+01 0. -1.
         -5    1    3    3    0  502 -0.50092633835E+02 -0.95384655849E+02  0.35879451105E+02  0.11363235432E+03  0.41800000000E+01 0. -1.
        -11    1    1    2    0    0  0.97968594950E+02  0.49849758150E+02 -0.54580667440E+02  0.12272690513E+03  0.00000000000E+00 0.  1.
         11    1    1    2    0    0 -0.22997095114E+02  0.13197929853E+02 -0.55778370857E+01  0.27095460923E+02  0.00000000000E+00 0. -1.
</event>
<event>
 7    1  0.2644565E-009  0.1190384E+03  0.7561462E-02  0.1244692E+00
          2   -1    0    0  501    0  0.00000000000E+00  0.00000000000E+00  0.30258294900E+03  0.30258294900E+03  0.00000000000E+00 0. -1.
         -2   -1    0    0    0  501 -0.00000000000E+00 -0.00000000000E+00 -0.87462471590E+02  0.87462471590E+02  0.00000000000E+00 0.  1.
         25    2    1    2    0    0 -0.56203469841E+02 -0.92202070793E+02  0.18531756202E+03  0.24829952874E+03  0.12509998121E+03 0.  0.
          5    1    3    3  502    0 -0.38390980133E+02 -0.91928729450E+02  0.49622108785E+02  0.11137587142E+03  0.41800000000E+01 0. -1.
         -5    1    3    3    0  502 -0.17812489708E+02 -0.27334134368E+00  0.13569545324E+03  0.13692365732E+03  0.41800000000E+01 0. -1.
        -11    1    1    2    0    0  0.52586022428E+02  0.35951367375E+02 -0.19752324447E+02  0.66692914856E+02  0.00000000000E+00 0.  1.
         11    1    1    2    0    0  0.36174474137E+01  0.56250703418E+02  0.49555239839E+02  0.75052976998E+02  0.00000000000E+00 0. -1.
</event>
<event>
 7    1  0.2644565E-009  0.1338086E+03  0.7561462E-02  0.1221911E+00
          1   -1    0    0  501    0  0.00000000000E+00  0.00000000000E+00  0.24028787342E+02  0.24028787342E+02  0.00000000000E+00 0. -1.
         -1   -1    0    0    0  501 -0.00000000000E+00 -0.00000000000E+00 -0.91613707918E+03  0.91613707918E+03  0.00000000000E+00 0.  1.
         25    2    1    2    0    0 -0.22147356073E+01  0.97542355196E+02 -0.38479455092E+03  0.41621363414E+03  0.12509007440E+03 0.  0.
          5    1    3    3  502    0  0.85799064451E+01  0.11516224364E+03 -0.37602458279E+03  0.39338011696E+03  0.41800000000E+01 0. -1.
         -5    1    3    3    0  502 -0.10794642052E+02 -0.17619888445E+02 -0.87699681305E+01  0.22833517181E+02  0.41800000000E+01 0. -1.
        -11    1    1    2    0    0  0.31217397775E+02 -0.97075658264E+02 -0.39184297810E+03  0.40489397234E+03  0.00000000000E+00 0.  1.
         11    1    1    2    0    0 -0.29002662168E+02 -0.46669693177E+00 -0.11547076281E+03  0.11905826004E+03  0.00000000000E+00 0. -1.
</event>
<event>
 7    1  0.2644565E-009  0.1106298E+03  0.7561462E-02  0.1259408E+00
         -1   -1    0    0    0  501 -0.00000000000E+00  0.00000000000E+00  0.39238004858E+03  0.39238004858E+03  0.00000000000E+00 0.  1.
          1   -1    0    0  501    0  0.00000000000E+00 -0.00000000000E+00 -0.31934732645E+02  0.31934732645E+02  0.00000000000E+00 0. -1.
         25    2    1    2    0    0 -0.12628371353E+02  0.16917574563E+02  0.22259944759E+03  0.25621100692E+03  0.12509151013E+03 0.  0.
          5    1    3    3  502    0 -0.61922956015E+02 -0.17899417682E+02  0.13617036187E+03  0.15071390608E+03  0.41800000000E+01 0.  1.
         -5    1    3    3    0  502  0.49294584662E+02  0.34816992246E+02  0.86429085729E+02  0.10549710084E+03  0.41800000000E+01 0.  1.
        -11    1    1    2    0    0 -0.18479294976E+02 -0.48463555768E+02  0.71795495020E+02  0.88570839928E+02  0.00000000000E+00 0.  1.
         11    1    1    2    0    0  0.31107666328E+02  0.31545981204E+02  0.66050373316E+02  0.79532934372E+02  0.00000000000E+00 0. -1.
</event>
<event>
 7    1  0.2644565E-009  0.1110742E+03  0.7561462E-02  0.1258593E+00
          1   -1    0    0  501    0  0.00000000000E+00  0.00000000000E+00  0.43811298448E+02  0.43811298448E+02  0.00000000000E+00 0. -1.
         -1   -1    0    0    0  501 -0.00000000000E+00 -0.00000000000E+00 -0.41601632937E+03  0.41601632937E+03  0.00000000000E+00 0.  1.
         25    2    1    2    0    0 -0.44749827986E+02 -0.58975903960E+02 -0.14669248250E+03  0.20651549369E+03  0.12509700379E+03 0.  0.
          5    1    3    3  502    0  0.31641931249E+02 -0.60692123760E+02 -0.75545951527E+02  0.10202651073E+03  0.41800000000E+01 0. -1.
         -5    1    3    3    0  502 -0.76391759235E+02  0.17162197999E+01 -0.71146530978E+02  0.10448898296E+03  0.41800000000E+01 0. -1.
        -11    1    1    2    0    0  0.31026253989E+02  0.23225160344E+02 -0.20732854181E+03  0.21091979698E+03  0.00000000000E+00 0.  1.
         11    1    1    2    0    0  0.13723573997E+02  0.35750743616E+02 -0.18184006599E+02  0.42392337142E+02  0.00000000000E+00 0. -1.
</event>
<event>
 7    1  0.2644565E-009  0.1408162E+03  0.7561462E-02  0.1212235E+00
          2   -1    0    0  501    0  0.00000000000E+00  0.00000000000E+00  0.41823339764E+03  0.41823339764E+03  0.00000000000E+00 0. -1.
         -2   -1    0    0    0  501 -0.00000000000E+00 -0.00000000000E+00 -0.52901766116E+02  0.52901766116E+02  0.00000000000E+00 0.  1.
         25    2    1    2    0    0 -0.35663367480E+02 -0.72853153396E+02  0.18422029284E+03  0.23698926745E+03  0.12508932349E+03 0.  0.
          5    1    3    3  502    0 -0.25088496931E+02 -0.10852757015E+03  0.14278230285E+03  0.18114062097E+03  0.41800000000E+01 0. -1.
         -5    1    3    3    0  502 -0.10574870549E+02  0.35674416755E+02  0.41437989995E+02  0.55848646472E+02  0.41800000000E+01 0. -1.
        -11    1    1    2    0    0 -0.32807888252E+02  0.51381781722E+02  0.32425851976E+02  0.69049843598E+02  0.00000000000E+00 0.  1.
         11    1    1    2    0    0  0.68471255733E+02  0.21471371674E+02  0.14868548671E+03  0.16509605271E+03  0.00000000000E+00 0. -1.
</event>
<event>
 7    1  0.2644565E-009  0.1522760E+03  0.7561462E-02  0.1197704E+00
          2   -1    0    0  501    0  0.00000000000E+00  0.00000000000E+00  0.76627844724E+02  0.76627844724E+02  0.00000000000E+00 0. -1.
         -2   -1    0    0    0  501 -0.00000000000E+00 -0.00000000000E+00 -0.84824704000E+03  0.84824704000E+03  0.00000000000E+00 0.  1.
         25    2    1    2    0    0 -0.11662105957E+03  0.60274660436E+02 -0.73993070172E+03  0.76182557873E+03  0.12508901964E+03 0.  0.
          5    1    3    3  502    0 -0.11996459641E+03  0.83706963179E+01 -0.61100861526E+03  0.62274438839E+03  0.41800000000E+01 0. -1.
         -5    1    3    3    0  502  0.33435368349E+01  0.51903964118E+02 -0.12892208646E+03  0.13908119034E+03  0.41800000000E+01 0. -1.
        -11    1    1    2    0    0  0.43040150484E+02 -0.14646687828E+02  0.31975306799E+02  0.55582373671E+02  0.00000000000E+00 0.  1.
         11    1    1    2    0    0  0.73580909090E+02 -0.45627972609E+02 -0.63663800355E+02  0.10746693232E+03  0.00000000000E+00 0. -1.
</event>
<event>
 7    1  0.2644565E-009  0.8445402E+02  0.7561462E-02  0.1316867E+00
          1   -1    0    0  501    0  0.00000000000E+00  0.00000000000E+00  0.15838036857E+03  0.15838036857E+03  0.00000000000E+00 0. -1.
         -1   -1    0    0    0  501 -0.00000000000E+00 -0.00000000000E+00 -0.74169791516E+02  0.74169791516E+02  0.00000000000E+00 0.  1.
         25    2    1    2    0    0 -0.25655052878E+01  0.49998879970E+01  0.35421573356E+02  0.13012863950E+03  0.12508874554E+03 0.  0.
          5    1    3    3  502    0  0.32910157657E+02  0.33759188017E+02  0.61319586342E+02  0.77461766838E+02  0.41800000000E+01 0.  1.
         -5    1    3    3    0  502 -0.35475662945E+02 -0.28759300019E+02 -0.25898012985E+02  0.52666872658E+02  0.41800000000E+01 0.  1.
        -11    1    1    2    0    0  0.38249117648E+02 -0.10375085240E+02 -0.24995906256E+01  0.39710015713E+02  0.00000000000E+00 0.  1.
         11    1    1    2    0    0 -0.35683612360E+02  0.53751972432E+01  0.51288594326E+02  0.62711504881E+02  0.00000000000E+00 0. -1.
</event>
<event>
 7    1  0.2644565E-009  0.1772402E+03  0.7561462E-02  0.1170501E+00
         -2   -1    0    0    0  501 -0.00000000000E+00  0.00000000000E+00  0.75232559345E+02  0.75232559345E+02  0.00000000000E+00 0. -1.
          2   -1    0    0  501    0  0.00000000000E+00 -0.00000000000E+00 -0.51963198774E+03  0.51963198774E+03  0.00000000000E+00 0.  1.
         25    2    1    2    0    0 -0.97101221128E+01  0.15840388971E+03 -0.29561840988E+03  0.35808065989E+03  0.12508171722E+03 0.  0.
          5    1    3    3  502    0  0.18417561763E+02  0.16484209867E+03 -0.21001901643E+03  0.26765198250E+03  0.41800000000E+01 0.  1.
         -5    1    3    3    0  502 -0.28127683876E+02 -0.64382089659E+01 -0.85599393457E+02  0.90428677393E+02  0.41800000000E+01 0.  1.
        -11    1    1    2    0    0 -0.33997100386E+01 -0.64434132597E+02 -0.52623562458E+01  0.64737993984E+02  0.00000000000E+00 0. -1.
         11    1    1    2    0    0  0.13109832151E+02 -0.93969757111E+02 -0.14351866227E+03  0.17204589321E+03  0.00000000000E+00 0.  1.
</event>
<event>
 7    1  0.2644565E-009  0.1965775E+03  0.7561462E-02  0.1152659E+00
          2   -1    0    0  501    0  0.00000000000E+00  0.00000000000E+00  0.27732269193E+04  0.27732269193E+04  0.00000000000E+00 0. -1.
         -2   -1    0    0    0  501 -0.00000000000E+00 -0.00000000000E+00 -0.26628428620E+02  0.26628428620E+02  0.00000000000E+00 0.  1.
         25    2    1    2    0    0  0.17075917820E+03 -0.79311864080E+02  0.22702557350E+04  0.22814815784E+04  0.12509205362E+03 0.  0.
          5    1    3    3  502    0  0.87287829170E+02 -0.46309013607E+02  0.18001867218E+04  0.18029013827E+04  0.41800000000E+01 0. -1.
         -5    1    3    3    0  502  0.83471349029E+02 -0.33002850473E+02  0.47006901313E+03  0.47858019574E+03  0.41800000000E+01 0. -1.
        -11    1    1    2    0    0 -0.57162829880E+02  0.70067781229E+02  0.20386405140E+03  0.22301935911E+03  0.00000000000E+00 0.  1.
         11    1    1    2    0    0 -0.11359634832E+03  0.92440828501E+01  0.27247870431E+03  0.29535441036E+03  0.00000000000E+00 0. -1.
</event>
<event>
 7    1  0.2644565E-009  0.1223001E+03  0.7561462E-02  0.1239350E+00
          1   -1    0    0  501    0  0.00000000000E+00  0.00000000000E+00  0.12670239729E+04  0.12670239729E+04  0.00000000000E+00 0. -1.
         -1   -1    0    0    0  501 -0.00000000000E+00 -0.00000000000E+00 -0.20629754017E+02  0.20629754017E+02  0.00000000000E+00 0.  1.
         25    2    1    2    0    0 -0.15461565218E+02 -0.11675844270E+03  0.77006926177E+03  0.78900362911E+03  0.12509382431E+03 0.  0.
          5    1    3    3  502    0 -0.22486480055E+02 -0.88583756324E+02  0.74446349909E+03  0.75006406230E+03  0.41800000000E+01 0.  1.
         -5    1    3    3    0  502  0.70249148375E+01 -0.28174686378E+02  0.25605762677E+02  0.38939566808E+02  0.41800000000E+01 0.  1.
        -11    1    1    2    0    0 -0.11245259594E+02  0.60030049001E+02  0.10028512205E+03  0.11741877342E+03  0.00000000000E+00 0.  1.
         11    1    1    2    0    0  0.26706824812E+02  0.56728393701E+02  0.37603983505E+03  0.38123132438E+03  0.00000000000E+00 0. -1.
</event>
<event>
 7    1  0.2644565E-009  0.9948599E+02  0.7561462E-02  0.1281381E+00
         -3   -1    0    0    0  501 -0.00000000000E+00  0.00000000000E+00  0.61403097922E+03  0.61403097922E+03  0.00000000000E+00 0.  1.
          3   -1    0    0  501    0  0.00000000000E+00 -0.00000000000E+00 -0.21345274738E+02  0.21345274738E+02  0.00000000000E+00 0. -1.
         25    2    1    2    0    0  0.18498773550E+02  0.20500253851E+02  0.26912886207E+03  0.29806143920E+03  0.12509121516E+03 0.  0.
          5    1    3    3  502    0 -0.22234613653E+02  0.49451707226E+02  0.22429629536E+03  0.23079460545E+03  0.41800000000E+01 0. -1.
         -5    1    3    3    0  502  0.40733387203E+02 -0.28951453375E+02  0.44832566714E+02  0.67266833757E+02  0.41800000000E+01 0. -1.
        -11    1    1    2    0    0 -0.47866429967E+02 -0.37232892139E+02  0.18456641289E+03  0.19427363213E+03  0.00000000000E+00 0. -1.
         11    1    1    2    0    0  0.29367656417E+02  0.16732638289E+02  0.13899042952E+03  0.14304118262E+03  0.00000000000E+00 0.  1.
</event>
<event>
 7    1  0.2644565E-009  0.8273415E+02  0.7561462E-02  0.1321467E+00
         -2   -1    0    0    0  501 -0.00000000000E+00  0.00000000000E+00  0.30611032278E+02  0.30611032278E+02  0.00000000000E+00 0.  1.
          2   -1    0    0  501    0  0.00000000000E+00 -0.00000000000E+00 -0.44112169641E+03  0.44112169641E+03  0.00000000000E+00 0. -1.
         25    2    1    2    0    0  0.36670981069E+02 -0.16562651490E+02 -0.25644666608E+03  0.28814976413E+03  0.12508521794E+03 0.  0.
          5    1    3    3  502    0  0.35532039452E+02  0.25972365452E+02 -0.21165997068E+02  0.49015930336E+02  0.41800000000E+01 0. -1.
         -5    1    3    3    0  502  0.11389416164E+01 -0.42535016942E+02 -0.23528066901E+03  0.23913383379E+03  0.41800000000E+01 0. -1.
        -11    1    1    2    0    0 -0.30518068493E+02  0.42232936402E+02 -0.37832383809E+02  0.64391479920E+02  0.00000000000E+00 0.  1.
         11    1    1    2    0    0 -0.61529125753E+01 -0.25670284912E+02 -0.11623161425E+03  0.11919148464E+03  0.00000000000E+00 0. -1.
</event>
<event>
 7    1  0.2644565E-009  0.7333258E+02  0.7561462E-02  0.1349114E+00
         -1   -1    0    0    0  501 -0.00000000000E+00  0.00000000000E+00  0.23299583656E+03  0.23299583656E+03  0.00000000000E+00 0.  1.
          1   -1    0    0  501    0  0.00000000000E+00 -0.00000000000E+00 -0.55240344483E+02  0.55240344483E+02  0.00000000000E+00 0. -1.
         25    2    1    2    0    0  0.27868006076E+02  0.12153025993E+02  0.80928181833E+02  0.15206144599E+03  0.12509592695E+03 0.  0.
          5    1    3    3  502    0 -0.89416155070E+01  0.10194397719E+02 -0.31028095443E+02  0.34118812106E+02  0.41800000000E+01 0. -1.
         -5    1    3    3    0  502  0.36809621583E+02  0.19586282738E+01  0.11195627728E+03  0.11794263388E+03  0.41800000000E+01 0. -1.
        -11    1    1    2    0    0  0.33135763967E+02 -0.87860584301E+01  0.29148379552E+02  0.44997796689E+02  0.00000000000E+00 0. -1.
         11    1    1    2    0    0 -0.61003770042E+02 -0.33669675627E+01  0.67678930696E+02  0.91176938368E+02  0.00000000000E+00 0.  1.
</event>
<event>
 7    1  0.2644565E-009  0.1071681E+03  0.7561462E-02  0.1265906E+00
         -1   -1    0    0    0  501 -0.00000000000E+00  0.00000000000E+00  0.20555754497E+02  0.20555754497E+02  0.00000000000E+00 0.  1.
          1   -1    0    0  501    0  0.00000000000E+00 -0.00000000000E+00 -0.17976194674E+04  0.17976194674E+04  0.00000000000E+00 0. -1.
         25    2    1    2    0    0  0.18763226249E+02 -0.31424877149E+02 -0.16590319491E+04  0.16641434756E+04  0.12508763981E+03 0.  0.
          5    1    3    3  502    0  0.71927595478E+02 -0.20858380817E+02 -0.86041725717E+03  0.86368048483E+03  0.41800000000E+01 0.  1.
         -5    1    3    3    0  502 -0.53164369229E+02 -0.10566496332E+02 -0.79861469190E+03  0.80046299073E+03  0.41800000000E+01 0.  1.
        -11    1    1    2    0    0  0.21108788364E+02 -0.13375513777E+02 -0.78049254818E+02  0.81952251297E+02  0.00000000000E+00 0. -1.
         11    1    1    2    0    0 -0.39872014613E+02  0.44800390926E+02 -0.39982508976E+02  0.72079495007E+02  0.00000000000E+00 0.  1.
</event>
<event>
 7    1  0.2644565E-009  0.1600375E+03  0.7561462E-02  0.1188654E+00
         -1   -1    0    0    0  501 -0.00000000000E+00  0.00000000000E+00  0.23102311733E+02  0.23102311733E+02  0.00000000000E+00 0.  1.
          1   -1    0    0  501    0  0.00000000000E+00 -0.00000000000E+00 -0.14466185010E+04  0.14466185010E+04  0.00000000000E+00 0. -1.
         25    2    1    2    0    0  0.94930521616E+02 -0.10432713158E+03 -0.90939256442E+03  0.92872943274E+03  0.12509024224E+03 0.  0.
          5    1    3    3  502    0  0.10753716354E+03 -0.86485652581E+02 -0.49937259356E+03  0.51810661957E+03  0.41800000000E+01 0.  1.
         -5    1    3    3    0  502 -0.12606641924E+02 -0.17841479002E+02 -0.41001997086E+03  0.41062281317E+03  0.41800000000E+01 0.  1.
        -11    1    1    2    0    0 -0.85146035426E+02  0.38893918900E+02 -0.38103462481E+03  0.39236458757E+03  0.00000000000E+00 0. -1.
         11    1    1    2    0    0 -0.97844861907E+01  0.65433212683E+02 -0.13308900000E+03  0.14862679238E+03  0.00000000000E+00 0.  1.
</event>
<event>
 7    1  0.2644565E-009  0.6293557E+02  0.7561462E-02  0.1385910E+00
         -4   -1    0    0    0  501 -0.00000000000E+00  0.00000000000E+00  0.29059830401E+03  0.29059830401E+03  0.00000000000E+00 0.  1.
          4   -1    0    0  501    0  0.00000000000E+00 -0.00000000000E+00 -0.50634878310E+02  0.50634878310E+02  0.00000000000E+00 0. -1.
         25    2    1    2    0    0  0.29859374214E+02  0.32212640429E+02  0.88249160707E+02  0.15926053263E+03  0.12508703552E+03 0.  0.
          5    1    3    3  502    0  0.70371120133E+01  0.42378583506E+02 -0.20369723308E+02  0.47726966309E+02  0.41800000000E+01 0.  1.
         -5    1    3    3    0  502  0.22822262201E+02 -0.10165943076E+02  0.10861888402E+03  0.11153356632E+03  0.41800000000E+01 0.  1.
        -11    1    1    2    0    0  0.19763783405E+01 -0.24554870548E+02  0.14681140689E+03  0.14886382009E+03  0.00000000000E+00 0.  1.
         11    1    1    2    0    0 -0.31835752555E+02 -0.76577698818E+01  0.49028581046E+01  0.33108829606E+02  0.00000000000E+00 0. -1.
</event>
<event>
 7    1  0.2644565E-009  0.1164343E+03  0.7561462E-02  0.1249098E+00
          1   -1    0    0  501    0  0.00000000000E+00  0.00000000000E+00  0.22619274278E+03  0.22619274278E+03  0.00000000000E+00 0. -1.
         -1   -1    0    0    0  501 -0.00000000000E+00 -0.00000000000E+00 -0.10584970928E+03  0.10584970928E+03  0.00000000000E+00 0.  1.
         25    2    1    2    0    0  0.90371147714E+01  0.86117985978E+02 -0.10265502938E+02  0.15248202453E+03  0.12508960909E+03 0.  0.
          5    1    3    3  502    0  0.12402861303E+02 -0.24832750883E+02  0.23256981221E+02  0.36453478029E+02  0.41800000000E+01 0.  1.
         -5    1    3    3    0  502 -0.33657465317E+01  0.11095073686E+03 -0.33522484159E+02  0.11602854650E+03  0.41800000000E+01 0.  1.
        -11    1    1    2    0    0 -0.21092427171E+02 -0.32381923696E+02  0.11645388028E+03  0.12269875997E+03  0.00000000000E+00 0. -1.
         11    1    1    2    0    0  0.12055312400E+02 -0.53736062281E+02  0.14154656152E+02  0.56861667557E+02  0.00000000000E+00 0.  1.
</event>
<event>
 7    1  0.2644565E-009  0.1542254E+03  0.7561462E-02  0.1195375E+00
          2   -1    0    0  501    0  0.00000000000E+00  0.00000000000E+00  0.10612362983E+03  0.10612362983E+03  0.00000000000E+00 0. -1.
         -2   -1    0    0    0  501 -0.00000000000E+00 -0.00000000000E+00 -0.32817823681E+03  0.32817823681E+03  0.00000000000E+00 0.  1.
         25    2    1    2    0    0  0.74466242503E+02  0.12141419420E+03 -0.17902555904E+03  0.26073545071E+03  0.12508475782E+03 0.  0.
          5    1    3    3  502    0  0.56246475794E+02  0.15537322239E+02 -0.13002771356E+03  0.14258244322E+03  0.41800000000E+01 0.  1.
         -5    1    3    3    0  502  0.18219766709E+02  0.10587687196E+03 -0.48997845480E+02  0.11815300748E+03  0.41800000000E+01 0.  1.
        -11    1    1    2    0    0 -0.26969493606E+02 -0.44798926215E+02 -0.62351098781E+02  0.81375407185E+02  0.00000000000E+00 0.  1.
         11    1    1    2    0    0 -0.47496748897E+02 -0.76615267987E+02  0.19322050839E+02  0.92191008744E+02  0.00000000000E+00 0. -1.
</event>
<event>
 7    1  0.2644565E-009  0.1663758E+03  0.7561462E-02  0.1181681E+00
          2   -1    0    0  501    0  0.00000000000E+00  0.00000000000E+00  0.22091670323E+04  0.22091670323E+04  0.00000000000E+00 0. -1.
         -2   -1    0    0    0  501 -0.00000000000E+00 -0.00000000000E+00 -0.21360744803E+02  0.21360744803E+02  0.00000000000E+00 0.  1.
         25    2    1    2    0    0 -0.13385479415E+03  0.52754534342E+02  0.17527544443E+04  0.17630926681E+04  0.12508983766E+03 0.  0.
          5    1    3    3  502    0 -0.37442220735E+02  0.66184850981E+02  0.42510080370E+03  0.43186863755E+03  0.41800000000E+01 0.  1.
         -5    1    3    3    0  502 -0.96412573417E+02 -0.13430316639E+02  0.13276536406E+04  0.13312240305E+04  0.41800000000E+01 0.  1.
        -11    1    1    2    0    0  0.12103749402E+03 -0.68328045315E+02  0.41961599669E+03  0.44203662904E+03  0.00000000000E+00 0. -1.
         11    1    1    2    0    0  0.12817300132E+02  0.15573510973E+02  0.15435846493E+02  0.25398479947E+02  0.00000000000E+00 0.  1.
</event>
<event>
 7    1  0.2644565E-009  0.9826260E+02  0.7561462E-02  0.1283992E+00
          4   -1    0    0  501    0  0.00000000000E+00  0.00000000000E+00  0.23452416125E+03  0.23452416125E+03  0.00000000000E+00 0. -1.
         -4   -1    0    0    0  501 -0.00000000000E+00 -0.00000000000E+00 -0.90321437439E+02  0.90321437439E+02  0.00000000000E+00 0.  1.
         25    2    1    2    0    0  0.15322314587E+02 -0.56380320402E+02  0.16555149228E+03  0.21556477496E+03  0.12508941505E+03 0.  0.
          5    1    3    3  502    0 -0.31602248352E+02  0.10414423178E+02  0.11423119831E+03  0.11905209522E+03  0.41800000000E+01 0.  1.
         -5    1    3    3    0  502  0.46924562939E+02 -0.66794743580E+02  0.51320293969E+02  0.96512679737E+02  0.41800000000E+01 0.  1.
        -11    1    1    2    0    0 -0.36900187492E+02  0.36836407390E+02  0.22386057628E+02  0.56742226978E+02  0.00000000000E+00 0. -1.
         11    1    1    2    0    0  0.21577872905E+02  0.19543913012E+02 -0.43734826093E+02  0.52538596748E+02  0.00000000000E+00 0.  1.
</event>
<event>
 7    1  0.2644565E-009  0.1118339E+03  0.7561462E-02  0.1257211E+00
         -2   -1    0    0    0  501 -0.00000000000E+00  0.00000000000E+00  0.23679627120E+02  0.23679627120E+02  0.00000000000E+00 0.  1.
          2   -1    0    0  501    0  0.00000000000E+00 -0.00000000000E+00 -0.71166529308E+03  0.71166529308E+03  0.00000000000E+00 0. -1.
         25    2    1    2    0    0 -0.41939242929E+02  0.55655154849E+02 -0.29271337945E+03  0.32586057298E+03  0.12509034396E+03 0.  0.
          5    1    3    3  502    0 -0.36138107291E+02 -0.27636766578E+02 -0.43825373181E+02  0.63307893662E+02  0.41800000000E+01 0.  1.
         -5    1    3    3    0  502 -0.58011356384E+01  0.83291921427E+02 -0.24888800627E+03  0.26255267932E+03  0.41800000000E+01 0.  1.
        -11    1    1    2    0    0  0.71528820078E+01  0.14449213437E+02 -0.17933885488E+02  0.24115715595E+02  0.00000000000E+00 0.  1.
         11    1    1    2    0    0  0.34786360921E+02 -0.70104368285E+02 -0.37733840102E+03  0.38536863163E+03  0.00000000000E+00 0. -1.
</event>
<event>
 7    1  0.2644565E-009  0.1002899E+03  0.7561462E-02  0.1279688E+00
          2   -1    0    0  501    0  0.00000000000E+00  0.00000000000E+00  0.10437086678E+04  0.10437086678E+04  0.00000000000E+00 0.  1.
         -2   -1    0    0    0  501 -0.00000000000E+00 -0.00000000000E+00 -0.33363826703E+02  0.33363826703E+02  0.00000000000E+00 0. -1.
         25    2    1    2    0    0 -0.81143349791E+02 -0.49783883406E+01  0.90309647514E+03  0.91533340308E+03  0.12507185062E+03 0.  0.
          5    1    3    3  502    0 -0.71404350174E+02  0.20231421532E+01  0.89920651965E+03  0.90204906281E+03  0.41800000000E+01 0. -1.
         -5    1    3    3    0  502 -0.97389996162E+01 -0.70015304938E+01  0.38899554899E+01  0.13284340273E+02  0.41800000000E+01 0. -1.
        -11    1    1    2    0    0  0.17052424223E+01 -0.29625645429E+02  0.49158941705E+02  0.57421148268E+02  0.00000000000E+00 0.  1.
         11    1    1    2    0    0  0.79438107368E+02  0.34604033770E+02  0.58089424264E+02  0.10431794317E+03  0.00000000000E+00 0. -1.
</event>
<event>
 7    1  0.2644565E-009  0.1155398E+03  0.7561462E-02  0.1250642E+00
          3   -1    0    0  501    0  0.00000000000E+00  0.00000000000E+00  0.32560382826E+03  0.32560382826E+03  0.00000000000E+00 0. -1.
         -3   -1    0    0    0  501 -0.00000000000E+00 -0.00000000000E+00 -0.51296208932E+02  0.51296208932E+02  0.00000000000E+00 0.  1.
         25    2    1    2    0    0  0.45786240480E-01 -0.42639399960E+02  0.21934833279E+03  0.25608350688E+03  0.12508777268E+03 0.  0.
          5    1    3    3  502    0  0.55872074027E+02  0.51767395518E+01  0.11891692924E+03  0.13155681567E+03  0.41800000000E+01 0. -1.
         -5    1    3    3    0  502 -0.55826287787E+02 -0.47816139512E+02  0.10043140355E+03  0.12452669121E+03  0.41800000000E+01 0. -1.
        -11    1    1    2    0    0  0.45603675773E+02  0.26653851789E+02  0.80384477062E+01  0.53429764184E+02  0.00000000000E+00 0. -1.
         11    1    1    2    0    0 -0.45649462014E+02  0.15985548171E+02  0.46920838834E+02  0.67386766129E+02  0.00000000000E+00 0.  1.
</event>
<event>
 7    1  0.2644565E-009  0.1146768E+03  0.7561462E-02  0.1252146E+00
         -2   -1    0    0    0  501 -0.00000000000E+00  0.00000000000E+00  0.20178401552E+03  0.20178401552E+03  0.00000000000E+00 0.  1.
          2   -1    0    0  501    0  0.00000000000E+00 -0.00000000000E+00 -0.79555029613E+02  0.79555029613E+02  0.00000000000E+00 0. -1.
         25    2    1    2    0    0  0.59120339025E+02  0.24567457730E+01  0.40306468650E+02  0.14413137135E+03  0.12509192902E+03 0.  0.
          5    1    3    3  502    0 -0.37874477347E+02  0.34748375830E+01  0.25344340600E+02  0.45895081774E+02  0.41800000000E+01 0.  1.
         -5    1    3    3    0  502  0.96994816373E+02 -0.10180918101E+01  0.14962128050E+02  0.98236289577E+02  0.41800000000E+01 0.  1.
        -11    1    1    2    0    0 -0.17633134475E+01 -0.30224501277E+02 -0.36705157802E+01  0.30497580852E+02  0.00000000000E+00 0. -1.
         11    1    1    2    0    0 -0.57357025578E+02  0.27767755504E+02  0.85593033042E+02  0.10671009293E+03  0.00000000000E+00 0.  1.
</event>
<event>
 6    1  0.2644565E-009  0.1234420E+03  0.7561462E-02  0.1237524E+00
          2   -1    0    0  501    0  0.00000000000E+00  0.00000000000E+00  0.56224838142E+03  0.56224838142E+03  0.00000000000E+00 0. -1.
         -2   -1    0    0    0  501 -0.00000000000E+00 -0.00000000000E+00 -0.34219775487E+02  0.34219775487E+02  0.00000000000E+00 0.  1.
          5    1    1    2  502    0 -0.36508247271E+02 -0.33138477360E+02  0.10988066542E+03  0.12050827289E+03  0.41800000000E+01 0. -1.
         -5    1    1    2    0  502 -0.10912162540E+02  0.81926553166E+02  0.66757934597E+02  0.10632558317E+03  0.41800000000E+01 0. -1.
        -11    1    1    2    0    0  0.74619351724E+02 -0.25551127537E+02  0.24660630261E+03  0.25891229453E+03  0.00000000000E+00 0. -1.
         11    1    1    2    0    0 -0.27198941913E+02 -0.23236948269E+02  0.10478370330E+03  0.11072200632E+03  0.00000000000E+00 0.  1.
</event>
<event>
 7    1  0.2644565E-009  0.1794473E+03  0.7561462E-02  0.1168339E+00
          2   -1    0    0  501    0  0.00000000000E+00  0.00000000000E+00  0.23259402602E+03  0.23259402602E+03  0.00000000000E+00 0. -1.
         -2   -1    0    0    0  501 -0.00000000000E+00 -0.00000000000E+00 -0.15730141908E+03  0.15730141908E+03  0.00000000000E+00 0.  1.
         25    2    1    2    0    0 -0.14494342523E+03  0.56438413648E+02  0.57734927332E+02  0.20778685395E+03  0.12509262084E+03 0.  0.
          5    1    3    3  502    0 -0.14357364599E+03  0.58846228389E+01  0.62631734027E+02  0.15680633634E+03  0.41800000000E+01 0. -1.
         -5    1    3    3    0  502 -0.13697792363E+01  0.50553790809E+02 -0.48968066944E+01  0.50980517613E+02  0.41800000000E+01 0. -1.
        -11    1    1    2    0    0  0.65684716799E+02 -0.54109785424E+02  0.47368828886E+02  0.97396903696E+02  0.00000000000E+00 0. -1.
         11    1    1    2    0    0  0.79258708426E+02 -0.23286282239E+01 -0.29811149279E+02  0.84711687459E+02  0.00000000000E+00 0.  1.
</event>
<event>
 7    1  0.2644565E-009  0.1255086E+03  0.7561462E-02  0.1234277E+00
          3   -1    0    0  501    0  0.00000000000E+00  0.00000000000E+00  0.59520847532E+02  0.59520847532E+02  0.00000000000E+00 0. -1.
         -3   -1    0    0    0  501 -0.00000000000E+00 -0.00000000000E+00 -0.44621416429E+03  0.44621416429E+03  0.00000000000E+00 0.  1.
         25    2    1    2    0    0 -0.81773267712E+02  0.82096481452E+02 -0.26049527868E+03  0.31133845450E+03  0.12508854249E+03 0.  0.
          5    1    3    3  502    0 -0.55897142236E+02  0.22569676050E+02 -0.23302667219E+03  0.24073384295E+03  0.41800000000E+01 0. -1.
         -5    1    3    3    0  502 -0.25876125476E+02  0.59526805402E+02 -0.27468606484E+02  0.70604611558E+02  0.41800000000E+01 0. -1.
        -11    1    1    2    0    0  0.79856581408E+02 -0.51787053235E+02 -0.13273342193E+03  0.16333136188E+03  0.00000000000E+00 0.  1.
         11    1    1    2    0    0  0.19166863035E+01 -0.30309428218E+02  0.65353838492E+01  0.31065195433E+02  0.00000000000E+00 0. -1.
</event>
<event>
 7    1  0.2644565E-009  0.2277607E+03  0.7561462E-02  0.1128226E+00
         -2   -1    0    0    0  501 -0.00000000000E+00  0.00000000000E+00  0.75948517957E+02  0.75948517957E+02  0.00000000000E+00 0.  1.
          2   -1    0    0  501    0  0.00000000000E+00 -0.00000000000E+00 -0.77078544162E+03  0.77078544162E+03  0.00000000000E+00 0. -1.
         25    2    1    2    0    0 -0.11812769933E+03 -0.17296803793E+03 -0.45683815383E+03  0.51790052929E+03  0.12509102265E+03 0.  0.
          5    1    3    3  502    0 -0.92983239312E+02 -0.28935788821E+02 -0.19367602333E+03  0.21682028752E+03  0.41800000000E+01 0.  1.
         -5    1    3    3    0  502 -0.25144460019E+02 -0.14403224911E+03 -0.26316213050E+03  0.30108024177E+03  0.41800000000E+01 0.  1.
        -11    1    1    2    0    0  0.25228009063E+02  0.17615166029E+02 -0.12226834263E+01  0.30793529682E+02  0.00000000000E+00 0.  1.
         11    1    1    2    0    0  0.92899690267E+02  0.15535287190E+03 -0.23677608641E+03  0.29803990061E+03  0.00000000000E+00 0. -1.
</event>
<event>
 7    1  0.2644565E-009  0.9067611E+02  0.7561462E-02  0.1301223E+00
          1   -1    0    0  501    0  0.00000000000E+00  0.00000000000E+00  0.64714366689E+02  0.64714366689E+02  0.00000000000E+00 0. -1.
         -1   -1    0    0    0  501 -0.00000000000E+00 -0.00000000000E+00 -0.20374240129E+03  0.20374240129E+03  0.00000000000E+00 0.  1.
         25    2    1    2    0    0  0.26155229761E+02 -0.20126683769E+01 -0.53384481996E+02  0.13848869774E+03  0.12506426190E+03 0.  0.
          5    1    3    3  502    0  0.60035104466E+02 -0.43348142604E+02 -0.31826371620E+02  0.80707283228E+02  0.41800000000E+01 0.  1.
         -5    1    3    3    0  502 -0.33879874705E+02  0.41335474228E+02 -0.21558110376E+02  0.57781414509E+02  0.41800000000E+01 0.  1.
        -11    1    1    2    0    0 -0.33566237270E+02  0.16425397390E+02 -0.10096923526E+03  0.10766277180E+03  0.00000000000E+00 0.  1.
         11    1    1    2    0    0  0.74110075087E+01 -0.14412729013E+02  0.15325682649E+02  0.22305298442E+02  0.00000000000E+00 0. -1.
</event>
<event>
 7    1  0.2644565E-009  0.2815611E+03  0.7561462E-02  0.1094839E+00
          2   -1    0    0  501    0  0.00000000000E+00  0.00000000000E+00  0.11825861097E+04  0.11825861097E+04  0.00000000000E+00 0. -1.
         -2   -1    0    0    0  501 -0.00000000000E+00 -0.00000000000E+00 -0.77811392622E+02  0.77811392622E+02  0.00000000000E+00 0.  1.
         25    2    1    2    0    0  0.18461445784E+03 -0.20369979013E+03  0.42862187163E+03  0.52434769865E+03  0.12509075782E+03 0.  0.
          5    1    3    3  502    0  0.32232792564E+02 -0.92367217339E+02  0.74434835824E+02  0.12299867048E+03  0.41800000000E+01 0. -1.
         -5    1    3    3    0  502  0.15238166528E+03 -0.11133257279E+03  0.35418703581E+03  0.40134902817E+03  0.41800000000E+01 0. -1.
        -11    1    1    2    0    0 -0.27414851227E+02  0.47410619793E+02  0.24733184579E+03  0.25332268529E+03  0.00000000000E+00 0. -1.
         11    1    1    2    0    0 -0.15719960662E+03  0.15628917033E+03  0.42882099963E+03  0.48272711837E+03  0.00000000000E+00 0.  1.
</event>
<event>
 7    1  0.2644565E-009  0.1314507E+03  0.7561462E-02  0.1225319E+00
         -1   -1    0    0    0  501 -0.00000000000E+00  0.00000000000E+00  0.23249797205E+02  0.23249797205E+02  0.00000000000E+00 0.  1.
          1   -1    0    0  501    0  0.00000000000E+00 -0.00000000000E+00 -0.89662813917E+03  0.89662813917E+03  0.00000000000E+00 0. -1.
         25    2    1    2    0    0  0.53320599231E+02  0.70463133694E+02 -0.34945831398E+03  0.38154527665E+03  0.12509014913E+03 0.  0.
          5    1    3    3  502    0 -0.13194074824E+02  0.78789471800E+02 -0.13613876425E+03  0.15790218494E+03  0.41800000000E+01 0. -1.
         -5    1    3    3    0  502  0.66514674055E+02 -0.83263381064E+01 -0.21331954974E+03  0.22364309171E+03  0.41800000000E+01 0. -1.
        -11    1    1    2    0    0  0.10362348942E+02  0.91276025258E+01 -0.20637171075E+02  0.24831114221E+02  0.00000000000E+00 0. -1.
         11    1    1    2    0    0 -0.63682948173E+02 -0.79590736219E+02 -0.50328285691E+03  0.51350154551E+03  0.00000000000E+00 0.  1.
</event>
<event>
 7    1  0.2644565E-009  0.1258764E+03  0.7561462E-02  0.1233706E+00
         -2   -1    0    0    0  501 -0.00000000000E+00  0.00000000000E+00  0.69851446776E+02  0.69851446776E+02  0.00000000000E+00 0.  1.
          2   -1    0    0  501    0  0.00000000000E+00 -0.00000000000E+00 -0.31159018989E+03  0.31159018989E+03  0.00000000000E+00 0. -1.
         25    2    1    2    0    0  0.50653785185E+02  0.81496678388E+02 -0.16680191327E+03  0.22951635605E+03  0.12508942754E+03 0.  0.
          5    1    3    3  502    0  0.20156552786E+02 -0.13637776847E+02  0.98044157375E+01  0.26568299635E+02  0.41800000000E+01 0.  1.
         -5    1    3    3    0  502  0.30497232400E+02  0.95134455235E+02 -0.17660632901E+03  0.20294805641E+03  0.41800000000E+01 0.  1.
        -11    1    1    2    0    0 -0.68091019602E+02 -0.33265271825E+02 -0.23630722733E+02  0.79381208841E+02  0.00000000000E+00 0.  1.
         11    1    1    2    0    0  0.17437234417E+02 -0.48231406563E+02 -0.51306107114E+02  0.72544071780E+02  0.00000000000E+00 0. -1.
</event>
<event>
 7    1  0.2644565E-009  0.7859214E+02  0.7561462E-02  0.1333095E+00
          2   -1    0    0  501    0  0.00000000000E+00  0.00000000000E+00  0.49276930278E+03  0.49276930278E+03  0.00000000000E+00 0. -1.
         -2   -1    0    0    0  501 -0.00000000000E+00 -0.00000000000E+00 -0.47239864006E+02  0.47239864006E+02  0.00000000000E+00 0.  1.
         25    2    1    2    0    0  0.48354706207E+02  0.20148311097E+01  0.40915857030E+03  0.43057897903E+03  0.12508111117E+03 0.  0.
          5    1    3    3  502    0  0.76651398158E+02 -0.10641059749E+02  0.14354192855E+03  0.16312702610E+03  0.41800000000E+01 0.  1.
         -5    1    3    3    0  502 -0.28296691950E+02  0.12655890859E+02  0.26561664175E+03  0.26745195293E+03  0.41800000000E+01 0.  1.
        -11    1    1    2    0    0 -0.12251394671E+02 -0.86930748266E-01 -0.30799948598E+02  0.33147263265E+02  0.00000000000E+00 0.  1.
         11    1    1    2    0    0 -0.36103311536E+02 -0.19279003615E+01  0.67170817071E+02  0.76282924496E+02  0.00000000000E+00 0. -1.
</event>
<event>
 7    1  0.2644565E-009  0.8061405E+02  0.7561462E-02  0.1327318E+00
         -1   -1    0    0    0  501 -0.00000000000E+00  0.00000000000E+00  0.11730450813E+03  0.11730450813E+03  0.00000000000E+00 0.  1.
          1   -1    0    0  501    0  0.00000000000E+00 -0.00000000000E+00 -0.10561350645E+03  0.10561350645E+03  0.00000000000E+00 0. -1.
         25    2    1    2    0    0 -0.24914199024E+02 -0.79152526874E+01 -0.28215050270E+01  0.12782554475E+03  0.12509212789E+03 0.  0.
          5    1    3    3  502    0 -0.31105070951E+02  0.47475346248E+02 -0.31455367629E+02  0.65025737158E+02  0.41800000000E+01 0. -1.
         -5    1    3    3    0  502  0.61908719270E+01 -0.55390598935E+02  0.28633862602E+02  0.62799807589E+02  0.41800000000E+01 0. -1.
        -11    1    1    2    0    0  0.34697476209E+01  0.22322120968E+02 -0.33596869470E+02  0.40485378487E+02  0.00000000000E+00 0. -1.
         11    1    1    2    0    0  0.21444451403E+02 -0.14406868281E+02  0.48109376179E+02  0.54607091352E+02  0.00000000000E+00 0.  1.
</event>
<event>
 7    1  0.2644565E-009  0.1134028E+03  0.7561462E-02  0.1254395E+00
          2   -1    0    0  501    0  0.00000000000E+00  0.00000000000E+00  0.87429630124E+02  0.87429630124E+02  0.00000000000E+00 0. -1.
         -2   -1    0    0    0  501 -0.00000000000E+00 -0.00000000000E+00 -0.20036043372E+03  0.20036043372E+03  0.00000000000E+00 0.  1.
         25    2    1    2    0    0  0.37410902832E+02  0.60714444570E+02 -0.37596323825E+02  0.14882090907E+03  0.12509340503E+03 0.  0.
          5    1    3    3  502    0  0.65739862666E+02  0.17684557440E+02  0.20345837220E+02  0.71175126325E+02  0.41800000000E+01 0.  1.
         -5    1    3    3    0  502 -0.28328959834E+02  0.43029887131E+02 -0.57942161045E+02  0.77645782746E+02  0.41800000000E+01 0.  1.
        -11    1    1    2    0    0 -0.35884620088E+02 -0.79941174578E+02 -0.80513366782E+02  0.11899873773E+03  0.00000000000E+00 0.  1.
         11    1    1    2    0    0 -0.15262827440E+01  0.19226730007E+02  0.51788870159E+01  0.19970417034E+02  0.00000000000E+00 0. -1.
</event>
<event>
 7    1  0.2644565E-009  0.1210974E+03  0.7561462E-02  0.1241298E+00
         -1   -1    0    0    0  501 -0.00000000000E+00  0.00000000000E+00  0.66923690999E+02  0.66923690999E+02  0.00000000000E+00 0.  1.
          1   -1    0    0  501    0  0.00000000000E+00 -0.00000000000E+00 -0.33029647305E+03  0.33029647305E+03  0.00000000000E+00 0. -1.
         25    2    1    2    0    0  0.45230362384E+02 -0.55017493341E+02 -0.46179907839E+02  0.15117029466E+03  0.12508862396E+03 0.  0.
          5    1    3    3  502    0  0.15361742264E+02  0.38115157079E+02 -0.32006011358E+02  0.52255195795E+02  0.41800000000E+01 0. -1.
         -5    1    3    3    0  502  0.29868620120E+02 -0.93132650419E+02 -0.14173896481E+02  0.98915098865E+02  0.41800000000E+01 0. -1.
        -11    1    1    2    0    0  0.19394339641E+02  0.25261925983E+02 -0.23143291005E+02  0.39368988215E+02  0.00000000000E+00 0.  1.
         11    1    1    2    0    0 -0.64624702025E+02  0.29755567357E+02 -0.19404958320E+03  0.20668088117E+03  0.00000000000E+00 0. -1.
</event>
<event>
 7    1  0.2695955E-009  0.1281615E+03  0.7561462E-02  0.1230209E+00
         -2   -1    0    0    0  501 -0.00000000000E+00  0.00000000000E+00  0.72681872368E+02  0.72681872368E+02  0.00000000000E+00 0.  1.
          2   -1    0    0  501    0  0.00000000000E+00 -0.00000000000E+00 -0.26460746945E+03  0.26460746945E+03  0.00000000000E+00 0. -1.
         25    2    1    2    0    0 -0.29104031132E+02 -0.70207510310E+02 -0.55847006413E+02  0.15665994927E+03  0.12508921795E+03 0.  0.
          5    1    3    3  502    0 -0.73495982011E+02 -0.61713334769E+02 -0.18378938919E+02  0.97803133160E+02  0.41800000000E+01 0. -1.
         -5    1    3    3    0  502  0.44391950879E+02 -0.84941755410E+01 -0.37468067494E+02  0.58856816111E+02  0.41800000000E+01 0. -1.
        -11    1    1    2    0    0  0.20317931989E+02 -0.17445455802E+02 -0.53763842326E+02  0.60064240860E+02  0.00000000000E+00 0.  1.
         11    1    1    2    0    0  0.87860991428E+01  0.87652966112E+02 -0.82314748339E+02  0.12056515168E+03  0.00000000000E+00 0. -1.
</event>
<event>
 7    1  0.2644565E-009  0.6205891E+02  0.7561462E-02  0.1389389E+00
         -3   -1    0    0    0  501 -0.00000000000E+00  0.00000000000E+00  0.77220737352E+02  0.77220737352E+02  0.00000000000E+00 0.  1.
          3   -1    0    0  501    0  0.00000000000E+00 -0.00000000000E+00 -0.21738452123E+03  0.21738452123E+03  0.00000000000E+00 0. -1.
         25    2    1    2    0    0  0.23026726599E+02 -0.26928644068E+01 -0.15149351135E+03  0.19782607869E+03  0.12508953501E+03 0.  0.
          5    1    3    3  502    0  0.24338119261E+02  0.39080815314E+02 -0.14871148137E+03  0.15573127902E+03  0.41800000000E+01 0. -1.
         -5    1    3    3    0  502 -0.13113926618E+01 -0.41773679720E+02 -0.27820299840E+01  0.42094799666E+02  0.41800000000E+01 0. -1.
        -11    1    1    2    0    0 -0.12213531634E+02  0.15104547518E+02  0.50598908944E+02  0.54199329304E+02  0.00000000000E+00 0.  1.
         11    1    1    2    0    0 -0.10813194964E+02 -0.12411683112E+02 -0.39269181473E+02  0.42579850593E+02  0.00000000000E+00 0. -1.
</event>
<event>
 7    1  0.2644565E-009  0.1522942E+03  0.7561462E-02  0.1197682E+00
          2   -1    0    0  501    0  0.00000000000E+00  0.00000000000E+00  0.65621778199E+02  0.65621778199E+02  0.00000000000E+00 0. -1.
         -2   -1    0    0    0  501 -0.00000000000E+00 -0.00000000000E+00 -0.50700995594E+03  0.50700995594E+03  0.00000000000E+00 0.  1.
         25    2    1    2    0    0 -0.10638735253E+03 -0.77682819995E+02 -0.13305422347E+03  0.22517321552E+03  0.12508661520E+03 0.  0.
          5    1    3    3  502    0  0.12505169246E+02 -0.15448426334E+02  0.15044326289E+02  0.25275230712E+02  0.41800000000E+01 0. -1.
         -5    1    3    3    0  502 -0.11889252178E+03 -0.62234393661E+02 -0.14809854976E+03  0.19989798481E+03  0.41800000000E+01 0. -1.
        -11    1    1    2    0    0  0.22533660425E+02  0.60310868626E+02 -0.74653608310E+02  0.98581580229E+02  0.00000000000E+00 0. -1.
         11    1    1    2    0    0  0.83853692108E+02  0.17371951369E+02 -0.23368034596E+03  0.24887693839E+03  0.00000000000E+00 0.  1.
</event>
<event>
 7    1  0.2644565E-009  0.1347630E+03  0.7561462E-02  0.1220555E+00
          1   -1    0    0  501    0  0.00000000000E+00  0.00000000000E+00  0.26198356957E+03  0.26198356957E+03  0.00000000000E+00 0. -1.
         -1   -1    0    0    0  501 -0.00000000000E+00 -0.00000000000E+00 -0.10244486776E+03  0.10244486776E+03  0.00000000000E+00 0.  1.
         25    2    1    2    0    0  0.56755988202E+02 -0.73459492054E+02  0.17415087752E+03  0.23365094162E+03  0.12508675073E+03 0.  0.
          5    1    3    3  502    0  0.87575500822E+02 -0.52629602816E+02  0.16657631107E+03  0.19545967166E+03  0.41800000000E+01 0.  1.
         -5    1    3    3    0  502 -0.30819512620E+02 -0.20829889238E+02  0.75745664494E+01  0.38191269954E+02  0.41800000000E+01 0.  1.
        -11    1    1    2    0    0 -0.47025794317E+02 -0.80817464339E+01 -0.81239940235E+01  0.48401851571E+02  0.00000000000E+00 0.  1.
         11    1    1    2    0    0 -0.97301938846E+01  0.81541238488E+02 -0.64881816833E+01  0.82375644148E+02  0.00000000000E+00 0. -1.
</event>
<event>
 7    1  0.2644565E-009  0.8435657E+02  0.7561462E-02  0.1317124E+00
         -1   -1    0    0    0  501 -0.00000000000E+00  0.00000000000E+00  0.37154855786E+03  0.37154855786E+03  0.00000000000E+00 0.  1.
          1   -1    0    0  501    0  0.00000000000E+00 -0.00000000000E+00 -0.42299598050E+02  0.42299598050E+02  0.00000000000E+00 0. -1.
         25    2    1    2    0    0 -0.46292086371E+02 -0.82910104855E+01  0.11141117136E+03  0.17398541408E+03  0.12508707804E+03 0.  0.
          5    1    3    3  502    0 -0.55028466955E+02 -0.15857667080E+02  0.13537750896E+03  0.14705148797E+03  0.41800000000E+01 0.  1.
         -5    1    3    3    0  502  0.87363805838E+01  0.75666565940E+01 -0.23966337603E+02  0.26933926112E+02  0.41800000000E+01 0.  1.
        -11    1    1    2    0    0  0.69117244257E+02 -0.98905068322E+01  0.13413653293E+03  0.15122045181E+03  0.00000000000E+00 0. -1.
         11    1    1    2    0    0 -0.22825157886E+02  0.18181517318E+02  0.83701255527E+02  0.88642290028E+02  0.00000000000E+00 0.  1.
</event>
<event>
 7    1  0.2644565E-009  0.1557522E+03  0.7561462E-02  0.1193578E+00
          2   -1    0    0  501    0  0.00000000000E+00  0.00000000000E+00  0.10312503904E+04  0.10312503904E+04  0.00000000000E+00 0. -1.
         -2   -1    0    0    0  501 -0.00000000000E+00 -0.00000000000E+00 -0.41756943167E+02  0.41756943167E+02  0.00000000000E+00 0.  1.
         25    2    1    2    0    0 -0.81017642291E+02  0.10330173560E+03  0.82479395290E+03  0.84449251799E+03  0.12508973283E+03 0.  0.
          5    1    3    3  502    0  0.51571641972E+01  0.92556662628E+02  0.36967734926E+03  0.38114583442E+03  0.41800000000E+01 0. -1.
         -5    1    3    3    0  502 -0.86174806488E+02  0.10745072972E+02  0.45511660364E+03  0.46334668357E+03  0.41800000000E+01 0. -1.
        -11    1    1    2    0    0  0.39296393540E+02 -0.41043692095E+02  0.13751442567E+03  0.14879182933E+03  0.00000000000E+00 0. -1.
         11    1    1    2    0    0  0.41721248750E+02 -0.62258043505E+02  0.27185068656E+02  0.79722986247E+02  0.00000000000E+00 0.  1.
</event>
<event>
 7    1  0.2644565E-009  0.8223175E+02  0.7561462E-02  0.1322835E+00
          2   -1    0    0  501    0  0.00000000000E+00  0.00000000000E+00  0.87810519731E+02  0.87810519731E+02  0.00000000000E+00 0. -1.
         -2   -1    0    0    0  501 -0.00000000000E+00 -0.00000000000E+00 -0.17363051753E+03  0.17363051753E+03  0.00000000000E+00 0.  1.
         25    2    1    2    0    0 -0.36210204463E+02  0.39330570339E+02 -0.44623695605E+02  0.14316544030E+03  0.12508795472E+03 0.  0.
          5    1    3    3  502    0  0.18080958807E+02 -0.21187934690E+02 -0.54312558416E+02  0.61181500877E+02  0.41800000000E+01 0. -1.
         -5    1    3    3    0  502 -0.54291163270E+02  0.60518505028E+02  0.96888628110E+01  0.81983939419E+02  0.41800000000E+01 0. -1.
        -11    1    1    2    0    0  0.31705343415E+02 -0.26606198695E+02 -0.72893080652E+02  0.83824339049E+02  0.00000000000E+00 0.  1.
         11    1    1    2    0    0  0.45048610475E+01 -0.12724371644E+02  0.31696778463E+02  0.34451257912E+02  0.00000000000E+00 0. -1.
</event>
<event>
 7    1  0.2644565E-009  0.1215747E+03  0.7561462E-02  0.1240522E+00
         -2   -1    0    0    0  501 -0.00000000000E+00  0.00000000000E+00  0.57991331279E+03  0.57991331279E+03  0.00000000000E+00 0.  1.
          2   -1    0    0  501    0  0.00000000000E+00 -0.00000000000E+00 -0.28805402062E+02  0.28805402062E+02  0.00000000000E+00 0. -1.
         25    2    1    2    0    0 -0.74978701325E+01  0.69017330303E+02  0.28260388226E+03  0.31675864418E+03  0.12510585299E+03 0.  0.
          5    1    3    3  502    0 -0.62972187918E+02  0.15366419205E+02  0.14622145601E+03  0.15999940589E+03  0.41800000000E+01 0. -1.
         -5    1    3    3    0  502  0.55474317785E+02  0.53650911098E+02  0.13638242626E+03  0.15675923828E+03  0.41800000000E+01 0. -1.
        -11    1    1    2    0    0  0.31420406013E+02 -0.40553343637E+01  0.16105413898E+03  0.16414055968E+03  0.00000000000E+00 0.  1.
         11    1    1    2    0    0 -0.23922535881E+02 -0.64961995939E+02  0.10744988949E+03  0.12781951100E+03  0.00000000000E+00 0. -1.
</event>
<event>
 7    1  0.2644565E-009  0.1237569E+03  0.7561462E-02  0.1237025E+00
          2   -1    0    0  501    0  0.00000000000E+00  0.00000000000E+00  0.59454932214E+03  0.59454932214E+03  0.00000000000E+00 0. -1.
         -2   -1    0    0    0  501 -0.00000000000E+00 -0.00000000000E+00 -0.43485344704E+02  0.43485344704E+02  0.00000000000E+00 0.  1.
         25    2    1    2    0    0 -0.10972658478E+03  0.34607906633E+02  0.36250021421E+03  0.40036410177E+03  0.12508948030E+03 0.  0.
          5    1    3    3  502    0 -0.49238685694E+02  0.48667063305E+02  0.31369281717E+03  0.32126871488E+03  0.41800000000E+01 0. -1.
         -5    1    3    3    0  502 -0.60487899081E+02 -0.14059156673E+02  0.48807397038E+02  0.79095386890E+02  0.41800000000E+01 0. -1.
        -11    1    1    2    0    0  0.70439364834E+02 -0.29225854680E+02  0.44601383864E+02  0.88346692879E+02  0.00000000000E+00 0.  1.
         11    1    1    2    0    0  0.39287219942E+02 -0.53820519525E+01  0.14396237936E+03  0.14932387219E+03  0.00000000000E+00 0. -1.
</event>
<event>
 7    1  0.2644565E-009  0.8729752E+02  0.7561462E-02  0.1309531E+00
          2   -1    0    0  501    0  0.00000000000E+00  0.00000000000E+00  0.14841356623E+03  0.14841356623E+03  0.00000000000E+00 0. -1.
         -2   -1    0    0    0  501 -0.00000000000E+00 -0.00000000000E+00 -0.10866601411E+03  0.10866601411E+03  0.00000000000E+00 0.  1.
         25    2    1    2    0    0 -0.49806970704E+02  0.26560625781E+02 -0.12860262881E+02  0.13783762041E+03  0.12509045554E+03 0.  0.
          5    1    3    3  502    0 -0.84819618043E+01  0.34790800862E+02  0.50245663467E+02  0.61842077891E+02  0.41800000000E+01 0. -1.
         -5    1    3    3    0  502 -0.41325008899E+02 -0.82301750807E+01 -0.63105926348E+02  0.75995542518E+02  0.41800000000E+01 0. -1.
        -11    1    1    2    0    0  0.44330657014E+02 -0.53058664353E+02  0.11592868177E+02  0.70105802947E+02  0.00000000000E+00 0.  1.
         11    1    1    2    0    0  0.54763136894E+01  0.26498038572E+02  0.41014946830E+02  0.49136156985E+02  0.00000000000E+00 0. -1.
</event>
<event>
 7    1  0.2644565E-009  0.1239868E+03  0.7561462E-02  0.1236661E+00
         -2   -1    0    0    0  501 -0.00000000000E+00  0.00000000000E+00  0.61100645707E+03  0.61100645707E+03  0.00000000000E+00 0.  1.
          2   -1    0    0  501    0  0.00000000000E+00 -0.00000000000E+00 -0.30856822452E+02  0.30856822452E+02  0.00000000000E+00 0. -1.
         25    2    1    2    0    0 -0.29209599983E+02 -0.65076506188E+02  0.41287436038E+03  0.43726547471E+03  0.12509078912E+03 0.  0.
          5    1    3    3  502    0  0.26735530927E+02 -0.78075478366E+02  0.29040658301E+03  0.30193380863E+03  0.41800000000E+01 0. -1.
         -5    1    3    3    0  502 -0.55945130909E+02  0.12998972178E+02  0.12246777738E+03  0.13533166609E+03  0.41800000000E+01 0. -1.
        -11    1    1    2    0    0  0.40053107389E+02  0.79906413591E+02  0.16274664843E+03  0.18567648725E+03  0.00000000000E+00 0.  1.
         11    1    1    2    0    0 -0.10843507406E+02 -0.14829907402E+02  0.45286258065E+01  0.18921317558E+02  0.00000000000E+00 0. -1.
</event>
<event>
 7    1  0.2644565E-009  0.5008081E+02  0.7561462E-02  0.1444906E+00
         -3   -1    0    0    0  501 -0.00000000000E+00  0.00000000000E+00  0.62875830083E+02  0.62875830083E+02  0.00000000000E+00 0.  1.
          3   -1    0    0  501    0  0.00000000000E+00 -0.00000000000E+00 -0.20450726910E+03  0.20450726910E+03  0.00000000000E+00 0. -1.
         25    2    1    2    0    0 -0.32197968330E+02 -0.67912263212E+01 -0.89793641043E+02  0.15745966272E+03  0.12509123667E+03 0.  0.
          5    1    3    3  502    0 -0.26596970764E+02 -0.92209333329E+01 -0.12155801935E+03  0.12484489951E+03  0.41800000000E+01 0. -1.
         -5    1    3    3    0  502 -0.56009975665E+01  0.24297070117E+01  0.31764378307E+02  0.32614763208E+02  0.41800000000E+01 0. -1.
        -11    1    1    2    0    0 -0.14990395011E+02  0.82153354197E+01  0.18514544997E+02  0.25199048695E+02  0.00000000000E+00 0.  1.
         11    1    1    2    0    0  0.47188363341E+02 -0.14241090985E+01 -0.70352342967E+02  0.84724387767E+02  0.00000000000E+00 0. -1.
</event>
<event>
 7    1  0.2644565E-009  0.9062539E+02  0.7561462E-02  0.1301344E+00
          2   -1    0    0  501    0  0.00000000000E+00  0.00000000000E+00  0.10270728021E+03  0.10270728021E+03  0.00000000000E+00 0. -1.
         -2   -1    0    0    0  501 -0.00000000000E+00 -0.00000000000E+00 -0.21985867830E+03  0.21985867830E+03  0.00000000000E+00 0.  1.
         25    2    1    2    0    0  0.61301487240E+02  0.40433713851E+02 -0.14176117039E+03  0.20282103991E+03  0.12508951693E+03 0.  0.
          5    1    3    3  502    0  0.48288127296E+02  0.19457010403E+02 -0.16226282895E+03  0.17046118781E+03  0.41800000000E+01 0. -1.
         -5    1    3    3    0  502  0.13013359944E+02  0.20976703449E+02  0.20501658554E+02  0.32359852102E+02  0.41800000000E+01 0. -1.
        -11    1    1    2    0    0 -0.38257739029E+02 -0.61719679472E+02 -0.96945351601E+01  0.73259521168E+02  0.00000000000E+00 0.  1.
         11    1    1    2    0    0 -0.23043748212E+02  0.21285965621E+02  0.34304307464E+02  0.46485397435E+02  0.00000000000E+00 0. -1.
</event>
<event>
 7    1  0.2644565E-009  0.1173284E+03  0.7561462E-02  0.1247571E+00
         -1   -1    0    0    0  501 -0.00000000000E+00  0.00000000000E+00  0.43556613766E+02  0.43556613766E+02  0.00000000000E+00 0. -1.
          1   -1    0    0  501    0  0.00000000000E+00 -0.00000000000E+00 -0.61296983166E+03  0.61296983166E+03  0.00000000000E+00 0.  1.
         25    2    1    2    0    0  0.72298683571E+02 -0.64024316471E+02 -0.15785982786E+03  0.22336984934E+03  0.12509257210E+03 0.  0.
          5    1    3    3  502    0 -0.15127533434E+02 -0.17958190867E+02  0.12085758892E+02  0.26737181134E+02  0.41800000000E+01 0. -1.
         -5    1    3    3    0  502  0.87426217005E+02 -0.46066125604E+02 -0.16994558675E+03  0.19663266820E+03  0.41800000000E+01 0. -1.
        -11    1    1    2    0    0 -0.11437670850E+02  0.47466823048E+02 -0.67144416148E+02  0.83019830309E+02  0.00000000000E+00 0. -1.
         11    1    1    2    0    0 -0.60861012721E+02  0.16557493423E+02 -0.34440897389E+03  0.35013676578E+03  0.00000000000E+00 0.  1.
</event>
<event>
 7    1  0.2644565E-009  0.7728514E+02  0.7561462E-02  0.1336937E+00
         -1   -1    0    0    0  501 -0.00000000000E+00  0.00000000000E+00  0.62587004379E+02  0.62587004379E+02  0.00000000000E+00 0.  1.
          1   -1    0    0  501    0  0.00000000000E+00 -0.00000000000E+00 -0.19888898762E+03  0.19888898762E+03  0.00000000000E+00 0. -1.
         25    2    1    2    0    0  0.14289342733E+02  0.16668041628E+02 -0.10061638936E+03  0.16204119342E+03  0.12510668099E+03 0.  0.
          5    1    3    3  502    0 -0.30881923876E+02  0.33598493641E+02  0.47599212597E+01  0.46072565022E+02  0.41800000000E+01 0.  1.
         -5    1    3    3    0  502  0.45171266609E+02 -0.16930452013E+02 -0.10537631062E+03  0.11596862840E+03  0.41800000000E+01 0.  1.
        -11    1    1    2    0    0  0.14660086071E+02  0.12472296580E+02  0.21608350232E+02  0.28937814453E+02  0.00000000000E+00 0.  1.
         11    1    1    2    0    0 -0.28949428804E+02 -0.29140338209E+02 -0.57293944109E+02  0.70496984124E+02  0.00000000000E+00 0. -1.
</event>
<event>
 7    1  0.2644565E-009  0.1571038E+03  0.7561462E-02  0.1192006E+00
         -1   -1    0    0    0  501 -0.00000000000E+00  0.00000000000E+00  0.79108870582E+02  0.79108870582E+02  0.00000000000E+00 0.  1.
          1   -1    0    0  501    0  0.00000000000E+00 -0.00000000000E+00 -0.57434384525E+03  0.57434384525E+03  0.00000000000E+00 0. -1.
         25    2    1    2    0    0 -0.13255946336E+03  0.13529400018E+02 -0.65657831193E+02  0.19420445682E+03  0.12509741908E+03 0.  0.
          5    1    3    3  502    0 -0.13070301722E+03 -0.10247170929E+02 -0.77047671470E+01  0.13139680004E+03  0.41800000000E+01 0.  1.
         -5    1    3    3    0  502 -0.18564461402E+01  0.23776570947E+02 -0.57953064046E+02  0.62807656783E+02  0.41800000000E+01 0.  1.
        -11    1    1    2    0    0  0.14094291577E+03  0.22447267288E+01 -0.34278067108E+03  0.37063261158E+03  0.00000000000E+00 0. -1.
         11    1    1    2    0    0 -0.83834524024E+01 -0.15774126747E+02 -0.86796472397E+02  0.88615647430E+02  0.00000000000E+00 0.  1.
</event>
<event>
 7    1  0.2644565E-009  0.9150491E+02  0.7561462E-02  0.1299248E+00
          2   -1    0    0  501    0  0.00000000000E+00  0.00000000000E+00  0.74774486377E+03  0.74774486377E+03  0.00000000000E+00 0. -1.
         -2   -1    0    0    0  501 -0.00000000000E+00 -0.00000000000E+00 -0.22049442779E+02  0.22049442779E+02  0.00000000000E+00 0.  1.
         25    2    1    2    0    0 -0.51222769181E+02 -0.37142751047E+02  0.31542622728E+03  0.34517320565E+03  0.12508989169E+03 0.  0.
          5    1    3    3  502    0 -0.59356213827E+02 -0.22065272582E+02  0.54502366900E+02  0.83654149758E+02  0.41800000000E+01 0. -1.
         -5    1    3    3    0  502  0.81334446464E+01 -0.15077478466E+02  0.26092386038E+03  0.26151905589E+03  0.41800000000E+01 0. -1.
        -11    1    1    2    0    0  0.60369862228E+01  0.53513759458E+02  0.29261789352E+03  0.29753218189E+03  0.00000000000E+00 0. -1.
         11    1    1    2    0    0  0.45185782958E+02 -0.16371008411E+02  0.11765130020E+03  0.12708891901E+03  0.00000000000E+00 0.  1.
</event>
<event>
 7    1  0.2644565E-009  0.1555799E+03  0.7561462E-02  0.1193779E+00
          3   -1    0    0  501    0  0.00000000000E+00  0.00000000000E+00  0.36526092148E+03  0.36526092148E+03  0.00000000000E+00 0. -1.
         -3   -1    0    0    0  501 -0.00000000000E+00 -0.00000000000E+00 -0.99232051111E+02  0.99232051111E+02  0.00000000000E+00 0.  1.
         25    2    1    2    0    0 -0.11294808567E+03 -0.31748982621E+01  0.26342592642E+03  0.31274364055E+03  0.12509202995E+03 0.  0.
          5    1    3    3  502    0 -0.11589325321E+03 -0.41541859116E+02  0.23281596809E+03  0.26339650643E+03  0.41800000000E+01 0. -1.
         -5    1    3    3    0  502  0.29451675471E+01  0.38366960854E+02  0.30609958326E+02  0.49347134119E+02  0.41800000000E+01 0. -1.
        -11    1    1    2    0    0  0.75376222476E+02  0.49081267037E+02  0.14882156966E+02  0.91170303743E+02  0.00000000000E+00 0. -1.
         11    1    1    2    0    0  0.37571863192E+02 -0.45906368774E+02 -0.12279213014E+02  0.60579028302E+02  0.00000000000E+00 0.  1.
</event>
<event>
 7    1  0.2644565E-009  0.1196730E+03  0.7561462E-02  0.1243637E+00
          3   -1    0    0  501    0  0.00000000000E+00  0.00000000000E+00  0.58562957235E+02  0.58562957235E+02  0.00000000000E+00 0. -1.
         -3   -1    0    0    0  501 -0.00000000000E+00 -0.00000000000E+00 -0.29169246087E+03  0.29169246087E+03  0.00000000000E+00 0.  1.
         25    2    1    2    0    0  0.59748853482E+02 -0.35224561630E+02 -0.16715900258E+03  0.21999900067E+03  0.12508690146E+03 0.  0.
          5    1    3    3  502    0  0.82831691949E+02  0.38360926264E+01 -0.14974422959E+03  0.17122094350E+03  0.41800000000E+01 0.  1.
         -5    1    3    3    0  502 -0.23082838468E+02 -0.39060654256E+02 -0.17414772992E+02  0.48778057167E+02  0.41800000000E+01 0.  1.
        -11    1    1    2    0    0 -0.78645211966E+02  0.43784689654E+02 -0.44536252101E+02  0.10042731782E+03  0.00000000000E+00 0. -1.
         11    1    1    2    0    0  0.18896358484E+02 -0.85601280246E+01 -0.21434248955E+02  0.29829099618E+02  0.00000000000E+00 0.  1.
</event>
<event>
 7    1  0.2644565E-009  0.7930246E+02  0.7561462E-02  0.1331043E+00
          2   -1    0    0  501    0  0.00000000000E+00  0.00000000000E+00  0.27840756909E+03  0.27840756909E+03  0.00000000000E+00 0. -1.
         -2   -1    0    0    0  501 -0.00000000000E+00 -0.00000000000E+00 -0.40275003847E+02  0.40275003847E+02  0.00000000000E+00 0.  1.
         25    2    1    2    0    0 -0.22687968384E+02  0.46733872222E+02  0.14782890936E+03  0.20051384673E+03  0.12511441790E+03 0.  0.
          5    1    3    3  502    0  0.29995963975E+02  0.20332576218E+01 -0.67937113144E+01  0.31104965919E+02  0.41800000000E+01 0. -1.
         -5    1    3    3    0  502 -0.52683932360E+02  0.44700614600E+02  0.15462262068E+03  0.16940888082E+03  0.41800000000E+01 0. -1.
        -11    1    1    2    0    0  0.23422589897E+02 -0.16175508264E+02  0.68281671097E+01  0.29272660473E+02  0.00000000000E+00 0. -1.
         11    1    1    2    0    0 -0.73462151238E+00 -0.30558363958E+02  0.83475488774E+02  0.88896065732E+02  0.00000000000E+00 0.  1.
</event>
<event>
 7    1  0.2644565E-009  0.1227299E+03  0.7561462E-02  0.1238660E+00
         -2   -1    0    0    0  501 -0.00000000000E+00  0.00000000000E+00  0.77842213743E+02  0.77842213743E+02  0.00000000000E+00 0.  1.
          2   -1    0    0  501    0  0.00000000000E+00 -0.00000000000E+00 -0.33550498324E+03  0.33550498324E+03  0.00000000000E+00 0. -1.
         25    2    1    2    0    0 -0.37554755625E+02 -0.11235058148E+03 -0.11748858175E+03  0.20852604215E+03  0.12508609269E+03 0.  0.
          5    1    3    3  502    0 -0.80210844198E+01 -0.24487865866E+02 -0.11262512501E+03  0.11561091883E+03  0.41800000000E+01 0.  1.
         -5    1    3    3    0  502 -0.29533671205E+02 -0.87862715611E+02 -0.48634567400E+01  0.92915123316E+02  0.41800000000E+01 0.  1.
        -11    1    1    2    0    0  0.13488777628E+02  0.20161519610E+01 -0.71200396428E+02  0.72494885628E+02  0.00000000000E+00 0.  1.
         11    1    1    2    0    0  0.24065977997E+02  0.11033442952E+03 -0.68973791321E+02  0.13232626921E+03  0.00000000000E+00 0. -1.
</event>
<event>
 7    1  0.2644565E-009  0.1343287E+03  0.7561462E-02  0.1221170E+00
          2   -1    0    0  501    0  0.00000000000E+00  0.00000000000E+00  0.18921458563E+03  0.18921458563E+03  0.00000000000E+00 0. -1.
         -2   -1    0    0    0  501 -0.00000000000E+00 -0.00000000000E+00 -0.10819340328E+03  0.10819340328E+03  0.00000000000E+00 0.  1.
         25    2    1    2    0    0 -0.90003448247E+02  0.20557489373E+02  0.28999026966E+02  0.15815083809E+03  0.12509001942E+03 0.  0.
          5    1    3    3  502    0 -0.74046217247E+02 -0.40742195748E+02 -0.74584893668E+01  0.84946278709E+02  0.41800000000E+01 0. -1.
         -5    1    3    3    0  502 -0.15957231000E+02  0.61299685121E+02  0.36457516333E+02  0.73204559382E+02  0.41800000000E+01 0. -1.
        -11    1    1    2    0    0  0.21872261034E+02  0.28990563810E+02  0.40223445979E+02  0.54192012319E+02  0.00000000000E+00 0. -1.
         11    1    1    2    0    0  0.68131187214E+02 -0.49548053182E+02  0.11798709408E+02  0.85065138506E+02  0.00000000000E+00 0.  1.
</event>
<event>
 7    1  0.2644565E-009  0.1942470E+03  0.7561462E-02  0.1154686E+00
         -3   -1    0    0    0  501 -0.00000000000E+00  0.00000000000E+00  0.66997601692E+03  0.66997601692E+03  0.00000000000E+00 0.  1.
          3   -1    0    0  501    0  0.00000000000E+00 -0.00000000000E+00 -0.80189729824E+02  0.80189729824E+02  0.00000000000E+00 0. -1.
         25    2    1    2    0    0 -0.15552145660E+03  0.10697613340E+03  0.19173661707E+03  0.29671712762E+03  0.12508919584E+03 0.  0.
          5    1    3    3  502    0  0.28406397067E+01 -0.28107354804E+01  0.66745700393E+02  0.66995749036E+02  0.41800000000E+01 0. -1.
         -5    1    3    3    0  502 -0.15836209631E+03  0.10978686888E+03  0.12499091668E+03  0.22972137858E+03  0.41800000000E+01 0. -1.
        -11    1    1    2    0    0  0.65200605172E+02 -0.32231275020E+02  0.27092097377E+03  0.28051407813E+03  0.00000000000E+00 0.  1.
         11    1    1    2    0    0  0.90320851428E+02 -0.74744858379E+02  0.12712869626E+03  0.17293454100E+03  0.00000000000E+00 0. -1.
</event>
<event>
 7    1  0.2644565E-009  0.1226815E+03  0.7561462E-02  0.1238738E+00
          2   -1    0    0  501    0  0.00000000000E+00  0.00000000000E+00  0.12638150600E+03  0.12638150600E+03  0.00000000000E+00 0. -1.
         -2   -1    0    0    0  501 -0.00000000000E+00 -0.00000000000E+00 -0.18140101894E+03  0.18140101894E+03  0.00000000000E+00 0.  1.
         25    2    1    2    0    0  0.63885012486E+02  0.15853684466E+02  0.54096742600E+02  0.15135027593E+03  0.12509122405E+03 0.  0.
          5    1    3    3  502    0  0.10001877675E+03  0.30614799202E+01  0.51719005984E+02  0.11271848270E+03  0.41800000000E+01 0. -1.
         -5    1    3    3    0  502 -0.36133764264E+02  0.12792204546E+02  0.23777366164E+01  0.38631793233E+02  0.41800000000E+01 0. -1.
        -11    1    1    2    0    0  0.15046555680E+02 -0.22905571128E+02 -0.51894228272E+02  0.58686241611E+02  0.00000000000E+00 0.  1.
         11    1    1    2    0    0 -0.78931568166E+02  0.70518866619E+01 -0.57222027269E+02  0.97746007404E+02  0.00000000000E+00 0. -1.
</event>
<event>
 7    1  0.2644565E-009  0.9319311E+02  0.7561462E-02  0.1295298E+00
          2   -1    0    0  501    0  0.00000000000E+00  0.00000000000E+00  0.35327222043E+03  0.35327222043E+03  0.00000000000E+00 0. -1.
         -2   -1    0    0    0  501 -0.00000000000E+00 -0.00000000000E+00 -0.37125312298E+02  0.37125312298E+02  0.00000000000E+00 0.  1.
         25    2    1    2    0    0  0.16835655301E+01  0.10148337773E+02  0.24096126554E+03  0.27169522571E+03  0.12510052369E+03 0.  0.
          5    1    3    3  502    0  0.23020433159E+01  0.54523759157E+02  0.21100651253E+03  0.21798935856E+03  0.41800000000E+01 0. -1.
         -5    1    3    3    0  502 -0.61847778578E+00 -0.44375421385E+02  0.29954753012E+02  0.53705867145E+02  0.41800000000E+01 0. -1.
        -11    1    1    2    0    0 -0.44032282083E+02 -0.73018972151E+01  0.19556474561E+02  0.48730024273E+02  0.00000000000E+00 0. -1.
         11    1    1    2    0    0  0.42348716553E+02 -0.28464405576E+01  0.55629168029E+02  0.69972282749E+02  0.00000000000E+00 0.  1.
</event>
<event>
 7    1  0.2644565E-009  0.1182792E+03  0.7561462E-02  0.1245963E+00
         -2   -1    0    0    0  501 -0.00000000000E+00  0.00000000000E+00  0.46567448894E+02  0.46567448894E+02  0.00000000000E+00 0.  1.
          2   -1    0    0  501    0  0.00000000000E+00 -0.00000000000E+00 -0.58210760814E+03  0.58210760814E+03  0.00000000000E+00 0. -1.
         25    2    1    2    0    0 -0.58287342691E+02  0.46730287433E+02 -0.46859346173E+03  0.49072306371E+03  0.12509260090E+03 0.  0.
          5    1    3    3  502    0 -0.46383915157E+02  0.80284680787E+02 -0.42116725927E+03  0.43127303444E+03  0.41800000000E+01 0.  1.
         -5    1    3    3    0  502 -0.11903427534E+02 -0.33554393355E+02 -0.47426202458E+02  0.59450029269E+02  0.41800000000E+01 0.  1.
        -11    1    1    2    0    0 -0.19480515460E+02 -0.90213457072E+01  0.86328974219E+01  0.23138757072E+02  0.00000000000E+00 0.  1.
         11    1    1    2    0    0  0.77767858151E+02 -0.37708941725E+02 -0.75579594939E+02  0.11481323625E+03  0.00000000000E+00 0. -1.
</event>
<event>
 7    1  0.2644565E-009  0.1050814E+03  0.7561462E-02  0.1269959E+00
         -1   -1    0    0    0  501 -0.00000000000E+00  0.00000000000E+00  0.12534673098E+02  0.12534673098E+02  0.00000000000E+00 0.  1.
          1   -1    0    0  501    0  0.00000000000E+00 -0.00000000000E+00 -0.10642083954E+04  0.10642083954E+04  0.00000000000E+00 0. -1.
         25    2    1    2    0    0 -0.17313295212E+02  0.19442271074E+01 -0.76577659385E+03  0.77612163940E+03  0.12508987673E+03 0.  0.
          5    1    3    3  502    0 -0.10153285342E+02 -0.61286948768E+02 -0.40330836171E+03  0.40808612610E+03  0.41800000000E+01 0. -1.
         -5    1    3    3    0  502 -0.71600098706E+01  0.63231175876E+02 -0.36246823213E+03  0.36803551330E+03  0.41800000000E+01 0. -1.
        -11    1    1    2    0    0  0.48385891193E+02  0.12331508379E+02 -0.10192970073E+03  0.11350297114E+03  0.00000000000E+00 0.  1.
         11    1    1    2    0    0 -0.31072595980E+02 -0.14275735487E+02 -0.18396742773E+03  0.18711845796E+03  0.00000000000E+00 0. -1.
</event>
<event>
 7    1  0.2644565E-009  0.1367225E+03  0.7561462E-02  0.1217808E+00
         -2   -1    0    0    0  501 -0.00000000000E+00  0.00000000000E+00  0.12186688281E+03  0.12186688281E+03  0.00000000000E+00 0.  1.
          2   -1    0    0  501    0  0.00000000000E+00 -0.00000000000E+00 -0.19793956452E+03  0.19793956452E+03  0.00000000000E+00 0. -1.
         25    2    1    2    0    0 -0.24584129799E+02  0.10829920540E+03 -0.39833675548E+02  0.17195164304E+03  0.12509016152E+03 0.  0.
          5    1    3    3  502    0 -0.44187287616E+02  0.38184584990E+02  0.34387218449E+02  0.67900899187E+02  0.41800000000E+01 0.  1.
         -5    1    3    3    0  502  0.19603157817E+02  0.70114620409E+02 -0.74220893996E+02  0.10405074386E+03  0.41800000000E+01 0.  1.
        -11    1    1    2    0    0 -0.25982477920E+02 -0.43062867727E+01  0.10444584151E+01  0.26357620492E+02  0.00000000000E+00 0. -1.
         11    1    1    2    0    0  0.50566607719E+02 -0.10399291863E+03 -0.37283464579E+02  0.12149718380E+03  0.00000000000E+00 0.  1.
</event>
<event>
 7    1  0.2644565E-009  0.5518906E+02  0.7561462E-02  0.1419207E+00
         -1   -1    0    0    0  501 -0.00000000000E+00  0.00000000000E+00  0.25562595669E+02  0.25562595669E+02  0.00000000000E+00 0.  1.
          1   -1    0    0  501    0  0.00000000000E+00 -0.00000000000E+00 -0.50823096347E+03  0.50823096347E+03  0.00000000000E+00 0. -1.
         25    2    1    2    0    0  0.49272050210E+01  0.74908454075E+01 -0.19672910178E+03  0.23331418760E+03  0.12511107280E+03 0.  0.
          5    1    3    3  502    0 -0.13701771570E+02  0.38495686000E+01  0.14764747978E+02  0.20929116212E+02  0.41800000000E+01 0. -1.
         -5    1    3    3    0  502  0.18628976591E+02  0.36412768075E+01 -0.21149384975E+03  0.21238507139E+03  0.41800000000E+01 0. -1.
        -11    1    1    2    0    0  0.26774237552E+02 -0.27690955392E+02 -0.22922495459E+03  0.23243865559E+03  0.00000000000E+00 0. -1.
         11    1    1    2    0    0 -0.31701442573E+02  0.20200109984E+02 -0.56714311436E+02  0.68040715944E+02  0.00000000000E+00 0.  1.
</event>
<event>
 7    1  0.2644565E-009  0.1520796E+03  0.7561462E-02  0.1197941E+00
          1   -1    0    0  501    0  0.00000000000E+00  0.00000000000E+00  0.11094302172E+04  0.11094302172E+04  0.00000000000E+00 0. -1.
         -1   -1    0    0    0  501 -0.00000000000E+00 -0.00000000000E+00 -0.26649262789E+02  0.26649262789E+02  0.00000000000E+00 0.  1.
         25    2    1    2    0    0  0.28477993810E+02  0.12832739934E+03  0.51180475314E+03  0.54302017774E+03  0.12509152866E+03 0.  0.
          5    1    3    3  502    0 -0.56883105486E+01 -0.10271063866E+02  0.85927520839E+00  0.12492493095E+02  0.41800000000E+01 0.  1.
         -5    1    3    3    0  502  0.34166304359E+02  0.13859846320E+03  0.51094547793E+03  0.53052768464E+03  0.41800000000E+01 0.  1.
        -11    1    1    2    0    0 -0.43581268302E+02 -0.39604980706E+02  0.34196586087E+03  0.34699932485E+03  0.00000000000E+00 0. -1.
         11    1    1    2    0    0  0.15103274491E+02 -0.88722418633E+02  0.22901034039E+03  0.24605997739E+03  0.00000000000E+00 0.  1.
</event>
<event>
 7    1  0.2644565E-009  0.7715206E+02  0.7561462E-02  0.1337333E+00
         -1   -1    0    0    0  501 -0.00000000000E+00  0.00000000000E+00  0.18220968717E+03  0.18220968717E+03  0.00000000000E+00 0. -1.
          1   -1    0    0  501    0  0.00000000000E+00 -0.00000000000E+00 -0.24908345264E+03  0.24908345264E+03  0.00000000000E+00 0.  1.
         25    2    1    2    0    0 -0.50493545136E+02  0.14378646438E+02 -0.21272858603E+03  0.25230442050E+03  0.12509086984E+03 0.  0.
          5    1    3    3  502    0 -0.24678616566E+02  0.12906927369E+02  0.85887763460E+01  0.29442526536E+02  0.41800000000E+01 0.  1.
         -5    1    3    3    0  502 -0.25814928570E+02  0.14717190691E+01 -0.22131736238E+03  0.22286189397E+03  0.41800000000E+01 0.  1.
        -11    1    1    2    0    0  0.30007399350E+02 -0.50315296015E+02  0.10824477470E+03  0.12308129135E+03  0.00000000000E+00 0.  1.
         11    1    1    2    0    0  0.20486145786E+02  0.35936649577E+02  0.37610045849E+02  0.55907427957E+02  0.00000000000E+00 0. -1.
</event>
<event>
 7    1  0.2644565E-009  0.1642276E+03  0.7561462E-02  0.1184005E+00
         -1   -1    0    0    0  501 -0.00000000000E+00  0.00000000000E+00  0.48025293075E+02  0.48025293075E+02  0.00000000000E+00 0.  1.
          1   -1    0    0  501    0  0.00000000000E+00 -0.00000000000E+00 -0.68324488105E+03  0.68324488105E+03  0.00000000000E+00 0. -1.
         25    2    1    2    0    0 -0.53729257401E+02 -0.12041523174E+03 -0.49545313336E+03  0.52774815540E+03  0.12513052001E+03 0.  0.
          5    1    3    3  502    0  0.25143820484E+02 -0.93796876499E+02 -0.29707773409E+03  0.31257434035E+03  0.41800000000E+01 0.  1.
         -5    1    3    3    0  502 -0.78873077885E+02 -0.26618355236E+02 -0.19837539927E+03  0.21517381506E+03  0.41800000000E+01 0.  1.
        -11    1    1    2    0    0 -0.12850403836E+02  0.47328318716E+02 -0.48372651088E+02  0.68884076567E+02  0.00000000000E+00 0.  1.
         11    1    1    2    0    0  0.66579661237E+02  0.73086913019E+02 -0.91393803525E+02  0.13463794216E+03  0.00000000000E+00 0. -1.
</event>
<event>
 7    1  0.2644565E-009  0.1147074E+03  0.7561462E-02  0.1252093E+00
          1   -1    0    0  501    0  0.00000000000E+00  0.00000000000E+00  0.17093726400E+03  0.17093726400E+03  0.00000000000E+00 0. -1.
         -1   -1    0    0    0  501 -0.00000000000E+00 -0.00000000000E+00 -0.10934740646E+03  0.10934740646E+03  0.00000000000E+00 0.  1.
         25    2    1    2    0    0 -0.43805103290E+02 -0.62736854493E+02 -0.94619987681E+01  0.14694480928E+03  0.12509375511E+03 0.  0.
          5    1    3    3  502    0  0.22642320630E+02  0.18277115236E+02 -0.27836387651E+02  0.40485361580E+02  0.41800000000E+01 0.  1.
         -5    1    3    3    0  502 -0.66447423919E+02 -0.81013969729E+02  0.18374388883E+02  0.10645944770E+03  0.41800000000E+01 0.  1.
        -11    1    1    2    0    0 -0.90879828055E+01  0.33519110277E+02  0.63588498263E+02  0.72454256580E+02  0.00000000000E+00 0. -1.
         11    1    1    2    0    0  0.52893086095E+02  0.29217744216E+02  0.74633580450E+01  0.60885604596E+02  0.00000000000E+00 0.  1.
</event>
<event>
 7    1  0.2644565E-009  0.6146597E+02  0.7561462E-02  0.1391781E+00
          4   -1    0    0  501    0  0.00000000000E+00  0.00000000000E+00  0.12329184371E+03  0.12329184371E+03  0.00000000000E+00 0. -1.
         -4   -1    0    0    0  501 -0.00000000000E+00 -0.00000000000E+00 -0.10678298939E+03  0.10678298939E+03  0.00000000000E+00 0.  1.
         25    2    1    2    0    0  0.12321464443E+02  0.16271899076E+01  0.45092204298E+02  0.13355217028E+03  0.12509360122E+03 0.  0.
          5    1    3    3  502    0 -0.39058228971E+02  0.11065288989E+02  0.65614833353E+02  0.77270722960E+02  0.41800000000E+01 0. -1.
         -5    1    3    3    0  502  0.51379693413E+02 -0.94380990818E+01 -0.20522629055E+02  0.56281447324E+02  0.41800000000E+01 0. -1.
        -11    1    1    2    0    0  0.28096140120E+01  0.10156118932E+02 -0.59344562713E+02  0.60272861275E+02  0.00000000000E+00 0.  1.
         11    1    1    2    0    0 -0.15131078455E+02 -0.11783308840E+02  0.30761212744E+02  0.36249801543E+02  0.00000000000E+00 0. -1.
</event>
<event>
 7    1  0.2703591E-009  0.2202321E+03  0.7561462E-02  0.1133710E+00
          3   -1    0    0  501    0  0.00000000000E+00  0.00000000000E+00  0.14697158098E+03  0.14697158098E+03  0.00000000000E+00 0. -1.
         -3   -1    0    0    0  501 -0.00000000000E+00 -0.00000000000E+00 -0.36676683354E+03  0.36676683354E+03  0.00000000000E+00 0.  1.
         25    2    1    2    0    0  0.19316727999E+03  0.15100047406E+02 -0.40293785441E+02  0.23412427462E+03  0.12509587255E+03 0.  0.
          5    1    3    3  502    0  0.63516381375E+01  0.38529428407E+02 -0.21736688420E+02  0.44886703865E+02  0.41800000000E+01 0.  1.
         -5    1    3    3    0  502  0.18681564185E+03 -0.23429381002E+02 -0.18557097022E+02  0.18923757075E+03  0.41800000000E+01 0.  1.
        -11    1    1    2    0    0 -0.10216441994E+03  0.36214118948E+02 -0.10801905451E+03  0.15302662269E+03  0.00000000000E+00 0.  1.
         11    1    1    2    0    0 -0.91002860045E+02 -0.51314166353E+02 -0.71482412602E+02  0.12658751722E+03  0.00000000000E+00 0. -1.
</event>
<event>
 7    1  0.2644565E-009  0.8347961E+02  0.7561462E-02  0.1319457E+00
         -4   -1    0    0    0  501 -0.00000000000E+00  0.00000000000E+00  0.25679210208E+03  0.25679210208E+03  0.00000000000E+00 0.  1.
          4   -1    0    0  501    0  0.00000000000E+00 -0.00000000000E+00 -0.42038506279E+02  0.42038506279E+02  0.00000000000E+00 0. -1.
         25    2    1    2    0    0  0.30268959184E+01 -0.66749803168E+01  0.16512166561E+03  0.20728196626E+03  0.12508769572E+03 0.  0.
          5    1    3    3  502    0 -0.28809864474E+02 -0.57799672004E+02  0.79378718729E+02  0.10241710678E+03  0.41800000000E+01 0. -1.
         -5    1    3    3    0  502  0.31836760392E+02  0.51124691687E+02  0.85742946886E+02  0.10486485948E+03  0.41800000000E+01 0. -1.
        -11    1    1    2    0    0 -0.20732484768E+02 -0.41135885512E+01 -0.13512916921E+02  0.25086977880E+02  0.00000000000E+00 0. -1.
         11    1    1    2    0    0  0.17705588850E+02  0.10788568868E+02  0.63144847109E+02  0.66461664222E+02  0.00000000000E+00 0.  1.
</event>
<event>
 7    1  0.2644565E-009  0.1019635E+03  0.7561462E-02  0.1276220E+00
          2   -1    0    0  501    0  0.00000000000E+00  0.00000000000E+00  0.52412008651E+02  0.52412008651E+02  0.00000000000E+00 0. -1.
         -2   -1    0    0    0  501 -0.00000000000E+00 -0.00000000000E+00 -0.39996852569E+03  0.39996852569E+03  0.00000000000E+00 0.  1.
         25    2    1    2    0    0 -0.73707179873E+02 -0.34136293767E+02 -0.10948306363E+03  0.18501699626E+03  0.12508682092E+03 0.  0.
          5    1    3    3  502    0  0.73779498503E+01 -0.93318177831E+01 -0.98625585278E+02  0.99428343236E+02  0.41800000000E+01 0. -1.
         -5    1    3    3    0  502 -0.81085129724E+02 -0.24804475984E+02 -0.10857478351E+02  0.85588653029E+02  0.41800000000E+01 0. -1.
        -11    1    1    2    0    0  0.16801658595E+02  0.45401759776E+02 -0.17542457665E+03  0.18198186068E+03  0.00000000000E+00 0.  1.
         11    1    1    2    0    0  0.56905521278E+02 -0.11265466009E+02 -0.62648876759E+02  0.85381677400E+02  0.00000000000E+00 0. -1.
</event>
<event>
 7    1  0.2644565E-009  0.1100400E+03  0.7561462E-02  0.1260496E+00
          1   -1    0    0  501    0  0.00000000000E+00  0.00000000000E+00  0.16302288212E+03  0.16302288212E+03  0.00000000000E+00 0. -1.
         -1   -1    0    0    0  501 -0.00000000000E+00 -0.00000000000E+00 -0.14703821131E+03  0.14703821131E+03  0.00000000000E+00 0.  1.
         25    2    1    2    0    0  0.68244364189E+02 -0.65488274870E+02  0.66221136413E+02  0.17023783086E+03  0.12509865210E+03 0.  0.
          5    1    3    3  502    0  0.66822395914E+02 -0.70911742367E+02 -0.59708591930E+01  0.97707887914E+02  0.41800000000E+01 0. -1.
         -5    1    3    3    0  502  0.14219682747E+01  0.54234674964E+01  0.72191995606E+02  0.72529942941E+02  0.41800000000E+01 0. -1.
        -11    1    1    2    0    0 -0.60957016689E+02  0.79254498234E+02 -0.64268222736E+02  0.11885889882E+03  0.00000000000E+00 0.  1.
         11    1    1    2    0    0 -0.72873474998E+01 -0.13766223364E+02  0.14031757136E+02  0.20964363754E+02  0.00000000000E+00 0. -1.
</event>
<event>
 7    1  0.2644565E-009  0.1384074E+03  0.7561462E-02  0.1215488E+00
          4   -1    0    0  501    0  0.00000000000E+00  0.00000000000E+00  0.59190686955E+03  0.59190686955E+03  0.00000000000E+00 0. -1.
         -4   -1    0    0    0  501 -0.00000000000E+00 -0.00000000000E+00 -0.60512078273E+02  0.60512078273E+02  0.00000000000E+00 0.  1.
         25    2    1    2    0    0 -0.13221113222E+02  0.13067706614E+03  0.43213828769E+03  0.46865835664E+03  0.12508342059E+03 0.  0.
          5    1    3    3  502    0  0.10273618992E+02  0.27427892694E+02  0.68527401609E+01  0.30368881978E+02  0.41800000000E+01 0.  1.
         -5    1    3    3    0  502 -0.23494732214E+02  0.10324917344E+03  0.42528554753E+03  0.43828947466E+03  0.41800000000E+01 0.  1.
        -11    1    1    2    0    0  0.33427089040E+02 -0.82609574373E+02  0.24152966725E+02  0.92331348205E+02  0.00000000000E+00 0.  1.
         11    1    1    2    0    0 -0.20205975818E+02 -0.48067491765E+02  0.75103536865E+02  0.91429242986E+02  0.00000000000E+00 0. -1.
</event>
<event>
 6    1  0.2644565E-009  0.1357530E+03  0.7561462E-02  0.1219161E+00
         -1   -1    0    0    0  501 -0.00000000000E+00  0.00000000000E+00  0.34246631918E+02  0.34246631918E+02  0.00000000000E+00 0.  1.
          1   -1    0    0  501    0  0.00000000000E+00 -0.00000000000E+00 -0.76900863105E+03  0.76900863105E+03  0.00000000000E+00 0. -1.
          5    1    1    2  502    0  0.22137764407E+02 -0.11348027650E+02 -0.96728750674E-02  0.25225598864E+02  0.41800000000E+01 0. -1.
         -5    1    1    2    0  502  0.79409853070E+02 -0.53128397631E+02 -0.38959552163E+03  0.40116168096E+03  0.41800000000E+01 0. -1.
        -11    1    1    2    0    0  0.57756951968E+00 -0.18838152830E+02 -0.32542426398E+02  0.37606104617E+02  0.00000000000E+00 0. -1.
         11    1    1    2    0    0 -0.10212518700E+03  0.83314578110E+02 -0.31261437823E+03  0.33926187852E+03  0.00000000000E+00 0.  1.
</event>
<event>
 7    1  0.2644565E-009  0.9914648E+02  0.7561462E-02  0.1282101E+00
         -1   -1    0    0    0  501 -0.00000000000E+00  0.00000000000E+00  0.33967951852E+03  0.33967951852E+03  0.00000000000E+00 0.  1.
          1   -1    0    0  501    0  0.00000000000E+00 -0.00000000000E+00 -0.34771090922E+02  0.34771090922E+02  0.00000000000E+00 0. -1.
         25    2    1    2    0    0 -0.32860244619E+02 -0.20293214781E+02  0.15808848629E+03  0.20526469930E+03  0.12510002814E+03 0.  0.
          5    1    3    3  502    0 -0.49834416701E+02  0.42430568260E+02  0.85375312852E+02  0.10765797070E+03  0.41800000000E+01 0.  1.
         -5    1    3    3    0  502  0.16974172083E+02 -0.62723783041E+02  0.72713173434E+02  0.97606728599E+02  0.41800000000E+01 0.  1.
        -11    1    1    2    0    0  0.86856239803E+01 -0.19322677269E+02  0.10368179157E+03  0.10582400401E+03  0.00000000000E+00 0.  1.
         11    1    1    2    0    0  0.24174620639E+02  0.39615892050E+02  0.43138149741E+02  0.63361906134E+02  0.00000000000E+00 0. -1.
</event>
<event>
 7    1  0.2644565E-009  0.1049284E+03  0.7561462E-02  0.1270261E+00
         -3   -1    0    0    0  501 -0.00000000000E+00  0.00000000000E+00  0.73943350078E+02  0.73943350078E+02  0.00000000000E+00 0.  1.
          3   -1    0    0  501    0  0.00000000000E+00 -0.00000000000E+00 -0.22146494900E+03  0.22146494900E+03  0.00000000000E+00 0. -1.
         25    2    1    2    0    0 -0.23714381424E+02  0.37688377419E+02 -0.14923650918E+02  0.13361543457E+03  0.12509030066E+03 0.  0.
          5    1    3    3  502    0  0.39048570052E+02 -0.89232274793E+01  0.23263426202E+02  0.46508861633E+02  0.41800000000E+01 0. -1.
         -5    1    3    3    0  502 -0.62762951476E+02  0.46611604898E+02 -0.38187077120E+02  0.87106572933E+02  0.41800000000E+01 0. -1.
        -11    1    1    2    0    0 -0.21469335867E+02 -0.40694559703E+02 -0.52739215489E+02  0.69988602089E+02  0.00000000000E+00 0. -1.
         11    1    1    2    0    0  0.45183717291E+02  0.30061822842E+01 -0.79858732519E+02  0.91804262427E+02  0.00000000000E+00 0.  1.
</event>
<event>
 7    1  0.2644565E-009  0.1160620E+03  0.7561462E-02  0.1249739E+00
          1   -1    0    0  501    0  0.00000000000E+00  0.00000000000E+00  0.56324011306E+03  0.56324011306E+03  0.00000000000E+00 0. -1.
         -1   -1    0    0    0  501 -0.00000000000E+00 -0.00000000000E+00 -0.54707826510E+02  0.54707826510E+02  0.00000000000E+00 0.  1.
         25    2    1    2    0    0 -0.94902425879E+01  0.10882113527E+03  0.41438133875E+03  0.44642017979E+03  0.12508788446E+03 0.  0.
          5    1    3    3  502    0  0.11574316153E+02  0.66226276899E+02  0.64363086374E+02  0.93166323497E+02  0.41800000000E+01 0. -1.
         -5    1    3    3    0  502 -0.21064558740E+02  0.42594858371E+02  0.35001825237E+03  0.35325385630E+03  0.41800000000E+01 0. -1.
        -11    1    1    2    0    0 -0.16361443878E+02 -0.30903387201E+02  0.81211921135E+02  0.88419976932E+02  0.00000000000E+00 0. -1.
         11    1    1    2    0    0  0.25851686465E+02 -0.77917748069E+02  0.12939026662E+02  0.83107782838E+02  0.00000000000E+00 0.  1.
</event>
<event>
 7    1  0.2644565E-009  0.2328365E+03  0.7561462E-02  0.1124659E+00
          2   -1    0    0  501    0  0.00000000000E+00  0.00000000000E+00  0.18905619931E+04  0.18905619931E+04  0.00000000000E+00 0.  1.
         -2   -1    0    0    0  501 -0.00000000000E+00 -0.00000000000E+00 -0.38170435500E+02  0.38170435500E+02  0.00000000000E+00 0. -1.
         25    2    1    2    0    0 -0.72630588276E+02 -0.20873297684E+03  0.13244580603E+04  0.13485851354E+04  0.12509219000E+03 0.  0.
          5    1    3    3  502    0 -0.70507548811E-01  0.11031817409E+02  0.21060067890E+03  0.21093085198E+03  0.41800000000E+01 0. -1.
         -5    1    3    3    0  502 -0.72560080727E+02 -0.21976479425E+03  0.11138573814E+04  0.11376542834E+04  0.41800000000E+01 0. -1.
        -11    1    1    2    0    0  0.54277571978E+02  0.11872006547E+03  0.19416252794E+03  0.23396494614E+03  0.00000000000E+00 0.  1.
         11    1    1    2    0    0  0.18353016298E+02  0.90012911367E+02  0.33377096942E+03  0.34618234711E+03  0.00000000000E+00 0. -1.
</event>
<event>
 7    1  0.2644565E-009  0.9164538E+02  0.7561462E-02  0.1298915E+00
         -1   -1    0    0    0  501 -0.00000000000E+00  0.00000000000E+00  0.35232948099E+02  0.35232948099E+02  0.00000000000E+00 0.  1.
          1   -1    0    0  501    0  0.00000000000E+00 -0.00000000000E+00 -0.42509336370E+03  0.42509336370E+03  0.00000000000E+00 0. -1.
         25    2    1    2    0    0  0.16602886287E+02  0.34685325208E+02 -0.29572112478E+03  0.32338256365E+03  0.12508625509E+03 0.  0.
          5    1    3    3  502    0 -0.39722334724E+02  0.22317382736E+02 -0.23548191767E+03  0.23988567151E+03  0.41800000000E+01 0. -1.
         -5    1    3    3    0  502  0.56325221011E+02  0.12367942473E+02 -0.60239207112E+02  0.83496892136E+02  0.41800000000E+01 0. -1.
        -11    1    1    2    0    0 -0.17990968164E+02  0.18912508600E+02  0.27108614248E+01  0.26243221728E+02  0.00000000000E+00 0.  1.
         11    1    1    2    0    0  0.13880818765E+01 -0.53597833808E+02 -0.96850152247E+02  0.11070052642E+03  0.00000000000E+00 0. -1.
</event>
<event>
 7    1  0.2644565E-009  0.1097458E+03  0.7561462E-02  0.1261041E+00
         -1   -1    0    0    0  501 -0.00000000000E+00  0.00000000000E+00  0.21372595370E+02  0.21372595370E+02  0.00000000000E+00 0.  1.
          1   -1    0    0  501    0  0.00000000000E+00 -0.00000000000E+00 -0.77939897378E+03  0.77939897378E+03  0.00000000000E+00 0. -1.
         25    2    1    2    0    0  0.19873959672E+01 -0.53579188576E+02 -0.28143852937E+03  0.31261688653E+03  0.12508794002E+03 0.  0.
          5    1    3    3  502    0 -0.49825191779E+02 -0.18838569602E+02 -0.21436182002E+03  0.22092058239E+03  0.41800000000E+01 0. -1.
         -5    1    3    3    0  502  0.51812587746E+02 -0.34740618974E+02 -0.67076709346E+02  0.91696304137E+02  0.41800000000E+01 0. -1.
        -11    1    1    2    0    0  0.21426907705E+02  0.71123343039E+02 -0.38162093319E+03  0.38878294580E+03  0.00000000000E+00 0. -1.
         11    1    1    2    0    0 -0.23414303672E+02 -0.17544154463E+02 -0.94966915854E+02  0.99371736823E+02  0.00000000000E+00 0.  1.
</event>
<event>
 6    1  0.2644565E-009  0.2375734E+03  0.7561462E-02  0.1121420E+00
         -1   -1    0    0    0  501 -0.00000000000E+00  0.00000000000E+00  0.70662815685E+02  0.70662815685E+02  0.00000000000E+00 0.  1.
          1   -1    0    0  501    0  0.00000000000E+00 -0.00000000000E+00 -0.94292895607E+03  0.94292895607E+03  0.00000000000E+00 0. -1.
          5    1    1    2  502    0 -0.11342250863E+02  0.57650188818E+02 -0.71435762467E+02  0.92589046245E+02  0.41800000000E+01 0. -1.
         -5    1    1    2    0  502  0.13357012361E+03  0.13001789901E+03 -0.50693982180E+03  0.54013987754E+03  0.41800000000E+01 0. -1.
        -11    1    1    2    0    0 -0.93143291828E+02 -0.17463754559E+03 -0.28637963303E+03  0.34811957624E+03  0.00000000000E+00 0.  1.
         11    1    1    2    0    0 -0.29084580922E+02 -0.13030542237E+02 -0.75109230946E+01  0.32743271739E+02  0.00000000000E+00 0. -1.
</event>
<event>
 7    1  0.2644565E-009  0.1383083E+03  0.7561462E-02  0.1215624E+00
         -1   -1    0    0    0  501 -0.00000000000E+00  0.00000000000E+00  0.27566329879E+02  0.27566329879E+02  0.00000000000E+00 0.  1.
          1   -1    0    0  501    0  0.00000000000E+00 -0.00000000000E+00 -0.15707739666E+04  0.15707739666E+04  0.00000000000E+00 0. -1.
         25    2    1    2    0    0  0.10817812273E+03 -0.23036868367E+02 -0.13120863136E+04  0.13226679362E+04  0.12508705623E+03 0.  0.
          5    1    3    3  502    0  0.23780037952E+02  0.29886862939E+02 -0.80247748441E+03  0.80339672651E+03  0.41800000000E+01 0. -1.
         -5    1    3    3    0  502  0.84398084774E+02 -0.52923731307E+02 -0.50960882918E+03  0.51927120970E+03  0.41800000000E+01 0. -1.
        -11    1    1    2    0    0 -0.10580765013E+03 -0.91611277554E+01 -0.12139314051E+03  0.16129314819E+03  0.00000000000E+00 0.  1.
         11    1    1    2    0    0 -0.23704725920E+01  0.32197996123E+02 -0.10972818259E+03  0.11437921205E+03  0.00000000000E+00 0. -1.
</event>
<event>
 7    1  0.2644565E-009  0.1245142E+03  0.7561462E-02  0.1235830E+00
          2   -1    0    0  501    0  0.00000000000E+00  0.00000000000E+00  0.52897668977E+03  0.52897668977E+03  0.00000000000E+00 0. -1.
         -2   -1    0    0    0  501 -0.00000000000E+00 -0.00000000000E+00 -0.36988602802E+02  0.36988602802E+02  0.00000000000E+00 0.  1.
         25    2    1    2    0    0  0.45257207046E+02  0.58930772903E+02  0.17069232045E+03  0.22428720428E+03  0.12509129049E+03 0.  0.
          5    1    3    3  502    0  0.88034583734E+02  0.47934180855E+02  0.10712257993E+03  0.14676679856E+03  0.41800000000E+01 0. -1.
         -5    1    3    3    0  502 -0.42777376688E+02  0.10996592048E+02  0.63569740526E+02  0.77520405723E+02  0.41800000000E+01 0. -1.
        -11    1    1    2    0    0  0.10637748283E+02 -0.45667592062E+02  0.72543244453E+02  0.86378313071E+02  0.00000000000E+00 0.  1.
         11    1    1    2    0    0 -0.55894955329E+02 -0.13263180842E+02  0.24875252206E+03  0.25529977522E+03  0.00000000000E+00 0. -1.
</event>
<event>
 7    1  0.2644565E-009  0.2725252E+03  0.7561462E-02  0.1099843E+00
          1   -1    0    0  501    0  0.00000000000E+00  0.00000000000E+00  0.32903531822E+03  0.32903531822E+03  0.00000000000E+00 0. -1.
         -1   -1    0    0    0  501 -0.00000000000E+00 -0.00000000000E+00 -0.26540460838E+03  0.26540460838E+03  0.00000000000E+00 0.  1.
         25    2    1    2    0    0 -0.69058062804E+02  0.24274070531E+03  0.14045729383E+03  0.31475003904E+03  0.12508904681E+03 0.  0.
          5    1    3    3  502    0 -0.66960274494E+02  0.43686024664E+02  0.21839419331E+02  0.82985418888E+02  0.41800000000E+01 0. -1.
         -5    1    3    3    0  502 -0.20977883095E+01  0.19905468064E+03  0.11861787450E+03  0.23176462015E+03  0.41800000000E+01 0. -1.
        -11    1    1    2    0    0  0.33072740215E+02 -0.22178703300E+03 -0.48778632769E+02  0.22948343985E+03  0.00000000000E+00 0.  1.
         11    1    1    2    0    0  0.35985322589E+02 -0.20953672311E+02 -0.28047951218E+02  0.50206447720E+02  0.00000000000E+00 0. -1.
</event>
<event>
 7    1  0.2644565E-009  0.1496572E+03  0.7561462E-02  0.1200895E+00
         -1   -1    0    0    0  501 -0.00000000000E+00  0.00000000000E+00  0.31782765139E+03  0.31782765139E+03  0.00000000000E+00 0.  1.
          1   -1    0    0  501    0  0.00000000000E+00 -0.00000000000E+00 -0.74869517498E+02  0.74869517498E+02  0.00000000000E+00 0. -1.
         25    2    1    2    0    0 -0.13646889069E+02  0.10592296172E+03  0.10080184885E+03  0.19291741480E+03  0.12510077858E+03 0.  0.
          5    1    3    3  502    0 -0.56682456501E+02  0.10703285976E+03  0.72230499732E+02  0.14108030137E+03  0.41800000000E+01 0.  1.
         -5    1    3    3    0  502  0.43035567432E+02 -0.11098980458E+01  0.28571349115E+02  0.51837113424E+02  0.41800000000E+01 0.  1.
        -11    1    1    2    0    0  0.47149617725E+02 -0.44109452438E+02  0.95935141342E+02  0.11563858176E+03  0.00000000000E+00 0.  1.
         11    1    1    2    0    0 -0.33502728656E+02 -0.61813509279E+02  0.46221143699E+02  0.84141172334E+02  0.00000000000E+00 0. -1.
</event>
<event>
 7    1  0.2644565E-009  0.1150493E+03  0.7561462E-02  0.1251495E+00
          2   -1    0    0  501    0  0.00000000000E+00  0.00000000000E+00  0.49502829714E+03  0.49502829714E+03  0.00000000000E+00 0. -1.
         -2   -1    0    0    0  501 -0.00000000000E+00 -0.00000000000E+00 -0.33196869366E+02  0.33196869366E+02  0.00000000000E+00 0.  1.
         25    2    1    2    0    0 -0.63780968747E+02 -0.10829558988E+02  0.20892442662E+03  0.25195643561E+03  0.12508932044E+03 0.  0.
          5    1    3    3  502    0 -0.27313853080E+02  0.51177992223E+02  0.14266853592E+03  0.15406822190E+03  0.41800000000E+01 0. -1.
         -5    1    3    3    0  502 -0.36467115667E+02 -0.62007551211E+02  0.66255890695E+02  0.97888213714E+02  0.41800000000E+01 0. -1.
        -11    1    1    2    0    0 -0.17866634106E+01  0.31176875520E+02  0.14536805485E+03  0.14868443464E+03  0.00000000000E+00 0. -1.
         11    1    1    2    0    0  0.65567632158E+02 -0.20347316532E+02  0.10753894631E+03  0.12758429625E+03  0.00000000000E+00 0.  1.
</event>
<event>
 7    1  0.3042086E-009  0.1735079E+03  0.7561462E-02  0.1174238E+00
          4   -1    0    0  501    0  0.00000000000E+00  0.00000000000E+00  0.19410051689E+03  0.19410051689E+03  0.00000000000E+00 0. -1.
         -4   -1    0    0    0  501 -0.00000000000E+00 -0.00000000000E+00 -0.20204219305E+03  0.20204219305E+03  0.00000000000E+00 0.  1.
         25    2    1    2    0    0 -0.10572067593E+02 -0.14933734442E+03  0.65811288711E+02  0.20589359667E+03  0.12509051273E+03 0.  0.
          5    1    3    3  502    0  0.16794425175E+02 -0.16032850624E+03  0.39210257755E+02  0.16595842655E+03  0.41800000000E+01 0.  1.
         -5    1    3    3    0  502 -0.27366492768E+02  0.10991161818E+02  0.26601030956E+02  0.39935170120E+02  0.41800000000E+01 0.  1.
        -11    1    1    2    0    0  0.22507536043E+02  0.39312359570E+02  0.15704468256E+02  0.47944562955E+02  0.00000000000E+00 0.  1.
         11    1    1    2    0    0 -0.11935468450E+02  0.11002498485E+03 -0.89457433130E+02  0.14230455032E+03  0.00000000000E+00 0. -1.
</event>
<event>
 7    1  0.2644565E-009  0.6431212E+02  0.7561462E-02  0.1380578E+00
          2   -1    0    0  501    0  0.00000000000E+00  0.00000000000E+00  0.45693242430E+03  0.45693242430E+03  0.00000000000E+00 0.  1.
         -2   -1    0    0    0  501 -0.00000000000E+00 -0.00000000000E+00 -0.27942631297E+02  0.27942631297E+02  0.00000000000E+00 0. -1.
         25    2    1    2    0    0  0.10364130107E+02  0.30037846924E+02  0.25597507562E+03  0.28667624348E+03  0.12510132614E+03 0.  0.
          5    1    3    3  502    0 -0.27109483882E+02 -0.25845194426E+00  0.23027492298E+03  0.23190300443E+03  0.41800000000E+01 0. -1.
         -5    1    3    3    0  502  0.37473613989E+02  0.30296298868E+02  0.25700152640E+02  0.54773239051E+02  0.41800000000E+01 0. -1.
        -11    1    1    2    0    0 -0.18720046627E+02  0.28099135090E+01 -0.28098472677E+01  0.19137162834E+02  0.00000000000E+00 0. -1.
         11    1    1    2    0    0  0.83559165202E+01 -0.32847760433E+02  0.17582456466E+03  0.17906164928E+03  0.00000000000E+00 0.  1.
</event>
<event>
 7    1  0.2644565E-009  0.4629556E+02  0.7561462E-02  0.1466412E+00
         -1   -1    0    0    0  501 -0.00000000000E+00  0.00000000000E+00  0.24487107376E+03  0.24487107376E+03  0.00000000000E+00 0.  1.
          1   -1    0    0  501    0  0.00000000000E+00 -0.00000000000E+00 -0.10205809103E+03  0.10205809103E+03  0.00000000000E+00 0. -1.
         25    2    1    2    0    0  0.12291654172E+01 -0.65258210282E+00  0.20271187266E+03  0.23820585453E+03  0.12509192263E+03 0.  0.
          5    1    3    3  502    0 -0.13524868634E+02 -0.11559817699E+02  0.21497120844E+03  0.21574671334E+03  0.41800000000E+01 0. -1.
         -5    1    3    3    0  502  0.14754034051E+02  0.10907235596E+02 -0.12259335787E+02  0.22459141192E+02  0.41800000000E+01 0. -1.
        -11    1    1    2    0    0 -0.27940030477E+02 -0.44807139377E+01  0.12833620505E+02  0.31071271550E+02  0.00000000000E+00 0.  1.
         11    1    1    2    0    0  0.26710865060E+02  0.51332960405E+01 -0.72732510439E+02  0.77652038706E+02  0.00000000000E+00 0. -1.
</event>
<event>
 7    1  0.2644565E-009  0.7991942E+02  0.7561462E-02  0.1329280E+00
          2   -1    0    0  501    0  0.00000000000E+00  0.00000000000E+00  0.77387424431E+03  0.77387424431E+03  0.00000000000E+00 0. -1.
         -2   -1    0    0    0  501 -0.00000000000E+00 -0.00000000000E+00 -0.14279364410E+02  0.14279364410E+02  0.00000000000E+00 0.  1.
         25    2    1    2    0    0  0.22703458447E+02  0.10448101330E+02  0.48200247191E+03  0.49859690843E+03  0.12509150380E+03 0.  0.
          5    1    3    3  502    0  0.44959657690E+02 -0.17322340328E+02  0.44300282917E+03  0.44563484306E+03  0.41800000000E+01 0. -1.
         -5    1    3    3    0  502 -0.22256199243E+02  0.27770441658E+02  0.38999642737E+02  0.52962065370E+02  0.41800000000E+01 0. -1.
        -11    1    1    2    0    0 -0.15878767963E+01 -0.39608770742E+02  0.87161427902E+02  0.95752235411E+02  0.00000000000E+00 0.  1.
         11    1    1    2    0    0 -0.21115581651E+02  0.29160669412E+02  0.19043098009E+03  0.19380446488E+03  0.00000000000E+00 0. -1.
</event>
<event>
 7    1  0.2644565E-009  0.9762551E+02  0.7561462E-02  0.1285370E+00
         -3   -1    0    0    0  501 -0.00000000000E+00  0.00000000000E+00  0.41356098245E+02  0.41356098245E+02  0.00000000000E+00 0.  1.
          3   -1    0    0  501    0  0.00000000000E+00 -0.00000000000E+00 -0.46536992416E+03  0.46536992416E+03  0.00000000000E+00 0. -1.
         25    2    1    2    0    0 -0.22268810194E+02  0.11821381332E+00 -0.38730437090E+03  0.40761377331E+03  0.12509355936E+03 0.  0.
          5    1    3    3  502    0  0.43831843213E+02  0.22428447085E+02 -0.95146897814E+02  0.10721320013E+03  0.41800000000E+01 0. -1.
         -5    1    3    3    0  502 -0.66100653407E+02 -0.22310233271E+02 -0.29215747309E+03  0.30040057319E+03  0.41800000000E+01 0. -1.
        -11    1    1    2    0    0 -0.23590805472E+02 -0.14735704786E+02 -0.42331662428E+02  0.50652114885E+02  0.00000000000E+00 0. -1.
         11    1    1    2    0    0  0.45859615666E+02  0.14617490972E+02  0.56222074123E+01  0.48460134209E+02  0.00000000000E+00 0.  1.
</event>
<event>
 7    1  0.2677345E-009  0.9534451E+02  0.7561462E-02  0.1290402E+00
         -2   -1    0    0    0  501 -0.00000000000E+00  0.00000000000E+00  0.52529459437E+02  0.52529459437E+02  0.00000000000E+00 0.  1.
          2   -1    0    0  501    0  0.00000000000E+00 -0.00000000000E+00 -0.39618309505E+03  0.39618309505E+03  0.00000000000E+00 0. -1.
         25    2    1    2    0    0 -0.79350477161E+02  0.34495922366E+02 -0.12647935764E+03  0.19781614297E+03  0.12509089345E+03 0.  0.
          5    1    3    3  502    0 -0.40721374972E+02 -0.41609019180E+01  0.16775288331E+02  0.44434515671E+02  0.41800000000E+01 0. -1.
         -5    1    3    3    0  502 -0.38629102189E+02  0.38656824284E+02 -0.14325464598E+03  0.15338162730E+03  0.41800000000E+01 0. -1.
        -11    1    1    2    0    0  0.56526951196E+02 -0.40348899777E+01 -0.39224163335E+02  0.68921052937E+02  0.00000000000E+00 0.  1.
         11    1    1    2    0    0  0.22823525965E+02 -0.30461032388E+02 -0.17795011464E+03  0.18197535858E+03  0.00000000000E+00 0. -1.
</event>
<event>
 7    1  0.2644565E-009  0.1117067E+03  0.7561462E-02  0.1257442E+00
         -1   -1    0    0    0  501 -0.00000000000E+00  0.00000000000E+00  0.37478301462E+02  0.37478301462E+02  0.00000000000E+00 0.  1.
          1   -1    0    0  501    0  0.00000000000E+00 -0.00000000000E+00 -0.38070841809E+03  0.38070841809E+03  0.00000000000E+00 0. -1.
         25    2    1    2    0    0  0.44970975718E+02  0.22130909768E+01 -0.16061064031E+03  0.20849357237E+03  0.12508599246E+03 0.  0.
          5    1    3    3  502    0  0.65010158559E+02 -0.42285874561E+02 -0.12776566174E+03  0.14951907110E+03  0.41800000000E+01 0.  1.
         -5    1    3    3    0  502 -0.20039182841E+02  0.44498965537E+02 -0.32844978571E+02  0.58974501271E+02  0.41800000000E+01 0.  1.
        -11    1    1    2    0    0 -0.64487098419E+02 -0.22800263152E+02 -0.91367143186E+02  0.11413322354E+03  0.00000000000E+00 0. -1.
         11    1    1    2    0    0  0.19516122701E+02  0.20587172175E+02 -0.91252333129E+02  0.95559923634E+02  0.00000000000E+00 0.  1.
</event>
<event>
 7    1  0.2644565E-009  0.9559821E+02  0.7561462E-02  0.1289834E+00
         -2   -1    0    0    0  501 -0.00000000000E+00  0.00000000000E+00  0.20736936206E+03  0.20736936206E+03  0.00000000000E+00 0.  1.
          2   -1    0    0  501    0  0.00000000000E+00 -0.00000000000E+00 -0.65420364576E+02  0.65420364576E+02  0.00000000000E+00 0. -1.
         25    2    1    2    0    0 -0.29036088377E+02 -0.33623133543E+02  0.89766553565E+02  0.16024588669E+03  0.12508837086E+03 0.  0.
          5    1    3    3  502    0  0.36367021478E+01  0.31106309917E+02 -0.13199631471E+02  0.34242236932E+02  0.41800000000E+01 0.  1.
         -5    1    3    3    0  502 -0.32672790524E+02 -0.64729443460E+02  0.10296618504E+03  0.12600364976E+03  0.41800000000E+01 0.  1.
        -11    1    1    2    0    0  0.23559226705E+02 -0.21309680383E+02 -0.60114568662E+01  0.32330747821E+02  0.00000000000E+00 0. -1.
         11    1    1    2    0    0  0.54768616713E+01  0.54932813927E+02  0.58193900786E+02  0.80213092125E+02  0.00000000000E+00 0.  1.
</event>
<event>
 7    1  0.2644565E-009  0.1038701E+03  0.7561462E-02  0.1272362E+00
          2   -1    0    0  501    0  0.00000000000E+00  0.00000000000E+00  0.99475208158E+02  0.99475208158E+02  0.00000000000E+00 0.  1.
         -2   -1    0    0    0  501 -0.00000000000E+00 -0.00000000000E+00 -0.16785316951E+03  0.16785316951E+03  0.00000000000E+00 0. -1.
         25    2    1    2    0    0 -0.65717370475E+02  0.12504828349E+02 -0.57315491345E+02  0.15299705120E+03  0.12509152095E+03 0.  0.
          5    1    3    3  502    0 -0.25876597991E+02  0.45327868699E+02 -0.80679683038E+02  0.96181586904E+02  0.41800000000E+01 0.  1.
         -5    1    3    3    0  502 -0.39840772485E+02 -0.32823040350E+02  0.23364191693E+02  0.56815464299E+02  0.41800000000E+01 0.  1.
        -11    1    1    2    0    0  0.22365927588E+02 -0.44436575327E+02  0.18295484665E+02  0.53005364850E+02  0.00000000000E+00 0.  1.
         11    1    1    2    0    0  0.43351442887E+02  0.31931746979E+02 -0.29357954673E+02  0.61325961616E+02  0.00000000000E+00 0. -1.
</event>
<event>
 7    1  0.2644565E-009  0.9072899E+02  0.7561462E-02  0.1301096E+00
          2   -1    0    0  501    0  0.00000000000E+00  0.00000000000E+00  0.72920355825E+02  0.72920355825E+02  0.00000000000E+00 0. -1.
         -2   -1    0    0    0  501 -0.00000000000E+00 -0.00000000000E+00 -0.16366982231E+03  0.16366982231E+03  0.00000000000E+00 0.  1.
         25    2    1    2    0    0 -0.31074979302E+01  0.16802908403E+02 -0.64687210042E+02  0.14185685324E+03  0.12508771880E+03 0.  0.
          5    1    3    3  502    0 -0.54095577677E+02 -0.24599076431E+02 -0.22484683172E+02  0.63674794565E+02  0.41800000000E+01 0.  1.
         -5    1    3    3    0  502  0.50988079747E+02  0.41401984834E+02 -0.42202526871E+02  0.78182058676E+02  0.41800000000E+01 0.  1.
        -11    1    1    2    0    0  0.27277864661E+02 -0.16538974213E+02  0.23479393591E+02  0.39609361165E+02  0.00000000000E+00 0. -1.
         11    1    1    2    0    0 -0.24170366731E+02 -0.26393419027E+00 -0.49541650029E+02  0.55123963725E+02  0.00000000000E+00 0.  1.
</event>
<event>
 7    1  0.3268304E-009  0.1707202E+03  0.7561462E-02  0.1177099E+00
         -3   -1    0    0    0  501 -0.00000000000E+00  0.00000000000E+00  0.29281627456E+03  0.29281627456E+03  0.00000000000E+00 0.  1.
          3   -1    0    0  501    0  0.00000000000E+00 -0.00000000000E+00 -0.11393741733E+03  0.11393741733E+03  0.00000000000E+00 0. -1.
         25    2    1    2    0    0  0.12636055241E+03 -0.68068455723E+02  0.12765737728E+03  0.22922353884E+03  0.12508685349E+03 0.  0.
          5    1    3    3  502    0  0.54374222090E+00 -0.53032470331E+02  0.74976325131E+02  0.91932911925E+02  0.41800000000E+01 0.  1.
         -5    1    3    3    0  502  0.12581681019E+03 -0.15035985392E+02  0.52681052146E+02  0.13729062692E+03  0.41800000000E+01 0.  1.
        -11    1    1    2    0    0 -0.71206047464E+02 -0.32765037104E+01  0.50485522263E+02  0.87348867366E+02  0.00000000000E+00 0.  1.
         11    1    1    2    0    0 -0.55154504950E+02  0.71344959433E+02  0.73595768652E+00  0.90181285678E+02  0.00000000000E+00 0. -1.
</event>
<event>
 7    1  0.2644565E-009  0.7762285E+02  0.7561462E-02  0.1335936E+00
         -2   -1    0    0    0  501 -0.00000000000E+00  0.00000000000E+00  0.19401556414E+02  0.19401556414E+02  0.00000000000E+00 0. -1.
          2   -1    0    0  501    0  0.00000000000E+00 -0.00000000000E+00 -0.61147504738E+03  0.61147504738E+03  0.00000000000E+00 0.  1.
         25    2    1    2    0    0  0.92681660585E+01  0.27003473047E+01 -0.32446097476E+03  0.34787719527E+03  0.12510167094E+03 0.  0.
          5    1    3    3  502    0 -0.10851469193E+02  0.28169910108E+02 -0.10527815188E+02  0.32242914133E+02  0.41800000000E+01 0.  1.
         -5    1    3    3    0  502  0.20119635252E+02 -0.25469562803E+02 -0.31393315957E+03  0.31563428114E+03  0.41800000000E+01 0.  1.
        -11    1    1    2    0    0 -0.43607067132E+02  0.22860881511E+02 -0.14352615225E+03  0.15173645768E+03  0.00000000000E+00 0. -1.
         11    1    1    2    0    0  0.34338901074E+02 -0.25561228816E+02 -0.12408636396E+03  0.13126295085E+03  0.00000000000E+00 0.  1.
</event>
<event>
 7    1  0.2644565E-009  0.1081954E+03  0.7561462E-02  0.1263949E+00
         -2   -1    0    0    0  501 -0.00000000000E+00  0.00000000000E+00  0.35613143002E+03  0.35613143002E+03  0.00000000000E+00 0.  1.
          2   -1    0    0  501    0  0.00000000000E+00 -0.00000000000E+00 -0.41889035732E+02  0.41889035732E+02  0.00000000000E+00 0. -1.
         25    2    1    2    0    0 -0.32998311806E+02  0.36818647902E+02  0.13220988457E+03  0.18860447966E+03  0.12509074608E+03 0.  0.
          5    1    3    3  502    0  0.34149191780E+02 -0.61654563642E+01  0.94204314836E+00  0.34964839435E+02  0.41800000000E+01 0.  1.
         -5    1    3    3    0  502 -0.67147503586E+02  0.42984104267E+02  0.13126784143E+03  0.15363964023E+03  0.41800000000E+01 0.  1.
        -11    1    1    2    0    0  0.21524603437E+01  0.28912839951E+02  0.71646647875E+02  0.77290539856E+02  0.00000000000E+00 0.  1.
         11    1    1    2    0    0  0.30845851462E+02 -0.65731487853E+02  0.11038586184E+03  0.13212544623E+03  0.00000000000E+00 0. -1.
</event>
<event>
 7    1  0.2644565E-009  0.1208448E+03  0.7561462E-02  0.1241710E+00
          1   -1    0    0  501    0  0.00000000000E+00  0.00000000000E+00  0.13143552991E+03  0.13143552991E+03  0.00000000000E+00 0. -1.
         -1   -1    0    0    0  501 -0.00000000000E+00 -0.00000000000E+00 -0.13243855585E+03  0.13243855585E+03  0.00000000000E+00 0.  1.
         25    2    1    2    0    0  0.67155273758E+02 -0.22585951175E+02  0.33061268500E+02  0.14751484992E+03  0.12509047721E+03 0.  0.
          5    1    3    3  502    0  0.54514351402E+02  0.39346619775E+02  0.47648455024E+02  0.82509506499E+02  0.41800000000E+01 0.  1.
         -5    1    3    3    0  502  0.12640922355E+02 -0.61932570949E+02 -0.14587186524E+02  0.65005343419E+02  0.41800000000E+01 0.  1.
        -11    1    1    2    0    0 -0.28596222963E+02 -0.32787160719E+02 -0.17399657723E+02  0.46856055795E+02  0.00000000000E+00 0.  1.
         11    1    1    2    0    0 -0.38559050795E+02  0.55373111894E+02 -0.16664636720E+02  0.69503180042E+02  0.00000000000E+00 0. -1.
</event>
<event>
 7    1  0.2644565E-009  0.1830589E+03  0.7561462E-02  0.1164875E+00
          2   -1    0    0  501    0  0.00000000000E+00  0.00000000000E+00  0.13169217110E+03  0.13169217110E+03  0.00000000000E+00 0.  1.
         -2   -1    0    0    0  501 -0.00000000000E+00 -0.00000000000E+00 -0.31226283057E+03  0.31226283057E+03  0.00000000000E+00 0. -1.
         25    2    1    2    0    0 -0.97748025797E+02 -0.13911403846E+03 -0.76141421739E+02  0.22439360824E+03  0.12509029967E+03 0.  0.
          5    1    3    3  502    0 -0.43195115725E+01  0.59954526900E+01  0.23555100094E+02  0.25038346064E+02  0.41800000000E+01 0.  1.
         -5    1    3    3    0  502 -0.93428514225E+02 -0.14510949115E+03 -0.99696521833E+02  0.19935526218E+03  0.41800000000E+01 0.  1.
        -11    1    1    2    0    0  0.10978156617E+03  0.12275343238E+03 -0.11055259996E+03  0.19834887141E+03  0.00000000000E+00 0. -1.
         11    1    1    2    0    0 -0.12033540368E+02  0.16360606086E+02  0.61233622375E+01  0.21212522018E+02  0.00000000000E+00 0.  1.
</event>
<event>
 7    1  0.2644565E-009  0.8291987E+02  0.7561462E-02  0.1320964E+00
         -2   -1    0    0    0  501 -0.00000000000E+00  0.00000000000E+00  0.80623693135E+02  0.80623693135E+02  0.00000000000E+00 0.  1.
          2   -1    0    0  501    0  0.00000000000E+00 -0.00000000000E+00 -0.18228448448E+03  0.18228448448E+03  0.00000000000E+00 0. -1.
         25    2    1    2    0    0 -0.21615513971E+01  0.33144531034E+02 -0.10225276912E+03  0.16494291206E+03  0.12508918101E+03 0.  0.
          5    1    3    3  502    0  0.43165869257E+02  0.41289360397E+02 -0.85979203104E+01  0.60493802859E+02  0.41800000000E+01 0. -1.
         -5    1    3    3    0  502 -0.45327420654E+02 -0.81448293636E+01 -0.93654848806E+02  0.10444910920E+03  0.41800000000E+01 0. -1.
        -11    1    1    2    0    0  0.85936183528E+01 -0.45223419291E+02  0.37007028192E+02  0.59063762701E+02  0.00000000000E+00 0.  1.
         11    1    1    2    0    0 -0.64320669557E+01  0.12078888258E+02 -0.36415050422E+02  0.38901502851E+02  0.00000000000E+00 0. -1.
</event>
<event>
 7    1  0.2644565E-009  0.1372840E+03  0.7561462E-02  0.1217031E+00
          2   -1    0    0  501    0  0.00000000000E+00  0.00000000000E+00  0.79672987523E+03  0.79672987523E+03  0.00000000000E+00 0. -1.
         -2   -1    0    0    0  501 -0.00000000000E+00 -0.00000000000E+00 -0.27261253177E+02  0.27261253177E+02  0.00000000000E+00 0.  1.
         25    2    1    2    0    0  0.15662498152E+02 -0.84203941077E+02  0.56605197095E+03  0.58600066538E+03  0.12508528482E+03 0.  0.
          5    1    3    3  502    0  0.28599208294E+01 -0.11628323373E+03  0.45316890653E+03  0.46787765477E+03  0.41800000000E+01 0. -1.
         -5    1    3    3    0  502  0.12802577323E+02  0.32079292652E+02  0.11288306442E+03  0.11812301061E+03  0.41800000000E+01 0. -1.
        -11    1    1    2    0    0  0.31036297141E+02  0.49993151943E+01  0.46787920543E+02  0.56368026410E+02  0.00000000000E+00 0. -1.
         11    1    1    2    0    0 -0.46698795293E+02  0.79204625882E+02  0.15662873056E+03  0.18162243661E+03  0.00000000000E+00 0.  1.
</event>
<event>
 7    1  0.2644565E-009  0.1227229E+03  0.7561462E-02  0.1238672E+00
         -1   -1    0    0    0  501 -0.00000000000E+00  0.00000000000E+00  0.38629758978E+02  0.38629758978E+02  0.00000000000E+00 0.  1.
          1   -1    0    0  501    0  0.00000000000E+00 -0.00000000000E+00 -0.50699508354E+03  0.50699508354E+03  0.00000000000E+00 0. -1.
         25    2    1    2    0    0  0.54328871271E+01  0.86360575271E+02 -0.31797920034E+03  0.35248003740E+03  0.12507493630E+03 0.  0.
          5    1    3    3  502    0 -0.22459675522E+02 -0.26092553220E+02 -0.95559432410E+02  0.10165793565E+03  0.41800000000E+01 0. -1.
         -5    1    3    3    0  502  0.27892562649E+02  0.11245312849E+03 -0.22241976793E+03  0.25082210175E+03  0.41800000000E+01 0. -1.
        -11    1    1    2    0    0  0.12907233108E+02 -0.10085639577E+02  0.65910931343E+01  0.17656706966E+02  0.00000000000E+00 0.  1.
         11    1    1    2    0    0 -0.18340120236E+02 -0.76274935694E+02 -0.15697721735E+03  0.17548809815E+03  0.00000000000E+00 0. -1.
</event>
<event>
 7    1  0.2644565E-009  0.1115880E+03  0.7561462E-02  0.1257657E+00
         -2   -1    0    0    0  501 -0.00000000000E+00  0.00000000000E+00  0.22421009097E+02  0.22421009097E+02  0.00000000000E+00 0.  1.
          2   -1    0    0  501    0  0.00000000000E+00 -0.00000000000E+00 -0.69073099896E+03  0.69073099896E+03  0.00000000000E+00 0. -1.
         25    2    1    2    0    0 -0.23805270142E+01  0.54189743083E+02 -0.29447566167E+03  0.32450719598E+03  0.12508720864E+03 0.  0.
          5    1    3    3  502    0 -0.37822755191E+02  0.72571908713E+02 -0.25640910106E+03  0.26918458769E+03  0.41800000000E+01 0.  1.
         -5    1    3    3    0  502  0.35442228177E+02 -0.18382165631E+02 -0.38066560607E+02  0.55322608289E+02  0.41800000000E+01 0.  1.
        -11    1    1    2    0    0 -0.35700864794E+02 -0.10546161842E+01 -0.19483642498E+03  0.19808305445E+03  0.00000000000E+00 0. -1.
         11    1    1    2    0    0  0.38081391809E+02 -0.53135126898E+02 -0.17899790321E+03  0.19056175762E+03  0.00000000000E+00 0.  1.
</event>
<event>
 7    1  0.2644565E-009  0.1369878E+03  0.7561462E-02  0.1217440E+00
          2   -1    0    0  501    0  0.00000000000E+00  0.00000000000E+00  0.87397647897E+03  0.87397647897E+03  0.00000000000E+00 0. -1.
         -2   -1    0    0    0  501 -0.00000000000E+00 -0.00000000000E+00 -0.25150889845E+02  0.25150889845E+02  0.00000000000E+00 0.  1.
         25    2    1    2    0    0  0.84953397799E+02  0.57862301471E+01  0.62495782918E+03  0.64301819733E+03  0.12509817581E+03 0.  0.
          5    1    3    3  502    0  0.27343345473E+02 -0.58454944263E+02  0.28663682561E+03  0.29384142194E+03  0.41800000000E+01 0.  1.
         -5    1    3    3    0  502  0.57610052325E+02  0.64241174410E+02  0.33832100357E+03  0.34917677540E+03  0.41800000000E+01 0.  1.
        -11    1    1    2    0    0 -0.87199283431E+02  0.26044793194E+02  0.14712533767E+03  0.17299685335E+03  0.00000000000E+00 0.  1.
         11    1    1    2    0    0  0.22458856327E+01 -0.31831023341E+02  0.76742422276E+02  0.83112318136E+02  0.00000000000E+00 0. -1.
</event>
<event>
 7    1  0.2644565E-009  0.9309262E+02  0.7561462E-02  0.1295531E+00
         -2   -1    0    0    0  501 -0.00000000000E+00  0.00000000000E+00  0.52647106212E+02  0.52647106212E+02  0.00000000000E+00 0.  1.
          2   -1    0    0  501    0  0.00000000000E+00 -0.00000000000E+00 -0.32127767632E+03  0.32127767632E+03  0.00000000000E+00 0. -1.
         25    2    1    2    0    0 -0.43654295612E+02 -0.10802696562E+02 -0.24771373597E+03  0.28112718941E+03  0.12509198960E+03 0.  0.
          5    1    3    3  502    0  0.22757714354E+02  0.28096740927E+02 -0.21802146818E+02  0.42428132403E+02  0.41800000000E+01 0.  1.
         -5    1    3    3    0  502 -0.66412009966E+02 -0.38899437489E+02 -0.22591158915E+03  0.23869905701E+03  0.41800000000E+01 0.  1.
        -11    1    1    2    0    0  0.47764507945E+02 -0.12235016535E+02  0.13552340845E+02  0.51135210875E+02  0.00000000000E+00 0.  1.
         11    1    1    2    0    0 -0.41102123332E+01  0.23037713096E+02 -0.34469174977E+02  0.41662382238E+02  0.00000000000E+00 0. -1.
</event>
<event>
 7    1  0.2644565E-009  0.3533762E+03  0.7561462E-02  0.1061238E+00
          1   -1    0    0  501    0  0.00000000000E+00  0.00000000000E+00  0.69163334256E+03  0.69163334256E+03  0.00000000000E+00 0. -1.
         -1   -1    0    0    0  501 -0.00000000000E+00 -0.00000000000E+00 -0.19073740081E+03  0.19073740081E+03  0.00000000000E+00 0.  1.
         25    2    1    2    0    0  0.34282822113E+03 -0.47539039298E+02  0.25004163956E+03  0.44492530900E+03  0.12508620873E+03 0.  0.
          5    1    3    3  502    0  0.13965416311E+03 -0.65910746157E+02  0.15835427048E+03  0.22122626226E+03  0.41800000000E+01 0. -1.
         -5    1    3    3    0  502  0.20317405801E+03  0.18371706858E+02  0.91687369084E+02  0.22369904674E+03  0.41800000000E+01 0. -1.
        -11    1    1    2    0    0 -0.26821027642E+03  0.53034953284E+02  0.14993862477E+03  0.31181893760E+03  0.00000000000E+00 0.  1.
         11    1    1    2    0    0 -0.74617944701E+02 -0.54959139853E+01  0.10091567741E+03  0.12562649676E+03  0.00000000000E+00 0. -1.
</event>
<event>
 7    1  0.2644565E-009  0.1325700E+03  0.7561462E-02  0.1223691E+00
         -1   -1    0    0    0  501 -0.00000000000E+00  0.00000000000E+00  0.25409461286E+03  0.25409461286E+03  0.00000000000E+00 0.  1.
          1   -1    0    0  501    0  0.00000000000E+00 -0.00000000000E+00 -0.79590672002E+02  0.79590672002E+02  0.00000000000E+00 0. -1.
         25    2    1    2    0    0 -0.49042334116E+02  0.77263379873E+02  0.11167988048E+03  0.19103698184E+03  0.12509177559E+03 0.  0.
          5    1    3    3  502    0  0.14941508542E+02 -0.22416170852E+02 -0.13012136177E+01  0.27292836973E+02  0.41800000000E+01 0. -1.
         -5    1    3    3    0  502 -0.63983842658E+02  0.99679550725E+02  0.11298109410E+03  0.16374414486E+03  0.41800000000E+01 0. -1.
        -11    1    1    2    0    0  0.68981191078E+02 -0.48365852523E+02  0.66523177256E+02  0.10734520728E+03  0.00000000000E+00 0.  1.
         11    1    1    2    0    0 -0.19938856962E+02 -0.28897527350E+02 -0.36991168766E+01  0.35303095750E+02  0.00000000000E+00 0. -1.
</event>
<event>
 7    1  0.2644565E-009  0.1351911E+03  0.7561462E-02  0.1219950E+00
          2   -1    0    0  501    0  0.00000000000E+00  0.00000000000E+00  0.89193644478E+03  0.89193644478E+03  0.00000000000E+00 0. -1.
         -2   -1    0    0    0  501 -0.00000000000E+00 -0.00000000000E+00 -0.28963081009E+02  0.28963081009E+02  0.00000000000E+00 0.  1.
         25    2    1    2    0    0 -0.10154742493E+03 -0.64112502951E+02  0.44252116816E+03  0.47528458358E+03  0.12509260001E+03 0.  0.
          5    1    3    3  502    0 -0.34828484739E+02 -0.60089675853E+01  0.33082134926E+03  0.33273017382E+03  0.41800000000E+01 0.  1.
         -5    1    3    3    0  502 -0.66718940189E+02 -0.58103535365E+02  0.11169981890E+03  0.14255440977E+03  0.41800000000E+01 0.  1.
        -11    1    1    2    0    0  0.70982137270E+02  0.83832340440E+02  0.34043169391E+03  0.35771505886E+03  0.00000000000E+00 0. -1.
         11    1    1    2    0    0  0.30565287658E+02 -0.19719837490E+02  0.80020501700E+02  0.87899883348E+02  0.00000000000E+00 0.  1.
</event>
<event>
 7    1  0.2644565E-009  0.1109213E+03  0.7561462E-02  0.1258873E+00
         -1   -1    0    0    0  501 -0.00000000000E+00  0.00000000000E+00  0.64133677347E+02  0.64133677347E+02  0.00000000000E+00 0.  1.
          1   -1    0    0  501    0  0.00000000000E+00 -0.00000000000E+00 -0.63059149087E+03  0.63059149087E+03  0.00000000000E+00 0. -1.
         25    2    1    2    0    0  0.77412835599E+01 -0.37536814415E+02 -0.57973083801E+03  0.59431025645E+03  0.12509155233E+03 0.  0.
          5    1    3    3  502    0 -0.52189167812E+02 -0.42089360740E-01 -0.35053315391E+03  0.35442160684E+03  0.41800000000E+01 0. -1.
         -5    1    3    3    0  502  0.59930451372E+02 -0.37494725055E+02 -0.22919768410E+03  0.23988864960E+03  0.41800000000E+01 0. -1.
        -11    1    1    2    0    0  0.41741432028E+02  0.18362709426E+02  0.12726000774E+02  0.47344348563E+02  0.00000000000E+00 0. -1.
         11    1    1    2    0    0 -0.49482715588E+02  0.19174104989E+02  0.54702371949E+00  0.53070563206E+02  0.00000000000E+00 0.  1.
</event>
<event>
 7    1  0.2644565E-009  0.1074319E+03  0.7561462E-02  0.1265401E+00
         -2   -1    0    0    0  501 -0.00000000000E+00  0.00000000000E+00  0.97937255719E+01  0.97937255719E+01  0.00000000000E+00 0.  1.
          2   -1    0    0  501    0  0.00000000000E+00 -0.00000000000E+00 -0.14673188093E+04  0.14673188093E+04  0.00000000000E+00 0. -1.
         25    2    1    2    0    0 -0.18389655497E+02  0.10150964964E+02 -0.11136697015E+04  0.11208696957E+04  0.12508976449E+03 0.  0.
          5    1    3    3  502    0  0.26305305856E+02  0.53844761852E+02 -0.40418372589E+03  0.40862352376E+03  0.41800000000E+01 0. -1.
         -5    1    3    3    0  502 -0.44694961354E+02 -0.43693796887E+02 -0.70948597559E+03  0.71224617192E+03  0.41800000000E+01 0. -1.
        -11    1    1    2    0    0  0.17060496349E+02  0.39214100364E+02 -0.18552433710E+03  0.19038930080E+03  0.00000000000E+00 0. -1.
         11    1    1    2    0    0  0.13291591480E+01 -0.49365065329E+02 -0.15833104514E+03  0.16585353838E+03  0.00000000000E+00 0.  1.
</event>
<event>
 7    1  0.2644565E-009  0.4220713E+03  0.7561462E-02  0.1036394E+00
          1   -1    0    0  501    0  0.00000000000E+00  0.00000000000E+00  0.79094696705E+03  0.79094696705E+03  0.00000000000E+00 0. -1.
         -1   -1    0    0    0  501 -0.00000000000E+00 -0.00000000000E+00 -0.23793532701E+03  0.23793532701E+03  0.00000000000E+00 0.  1.
         25    2    1    2    0    0  0.35194490709E+03 -0.20957342996E+03  0.17034878545E+03  0.46092547517E+03  0.12508934721E+03 0.  0.
          5    1    3    3  502    0  0.66927971680E+02 -0.10506402589E+03  0.46433728037E+02  0.13300889605E+03  0.41800000000E+01 0. -1.
         -5    1    3    3    0  502  0.28501693541E+03 -0.10450940407E+03  0.12391505741E+03  0.32791657912E+03  0.41800000000E+01 0. -1.
        -11    1    1    2    0    0 -0.32919011099E+03  0.17060095200E+03  0.31440379270E+03  0.48612813009E+03  0.00000000000E+00 0. -1.
         11    1    1    2    0    0 -0.22754796096E+02  0.38972477953E+02  0.68259061886E+02  0.81828688812E+02  0.00000000000E+00 0.  1.
</event>
<event>
 7    1  0.2644565E-009  0.1301215E+03  0.7561462E-02  0.1227275E+00
          2   -1    0    0  501    0  0.00000000000E+00  0.00000000000E+00  0.90473727268E+03  0.90473727268E+03  0.00000000000E+00 0. -1.
         -2   -1    0    0    0  501 -0.00000000000E+00 -0.00000000000E+00 -0.28032083553E+02  0.28032083553E+02  0.00000000000E+00 0.  1.
         25    2    1    2    0    0 -0.11129491508E+03 -0.16744443312E+02  0.56156728193E+03  0.58623493458E+03  0.12508657755E+03 0.  0.
          5    1    3    3  502    0  0.11553687777E+00 -0.79030566312E+01 -0.39428401798E+01  0.97719006120E+01  0.41800000000E+01 0.  1.
         -5    1    3    3    0  502 -0.11141045196E+03 -0.88413866809E+01  0.56551012211E+03  0.57646303397E+03  0.41800000000E+01 0.  1.
        -11    1    1    2    0    0  0.66320120590E+02 -0.31573919850E+02  0.12175328336E+03  0.14219399712E+03  0.00000000000E+00 0.  1.
         11    1    1    2    0    0  0.44974794495E+02  0.48318363162E+02  0.19338462383E+03  0.20434042452E+03  0.00000000000E+00 0. -1.
</event>
<event>
 7    1  0.3275308E-009  0.1379853E+03  0.7561462E-02  0.1216066E+00
          1   -1    0    0  501    0  0.00000000000E+00  0.00000000000E+00  0.10277951775E+03  0.10277951775E+03  0.00000000000E+00 0. -1.
         -1   -1    0    0    0  501 -0.00000000000E+00 -0.00000000000E+00 -0.25457017727E+03  0.25457017727E+03  0.00000000000E+00 0.  1.
         25    2    1    2    0    0 -0.24250940693E+02  0.10376021054E+03 -0.21236732080E+02  0.16568698624E+03  0.12508752617E+03 0.  0.
          5    1    3    3  502    0  0.23121993744E+02  0.81656117098E+02 -0.56904618259E+02  0.10226414833E+03  0.41800000000E+01 0. -1.
         -5    1    3    3    0  502 -0.47372934437E+02  0.22104093439E+02  0.35667886178E+02  0.63422837908E+02  0.41800000000E+01 0. -1.
        -11    1    1    2    0    0  0.56428771487E+02 -0.47560063656E+02 -0.84543612988E+02  0.11222204954E+03  0.00000000000E+00 0.  1.
         11    1    1    2    0    0 -0.32177830794E+02 -0.56200146881E+02 -0.46010314451E+02  0.79440659237E+02  0.00000000000E+00 0. -1.
</event>
<event>
 7    1  0.2644565E-009  0.1186968E+03  0.7561462E-02  0.1245263E+00
         -3   -1    0    0    0  501 -0.00000000000E+00  0.00000000000E+00  0.48727148697E+02  0.48727148697E+02  0.00000000000E+00 0.  1.
          3   -1    0    0  501    0  0.00000000000E+00 -0.00000000000E+00 -0.36018650291E+03  0.36018650291E+03  0.00000000000E+00 0. -1.
         25    2    1    2    0    0 -0.13322182767E+01 -0.56501928758E+02 -0.25146714854E+03  0.28650148624E+03  0.12511247765E+03 0.  0.
          5    1    3    3  502    0 -0.61188452275E+02 -0.44638517859E+02 -0.14803220780E+03  0.16633589785E+03  0.41800000000E+01 0. -1.
         -5    1    3    3    0  502  0.59856233999E+02 -0.11863410899E+02 -0.10343494074E+03  0.12016558839E+03  0.41800000000E+01 0. -1.
        -11    1    1    2    0    0 -0.28251931153E+02 -0.80412041090E+01  0.13270031446E+00  0.29374311682E+02  0.00000000000E+00 0.  1.
         11    1    1    2    0    0  0.29584149430E+02  0.64543132867E+02 -0.60124905982E+02  0.93037853679E+02  0.00000000000E+00 0. -1.
</event>
<event>
 7    1  0.2644565E-009  0.1549180E+03  0.7561462E-02  0.1194557E+00
          2   -1    0    0  501    0  0.00000000000E+00  0.00000000000E+00  0.23691445633E+03  0.23691445633E+03  0.00000000000E+00 0. -1.
         -2   -1    0    0    0  501 -0.00000000000E+00 -0.00000000000E+00 -0.12340350429E+03  0.12340350429E+03  0.00000000000E+00 0.  1.
         25    2    1    2    0    0  0.93224330259E+02 -0.81027589615E+02  0.10429007296E+03  0.20440562551E+03  0.12509594075E+03 0.  0.
          5    1    3    3  502    0 -0.18306657671E+02  0.18388755163E+02  0.17358620681E+02  0.31497208503E+02  0.41800000000E+01 0. -1.
         -5    1    3    3    0  502  0.11153098793E+03 -0.99416344778E+02  0.86931452280E+02  0.17290841701E+03  0.41800000000E+01 0. -1.
        -11    1    1    2    0    0 -0.20536082221E+02  0.51837197104E+02  0.43195329584E+02  0.70531285076E+02  0.00000000000E+00 0. -1.
         11    1    1    2    0    0 -0.72688248038E+02  0.29190392511E+02 -0.33974450496E+02  0.85381050031E+02  0.00000000000E+00 0.  1.
</event>
<event>
 7    1  0.2644565E-009  0.1093025E+03  0.7561462E-02  0.1261867E+00
          1   -1    0    0  501    0  0.00000000000E+00  0.00000000000E+00  0.18664734691E+03  0.18664734691E+03  0.00000000000E+00 0. -1.
         -1   -1    0    0    0  501 -0.00000000000E+00 -0.00000000000E+00 -0.10349280711E+03  0.10349280711E+03  0.00000000000E+00 0.  1.
         25    2    1    2    0    0  0.22128888434E+02 -0.82041752942E+02  0.66786355267E+02  0.16530698388E+03  0.12508175223E+03 0.  0.
          5    1    3    3  502    0 -0.14067219752E+02 -0.54961127883E+02  0.95809018494E+02  0.11142465021E+03  0.41800000000E+01 0. -1.
         -5    1    3    3    0  502  0.36196108186E+02 -0.27080625059E+02 -0.29022663227E+02  0.53882333675E+02  0.41800000000E+01 0. -1.
        -11    1    1    2    0    0 -0.38542884206E+02  0.90127238804E+02 -0.31581046517E+01  0.98073680069E+02  0.00000000000E+00 0.  1.
         11    1    1    2    0    0  0.16413995772E+02 -0.80854858617E+01  0.19526289191E+02  0.26759490062E+02  0.00000000000E+00 0. -1.
</event>
<event>
 7    1  0.2741133E-009  0.1478935E+03  0.7561462E-02  0.1203086E+00
         -1   -1    0    0    0  501 -0.00000000000E+00  0.00000000000E+00  0.38016892932E+02  0.38016892932E+02  0.00000000000E+00 0.  1.
          1   -1    0    0  501    0  0.00000000000E+00 -0.00000000000E+00 -0.63573143090E+03  0.63573143090E+03  0.00000000000E+00 0. -1.
         25    2    1    2    0    0  0.10318642918E+03  0.17358273663E+02 -0.23779155336E+03  0.28834802571E+03  0.12510400574E+03 0.  0.
          5    1    3    3  502    0  0.10051261504E+03  0.61983223672E+02 -0.17487189481E+03  0.21105060482E+03  0.41800000000E+01 0.  1.
         -5    1    3    3    0  502  0.26738141427E+01 -0.44624950009E+02 -0.62919658548E+02  0.77297420896E+02  0.41800000000E+01 0.  1.
        -11    1    1    2    0    0 -0.37942643064E+02  0.33017246514E+02 -0.89159596074E+02  0.10236804336E+03  0.00000000000E+00 0.  1.
         11    1    1    2    0    0 -0.65243786119E+02 -0.50375520177E+02 -0.27076338854E+03  0.28303225476E+03  0.00000000000E+00 0. -1.
</event>
<event>
 7    1  0.2644565E-009  0.2137210E+03  0.7561462E-02  0.1138653E+00
         -2   -1    0    0    0  501 -0.00000000000E+00  0.00000000000E+00  0.99778011989E+02  0.99778011989E+02  0.00000000000E+00 0.  1.
          2   -1    0    0  501    0  0.00000000000E+00 -0.00000000000E+00 -0.54617339767E+03  0.54617339767E+03  0.00000000000E+00 0. -1.
         25    2    1    2    0    0 -0.74358625544E+02 -0.19079254114E+03 -0.19712758848E+03  0.31054428875E+03  0.12508984847E+03 0.  0.
          5    1    3    3  502    0 -0.52163069497E+02 -0.10197283857E+03 -0.18565173746E+03  0.21818223037E+03  0.41800000000E+01 0.  1.
         -5    1    3    3    0  502 -0.22195556047E+02 -0.88819702569E+02 -0.11475851017E+02  0.92362058385E+02  0.41800000000E+01 0.  1.
        -11    1    1    2    0    0  0.87802757924E+02  0.18793596832E+03 -0.24498896949E+03  0.32101222354E+03  0.00000000000E+00 0.  1.
         11    1    1    2    0    0 -0.13444132379E+02  0.28565728241E+01 -0.42788277103E+01  0.14394897371E+02  0.00000000000E+00 0. -1.
</event>
<event>
 7    1  0.2644565E-009  0.6662526E+02  0.7561462E-02  0.1371960E+00
         -2   -1    0    0    0  501 -0.00000000000E+00  0.00000000000E+00  0.31423126489E+03  0.31423126489E+03  0.00000000000E+00 0.  1.
          2   -1    0    0  501    0  0.00000000000E+00 -0.00000000000E+00 -0.51089084098E+02  0.51089084098E+02  0.00000000000E+00 0. -1.
         25    2    1    2    0    0  0.29402677969E+02 -0.11137294439E+02  0.63441609952E+02  0.14375477347E+03  0.12510811413E+03 0.  0.
          5    1    3    3  502    0 -0.41584405161E+01  0.11575659388E+02  0.92694704015E+02  0.93600582638E+02  0.41800000000E+01 0. -1.
         -5    1    3    3    0  502  0.33561118485E+02 -0.22712953827E+02 -0.29253094063E+02  0.50154190829E+02  0.41800000000E+01 0. -1.
        -11    1    1    2    0    0 -0.34559086599E+02  0.38465427268E+02  0.60379392376E+02  0.79495852629E+02  0.00000000000E+00 0. -1.
         11    1    1    2    0    0  0.51564086299E+01 -0.27328132830E+02  0.13932117846E+03  0.14206972289E+03  0.00000000000E+00 0.  1.
</event>
<event>
 7    1  0.2644565E-009  0.1119736E+03  0.7561462E-02  0.1256958E+00
         -2   -1    0    0    0  501 -0.00000000000E+00  0.00000000000E+00  0.15897593490E+02  0.15897593490E+02  0.00000000000E+00 0.  1.
          2   -1    0    0  501    0  0.00000000000E+00 -0.00000000000E+00 -0.12727659529E+04  0.12727659529E+04  0.00000000000E+00 0. -1.
         25    2    1    2    0    0  0.24913736478E+02 -0.51331188016E+02 -0.10162704979E+04  0.10255286132E+04  0.12509047294E+03 0.  0.
          5    1    3    3  502    0  0.63708725780E+02 -0.48408115489E+02 -0.88313622056E+03  0.88676333023E+03  0.41800000000E+01 0.  1.
         -5    1    3    3    0  502 -0.38794989302E+02 -0.29230725275E+01 -0.13313427736E+03  0.13876528296E+03  0.41800000000E+01 0.  1.
        -11    1    1    2    0    0  0.27222352022E+02  0.44427816696E+02 -0.14419023578E+03  0.15331572470E+03  0.00000000000E+00 0.  1.
         11    1    1    2    0    0 -0.52136088500E+02  0.69033713204E+01 -0.96407625761E+02  0.10981920854E+03  0.00000000000E+00 0. -1.
</event>
<event>
 7    1  0.2644565E-009  0.1045364E+03  0.7561462E-02  0.1271036E+00
          3   -1    0    0  501    0  0.00000000000E+00  0.00000000000E+00  0.84963264505E+03  0.84963264505E+03  0.00000000000E+00 0. -1.
         -3   -1    0    0    0  501 -0.00000000000E+00 -0.00000000000E+00 -0.14602287008E+02  0.14602287008E+02  0.00000000000E+00 0.  1.
         25    2    1    2    0    0  0.52354680745E+01 -0.37637430365E+01  0.40180810931E+03  0.42087861465E+03  0.12508987039E+03 0.  0.
          5    1    3    3  502    0  0.51863590522E+02  0.29190888621E+02  0.12900271692E+03  0.14213062082E+03  0.41800000000E+01 0.  1.
         -5    1    3    3    0  502 -0.46628122447E+02 -0.32954631657E+02  0.27280539239E+03  0.27874799383E+03  0.41800000000E+01 0.  1.
        -11    1    1    2    0    0 -0.41076495152E+02 -0.23322996162E+02  0.26821598598E+03  0.27234363539E+03  0.00000000000E+00 0. -1.
         11    1    1    2    0    0  0.35841027077E+02  0.27086739198E+02  0.16500626276E+03  0.17101268202E+03  0.00000000000E+00 0.  1.
</event>
<event>
 7    1  0.2644565E-009  0.9474643E+02  0.7561462E-02  0.1291748E+00
          2   -1    0    0  501    0  0.00000000000E+00  0.00000000000E+00  0.17278878815E+03  0.17278878815E+03  0.00000000000E+00 0. -1.
         -2   -1    0    0    0  501 -0.00000000000E+00 -0.00000000000E+00 -0.84942964686E+02  0.84942964686E+02  0.00000000000E+00 0.  1.
         25    2    1    2    0    0 -0.17737862642E+01  0.59257959124E+02  0.54619379008E+02  0.14881673600E+03  0.12509393396E+03 0.  0.
          5    1    3    3  502    0 -0.34256176441E+02  0.79930160699E+02  0.65082792934E+02  0.10869939535E+03  0.41800000000E+01 0. -1.
         -5    1    3    3    0  502  0.32482390177E+02 -0.20672201576E+02 -0.10463413926E+02  0.40117340647E+02  0.41800000000E+01 0. -1.
        -11    1    1    2    0    0  0.11235309468E+02 -0.16855478004E+02  0.56221518999E+02  0.59759505656E+02  0.00000000000E+00 0. -1.
         11    1    1    2    0    0 -0.94615232033E+01 -0.42402481119E+02 -0.22995074543E+02  0.49155511183E+02  0.00000000000E+00 0.  1.
</event>
<event>
 7    1  0.2644565E-009  0.1400936E+03  0.7561462E-02  0.1213203E+00
         -2   -1    0    0    0  501 -0.00000000000E+00  0.00000000000E+00  0.40702757893E+03  0.40702757893E+03  0.00000000000E+00 0. -1.
          2   -1    0    0  501    0  0.00000000000E+00 -0.00000000000E+00 -0.61786035855E+02  0.61786035855E+02  0.00000000000E+00 0.  1.
         25    2    1    2    0    0 -0.45295792959E+02 -0.10252611229E+03  0.23047436502E+03  0.28518234287E+03  0.12508886118E+03 0.  0.
          5    1    3    3  502    0 -0.86717479468E+02 -0.73543780851E+02  0.13095117419E+03  0.17347706295E+03  0.41800000000E+01 0.  1.
         -5    1    3    3    0  502  0.41421686509E+02 -0.28982331440E+02  0.99523190827E+02  0.11170527992E+03  0.41800000000E+01 0.  1.
        -11    1    1    2    0    0  0.20086135459E+02  0.16372704334E+02 -0.11791219389E+02  0.28470179830E+02  0.00000000000E+00 0.  1.
         11    1    1    2    0    0  0.25209657500E+02  0.86153407958E+02  0.12655839744E+03  0.15516109208E+03  0.00000000000E+00 0. -1.
</event>
<event>
 7    1  0.2644565E-009  0.1747460E+03  0.7561462E-02  0.1172987E+00
         -1   -1    0    0    0  501 -0.00000000000E+00  0.00000000000E+00  0.29506747297E+02  0.29506747297E+02  0.00000000000E+00 0.  1.
          1   -1    0    0  501    0  0.00000000000E+00 -0.00000000000E+00 -0.17469216353E+04  0.17469216353E+04  0.00000000000E+00 0. -1.
         25    2    1    2    0    0 -0.13239090423E+03  0.39714842030E+02 -0.14473773669E+04  0.14593332167E+04  0.12509026721E+03 0.  0.
          5    1    3    3  502    0 -0.25694203093E+02 -0.43561060356E+02 -0.42980706789E+03  0.43279249770E+03  0.41800000000E+01 0.  1.
         -5    1    3    3    0  502 -0.10669670114E+03  0.83275902386E+02 -0.10175702990E+04  0.10265407190E+04  0.41800000000E+01 0.  1.
        -11    1    1    2    0    0  0.12609572361E+03 -0.30511456505E+01 -0.23085960871E+03  0.26306957243E+03  0.00000000000E+00 0. -1.
         11    1    1    2    0    0  0.62951806236E+01 -0.36663696380E+02 -0.39177912416E+02  0.54025593496E+02  0.00000000000E+00 0.  1.
</event>
<event>
 7    1  0.2644565E-009  0.1141472E+03  0.7561462E-02  0.1253077E+00
         -2   -1    0    0    0  501 -0.00000000000E+00  0.00000000000E+00  0.19134972373E+03  0.19134972373E+03  0.00000000000E+00 0.  1.
          2   -1    0    0  501    0  0.00000000000E+00 -0.00000000000E+00 -0.10432075848E+03  0.10432075848E+03  0.00000000000E+00 0. -1.
         25    2    1    2    0    0  0.36219791510E+02  0.53520426133E+01  0.13001719986E+03  0.18410572766E+03  0.12509967642E+03 0.  0.
          5    1    3    3  502    0  0.80641033340E+02  0.18589727165E+02  0.93624228133E+02  0.12502608811E+03  0.41800000000E+01 0. -1.
         -5    1    3    3    0  502 -0.44421241830E+02 -0.13237684552E+02  0.36392971729E+02  0.59079639550E+02  0.41800000000E+01 0. -1.
        -11    1    1    2    0    0  0.28484866670E+02 -0.16965463237E+02 -0.25101937229E+00  0.33155355265E+02  0.00000000000E+00 0.  1.
         11    1    1    2    0    0 -0.64704658180E+02  0.11613420624E+02 -0.42737215242E+02  0.78409399280E+02  0.00000000000E+00 0. -1.
</event>
<event>
 7    1  0.2644565E-009  0.7988948E+02  0.7561462E-02  0.1329365E+00
          1   -1    0    0  501    0  0.00000000000E+00  0.00000000000E+00  0.27297313778E+04  0.27297313778E+04  0.00000000000E+00 0. -1.
         -1   -1    0    0    0  501 -0.00000000000E+00 -0.00000000000E+00 -0.70197838968E+01  0.70197838968E+01  0.00000000000E+00 0.  1.
         25    2    1    2    0    0  0.39906254682E+02 -0.24891684878E+02  0.21932602679E+04  0.21973280588E+04  0.12509152745E+03 0.  0.
          5    1    3    3  502    0  0.45433706774E+02 -0.24043373542E+02  0.32595650994E+03  0.33001124874E+03  0.41800000000E+01 0. -1.
         -5    1    3    3    0  502 -0.55274520927E+01 -0.84831133550E+00  0.18673037579E+04  0.18673168100E+04  0.41800000000E+01 0. -1.
        -11    1    1    2    0    0 -0.68361423405E+02  0.24940690285E+02  0.42404256664E+03  0.43024111910E+03  0.00000000000E+00 0. -1.
         11    1    1    2    0    0  0.28455168724E+02 -0.49005407588E-01  0.10540875939E+03  0.10918198379E+03  0.00000000000E+00 0.  1.
</event>
<event>
 7    1  0.2644565E-009  0.1301803E+03  0.7561462E-02  0.1227188E+00
         -2   -1    0    0    0  501 -0.00000000000E+00  0.00000000000E+00  0.23565899346E+03  0.23565899346E+03  0.00000000000E+00 0.  1.
          2   -1    0    0  501    0  0.00000000000E+00 -0.00000000000E+00 -0.12180384313E+03  0.12180384313E+03  0.00000000000E+00 0. -1.
         25    2    1    2    0    0  0.13935191897E+02  0.86940275545E+02 -0.40073491642E+02  0.15813439426E+03  0.12509117007E+03 0.  0.
          5    1    3    3  502    0  0.41659339319E+02 -0.69334336880E+01  0.15878007820E+02  0.45311770960E+02  0.41800000000E+01 0.  1.
         -5    1    3    3    0  502 -0.27724147422E+02  0.93873709233E+02 -0.55951499462E+02  0.11282262330E+03  0.41800000000E+01 0.  1.
        -11    1    1    2    0    0  0.30531227168E+02 -0.61648538903E+02  0.55465096006E+02  0.88368971117E+02  0.00000000000E+00 0.  1.
         11    1    1    2    0    0 -0.44466419065E+02 -0.25291736642E+02  0.98463545972E+02  0.11095947121E+03  0.00000000000E+00 0. -1.
</event>
<event>
 7    1  0.2644565E-009  0.7440144E+02  0.7561462E-02  0.1345735E+00
          2   -1    0    0  501    0  0.00000000000E+00  0.00000000000E+00  0.34627984650E+02  0.34627984650E+02  0.00000000000E+00 0. -1.
         -2   -1    0    0    0  501 -0.00000000000E+00 -0.00000000000E+00 -0.35305743268E+03  0.35305743268E+03  0.00000000000E+00 0.  1.
         25    2    1    2    0    0 -0.71231998394E+00 -0.56227978766E+01 -0.14612534908E+03  0.19243868789E+03  0.12509159723E+03 0.  0.
          5    1    3    3  502    0 -0.25045474760E+02 -0.29558536673E+02  0.33006922629E+01  0.39106903043E+02  0.41800000000E+01 0. -1.
         -5    1    3    3    0  502  0.24333154776E+02  0.23935738797E+02 -0.14942604134E+03  0.15333178484E+03  0.41800000000E+01 0. -1.
        -11    1    1    2    0    0 -0.10272665736E+02  0.38989282979E+02 -0.14571446675E+03  0.15118993905E+03  0.00000000000E+00 0.  1.
         11    1    1    2    0    0  0.10984985720E+02 -0.33366485102E+02 -0.26589632206E+02  0.44056790399E+02  0.00000000000E+00 0. -1.
</event>
<event>
 7    1  0.2644565E-009  0.7019259E+02  0.7561462E-02  0.1359439E+00
         -1   -1    0    0    0  501 -0.00000000000E+00  0.00000000000E+00  0.81932036453E+02  0.81932036453E+02  0.00000000000E+00 0.  1.
          1   -1    0    0  501    0  0.00000000000E+00 -0.00000000000E+00 -0.23306908598E+03  0.23306908598E+03  0.00000000000E+00 0. -1.
         25    2    1    2    0    0 -0.11409793609E+02 -0.64192968160E+02 -0.14123191115E+03  0.19961201247E+03  0.12509029636E+03 0.  0.
          5    1    3    3  502    0  0.95591168288E+01 -0.72922232574E+01  0.22006960193E+02  0.25423059051E+02  0.41800000000E+01 0.  1.
         -5    1    3    3    0  502 -0.20968910438E+02 -0.56900744902E+02 -0.16323887134E+03  0.17418895342E+03  0.41800000000E+01 0.  1.
        -11    1    1    2    0    0  0.12818209327E+01  0.46242872956E+02 -0.51342380619E+02  0.69109235359E+02  0.00000000000E+00 0. -1.
         11    1    1    2    0    0  0.10127972676E+02  0.17950095203E+02  0.41437242246E+02  0.46279874603E+02  0.00000000000E+00 0.  1.
</event>
<event>
 7    1  0.2644565E-009  0.1530564E+03  0.7561462E-02  0.1196767E+00
         -1   -1    0    0    0  501 -0.00000000000E+00  0.00000000000E+00  0.73884986400E+02  0.73884986400E+02  0.00000000000E+00 0.  1.
          1   -1    0    0  501    0  0.00000000000E+00 -0.00000000000E+00 -0.39803608857E+03  0.39803608857E+03  0.00000000000E+00 0. -1.
         25    2    1    2    0    0  0.12837685967E+03  0.32593933859E+02 -0.14951483102E+03  0.23568009682E+03  0.12508973067E+03 0.  0.
          5    1    3    3  502    0  0.14529695380E+03  0.28847563632E+02 -0.15740262348E+03  0.21618613505E+03  0.41800000000E+01 0.  1.
         -5    1    3    3    0  502 -0.16920094131E+02  0.37463702270E+01  0.78877924624E+01  0.19493961763E+02  0.41800000000E+01 0.  1.
        -11    1    1    2    0    0 -0.23687993778E+02  0.11700485986E+02  0.16621261902E+01  0.26472345665E+02  0.00000000000E+00 0.  1.
         11    1    1    2    0    0 -0.10468886589E+03 -0.44294419845E+02 -0.17629839734E+03  0.20976863249E+03  0.00000000000E+00 0. -1.
</event>
<event>
 7    1  0.2644565E-009  0.1783438E+03  0.7561462E-02  0.1169416E+00
         -1   -1    0    0    0  501 -0.00000000000E+00  0.00000000000E+00  0.55904483435E+03  0.55904483435E+03  0.00000000000E+00 0.  1.
          1   -1    0    0  501    0  0.00000000000E+00 -0.00000000000E+00 -0.61865844428E+02  0.61865844428E+02  0.00000000000E+00 0. -1.
         25    2    1    2    0    0 -0.14499538525E+03  0.13821193295E+02  0.19803977243E+03  0.27583607509E+03  0.12510436334E+03 0.  0.
          5    1    3    3  502    0 -0.18409540203E+02  0.52939599488E+02  0.37153489272E+02  0.67374821183E+02  0.41800000000E+01 0.  1.
         -5    1    3    3    0  502 -0.12658584504E+03 -0.39118406193E+02  0.16088628316E+03  0.20846125390E+03  0.41800000000E+01 0.  1.
        -11    1    1    2    0    0 -0.82641038552E+01 -0.12102948430E+02  0.54095006811E+02  0.56045040236E+02  0.00000000000E+00 0.  1.
         11    1    1    2    0    0  0.15325948910E+03 -0.17182448648E+01  0.24504421068E+03  0.28902956346E+03  0.00000000000E+00 0. -1.
</event>
<event>
 7    1  0.2644565E-009  0.1353520E+03  0.7561462E-02  0.1219724E+00
          1   -1    0    0  501    0  0.00000000000E+00  0.00000000000E+00  0.47936514322E+03  0.47936514322E+03  0.00000000000E+00 0. -1.
         -1   -1    0    0    0  501 -0.00000000000E+00 -0.00000000000E+00 -0.44358474472E+02  0.44358474472E+02  0.00000000000E+00 0.  1.
         25    2    1    2    0    0 -0.54325944426E+02  0.79337210174E+02  0.27104209417E+03  0.31361992148E+03  0.12509171508E+03 0.  0.
          5    1    3    3  502    0 -0.61643423187E+02  0.10711854661E+03  0.24578286605E+03  0.27513811858E+03  0.41800000000E+01 0.  1.
         -5    1    3    3    0  502  0.73174787610E+01 -0.27781336436E+02  0.25259228111E+02  0.38481802899E+02  0.41800000000E+01 0.  1.
        -11    1    1    2    0    0  0.70625576030E+02 -0.68841007776E+02  0.89583429058E+02  0.13323755891E+03  0.00000000000E+00 0.  1.
         11    1    1    2    0    0 -0.16299631604E+02 -0.10496202398E+02  0.74381145521E+02  0.76866137305E+02  0.00000000000E+00 0. -1.
</event>
<event>
 7    1  0.2644565E-009  0.1384672E+03  0.7561462E-02  0.1215406E+00
         -2   -1    0    0    0  501 -0.00000000000E+00  0.00000000000E+00  0.47984944928E+02  0.47984944928E+02  0.00000000000E+00 0.  1.
          2   -1    0    0  501    0  0.00000000000E+00 -0.00000000000E+00 -0.54174840159E+03  0.54174840159E+03  0.00000000000E+00 0. -1.
         25    2    1    2    0    0 -0.27503120351E+02  0.86503135180E+02 -0.40301186742E+03  0.43162996984E+03  0.12508657623E+03 0.  0.
          5    1    3    3  502    0 -0.19809464923E+02  0.11864729019E+03 -0.29543117903E+03  0.31900885303E+03  0.41800000000E+01 0. -1.
         -5    1    3    3    0  502 -0.76936554285E+01 -0.32144155011E+02 -0.10758068839E+03  0.11262111680E+03  0.41800000000E+01 0. -1.
        -11    1    1    2    0    0 -0.11785933959E+02 -0.82977127095E+02 -0.82898231308E+02  0.11788226590E+03  0.00000000000E+00 0.  1.
         11    1    1    2    0    0  0.39289054311E+02 -0.35260080847E+01 -0.78533579333E+01  0.40221110781E+02  0.00000000000E+00 0. -1.
</event>
<event>
 7    1  0.2644565E-009  0.1485436E+03  0.7561462E-02  0.1202274E+00
         -1   -1    0    0    0  501 -0.00000000000E+00  0.00000000000E+00  0.29690765263E+03  0.29690765263E+03  0.00000000000E+00 0.  1.
          1   -1    0    0  501    0  0.00000000000E+00 -0.00000000000E+00 -0.89281905244E+02  0.89281905244E+02  0.00000000000E+00 0. -1.
         25    2    1    2    0    0 -0.53382833612E+02  0.10425925491E+03  0.14895671170E+03  0.22706215093E+03  0.12509755899E+03 0.  0.
          5    1    3    3  502    0 -0.14442445640E+02 -0.25806983994E+02  0.52715629704E+02  0.60588733887E+02  0.41800000000E+01 0. -1.
         -5    1    3    3    0  502 -0.38940387972E+02  0.13006623890E+03  0.96241081995E+02  0.16647341704E+03  0.41800000000E+01 0. -1.
        -11    1    1    2    0    0  0.29788521980E+02 -0.10358304258E+03  0.14107739411E+02  0.10870064887E+03  0.00000000000E+00 0. -1.
         11    1    1    2    0    0  0.23594311632E+02 -0.67621232581E+00  0.44561296277E+02  0.50426758079E+02  0.00000000000E+00 0.  1.
</event>
<event>
 7    1  0.2644565E-009  0.1157356E+03  0.7561462E-02  0.1250303E+00
         -2   -1    0    0    0  501 -0.00000000000E+00  0.00000000000E+00  0.38420132479E+03  0.38420132479E+03  0.00000000000E+00 0.  1.
          2   -1    0    0  501    0  0.00000000000E+00 -0.00000000000E+00 -0.51870503689E+02  0.51870503689E+02  0.00000000000E+00 0. -1.
         25    2    1    2    0    0  0.26479563667E+02 -0.86061294991E+02  0.21187699656E+03  0.26200666357E+03  0.12509163160E+03 0.  0.
          5    1    3    3  502    0  0.20435598862E+02 -0.10707802506E+03  0.21342401948E+03  0.23968855134E+03  0.41800000000E+01 0. -1.
         -5    1    3    3    0  502  0.60439648056E+01  0.21016730074E+02 -0.15470229186E+01  0.22318112229E+02  0.41800000000E+01 0. -1.
        -11    1    1    2    0    0 -0.31769862476E+02  0.29647173399E+02  0.10748737927E+03  0.11593884489E+03  0.00000000000E+00 0.  1.
         11    1    1    2    0    0  0.52902988086E+01  0.56414121592E+02  0.12966445276E+02  0.58126320024E+02  0.00000000000E+00 0. -1.
</event>
<event>
 7    1  0.2644565E-009  0.1274608E+03  0.7561462E-02  0.1231273E+00
          2   -1    0    0  501    0  0.00000000000E+00  0.00000000000E+00  0.32996145404E+03  0.32996145404E+03  0.00000000000E+00 0. -1.
         -2   -1    0    0    0  501 -0.00000000000E+00 -0.00000000000E+00 -0.71003125377E+02  0.71003125377E+02  0.00000000000E+00 0.  1.
         25    2    1    2    0    0 -0.70549775911E+02 -0.37117530667E+02  0.44840956750E+02  0.15495809475E+03  0.12508524198E+03 0.  0.
          5    1    3    3  502    0 -0.91018559526E+02 -0.61208396243E+02  0.14101913144E+02  0.11066698832E+03  0.41800000000E+01 0.  1.
         -5    1    3    3    0  502  0.20468783615E+02  0.24090865576E+02  0.30739043606E+02  0.44291106429E+02  0.41800000000E+01 0.  1.
        -11    1    1    2    0    0 -0.11579896263E+02  0.28409996835E+02  0.24769571559E+02  0.39430363844E+02  0.00000000000E+00 0.  1.
         11    1    1    2    0    0  0.82129672174E+02  0.87075338321E+01  0.18934780035E+03  0.20657612082E+03  0.00000000000E+00 0. -1.
</event>
<event>
 7    1  0.2644565E-009  0.1039948E+03  0.7561462E-02  0.1272113E+00
          2   -1    0    0  501    0  0.00000000000E+00  0.00000000000E+00  0.78198532471E+03  0.78198532471E+03  0.00000000000E+00 0. -1.
         -2   -1    0    0    0  501 -0.00000000000E+00 -0.00000000000E+00 -0.19793229833E+02  0.19793229833E+02  0.00000000000E+00 0.  1.
         25    2    1    2    0    0 -0.32099036940E+02 -0.69239437072E+01  0.61211472773E+03  0.62562683690E+03  0.12508481111E+03 0.  0.
          5    1    3    3  502    0 -0.11377074648E+02  0.53819467804E+02  0.40543143580E+03  0.40916756284E+03  0.41800000000E+01 0.  1.
         -5    1    3    3    0  502 -0.20721962292E+02 -0.60743411511E+02  0.20668329193E+03  0.21645927406E+03  0.41800000000E+01 0.  1.
        -11    1    1    2    0    0  0.20190331245E+02  0.44618704809E+02  0.57767644242E+02  0.75733605591E+02  0.00000000000E+00 0.  1.
         11    1    1    2    0    0  0.11908705694E+02 -0.37694761102E+02  0.92309722900E+02  0.10041811205E+03  0.00000000000E+00 0. -1.
</event>
<event>
 7    1  0.2644565E-009  0.1029223E+03  0.7561462E-02  0.1274268E+00
         -1   -1    0    0    0  501 -0.00000000000E+00  0.00000000000E+00  0.64525355734E+02  0.64525355734E+02  0.00000000000E+00 0.  1.
          1   -1    0    0  501    0  0.00000000000E+00 -0.00000000000E+00 -0.29743703308E+03  0.29743703308E+03  0.00000000000E+00 0. -1.
         25    2    1    2    0    0  0.25577382644E+02 -0.20059909578E+02 -0.23161204107E+03  0.26523800765E+03  0.12510180116E+03 0.  0.
          5    1    3    3  502    0 -0.86165327570E+01 -0.64011465229E+02 -0.17091800026E+03  0.18276254411E+03  0.41800000000E+01 0. -1.
         -5    1    3    3    0  502  0.34193915402E+02  0.43951555651E+02 -0.60694040818E+02  0.82475463536E+02  0.41800000000E+01 0. -1.
        -11    1    1    2    0    0 -0.15115620191E+02  0.50697688026E+02  0.21523129370E+02  0.57113769292E+02  0.00000000000E+00 0.  1.
         11    1    1    2    0    0 -0.10461762453E+02 -0.30637778448E+02 -0.22822765644E+02  0.39610611880E+02  0.00000000000E+00 0. -1.
</event>
<event>
 7    1  0.2644565E-009  0.7618415E+02  0.7561462E-02  0.1340243E+00
          2   -1    0    0  501    0  0.00000000000E+00  0.00000000000E+00  0.27826284122E+03  0.27826284122E+03  0.00000000000E+00 0. -1.
         -2   -1    0    0    0  501 -0.00000000000E+00 -0.00000000000E+00 -0.49700124287E+02  0.49700124287E+02  0.00000000000E+00 0.  1.
         25    2    1    2    0    0  0.32524985862E+02  0.23584393436E+02  0.15635858670E+03  0.20422963248E+03  0.12509051454E+03 0.  0.
          5    1    3    3  502    0  0.10447469695E+01  0.21036957856E+02  0.16870221559E+03  0.17006338535E+03  0.41800000000E+01 0. -1.
         -5    1    3    3    0  502  0.31480238892E+02  0.25474355803E+01 -0.12343628888E+02  0.34166247129E+02  0.41800000000E+01 0. -1.
        -11    1    1    2    0    0 -0.23328714988E+02 -0.58473483375E+02  0.35544679604E+02  0.72296621285E+02  0.00000000000E+00 0.  1.
         11    1    1    2    0    0 -0.91962708734E+01  0.34889089939E+02  0.36659450635E+02  0.51436711750E+02  0.00000000000E+00 0. -1.
</event>
<event>
 7    1  0.2644565E-009  0.2589737E+03  0.7561462E-02  0.1107761E+00
          2   -1    0    0  501    0  0.00000000000E+00  0.00000000000E+00  0.12272316689E+04  0.12272316689E+04  0.00000000000E+00 0. -1.
         -2   -1    0    0    0  501 -0.00000000000E+00 -0.00000000000E+00 -0.62048881805E+02  0.62048881805E+02  0.00000000000E+00 0.  1.
         25    2    1    2    0    0  0.21676075415E+03 -0.12432637537E+03  0.51709247203E+03  0.58777010282E+03  0.12508715756E+03 0.  0.
          5    1    3    3  502    0  0.13516289670E+03 -0.27615280633E+02  0.17418639198E+03  0.22223857433E+03  0.41800000000E+01 0.  1.
         -5    1    3    3    0  502  0.81597857445E+02 -0.96711094741E+02  0.34290608004E+03  0.36553152849E+03  0.41800000000E+01 0.  1.
        -11    1    1    2    0    0 -0.80982301646E+02  0.23878957552E+02  0.33824404323E+03  0.34862210282E+03  0.00000000000E+00 0. -1.
         11    1    1    2    0    0 -0.13577845250E+03  0.10044741782E+03  0.30984627182E+03  0.35288834505E+03  0.00000000000E+00 0.  1.
</event>
<event>
 7    1  0.2644565E-009  0.2721125E+03  0.7561462E-02  0.1100077E+00
         -1   -1    0    0    0  501 -0.00000000000E+00  0.00000000000E+00  0.15308470958E+03  0.15308470958E+03  0.00000000000E+00 0.  1.
          1   -1    0    0  501    0  0.00000000000E+00 -0.00000000000E+00 -0.56942780642E+03  0.56942780642E+03  0.00000000000E+00 0. -1.
         25    2    1    2    0    0  0.26339647362E+03  0.42588043528E+02 -0.28752230434E+03  0.41171383823E+03  0.12509102816E+03 0.  0.
          5    1    3    3  502    0  0.11740888965E+03 -0.13974940740E+02 -0.52851229083E+02  0.12957959389E+03  0.41800000000E+01 0. -1.
         -5    1    3    3    0  502  0.14598758397E+03  0.56562984268E+02 -0.23467107526E+03  0.28213424434E+03  0.41800000000E+01 0. -1.
        -11    1    1    2    0    0 -0.54381512572E+02 -0.24042846118E+02  0.84415365331E+01  0.60055531787E+02  0.00000000000E+00 0.  1.
         11    1    1    2    0    0 -0.20901496105E+03 -0.18545197410E+02 -0.13726232902E+03  0.25074314598E+03  0.00000000000E+00 0. -1.
</event>
<event>
 7    1  0.2644565E-009  0.1155333E+03  0.7561462E-02  0.1250653E+00
          2   -1    0    0  501    0  0.00000000000E+00  0.00000000000E+00  0.13725058187E+03  0.13725058187E+03  0.00000000000E+00 0. -1.
         -2   -1    0    0    0  501 -0.00000000000E+00 -0.00000000000E+00 -0.10804789800E+03  0.10804789800E+03  0.00000000000E+00 0.  1.
         25    2    1    2    0    0 -0.36763182610E+02 -0.24852766868E+02  0.48055769071E+02  0.14115662298E+03  0.12508654465E+03 0.  0.
          5    1    3    3  502    0 -0.50459876202E+02  0.39522245701E+02  0.37475917653E+02  0.74364802262E+02  0.41800000000E+01 0. -1.
         -5    1    3    3    0  502  0.13696693592E+02 -0.64375012569E+02  0.10579851418E+02  0.66791820717E+02  0.41800000000E+01 0. -1.
        -11    1    1    2    0    0 -0.19050899083E+02  0.38915280191E+02 -0.17029232741E+02  0.46554597582E+02  0.00000000000E+00 0.  1.
         11    1    1    2    0    0  0.55814081693E+02 -0.14062513323E+02 -0.18238524612E+01  0.57587259303E+02  0.00000000000E+00 0. -1.
</event>
<event>
 7    1  0.2644565E-009  0.1190375E+03  0.7561462E-02  0.1244693E+00
         -1   -1    0    0    0  501 -0.00000000000E+00  0.00000000000E+00  0.44515968227E+02  0.44515968227E+02  0.00000000000E+00 0.  1.
          1   -1    0    0  501    0  0.00000000000E+00 -0.00000000000E+00 -0.43768649718E+03  0.43768649718E+03  0.00000000000E+00 0. -1.
         25    2    1    2    0    0  0.44861601785E+02 -0.71518450708E+02 -0.25673622380E+03  0.29780754203E+03  0.12509353049E+03 0.  0.
          5    1    3    3  502    0 -0.12815180561E+02 -0.76125011561E+02 -0.77704043155E+02  0.10961129942E+03  0.41800000000E+01 0. -1.
         -5    1    3    3    0  502  0.57676782346E+02  0.46065608528E+01 -0.17903218064E+03  0.18819624261E+03  0.41800000000E+01 0. -1.
        -11    1    1    2    0    0 -0.14999378672E+02  0.71331862138E+02 -0.39377992527E+02  0.82848308444E+02  0.00000000000E+00 0.  1.
         11    1    1    2    0    0 -0.29862223113E+02  0.18658856960E+00 -0.97056312630E+02  0.10154661494E+03  0.00000000000E+00 0. -1.
</event>
<event>
 7    1  0.2644565E-009  0.8199952E+02  0.7561462E-02  0.1323471E+00
          2   -1    0    0  501    0  0.00000000000E+00  0.00000000000E+00  0.25714563317E+03  0.25714563317E+03  0.00000000000E+00 0. -1.
         -2   -1    0    0    0  501 -0.00000000000E+00 -0.00000000000E+00 -0.48636943084E+02  0.48636943084E+02  0.00000000000E+00 0.  1.
         25    2    1    2    0    0 -0.22266054618E+02  0.11056274352E+02  0.12436745721E+03  0.17813528049E+03  0.12508755075E+03 0.  0.
          5    1    3    3  502    0 -0.45770146612E+02 -0.31474475379E+02  0.11595645760E+03  0.12864261106E+03  0.41800000000E+01 0. -1.
         -5    1    3    3    0  502  0.23504091994E+02  0.42530749731E+02  0.84109996089E+01  0.49492669432E+02  0.41800000000E+01 0. -1.
        -11    1    1    2    0    0  0.18309751257E+01  0.21231535953E+02 -0.11812381954E+02  0.24365199697E+02  0.00000000000E+00 0.  1.
         11    1    1    2    0    0  0.20435079493E+02 -0.32287810305E+02  0.95953614826E+02  0.10328209606E+03  0.00000000000E+00 0. -1.
</event>
<event>
 7    1  0.2644565E-009  0.1427041E+03  0.7561462E-02  0.1209736E+00
         -1   -1    0    0    0  501 -0.00000000000E+00  0.00000000000E+00  0.81761597628E+02  0.81761597628E+02  0.00000000000E+00 0.  1.
          1   -1    0    0  501    0  0.00000000000E+00 -0.00000000000E+00 -0.30512507912E+03  0.30512507912E+03  0.00000000000E+00 0. -1.
         25    2    1    2    0    0  0.37868785534E+02 -0.10705594789E+03 -0.13275127467E+03  0.21486215593E+03  0.12509126360E+03 0.  0.
          5    1    3    3  502    0 -0.14366394545E+02 -0.10991857712E+03 -0.11417448880E+03  0.15919099592E+03  0.41800000000E+01 0. -1.
         -5    1    3    3    0  502  0.52235180079E+02  0.28626292296E+01 -0.18576785869E+02  0.55671160013E+02  0.41800000000E+01 0. -1.
        -11    1    1    2    0    0 -0.18546019538E+02  0.99555650764E+02 -0.26547593519E+02  0.10469029163E+03  0.00000000000E+00 0.  1.
         11    1    1    2    0    0 -0.19322765996E+02  0.75002971265E+01 -0.64064613306E+02  0.67334229191E+02  0.00000000000E+00 0. -1.
</event>
<event>
 7    1  0.2644565E-009  0.9328659E+02  0.7561462E-02  0.1295082E+00
         -1   -1    0    0    0  501 -0.00000000000E+00  0.00000000000E+00  0.30938099914E+03  0.30938099914E+03  0.00000000000E+00 0.  1.
          1   -1    0    0  501    0  0.00000000000E+00 -0.00000000000E+00 -0.48354527265E+02  0.48354527265E+02  0.00000000000E+00 0. -1.
         25    2    1    2    0    0  0.23321650054E+02  0.21686972022E+02  0.20802997393E+03  0.24482342209E+03  0.12509122204E+03 0.  0.
          5    1    3    3  502    0  0.29108497663E+02  0.52917880294E+02  0.37287805623E+02  0.71101754825E+02  0.41800000000E+01 0. -1.
         -5    1    3    3    0  502 -0.57868476092E+01 -0.31230908272E+02  0.17074216831E+03  0.17372166726E+03  0.41800000000E+01 0. -1.
        -11    1    1    2    0    0 -0.48591320005E+02  0.13725738657E+02  0.47026775430E+02  0.69000216586E+02  0.00000000000E+00 0.  1.
         11    1    1    2    0    0  0.25269669952E+02 -0.35412710679E+02  0.59697225065E+01  0.43911887729E+02  0.00000000000E+00 0. -1.
</event>
<event>
 7    1  0.2644565E-009  0.1171730E+03  0.7561462E-02  0.1247835E+00
         -2   -1    0    0    0  501 -0.00000000000E+00  0.00000000000E+00  0.65968836636E+02  0.65968836636E+02  0.00000000000E+00 0.  1.
          2   -1    0    0  501    0  0.00000000000E+00 -0.00000000000E+00 -0.25609349644E+03  0.25609349644E+03  0.00000000000E+00 0. -1.
         25    2    1    2    0    0  0.38904951187E+02 -0.60499779231E+02 -0.10790305095E+03  0.18017889140E+03  0.12509015144E+03 0.  0.
          5    1    3    3  502    0  0.60402806970E+02  0.61842021672E+01 -0.13158824409E+02  0.62268535442E+02  0.41800000000E+01 0.  1.
         -5    1    3    3    0  502 -0.21497855782E+02 -0.66683981399E+02 -0.94744226541E+02  0.11791035595E+03  0.41800000000E+01 0.  1.
        -11    1    1    2    0    0  0.79746730994E+01  0.55590465265E+02 -0.12191371073E+02  0.57467597549E+02  0.00000000000E+00 0.  1.
         11    1    1    2    0    0 -0.46879624287E+02  0.49093139663E+01 -0.70030237781E+02  0.84415844133E+02  0.00000000000E+00 0. -1.
</event>
<event>
 7    1  0.2644565E-009  0.1222494E+03  0.7561462E-02  0.1239432E+00
          2   -1    0    0  501    0  0.00000000000E+00  0.00000000000E+00  0.60296623795E+03  0.60296623795E+03  0.00000000000E+00 0. -1.
         -2   -1    0    0    0  501 -0.00000000000E+00 -0.00000000000E+00 -0.34940526544E+02  0.34940526544E+02  0.00000000000E+00 0.  1.
         25    2    1    2    0    0  0.17135953872E+02 -0.83477935681E+02  0.40874052316E+03  0.43586527960E+03  0.12509004765E+03 0.  0.
          5    1    3    3  502    0 -0.55014248880E+01 -0.11176681095E+03  0.34120990763E+03  0.35911524497E+03  0.41800000000E+01 0.  1.
         -5    1    3    3    0  502  0.22637378760E+02  0.28288875267E+02  0.67530615538E+02  0.76750034631E+02  0.41800000000E+01 0.  1.
        -11    1    1    2    0    0  0.13613937318E+02  0.43686742267E+02  0.13322417692E+02  0.47658761549E+02  0.00000000000E+00 0.  1.
         11    1    1    2    0    0 -0.30749891190E+02  0.39791193414E+02  0.14596277055E+03  0.15438272335E+03  0.00000000000E+00 0. -1.
</event>
<event>
 7    1  0.2644565E-009  0.1671738E+03  0.7561462E-02  0.1180828E+00
          4   -1    0    0  501    0  0.00000000000E+00  0.00000000000E+00  0.14273494413E+03  0.14273494413E+03  0.00000000000E+00 0.  1.
         -4   -1    0    0    0  501 -0.00000000000E+00 -0.00000000000E+00 -0.20988571729E+03  0.20988571729E+03  0.00000000000E+00 0. -1.
         25    2    1    2    0    0 -0.12099564679E+03  0.58278034984E+02 -0.24643794197E+02  0.18519063807E+03  0.12510787318E+03 0.  0.
          5    1    3    3  502    0  0.18491422591E+02 -0.16132819831E+02 -0.81039827940E+01  0.26179142887E+02  0.41800000000E+01 0.  1.
         -5    1    3    3    0  502 -0.13948706938E+03  0.74410854815E+02 -0.16539811403E+02  0.15901149518E+03  0.41800000000E+01 0.  1.
        -11    1    1    2    0    0  0.98950003136E+02 -0.11529351619E+02 -0.55635969968E+02  0.11410254258E+03  0.00000000000E+00 0.  1.
         11    1    1    2    0    0  0.22045643654E+02 -0.46748683365E+02  0.13128991010E+02  0.53327480771E+02  0.00000000000E+00 0. -1.
</event>
<event>
 7    1  0.2644565E-009  0.1253179E+03  0.7561462E-02  0.1234573E+00
          1   -1    0    0  501    0  0.00000000000E+00  0.00000000000E+00  0.28647286181E+03  0.28647286181E+03  0.00000000000E+00 0. -1.
         -1   -1    0    0    0  501 -0.00000000000E+00 -0.00000000000E+00 -0.86472803398E+02  0.86472803398E+02  0.00000000000E+00 0.  1.
         25    2    1    2    0    0 -0.10122753720E+02  0.11140882650E+03  0.12788078047E+03  0.21097403784E+03  0.12506859663E+03 0.  0.
          5    1    3    3  502    0  0.18784817504E+01  0.71333374923E+01 -0.24481895200E+02  0.25908469465E+02  0.41800000000E+01 0.  1.
         -5    1    3    3    0  502 -0.12001235471E+02  0.10427548901E+03  0.15236267567E+03  0.18506556837E+03  0.41800000000E+01 0.  1.
        -11    1    1    2    0    0 -0.34326738915E+02 -0.60215692946E+02  0.10021512581E+02  0.70033459117E+02  0.00000000000E+00 0.  1.
         11    1    1    2    0    0  0.44449492635E+02 -0.51193133553E+02  0.62097765363E+02  0.91938168252E+02  0.00000000000E+00 0. -1.
</event>
<event>
 7    1  0.3422883E-009  0.1027102E+03  0.7561462E-02  0.1274698E+00
          2   -1    0    0  501    0  0.00000000000E+00  0.00000000000E+00  0.30421622790E+03  0.30421622790E+03  0.00000000000E+00 0. -1.
         -2   -1    0    0    0  501 -0.00000000000E+00 -0.00000000000E+00 -0.80685958213E+02  0.80685958213E+02  0.00000000000E+00 0.  1.
         25    2    1    2    0    0 -0.58508952941E+02 -0.83066893574E+02  0.17971673758E+03  0.24140403896E+03  0.12511753624E+03 0.  0.
          5    1    3    3  502    0 -0.48463671862E+02 -0.76125788445E+02  0.36223809142E+02  0.97331905897E+02  0.41800000000E+01 0. -1.
         -5    1    3    3    0  502 -0.10045281079E+02 -0.69411051292E+01  0.14349292844E+03  0.14407213306E+03  0.41800000000E+01 0. -1.
        -11    1    1    2    0    0  0.13828602576E+02  0.28267811933E+02 -0.28431845601E+02  0.42410721345E+02  0.00000000000E+00 0.  1.
         11    1    1    2    0    0  0.44680350365E+02  0.54799081641E+02  0.72245377709E+02  0.10108742581E+03  0.00000000000E+00 0. -1.
</event>
<event>
 7    1  0.2644565E-009  0.1923480E+03  0.7561462E-02  0.1156360E+00
         -3   -1    0    0    0  501 -0.00000000000E+00  0.00000000000E+00  0.13572461486E+04  0.13572461486E+04  0.00000000000E+00 0.  1.
          3   -1    0    0  501    0  0.00000000000E+00 -0.00000000000E+00 -0.29709659476E+02  0.29709659476E+02  0.00000000000E+00 0. -1.
         25    2    1    2    0    0  0.16088955627E+03  0.50980337286E+02  0.67019007470E+03  0.70234351755E+03  0.12508891362E+03 0.  0.
          5    1    3    3  502    0  0.12427297574E+03 -0.12980510413E+02  0.52229630158E+03  0.53705043078E+03  0.41800000000E+01 0.  1.
         -5    1    3    3    0  502  0.36616580533E+02  0.63960847699E+02  0.14789377312E+03  0.16529308678E+03  0.41800000000E+01 0.  1.
        -11    1    1    2    0    0 -0.49370820386E+02  0.20434466206E+02  0.27052285838E+03  0.27574927420E+03  0.00000000000E+00 0. -1.
         11    1    1    2    0    0 -0.11151873589E+03 -0.71414803492E+02  0.38682355608E+03  0.40886301636E+03  0.00000000000E+00 0.  1.
</event>
<event>
 7    1  0.2644565E-009  0.1203696E+03  0.7561462E-02  0.1242489E+00
         -2   -1    0    0    0  501 -0.00000000000E+00  0.00000000000E+00  0.31910006154E+03  0.31910006154E+03  0.00000000000E+00 0. -1.
          2   -1    0    0  501    0  0.00000000000E+00 -0.00000000000E+00 -0.50409555340E+02  0.50409555340E+02  0.00000000000E+00 0.  1.
         25    2    1    2    0    0 -0.39926117252E+02  0.48439094930E+02  0.12303214821E+03  0.18634702431E+03  0.12509141945E+03 0.  0.
          5    1    3    3  502    0  0.22188322189E+02 -0.29962390493E+02  0.49600238202E+02  0.62191016356E+02  0.41800000000E+01 0. -1.
         -5    1    3    3    0  502 -0.62114439441E+02  0.78401485423E+02  0.73431910006E+02  0.12415600795E+03  0.41800000000E+01 0. -1.
        -11    1    1    2    0    0  0.42224840358E+02  0.10993722840E+02  0.29520834636E+02  0.52680914597E+02  0.00000000000E+00 0.  1.
         11    1    1    2    0    0 -0.22987231064E+01 -0.59432817770E+02  0.11613752336E+03  0.13048167797E+03  0.00000000000E+00 0. -1.
</event>
<event>
 7    1  0.2644565E-009  0.2686049E+03  0.7561462E-02  0.1102081E+00
          2   -1    0    0  501    0  0.00000000000E+00  0.00000000000E+00  0.11109072628E+04  0.11109072628E+04  0.00000000000E+00 0.  1.
         -2   -1    0    0    0  501 -0.00000000000E+00 -0.00000000000E+00 -0.11524494692E+03  0.11524494692E+03  0.00000000000E+00 0. -1.
         25    2    1    2    0    0 -0.79736400809E+02 -0.23901559065E+03  0.11195426134E+03  0.30276777428E+03  0.12509285481E+03 0.  0.
          5    1    3    3  502    0  0.24843703618E+02 -0.33433323188E+02 -0.82043590477E+01  0.42658886721E+02  0.41800000000E+01 0.  1.
         -5    1    3    3    0  502 -0.10458010443E+03 -0.20558226746E+03  0.12015862038E+03  0.26010888756E+03  0.41800000000E+01 0.  1.
        -11    1    1    2    0    0  0.60861688763E+02  0.23810384927E+03  0.84913601558E+03  0.88398504578E+03  0.00000000000E+00 0.  1.
         11    1    1    2    0    0  0.18874712047E+02  0.91174137826E+00  0.34572038921E+02  0.39399389619E+02  0.00000000000E+00 0. -1.
</event>
<event>
 7    1  0.3535190E-009  0.9000452E+02  0.7561462E-02  0.1302841E+00
         -2   -1    0    0    0  501 -0.00000000000E+00  0.00000000000E+00  0.34404948865E+02  0.34404948865E+02  0.00000000000E+00 0. -1.
          2   -1    0    0  501    0  0.00000000000E+00 -0.00000000000E+00 -0.40284225487E+03  0.40284225487E+03  0.00000000000E+00 0.  1.
         25    2    1    2    0    0 -0.40500330545E+02 -0.67213188147E+01 -0.17188909788E+03  0.21651688884E+03  0.12509295857E+03 0.  0.
          5    1    3    3  502    0 -0.68869221693E+02 -0.11193050265E+02 -0.17390373819E+03  0.18742528279E+03  0.41800000000E+01 0. -1.
         -5    1    3    3    0  502  0.28368891148E+02  0.44717314504E+01  0.20146403164E+01  0.29091606053E+02  0.41800000000E+01 0. -1.
        -11    1    1    2    0    0  0.40006816560E+02  0.34789077103E+02 -0.18107360083E+03  0.18867557917E+03  0.00000000000E+00 0.  1.
         11    1    1    2    0    0  0.49351398579E+00 -0.28067758288E+02 -0.15474607296E+02  0.32054735724E+02  0.00000000000E+00 0. -1.
</event>
<event>
 7    1  0.2644565E-009  0.5462935E+02  0.7561462E-02  0.1421860E+00
         -3   -1    0    0    0  501 -0.00000000000E+00  0.00000000000E+00  0.46399323583E+02  0.46399323583E+02  0.00000000000E+00 0.  1.
          3   -1    0    0  501    0  0.00000000000E+00 -0.00000000000E+00 -0.25996747809E+03  0.25996747809E+03  0.00000000000E+00 0. -1.
         25    2    1    2    0    0  0.19218133294E+02  0.18035724710E+01 -0.12220260396E+03  0.17593576493E+03  0.12508927790E+03 0.  0.
          5    1    3    3  502    0  0.93123175742E+01 -0.62114703156E+01 -0.14713833562E+03  0.14762270771E+03  0.41800000000E+01 0. -1.
         -5    1    3    3    0  502  0.99058157199E+01  0.80150427866E+01  0.24935731659E+02  0.28313057223E+02  0.41800000000E+01 0. -1.
        -11    1    1    2    0    0  0.28716264362E+02  0.15871176018E+02 -0.65293779740E+02  0.73073906011E+02  0.00000000000E+00 0. -1.
         11    1    1    2    0    0 -0.47934397656E+02 -0.17674748489E+02 -0.26071770808E+02  0.57357130732E+02  0.00000000000E+00 0.  1.
</event>
<event>
 7    1  0.2644565E-009  0.3301136E+03  0.7561462E-02  0.1071087E+00
          2   -1    0    0  501    0  0.00000000000E+00  0.00000000000E+00  0.13803676121E+04  0.13803676121E+04  0.00000000000E+00 0. -1.
         -2   -1    0    0    0  501 -0.00000000000E+00 -0.00000000000E+00 -0.10469034865E+03  0.10469034865E+03  0.00000000000E+00 0.  1.
         25    2    1    2    0    0 -0.14383297638E+03 -0.29516500039E+03  0.33825449627E+03  0.48772246086E+03  0.12508713772E+03 0.  0.
          5    1    3    3  502    0 -0.13861565971E+02 -0.49565368722E+02  0.13171286315E+03  0.14147303455E+03  0.41800000000E+01 0.  1.
         -5    1    3    3    0  502 -0.12997141041E+03 -0.24559963167E+03  0.20654163313E+03  0.34624942630E+03  0.41800000000E+01 0.  1.
        -11    1    1    2    0    0  0.32930723376E+02  0.11029102280E+03  0.44770447034E+03  0.46226381539E+03  0.00000000000E+00 0. -1.
         11    1    1    2    0    0  0.11090225301E+03  0.18487397759E+03  0.48971829683E+03  0.53507168451E+03  0.00000000000E+00 0.  1.
</event>
<event>
 7    1  0.2644565E-009  0.2490673E+03  0.7561462E-02  0.1113896E+00
         -1   -1    0    0    0  501 -0.00000000000E+00  0.00000000000E+00  0.37886418934E+03  0.37886418934E+03  0.00000000000E+00 0.  1.
          1   -1    0    0  501    0  0.00000000000E+00 -0.00000000000E+00 -0.23318462072E+03  0.23318462072E+03  0.00000000000E+00 0. -1.
         25    2    1    2    0    0  0.20905639747E+03  0.92333648911E+02 -0.85860461859E+02  0.27430034078E+03  0.12505430018E+03 0.  0.
          5    1    3    3  502    0  0.22592815266E+03  0.83675520031E+02 -0.81745959134E+02  0.25445038230E+03  0.41800000000E+01 0.  1.
         -5    1    3    3    0  502 -0.16871755190E+02  0.86581288807E+01 -0.41145027249E+01  0.19849958478E+02  0.41800000000E+01 0.  1.
        -11    1    1    2    0    0 -0.11559764966E+03 -0.15233409911E+02  0.70613014941E+02  0.13631240319E+03  0.00000000000E+00 0. -1.
         11    1    1    2    0    0 -0.93458747813E+02 -0.77100239001E+02  0.16092701554E+03  0.20143606610E+03  0.00000000000E+00 0.  1.
</event>
<event>
 7    1  0.2644565E-009  0.1582493E+03  0.7561462E-02  0.1190688E+00
          2   -1    0    0  501    0  0.00000000000E+00  0.00000000000E+00  0.28198648482E+03  0.28198648482E+03  0.00000000000E+00 0.  1.
         -2   -1    0    0    0  501 -0.00000000000E+00 -0.00000000000E+00 -0.16129993025E+03  0.16129993025E+03  0.00000000000E+00 0. -1.
         25    2    1    2    0    0 -0.12475573774E+03 -0.76395152607E+02 -0.51809776609E+02  0.19933174725E+03  0.12509468042E+03 0.  0.
          5    1    3    3  502    0 -0.10131432829E+03 -0.95697206343E+02 -0.34201770679E+00  0.13942789461E+03  0.41800000000E+01 0. -1.
         -5    1    3    3    0  502 -0.23441409446E+02  0.19302053736E+02 -0.51467758902E+02  0.59903852645E+02  0.41800000000E+01 0. -1.
        -11    1    1    2    0    0  0.44777936181E+02  0.30928687653E+02  0.73535974711E+01  0.54915596002E+02  0.00000000000E+00 0.  1.
         11    1    1    2    0    0  0.79977801557E+02  0.45466464954E+02  0.16514273370E+03  0.18903907181E+03  0.00000000000E+00 0. -1.
</event>
<event>
 7    1  0.2644565E-009  0.1216447E+03  0.7561462E-02  0.1240408E+00
         -2   -1    0    0    0  501 -0.00000000000E+00  0.00000000000E+00  0.55186786513E+02  0.55186786513E+02  0.00000000000E+00 0.  1.
          2   -1    0    0  501    0  0.00000000000E+00 -0.00000000000E+00 -0.53764499165E+03  0.53764499165E+03  0.00000000000E+00 0. -1.
         25    2    1    2    0    0  0.44541740255E+02  0.75047581315E+02 -0.43140751625E+03  0.45757249029E+03  0.12507610767E+03 0.  0.
          5    1    3    3  502    0 -0.31311782306E+01  0.69987351788E+02 -0.38277343700E+03  0.38915422414E+03  0.41800000000E+01 0.  1.
         -5    1    3    3    0  502  0.47672918486E+02  0.50602295269E+01 -0.48634079248E+02  0.68418266158E+02  0.41800000000E+01 0.  1.
        -11    1    1    2    0    0 -0.68721843685E+02 -0.73697296769E+02 -0.37574586184E+02  0.10754456229E+03  0.00000000000E+00 0.  1.
         11    1    1    2    0    0  0.24180103430E+02 -0.13502845463E+01 -0.13476102707E+02  0.27714725588E+02  0.00000000000E+00 0. -1.
</event>
<event>
 7    1  0.2644565E-009  0.2155773E+03  0.7561462E-02  0.1137224E+00
         -1   -1    0    0    0  501 -0.00000000000E+00  0.00000000000E+00  0.52639093234E+03  0.52639093234E+03  0.00000000000E+00 0.  1.
          1   -1    0    0  501    0  0.00000000000E+00 -0.00000000000E+00 -0.11206256938E+03  0.11206256938E+03  0.00000000000E+00 0. -1.
         25    2    1    2    0    0  0.19476591599E+03 -0.68409089345E+02  0.12715342103E+03  0.27281662126E+03  0.12508937133E+03 0.  0.
          5    1    3    3  502    0  0.74437494232E+02 -0.38589325224E+02 -0.13779327972E+02  0.85073020683E+02  0.41800000000E+01 0.  1.
         -5    1    3    3    0  502  0.12032842175E+03 -0.29819764121E+02  0.14093274901E+03  0.18774360057E+03  0.41800000000E+01 0.  1.
        -11    1    1    2    0    0 -0.39400479191E+02 -0.20233484765E+02  0.83846363442E+02  0.94826179554E+02  0.00000000000E+00 0.  1.
         11    1    1    2    0    0 -0.15536543680E+03  0.88642574110E+02  0.20332857849E+03  0.27081070091E+03  0.00000000000E+00 0. -1.
</event>
<event>
 7    1  0.2644565E-009  0.1235173E+03  0.7561462E-02  0.1237405E+00
         -2   -1    0    0    0  501 -0.00000000000E+00  0.00000000000E+00  0.38700001940E+02  0.38700001940E+02  0.00000000000E+00 0. -1.
          2   -1    0    0  501    0  0.00000000000E+00 -0.00000000000E+00 -0.44899270971E+03  0.44899270971E+03  0.00000000000E+00 0.  1.
         25    2    1    2    0    0 -0.43324596607E+02  0.51278463817E+02 -0.16352378396E+03  0.21655009587E+03  0.12508962618E+03 0.  0.
          5    1    3    3  502    0  0.34501556791E+02  0.46104115464E+02 -0.10165336503E+03  0.11690520051E+03  0.41800000000E+01 0.  1.
         -5    1    3    3    0  502 -0.77826153398E+02  0.51743483525E+01 -0.61870418930E+02  0.99644895365E+02  0.41800000000E+01 0.  1.
        -11    1    1    2    0    0  0.68797432424E+02 -0.21667014293E+02 -0.17793325809E+03  0.19199685036E+03  0.00000000000E+00 0.  1.
         11    1    1    2    0    0 -0.25472835816E+02 -0.29611449524E+02 -0.68835665725E+02  0.79145765415E+02  0.00000000000E+00 0. -1.
</event>
<event>
 7    1  0.2644565E-009  0.8146093E+02  0.7561462E-02  0.1324956E+00
         -1   -1    0    0    0  501 -0.00000000000E+00  0.00000000000E+00  0.26391610825E+02  0.26391610825E+02  0.00000000000E+00 0.  1.
          1   -1    0    0  501    0  0.00000000000E+00 -0.00000000000E+00 -0.51207049589E+03  0.51207049589E+03  0.00000000000E+00 0. -1.
         25    2    1    2    0    0 -0.33280149080E+02  0.74568378635E+01 -0.28221912624E+03  0.31058024229E+03  0.12509707803E+03 0.  0.
          5    1    3    3  502    0 -0.17058579903E+02 -0.21522524179E+02 -0.27492145501E+03  0.27632135824E+03  0.41800000000E+01 0. -1.
         -5    1    3    3    0  502 -0.16221569177E+02  0.28979362043E+02 -0.72976712284E+01  0.34258884049E+02  0.41800000000E+01 0. -1.
        -11    1    1    2    0    0  0.66533811748E+02  0.35870024742E+01 -0.11790367679E+03  0.13542854829E+03  0.00000000000E+00 0.  1.
         11    1    1    2    0    0 -0.33253662667E+02 -0.11043840338E+02 -0.85556082034E+02  0.92453316128E+02  0.00000000000E+00 0. -1.
</event>
<event>
 7    1  0.2644565E-009  0.5370409E+02  0.7561462E-02  0.1426329E+00
          3   -1    0    0  501    0  0.00000000000E+00  0.00000000000E+00  0.21333766118E+03  0.21333766118E+03  0.00000000000E+00 0. -1.
         -3   -1    0    0    0  501 -0.00000000000E+00 -0.00000000000E+00 -0.61633558739E+02  0.61633558739E+02  0.00000000000E+00 0.  1.
         25    2    1    2    0    0 -0.28201795319E+02  0.24006758183E+02  0.77993465927E+02  0.15199325096E+03  0.12508917584E+03 0.  0.
          5    1    3    3  502    0 -0.11355525169E+02  0.30704630963E+01 -0.34275074374E+02  0.36477785279E+02  0.41800000000E+01 0.  1.
         -5    1    3    3    0  502 -0.16846270149E+02  0.20936295087E+02  0.11226854030E+03  0.11551546568E+03  0.41800000000E+01 0.  1.
        -11    1    1    2    0    0  0.34205592367E+02  0.80289705562E+01  0.82116991023E+02  0.89317899282E+02  0.00000000000E+00 0. -1.
         11    1    1    2    0    0 -0.60037970486E+01 -0.32035728739E+02 -0.84063545063E+01  0.33660069681E+02  0.00000000000E+00 0.  1.
</event>
<event>
 7    1  0.2644565E-009  0.3693042E+03  0.7561462E-02  0.1054959E+00
         -2   -1    0    0    0  501 -0.00000000000E+00  0.00000000000E+00  0.59799371754E+03  0.59799371754E+03  0.00000000000E+00 0. -1.
          2   -1    0    0  501    0  0.00000000000E+00 -0.00000000000E+00 -0.24990770052E+03  0.24990770052E+03  0.00000000000E+00 0.  1.
         25    2    1    2    0    0 -0.13748721904E+03  0.32741731661E+03  0.29252866422E+03  0.47678675247E+03  0.12509098019E+03 0.  0.
          5    1    3    3  502    0 -0.35998844973E+02  0.22364219290E+03  0.21424343995E+03  0.31181640631E+03  0.41800000000E+01 0. -1.
         -5    1    3    3    0  502 -0.10148837407E+03  0.10377512371E+03  0.78285224270E+02  0.16497034616E+03  0.41800000000E+01 0. -1.
        -11    1    1    2    0    0  0.20430346732E+02 -0.16703412391E+03  0.29718988166E+02  0.17088304736E+03  0.00000000000E+00 0.  1.
         11    1    1    2    0    0  0.11705687231E+03 -0.16038319270E+03  0.25838364637E+02  0.20023161824E+03  0.00000000000E+00 0. -1.
</event>
<event>
 7    1  0.2644565E-009  0.1029713E+03  0.7561462E-02  0.1274169E+00
         -4   -1    0    0    0  501 -0.00000000000E+00  0.00000000000E+00  0.11121204520E+04  0.11121204520E+04  0.00000000000E+00 0.  1.
          4   -1    0    0  501    0  0.00000000000E+00 -0.00000000000E+00 -0.13877631137E+02  0.13877631137E+02  0.00000000000E+00 0. -1.
         25    2    1    2    0    0  0.13766982183E+02 -0.42805308630E+02  0.80027039169E+03  0.81123487540E+03  0.12508996364E+03 0.  0.
          5    1    3    3  502    0 -0.25362304205E+02 -0.69860393451E+02  0.63039105690E+03  0.63477088627E+03  0.41800000000E+01 0.  1.
         -5    1    3    3    0  502  0.39129286388E+02  0.27055084822E+02  0.16987933479E+03  0.17646398912E+03  0.41800000000E+01 0.  1.
        -11    1    1    2    0    0  0.93012316943E+01  0.56272972976E+02  0.27049063054E+03  0.27643867603E+03  0.00000000000E+00 0.  1.
         11    1    1    2    0    0 -0.23068213877E+02 -0.13467664346E+02  0.27481798650E+02  0.38324531719E+02  0.00000000000E+00 0. -1.
</event>
<event>
 7    1  0.2644565E-009  0.1151152E+03  0.7561462E-02  0.1251380E+00
          1   -1    0    0  501    0  0.00000000000E+00  0.00000000000E+00  0.14742107136E+04  0.14742107136E+04  0.00000000000E+00 0. -1.
         -1   -1    0    0    0  501 -0.00000000000E+00 -0.00000000000E+00 -0.15079451821E+02  0.15079451821E+02  0.00000000000E+00 0.  1.
         25    2    1    2    0    0 -0.44716194275E+02  0.40361155314E+02  0.11979689436E+04  0.12059861315E+04  0.12507757042E+03 0.  0.
          5    1    3    3  502    0 -0.66798360996E+02 -0.16359421531E+02  0.84311331426E+03  0.84592386466E+03  0.41800000000E+01 0. -1.
         -5    1    3    3    0  502  0.22082166721E+02  0.56720576845E+02  0.35485562934E+03  0.36006226684E+03  0.41800000000E+01 0. -1.
        -11    1    1    2    0    0 -0.97085030958E+01  0.18042610820E+02  0.17659704711E+02  0.27049140615E+02  0.00000000000E+00 0.  1.
         11    1    1    2    0    0  0.54424697371E+02 -0.58403766134E+02  0.24350261342E+03  0.25625489327E+03  0.00000000000E+00 0. -1.
</event>
<event>
 7    1  0.2644565E-009  0.9797580E+02  0.7561462E-02  0.1284611E+00
          1   -1    0    0  501    0  0.00000000000E+00  0.00000000000E+00  0.10868062707E+03  0.10868062707E+03  0.00000000000E+00 0. -1.
         -1   -1    0    0    0  501 -0.00000000000E+00 -0.00000000000E+00 -0.21371061644E+03  0.21371061644E+03  0.00000000000E+00 0.  1.
         25    2    1    2    0    0 -0.22879342825E+02  0.41413094417E+02 -0.16179608413E+03  0.20990415857E+03  0.12507307555E+03 0.  0.
          5    1    3    3  502    0 -0.66709836475E+02 -0.53758835156E+01 -0.62701043090E+02  0.91804115434E+02  0.41800000000E+01 0. -1.
         -5    1    3    3    0  502  0.43830493650E+02  0.46788977933E+02 -0.99095041040E+02  0.11810004313E+03  0.41800000000E+01 0. -1.
        -11    1    1    2    0    0  0.12511414405E+02 -0.49777565420E+02  0.74400380958E+02  0.90386714711E+02  0.00000000000E+00 0. -1.
         11    1    1    2    0    0  0.10367928420E+02  0.83644710032E+01 -0.17634286199E+02  0.22100370238E+02  0.00000000000E+00 0.  1.
</event>
<event>
 7    1  0.2644565E-009  0.1413083E+03  0.7561462E-02  0.1211579E+00
         -2   -1    0    0    0  501 -0.00000000000E+00  0.00000000000E+00  0.23582918153E+02  0.23582918153E+02  0.00000000000E+00 0.  1.
          2   -1    0    0  501    0  0.00000000000E+00 -0.00000000000E+00 -0.90696917256E+03  0.90696917256E+03  0.00000000000E+00 0. -1.
         25    2    1    2    0    0  0.13031411546E+02 -0.93297802317E+02 -0.39141795148E+03  0.42157921034E+03  0.12508685081E+03 0.  0.
          5    1    3    3  502    0  0.21453168163E+02  0.25894760866E+02 -0.55604648103E+02  0.65116252619E+02  0.41800000000E+01 0. -1.
         -5    1    3    3    0  502 -0.84217566166E+01 -0.11919256318E+03 -0.33581330338E+03  0.35646295772E+03  0.41800000000E+01 0. -1.
        -11    1    1    2    0    0  0.31454075855E+02  0.74511455500E+02 -0.34145264714E+03  0.35090059294E+03  0.00000000000E+00 0.  1.
         11    1    1    2    0    0 -0.44485487401E+02  0.18786346817E+02 -0.15051565579E+03  0.15807228743E+03  0.00000000000E+00 0. -1.
</event>
<event>
 7    1  0.2644565E-009  0.1901595E+03  0.7561462E-02  0.1158318E+00
         -1   -1    0    0    0  501 -0.00000000000E+00  0.00000000000E+00  0.44354403184E+02  0.44354403184E+02  0.00000000000E+00 0.  1.
          1   -1    0    0  501    0  0.00000000000E+00 -0.00000000000E+00 -0.99363587757E+03  0.99363587757E+03  0.00000000000E+00 0. -1.
         25    2    1    2    0    0  0.18910590332E+00  0.17982621952E+03 -0.50326075148E+03  0.54887681988E+03  0.12512743274E+03 0.  0.
          5    1    3    3  502    0 -0.19108636724E+02  0.59782654906E+02 -0.52328772626E+02  0.81822238233E+02  0.41800000000E+01 0. -1.
         -5    1    3    3    0  502  0.19297742627E+02  0.12004356461E+03 -0.45093197886E+03  0.46705458164E+03  0.41800000000E+01 0. -1.
        -11    1    1    2    0    0 -0.31369945025E+02 -0.14768738079E+03 -0.29212295372E+03  0.32883347759E+03  0.00000000000E+00 0.  1.
         11    1    1    2    0    0  0.31180839121E+02 -0.32138838730E+02 -0.15389776918E+03  0.16027998329E+03  0.00000000000E+00 0. -1.
</event>
<event>
 7    1  0.2644565E-009  0.1453262E+03  0.7561462E-02  0.1206337E+00
         -1   -1    0    0    0  501 -0.00000000000E+00  0.00000000000E+00  0.39408301299E+02  0.39408301299E+02  0.00000000000E+00 0.  1.
          1   -1    0    0  501    0  0.00000000000E+00 -0.00000000000E+00 -0.63182688927E+03  0.63182688927E+03  0.00000000000E+00 0. -1.
         25    2    1    2    0    0 -0.11427056188E+03  0.11094891229E+02 -0.33805135494E+03  0.37829294831E+03  0.12508388482E+03 0.  0.
          5    1    3    3  502    0 -0.10320187207E+03  0.56921084343E+02 -0.27688177234E+03  0.30095119953E+03  0.41800000000E+01 0. -1.
         -5    1    3    3    0  502 -0.11068689808E+02 -0.45826193114E+02 -0.61169582592E+02  0.77341748777E+02  0.41800000000E+01 0. -1.
        -11    1    1    2    0    0  0.14743373182E+02 -0.20686269794E+02 -0.73330087909E+01  0.26439777395E+02  0.00000000000E+00 0.  1.
         11    1    1    2    0    0  0.99527188699E+02  0.95913785645E+01 -0.24703422424E+03  0.26650246487E+03  0.00000000000E+00 0. -1.
</event>
<event>
 7    1  0.2644565E-009  0.8803515E+02  0.7561462E-02  0.1307681E+00
         -2   -1    0    0    0  501 -0.00000000000E+00  0.00000000000E+00  0.13139003851E+02  0.13139003851E+02  0.00000000000E+00 0.  1.
          2   -1    0    0  501    0  0.00000000000E+00 -0.00000000000E+00 -0.79784086209E+03  0.79784086209E+03  0.00000000000E+00 0. -1.
         25    2    1    2    0    0  0.15738265100E+02  0.15698975646E+02 -0.68005086875E+03  0.69181792408E+03  0.12509478473E+03 0.  0.
          5    1    3    3  502    0 -0.30029841673E+02  0.52220191812E+02 -0.46480271212E+03  0.46870862316E+03  0.41800000000E+01 0. -1.
         -5    1    3    3    0  502  0.45768106773E+02 -0.36521216166E+02 -0.21524815662E+03  0.22310930092E+03  0.41800000000E+01 0. -1.
        -11    1    1    2    0    0 -0.62242891185E+01 -0.34955472738E+02 -0.65973650788E+02  0.74920954663E+02  0.00000000000E+00 0. -1.
         11    1    1    2    0    0 -0.95139759819E+01  0.19256497091E+02 -0.38677338711E+02  0.44240987206E+02  0.00000000000E+00 0.  1.
</event>
<event>
 7    1  0.2644565E-009  0.9680666E+02  0.7561462E-02  0.1287158E+00
         -3   -1    0    0    0  501 -0.00000000000E+00  0.00000000000E+00  0.76933574998E+02  0.76933574998E+02  0.00000000000E+00 0.  1.
          3   -1    0    0  501    0  0.00000000000E+00 -0.00000000000E+00 -0.16231465305E+03  0.16231465305E+03  0.00000000000E+00 0. -1.
         25    2    1    2    0    0 -0.19218669725E+02  0.12071731664E+01 -0.28531322995E+02  0.12974010943E+03  0.12509054749E+03 0.  0.
          5    1    3    3  502    0 -0.57884789781E+02 -0.38804082193E+02 -0.23728898512E+02  0.73735600000E+02  0.41800000000E+01 0. -1.
         -5    1    3    3    0  502  0.38666120056E+02  0.40011255360E+02 -0.48024244830E+01  0.56004509430E+02  0.41800000000E+01 0. -1.
        -11    1    1    2    0    0  0.21479226249E+02 -0.31224891336E+02 -0.67636659893E+02  0.77531082545E+02  0.00000000000E+00 0. -1.
         11    1    1    2    0    0 -0.22605565241E+01  0.30017718170E+02  0.10786904837E+02  0.31977036071E+02  0.00000000000E+00 0.  1.
</event>
<event>
 7    1  0.2644565E-009  0.1081005E+03  0.7561462E-02  0.1264128E+00
          3   -1    0    0  501    0  0.00000000000E+00  0.00000000000E+00  0.18102614749E+03  0.18102614749E+03  0.00000000000E+00 0. -1.
         -3   -1    0    0    0  501 -0.00000000000E+00 -0.00000000000E+00 -0.10051006145E+03  0.10051006145E+03  0.00000000000E+00 0.  1.
         25    2    1    2    0    0 -0.81332485604E+02 -0.60167010397E+01  0.43395822274E+02  0.15550990971E+03  0.12509580617E+03 0.  0.
          5    1    3    3  502    0 -0.69723223180E+01 -0.22193173997E+02 -0.37525566300E+02  0.44348514932E+02  0.41800000000E+01 0.  1.
         -5    1    3    3    0  502 -0.74360163286E+02  0.16176472957E+02  0.80921388573E+02  0.11116139478E+03  0.41800000000E+01 0.  1.
        -11    1    1    2    0    0  0.14077739185E+02 -0.34897234897E+02 -0.28514065681E+01  0.37737650475E+02  0.00000000000E+00 0.  1.
         11    1    1    2    0    0  0.67254746419E+02  0.40913935936E+02  0.39971670335E+02  0.88288648756E+02  0.00000000000E+00 0. -1.
</event>
<event>
 7    1  0.2644565E-009  0.1073694E+03  0.7561462E-02  0.1265520E+00
         -2   -1    0    0    0  501 -0.00000000000E+00  0.00000000000E+00  0.36473586617E+03  0.36473586617E+03  0.00000000000E+00 0.  1.
          2   -1    0    0  501    0  0.00000000000E+00 -0.00000000000E+00 -0.37260834595E+02  0.37260834595E+02  0.00000000000E+00 0. -1.
         25    2    1    2    0    0  0.25942336143E+02  0.25545249750E+02  0.21429605879E+03  0.25079293099E+03  0.12509487932E+03 0.  0.
          5    1    3    3  502    0  0.72077698570E+02  0.30489171096E+02  0.16663294456E+03  0.18414340824E+03  0.41800000000E+01 0.  1.
         -5    1    3    3    0  502 -0.46135362428E+02 -0.49439213469E+01  0.47663114227E+02  0.66649522747E+02  0.41800000000E+01 0.  1.
        -11    1    1    2    0    0 -0.41854303239E+02 -0.47085609107E+02  0.10628090379E+03  0.12354945485E+03  0.00000000000E+00 0.  1.
         11    1    1    2    0    0  0.15911967097E+02  0.21540359357E+02  0.68980690030E+01  0.27654314927E+02  0.00000000000E+00 0. -1.
</event>
<event>
 7    1  0.3121373E-009  0.2258170E+03  0.7561462E-02  0.1129619E+00
         -1   -1    0    0    0  501 -0.00000000000E+00  0.00000000000E+00  0.81304867586E+03  0.81304867586E+03  0.00000000000E+00 0.  1.
          1   -1    0    0  501    0  0.00000000000E+00 -0.00000000000E+00 -0.65827752961E+02  0.65827752961E+02  0.00000000000E+00 0. -1.
         25    2    1    2    0    0  0.17752928166E+03  0.96000817842E+02  0.33007325845E+03  0.40660658090E+03  0.12509097816E+03 0.  0.
          5    1    3    3  502    0  0.13839312869E+03  0.13820438884E+02  0.14880738566E+03  0.20372720247E+03  0.41800000000E+01 0.  1.
         -5    1    3    3    0  502  0.39136152975E+02  0.82180378958E+02  0.18126587279E+03  0.20287937843E+03  0.41800000000E+01 0.  1.
        -11    1    1    2    0    0 -0.72206107647E+02 -0.90675363437E+02  0.21344726561E+03  0.24288984893E+03  0.00000000000E+00 0.  1.
         11    1    1    2    0    0 -0.10532317402E+03 -0.53254544048E+01  0.20370039883E+03  0.22937999898E+03  0.00000000000E+00 0. -1.
</event>
<event>
 7    1  0.2644565E-009  0.1051094E+03  0.7561462E-02  0.1269904E+00
          1   -1    0    0  501    0  0.00000000000E+00  0.00000000000E+00  0.31562844785E+02  0.31562844785E+02  0.00000000000E+00 0. -1.
         -1   -1    0    0    0  501 -0.00000000000E+00 -0.00000000000E+00 -0.56599929483E+03  0.56599929483E+03  0.00000000000E+00 0.  1.
         25    2    1    2    0    0 -0.61531393412E+02  0.36147612511E+02 -0.34855421240E+03  0.37713506211E+03  0.12509218130E+03 0.  0.
          5    1    3    3  502    0 -0.60667883667E+02  0.14158274812E+01 -0.33356656652E+03  0.33906743191E+03  0.41800000000E+01 0.  1.
         -5    1    3    3    0  502 -0.86350974462E+00  0.34731785030E+02 -0.14987645878E+02  0.38067630205E+02  0.41800000000E+01 0.  1.
        -11    1    1    2    0    0 -0.15867818390E+02 -0.33367723178E+02 -0.89194346941E+02  0.96544415358E+02  0.00000000000E+00 0.  1.
         11    1    1    2    0    0  0.77399211802E+02 -0.27798893325E+01 -0.96687890704E+02  0.12388266215E+03  0.00000000000E+00 0. -1.
</event>
<event>
 7    1  0.2644565E-009  0.1039046E+03  0.7561462E-02  0.1272293E+00
          1   -1    0    0  501    0  0.00000000000E+00  0.00000000000E+00  0.66495262807E+03  0.66495262807E+03  0.00000000000E+00 0. -1.
         -1   -1    0    0    0  501 -0.00000000000E+00 -0.00000000000E+00 -0.22793990816E+02  0.22793990816E+02  0.00000000000E+00 0.  1.
         25    2    1    2    0    0  0.22054503450E+01  0.15953270336E+02  0.49600162140E+03  0.51178454807E+03  0.12508574806E+03 0.  0.
          5    1    3    3  502    0  0.58021156735E+02 -0.80330692940E+01  0.16287448139E+03  0.17313738452E+03  0.41800000000E+01 0.  1.
         -5    1    3    3    0  502 -0.55815706390E+02  0.23986339630E+02  0.33312714001E+03  0.33864716355E+03  0.41800000000E+01 0.  1.
        -11    1    1    2    0    0 -0.42906288996E+02 -0.19904596627E+02  0.39120978911E+02  0.61380726562E+02  0.00000000000E+00 0.  1.
         11    1    1    2    0    0  0.40700838651E+02  0.39513262906E+01  0.10703603695E+03  0.11458134426E+03  0.00000000000E+00 0. -1.
</event>
<event>
 7    1  0.2644565E-009  0.1163916E+03  0.7561462E-02  0.1249171E+00
          2   -1    0    0  501    0  0.00000000000E+00  0.00000000000E+00  0.72024632159E+02  0.72024632159E+02  0.00000000000E+00 0. -1.
         -2   -1    0    0    0  501 -0.00000000000E+00 -0.00000000000E+00 -0.19747687892E+03  0.19747687892E+03  0.00000000000E+00 0.  1.
         25    2    1    2    0    0 -0.15164367042E+02 -0.45209493147E+02 -0.86004949220E+02  0.15911739869E+03  0.12509052313E+03 0.  0.
          5    1    3    3  502    0  0.55148941117E+02 -0.16031056376E+02 -0.34951504912E+02  0.67360823707E+02  0.41800000000E+01 0. -1.
         -5    1    3    3    0  502 -0.70313308159E+02 -0.29178436772E+02 -0.51053444308E+02  0.91756574982E+02  0.41800000000E+01 0. -1.
        -11    1    1    2    0    0  0.53614340486E+01 -0.26268801611E+02 -0.25299388034E+02  0.36862636206E+02  0.00000000000E+00 0.  1.
         11    1    1    2    0    0  0.98029329937E+01  0.71478294759E+02 -0.14147909506E+02  0.73521476184E+02  0.00000000000E+00 0. -1.
</event>
<event>
 7    1  0.2644565E-009  0.1413776E+03  0.7561462E-02  0.1211487E+00
          2   -1    0    0  501    0  0.00000000000E+00  0.00000000000E+00  0.22708889371E+04  0.22708889371E+04  0.00000000000E+00 0.  1.
         -2   -1    0    0    0  501 -0.00000000000E+00 -0.00000000000E+00 -0.25053880805E+02  0.25053880805E+02  0.00000000000E+00 0. -1.
         25    2    1    2    0    0 -0.33878137791E+02 -0.12254850381E+03  0.19611972833E+04  0.19692913569E+04  0.12509116702E+03 0.  0.
          5    1    3    3  502    0 -0.61730920172E+02 -0.58261917888E+02  0.15352423500E+04  0.15375928275E+04  0.41800000000E+01 0. -1.
         -5    1    3    3    0  502  0.27852782381E+02 -0.64286585922E+02  0.42595493334E+03  0.43169852936E+03  0.41800000000E+01 0. -1.
        -11    1    1    2    0    0  0.15423057689E+02  0.37348312666E+02  0.20378687259E+03  0.20775431790E+03  0.00000000000E+00 0.  1.
         11    1    1    2    0    0  0.18455080103E+02  0.85200191144E+02  0.80850900340E+02  0.11889714310E+03  0.00000000000E+00 0. -1.
</event>
<event>
 7    1  0.2644565E-009  0.9070905E+02  0.7561462E-02  0.1301144E+00
         -1   -1    0    0    0  501 -0.00000000000E+00  0.00000000000E+00  0.16971474389E+03  0.16971474389E+03  0.00000000000E+00 0.  1.
          1   -1    0    0  501    0  0.00000000000E+00 -0.00000000000E+00 -0.20144970142E+03  0.20144970142E+03  0.00000000000E+00 0. -1.
         25    2    1    2    0    0  0.34549034236E+02 -0.51750300371E+02  0.11943741286E+03  0.18380471206E+03  0.12508855754E+03 0.  0.
          5    1    3    3  502    0 -0.67660809248E+00 -0.38201815782E+02  0.13676693493E+03  0.14206513794E+03  0.41800000000E+01 0. -1.
         -5    1    3    3    0  502  0.35225642329E+02 -0.13548484589E+02 -0.17329522071E+02  0.41739574115E+02  0.41800000000E+01 0. -1.
        -11    1    1    2    0    0  0.27520396091E+02  0.67260588596E+01 -0.17629356818E+02  0.33367743265E+02  0.00000000000E+00 0.  1.
         11    1    1    2    0    0 -0.62069430327E+02  0.45024241511E+02 -0.13354301357E+03  0.15399198998E+03  0.00000000000E+00 0. -1.
</event>
<event>
 7    1  0.2644565E-009  0.1136611E+03  0.7561462E-02  0.1253937E+00
         -4   -1    0    0    0  501 -0.00000000000E+00  0.00000000000E+00  0.18408916307E+03  0.18408916307E+03  0.00000000000E+00 0.  1.
          4   -1    0    0  501    0  0.00000000000E+00 -0.00000000000E+00 -0.74641890451E+02  0.74641890451E+02  0.00000000000E+00 0. -1.
         25    2    1    2    0    0  0.36058947837E+02 -0.22454571178E+02  0.59028022125E+02  0.14469444609E+03  0.12509084637E+03 0.  0.
          5    1    3    3  502    0  0.46972705257E+02  0.41911459614E+02  0.12242759492E+02  0.64267900589E+02  0.41800000000E+01 0. -1.
         -5    1    3    3    0  502 -0.10913757420E+02 -0.64366030792E+02  0.46785262633E+02  0.80426545497E+02  0.41800000000E+01 0. -1.
        -11    1    1    2    0    0  0.23499979657E+02  0.30725595051E+02  0.34506060682E+02  0.51836082596E+02  0.00000000000E+00 0.  1.
         11    1    1    2    0    0 -0.59558927495E+02 -0.82710238738E+01  0.15913189811E+02  0.62200524839E+02  0.00000000000E+00 0. -1.
</event>
<event>
 7    1  0.2644565E-009  0.9678543E+02  0.7561462E-02  0.1287205E+00
          1   -1    0    0  501    0  0.00000000000E+00  0.00000000000E+00  0.98887104180E+02  0.98887104180E+02  0.00000000000E+00 0. -1.
         -1   -1    0    0    0  501 -0.00000000000E+00 -0.00000000000E+00 -0.15173420647E+03  0.15173420647E+03  0.00000000000E+00 0.  1.
         25    2    1    2    0    0 -0.48677098578E+02 -0.24161281495E+02 -0.51019600363E+02  0.14561248738E+03  0.12508704733E+03 0.  0.
          5    1    3    3  502    0  0.23683684877E+02 -0.24894840196E+02  0.23356542033E+02  0.41757280246E+02  0.41800000000E+01 0. -1.
         -5    1    3    3    0  502 -0.72360783455E+02  0.73355870084E+00 -0.74376142397E+02  0.10385520713E+03  0.41800000000E+01 0. -1.
        -11    1    1    2    0    0  0.65097977462E+02  0.12387970031E+02  0.25516838756E+02  0.71009277783E+02  0.00000000000E+00 0.  1.
         11    1    1    2    0    0 -0.16420878884E+02  0.11773311465E+02 -0.27344340684E+02  0.33999545492E+02  0.00000000000E+00 0. -1.
</event>
<event>
 7    1  0.2644565E-009  0.1313247E+03  0.7561462E-02  0.1225503E+00
          4   -1    0    0  501    0  0.00000000000E+00  0.00000000000E+00  0.44365331843E+03  0.44365331843E+03  0.00000000000E+00 0. -1.
         -4   -1    0    0    0  501 -0.00000000000E+00 -0.00000000000E+00 -0.82979709626E+02  0.82979709626E+02  0.00000000000E+00 0.  1.
         25    2    1    2    0    0 -0.34469115117E+02  0.95913491267E+02  0.23686325424E+02  0.16307921639E+03  0.12508505547E+03 0.  0.
          5    1    3    3  502    0 -0.88875659236E+01  0.10918772835E+03  0.52991964406E+02  0.12176440179E+03  0.41800000000E+01 0. -1.
         -5    1    3    3    0  502 -0.25581549193E+02 -0.13274237088E+02 -0.29305638982E+02  0.41314814601E+02  0.41800000000E+01 0. -1.
        -11    1    1    2    0    0  0.55664395783E+02 -0.57525773076E+02  0.13574516749E+03  0.15758962536E+03  0.00000000000E+00 0.  1.
         11    1    1    2    0    0 -0.21195280667E+02 -0.38387718191E+02  0.20124211590E+03  0.20596418631E+03  0.00000000000E+00 0. -1.
</event>
<event>
 7    1  0.2644565E-009  0.7961207E+02  0.7561462E-02  0.1330156E+00
         -2   -1    0    0    0  501 -0.00000000000E+00  0.00000000000E+00  0.24520301290E+02  0.24520301290E+02  0.00000000000E+00 0.  1.
          2   -1    0    0  501    0  0.00000000000E+00 -0.00000000000E+00 -0.17217942816E+04  0.17217942816E+04  0.00000000000E+00 0. -1.
         25    2    1    2    0    0 -0.62800010286E+02 -0.11188722929E+02 -0.15706955577E+04  0.15769565251E+04  0.12505326052E+03 0.  0.
          5    1    3    3  502    0 -0.55080801712E+02 -0.15881937933E+02 -0.15637799047E+04  0.15648358359E+04  0.41800000000E+01 0. -1.
         -5    1    3    3    0  502 -0.77192085743E+01  0.46932150046E+01 -0.69156530832E+01  0.12120689158E+02  0.41800000000E+01 0. -1.
        -11    1    1    2    0    0  0.38270879187E+02 -0.26695094004E+02 -0.11295762576E+03  0.12221584780E+03  0.00000000000E+00 0. -1.
         11    1    1    2    0    0  0.24529131099E+02  0.37883816932E+02 -0.13620796754E+02  0.47142209983E+02  0.00000000000E+00 0.  1.
</event>
<event>
 7    1  0.2644565E-009  0.9696479E+02  0.7561462E-02  0.1286811E+00
         -1   -1    0    0    0  501 -0.00000000000E+00  0.00000000000E+00  0.11475754502E+03  0.11475754502E+03  0.00000000000E+00 0.  1.
          1   -1    0    0  501    0  0.00000000000E+00 -0.00000000000E+00 -0.19215202782E+03  0.19215202782E+03  0.00000000000E+00 0. -1.
         25    2    1    2    0    0 -0.18006844552E+02  0.76195411991E+01  0.59024080571E+02  0.13969210381E+03  0.12509091862E+03 0.  0.
          5    1    3    3  502    0 -0.42596868968E+02 -0.31157105674E+02 -0.12685404136E+02  0.54439419155E+02  0.41800000000E+01 0. -1.
         -5    1    3    3    0  502  0.24590024416E+02  0.38776646873E+02  0.71709484706E+02  0.85252684652E+02  0.41800000000E+01 0. -1.
        -11    1    1    2    0    0  0.54158692211E+02  0.93270401301E+01 -0.62656346790E+02  0.83342518636E+02  0.00000000000E+00 0.  1.
         11    1    1    2    0    0 -0.36151847659E+02 -0.16946581329E+02 -0.73762216590E+02  0.83874950397E+02  0.00000000000E+00 0. -1.
</event>
<event>
 7    1  0.2644565E-009  0.1278735E+03  0.7561462E-02  0.1230646E+00
         -1   -1    0    0    0  501 -0.00000000000E+00  0.00000000000E+00  0.10428837455E+03  0.10428837455E+03  0.00000000000E+00 0.  1.
          1   -1    0    0  501    0  0.00000000000E+00 -0.00000000000E+00 -0.16529358466E+03  0.16529358466E+03  0.00000000000E+00 0. -1.
         25    2    1    2    0    0 -0.45125161043E+02  0.54491330773E+02 -0.21737097440E+02  0.14534840120E+03  0.12509225011E+03 0.  0.
          5    1    3    3  502    0 -0.82331644763E+02  0.14175740503E+02  0.57497563863E+01  0.83844996551E+02  0.41800000000E+01 0.  1.
         -5    1    3    3    0  502  0.37206483721E+02  0.40315590270E+02 -0.27486853827E+02  0.61503404646E+02  0.41800000000E+01 0.  1.
        -11    1    1    2    0    0 -0.26396202452E+02 -0.33284421934E+02 -0.74356718332E+01  0.43126574905E+02  0.00000000000E+00 0.  1.
         11    1    1    2    0    0  0.71521363494E+02 -0.21206908839E+02 -0.31832440834E+02  0.81106983103E+02  0.00000000000E+00 0. -1.
</event>
<event>
 7    1  0.2644565E-009  0.1066858E+03  0.7561462E-02  0.1266833E+00
         -1   -1    0    0    0  501 -0.00000000000E+00  0.00000000000E+00  0.13486295213E+03  0.13486295213E+03  0.00000000000E+00 0.  1.
          1   -1    0    0  501    0  0.00000000000E+00 -0.00000000000E+00 -0.11092912993E+03  0.11092912993E+03  0.00000000000E+00 0. -1.
         25    2    1    2    0    0  0.45103876431E+02  0.23478991396E+02  0.28091881934E+02  0.13792045656E+03  0.12508907147E+03 0.  0.
          5    1    3    3  502    0  0.36736211415E+02  0.74436588837E+02  0.19969220009E+02  0.85478635545E+02  0.41800000000E+01 0.  1.
         -5    1    3    3    0  502  0.83676650154E+01 -0.50957597441E+02  0.81226619250E+01  0.52441821017E+02  0.41800000000E+01 0.  1.
        -11    1    1    2    0    0 -0.12015933818E+02  0.20289987676E+02 -0.37036659288E+02  0.43906496064E+02  0.00000000000E+00 0. -1.
         11    1    1    2    0    0 -0.33087942613E+02 -0.43768979072E+02  0.32878599548E+02  0.63965129435E+02  0.00000000000E+00 0.  1.
</event>
<event>
 7    1  0.2644565E-009  0.9590253E+02  0.7561462E-02  0.1289156E+00
         -1   -1    0    0    0  501 -0.00000000000E+00  0.00000000000E+00  0.50563829751E+02  0.50563829751E+02  0.00000000000E+00 0.  1.
          1   -1    0    0  501    0  0.00000000000E+00 -0.00000000000E+00 -0.55087600144E+03  0.55087600144E+03  0.00000000000E+00 0. -1.
         25    2    1    2    0    0  0.86923366042E+02 -0.54466047739E+01 -0.43353618701E+03  0.45954984877E+03  0.12508837275E+03 0.  0.
          5    1    3    3  502    0  0.75444319975E+02  0.18532483248E+02 -0.42387638578E+03  0.43095702938E+03  0.41800000000E+01 0.  1.
         -5    1    3    3    0  502  0.11479046067E+02 -0.23979088022E+02 -0.96598012243E+01  0.28592819390E+02  0.41800000000E+01 0.  1.
        -11    1    1    2    0    0 -0.70407170060E+02  0.44284794227E+01 -0.89386236077E+02  0.11387133189E+03  0.00000000000E+00 0. -1.
         11    1    1    2    0    0 -0.16516195982E+02  0.10181253511E+01  0.22610251398E+02  0.28018650525E+02  0.00000000000E+00 0.  1.
</event>
<event>
 7    1  0.2644565E-009  0.8961063E+02  0.7561462E-02  0.1303797E+00
          1   -1    0    0  501    0  0.00000000000E+00  0.00000000000E+00  0.59298222978E+03  0.59298222978E+03  0.00000000000E+00 0. -1.
         -1   -1    0    0    0  501 -0.00000000000E+00 -0.00000000000E+00 -0.25705210960E+02  0.25705210960E+02  0.00000000000E+00 0.  1.
         25    2    1    2    0    0 -0.20302458198E+02  0.49784605199E+02  0.36833766773E+03  0.39269766001E+03  0.12509243775E+03 0.  0.
          5    1    3    3  502    0 -0.26037041935E+02 -0.21942414839E+02  0.26198752614E+03  0.26422402120E+03  0.41800000000E+01 0. -1.
         -5    1    3    3    0  502  0.57345837373E+01  0.71727020037E+02  0.10635014159E+03  0.12847363881E+03  0.41800000000E+01 0. -1.
        -11    1    1    2    0    0  0.32849508158E+02 -0.15485556790E+02  0.16426715325E+02  0.39858871430E+02  0.00000000000E+00 0.  1.
         11    1    1    2    0    0 -0.12547049960E+02 -0.34299048408E+02  0.18251263576E+03  0.18613090930E+03  0.00000000000E+00 0. -1.
</event>
<event>
 6    1  0.2644565E-009  0.1305623E+03  0.7561462E-02  0.1226624E+00
         -2   -1    0    0    0  501 -0.00000000000E+00  0.00000000000E+00  0.21436059899E+03  0.21436059899E+03  0.00000000000E+00 0.  1.
          2   -1    0    0  501    0  0.00000000000E+00 -0.00000000000E+00 -0.10509337296E+03  0.10509337296E+03  0.00000000000E+00 0. -1.
          5    1    1    2  502    0  0.54889190030E+02 -0.33665476402E+02 -0.59754567517E+01  0.64802515128E+02  0.41800000000E+01 0.  1.
         -5    1    1    2    0  502 -0.70838231347E+02 -0.40310606199E+02 -0.67889799990E+01  0.81893605623E+02  0.41800000000E+01 0.  1.
        -11    1    1    2    0    0 -0.40699787492E+01  0.89537933011E+02  0.11617905789E+03  0.14673506625E+03  0.00000000000E+00 0.  1.
         11    1    1    2    0    0  0.20019020067E+02 -0.15561850410E+02  0.58526048839E+01  0.26022784950E+02  0.00000000000E+00 0. -1.
</event>
<event>
 7    1  0.2644565E-009  0.2444998E+03  0.7561462E-02  0.1116831E+00
         -2   -1    0    0    0  501 -0.00000000000E+00  0.00000000000E+00  0.59843678799E+02  0.59843678799E+02  0.00000000000E+00 0.  1.
          2   -1    0    0  501    0  0.00000000000E+00 -0.00000000000E+00 -0.11410458207E+04  0.11410458207E+04  0.00000000000E+00 0. -1.
         25    2    1    2    0    0 -0.14914323168E+02 -0.23621130667E+03 -0.51068287816E+03  0.57659537172E+03  0.12508797789E+03 0.  0.
          5    1    3    3  502    0  0.51368081686E+01 -0.19544314448E+03 -0.28052662442E+03  0.34196062483E+03  0.41800000000E+01 0.  1.
         -5    1    3    3    0  502 -0.20051131337E+02 -0.40768162191E+02 -0.23015625374E+03  0.23463474690E+03  0.41800000000E+01 0.  1.
        -11    1    1    2    0    0  0.27919516388E+02  0.23267312823E+03 -0.49608915609E+03  0.54865356537E+03  0.00000000000E+00 0.  1.
         11    1    1    2    0    0 -0.13005193220E+02  0.35381784375E+01 -0.74430107606E+02  0.75640562369E+02  0.00000000000E+00 0. -1.
</event>
<event>
 7    1  0.3054415E-009  0.2390067E+03  0.7561462E-02  0.1120456E+00
          1   -1    0    0  501    0  0.00000000000E+00  0.00000000000E+00  0.90705357310E+03  0.90705357310E+03  0.00000000000E+00 0. -1.
         -1   -1    0    0    0  501 -0.00000000000E+00 -0.00000000000E+00 -0.64414334346E+02  0.64414334346E+02  0.00000000000E+00 0.  1.
         25    2    1    2    0    0  0.90462597870E+02 -0.19346985692E+03  0.37423196970E+03  0.44867752287E+03  0.12509150746E+03 0.  0.
          5    1    3    3  502    0  0.12167151139E+03 -0.14104744230E+03  0.27835351633E+03  0.33495744523E+03  0.41800000000E+01 0. -1.
         -5    1    3    3    0  502 -0.31208913525E+02 -0.52422414619E+02  0.95878453371E+02  0.11372007764E+03  0.41800000000E+01 0. -1.
        -11    1    1    2    0    0 -0.82999390158E+02  0.75093644972E+02  0.25845126719E+03  0.28164696305E+03  0.00000000000E+00 0.  1.
         11    1    1    2    0    0 -0.74632077124E+01  0.11837621195E+03  0.20995600187E+03  0.24114342153E+03  0.00000000000E+00 0. -1.
</event>
<event>
 7    1  0.2644565E-009  0.1503880E+03  0.7561462E-02  0.1199997E+00
          2   -1    0    0  501    0  0.00000000000E+00  0.00000000000E+00  0.22151057224E+03  0.22151057224E+03  0.00000000000E+00 0. -1.
         -2   -1    0    0    0  501 -0.00000000000E+00 -0.00000000000E+00 -0.20227507878E+03  0.20227507878E+03  0.00000000000E+00 0.  1.
         25    2    1    2    0    0 -0.51555587770E+02 -0.89888245088E+02  0.15873578058E+03  0.22711826927E+03  0.12509110666E+03 0.  0.
          5    1    3    3  502    0  0.18741539526E+02  0.22467867142E+02  0.23952700271E+02  0.38042799686E+02  0.41800000000E+01 0.  1.
         -5    1    3    3    0  502 -0.70297127295E+02 -0.11235611223E+03  0.13478308031E+03  0.18907546958E+03  0.41800000000E+01 0.  1.
        -11    1    1    2    0    0 -0.47664764969E+01  0.81543293983E+02 -0.81121171565E+02  0.11512025264E+03  0.00000000000E+00 0. -1.
         11    1    1    2    0    0  0.56322064266E+02  0.83449511053E+01 -0.58379115559E+02  0.81547129108E+02  0.00000000000E+00 0.  1.
</event>
<event>
 7    1  0.2644565E-009  0.1121398E+03  0.7561462E-02  0.1256658E+00
         -1   -1    0    0    0  501 -0.00000000000E+00  0.00000000000E+00  0.47269383527E+02  0.47269383527E+02  0.00000000000E+00 0.  1.
          1   -1    0    0  501    0  0.00000000000E+00 -0.00000000000E+00 -0.52824718061E+03  0.52824718061E+03  0.00000000000E+00 0. -1.
         25    2    1    2    0    0  0.38368933214E+02  0.44512554957E+02 -0.80979284487E+02  0.16018447258E+03  0.12509147914E+03 0.  0.
          5    1    3    3  502    0  0.49454676375E+02  0.80162403941E+02 -0.78238951307E+02  0.12251768004E+03  0.41800000000E+01 0. -1.
         -5    1    3    3    0  502 -0.11085743161E+02 -0.35649848984E+02 -0.27403331802E+01  0.37666792536E+02  0.41800000000E+01 0. -1.
        -11    1    1    2    0    0  0.82857239595E+00  0.18338725576E+02 -0.16301453008E+02  0.24550616248E+02  0.00000000000E+00 0.  1.
         11    1    1    2    0    0 -0.39197505610E+02 -0.62851280533E+02 -0.38369705958E+03  0.39078147531E+03  0.00000000000E+00 0. -1.
</event>
<event>
 6    1  0.2644565E-009  0.1247393E+03  0.7561462E-02  0.1235477E+00
         -1   -1    0    0    0  501 -0.00000000000E+00  0.00000000000E+00  0.18115920056E+03  0.18115920056E+03  0.00000000000E+00 0.  1.
          1   -1    0    0  501    0  0.00000000000E+00 -0.00000000000E+00 -0.99399264840E+02  0.99399264840E+02  0.00000000000E+00 0. -1.
          5    1    1    2  502    0 -0.36170104806E+02 -0.55834746826E+01 -0.19122083011E+02  0.41503953184E+02  0.41800000000E+01 0.  1.
         -5    1    1    2    0  502  0.85423378191E+02 -0.44528298050E+02  0.35875870531E+02  0.10288086972E+03  0.41800000000E+01 0.  1.
        -11    1    1    2    0    0  0.76387854781E+00  0.64240292162E+02  0.51855452742E+02  0.82561411244E+02  0.00000000000E+00 0. -1.
         11    1    1    2    0    0 -0.50017151933E+02 -0.14128519429E+02  0.13150695461E+02  0.53612231252E+02  0.00000000000E+00 0.  1.
</event>
<event>
 7    1  0.2644565E-009  0.1031114E+03  0.7561462E-02  0.1273886E+00
          1   -1    0    0  501    0  0.00000000000E+00  0.00000000000E+00  0.82211195902E+02  0.82211195902E+02  0.00000000000E+00 0. -1.
         -1   -1    0    0    0  501 -0.00000000000E+00 -0.00000000000E+00 -0.16795339859E+03  0.16795339859E+03  0.00000000000E+00 0.  1.
         25    2    1    2    0    0  0.92962766721E+01 -0.42048339042E+02 -0.33015118478E+02  0.13635212752E+03  0.12508965207E+03 0.  0.
          5    1    3    3  502    0 -0.44062567381E+02 -0.59742424448E+02 -0.29106061899E+02  0.79845490557E+02  0.41800000000E+01 0. -1.
         -5    1    3    3    0  502  0.53358844053E+02  0.17694085406E+02 -0.39090565796E+01  0.56506636958E+02  0.41800000000E+01 0. -1.
        -11    1    1    2    0    0 -0.30408576993E+02  0.23032543302E+01 -0.60865694533E+02  0.68078038355E+02  0.00000000000E+00 0.  1.
         11    1    1    2    0    0  0.21112300321E+02  0.39745084712E+02  0.81386103213E+01  0.45734428624E+02  0.00000000000E+00 0. -1.
</event>
<event>
 7    1  0.4431567E-009  0.1021196E+03  0.7561462E-02  0.1275901E+00
         -1   -1    0    0    0  501 -0.00000000000E+00  0.00000000000E+00  0.61974782690E+02  0.61974782690E+02  0.00000000000E+00 0.  1.
          1   -1    0    0  501    0  0.00000000000E+00 -0.00000000000E+00 -0.25857036046E+03  0.25857036046E+03  0.00000000000E+00 0. -1.
         25    2    1    2    0    0 -0.59167982940E+02  0.25413060636E+02 -0.93032712974E+02  0.16866964744E+03  0.12509072879E+03 0.  0.
          5    1    3    3  502    0 -0.97808405539E+02  0.11686768483E+02 -0.73971572883E+02  0.12325717321E+03  0.41800000000E+01 0. -1.
         -5    1    3    3    0  502  0.38640422599E+02  0.13726292154E+02 -0.19061140091E+02  0.45412474239E+02  0.41800000000E+01 0. -1.
        -11    1    1    2    0    0  0.35105020613E+02 -0.16181284212E+02  0.61809799472E+01  0.39145893068E+02  0.00000000000E+00 0.  1.
         11    1    1    2    0    0  0.24062962327E+02 -0.92317764247E+01 -0.10974384474E+03  0.11272960264E+03  0.00000000000E+00 0. -1.
</event>
<event>
 7    1  0.2644565E-009  0.1365690E+03  0.7561462E-02  0.1218022E+00
         -1   -1    0    0    0  501 -0.00000000000E+00  0.00000000000E+00  0.13684496678E+03  0.13684496678E+03  0.00000000000E+00 0.  1.
          1   -1    0    0  501    0  0.00000000000E+00 -0.00000000000E+00 -0.16287369014E+03  0.16287369014E+03  0.00000000000E+00 0. -1.
         25    2    1    2    0    0 -0.10020710758E+03  0.22775769753E+02 -0.21469421692E+02  0.16330632664E+03  0.12509124731E+03 0.  0.
          5    1    3    3  502    0 -0.59331228187E+02 -0.48441119123E+02 -0.25910174189E+02  0.80966327486E+02  0.41800000000E+01 0.  1.
         -5    1    3    3    0  502 -0.40875879396E+02  0.71216888876E+02  0.44407524971E+01  0.82339999152E+02  0.41800000000E+01 0.  1.
        -11    1    1    2    0    0  0.45860251985E+02 -0.35969801214E+02 -0.39556245527E+02  0.70439235315E+02  0.00000000000E+00 0.  1.
         11    1    1    2    0    0  0.54346855598E+02  0.13194031461E+02  0.34996943858E+02  0.65973094963E+02  0.00000000000E+00 0. -1.
</event>
<event>
 7    1  0.2644565E-009  0.1196642E+03  0.7561462E-02  0.1243652E+00
          1   -1    0    0  501    0  0.00000000000E+00  0.00000000000E+00  0.23237063778E+03  0.23237063778E+03  0.00000000000E+00 0. -1.
         -1   -1    0    0    0  501 -0.00000000000E+00 -0.00000000000E+00 -0.10329597771E+03  0.10329597771E+03  0.00000000000E+00 0.  1.
         25    2    1    2    0    0 -0.64454076395E+02 -0.27293781259E+02  0.12697974349E+03  0.19147883505E+03  0.12506402583E+03 0.  0.
          5    1    3    3  502    0 -0.11583226494E+02  0.47580633621E+02  0.61645321938E+02  0.78839748533E+02  0.41800000000E+01 0. -1.
         -5    1    3    3    0  502 -0.52870849901E+02 -0.74874414880E+02  0.65334421549E+02  0.11263908652E+03  0.41800000000E+01 0. -1.
        -11    1    1    2    0    0 -0.11082892115E+02  0.19574986103E+02  0.49710134893E+02  0.54562881977E+02  0.00000000000E+00 0. -1.
         11    1    1    2    0    0  0.75536968511E+02  0.77187951557E+01 -0.47615218312E+02  0.89624898468E+02  0.00000000000E+00 0.  1.
</event>
<event>
 7    1  0.2644565E-009  0.1664497E+03  0.7561462E-02  0.1181602E+00
         -1   -1    0    0    0  501 -0.00000000000E+00  0.00000000000E+00  0.34917066616E+02  0.34917066616E+02  0.00000000000E+00 0.  1.
          1   -1    0    0  501    0  0.00000000000E+00 -0.00000000000E+00 -0.10982083517E+04  0.10982083517E+04  0.00000000000E+00 0. -1.
         25    2    1    2    0    0  0.11586146392E+02 -0.16118108342E+03 -0.52045924364E+03  0.55914241418E+03  0.12509530208E+03 0.  0.
          5    1    3    3  502    0 -0.17301700191E+01 -0.13540028868E+03 -0.51051587031E+03  0.52818572292E+03  0.41800000000E+01 0. -1.
         -5    1    3    3    0  502  0.13316316411E+02 -0.25780794745E+02 -0.99433733327E+01  0.30956691259E+02  0.41800000000E+01 0. -1.
        -11    1    1    2    0    0  0.10105191360E+02  0.67316968409E+01 -0.36236116884E+01  0.12671274460E+02  0.00000000000E+00 0.  1.
         11    1    1    2    0    0 -0.21691337752E+02  0.15444938658E+03 -0.53920842972E+03  0.56131172964E+03  0.00000000000E+00 0. -1.
</event>
<event>
 7    1  0.2644565E-009  0.9548483E+02  0.7561462E-02  0.1290088E+00
         -2   -1    0    0    0  501 -0.00000000000E+00  0.00000000000E+00  0.40672421067E+02  0.40672421067E+02  0.00000000000E+00 0.  1.
          2   -1    0    0  501    0  0.00000000000E+00 -0.00000000000E+00 -0.44886399291E+03  0.44886399291E+03  0.00000000000E+00 0. -1.
         25    2    1    2    0    0 -0.34523906863E+02  0.59449011285E+02 -0.29589291683E+03  0.32852095235E+03  0.12508921942E+03 0.  0.
          5    1    3    3  502    0 -0.62849232917E+02  0.92622191126E+01 -0.23936960093E+03  0.24769152797E+03  0.41800000000E+01 0. -1.
         -5    1    3    3    0  502  0.28325326054E+02  0.50186792172E+02 -0.56523315905E+02  0.80829424380E+02  0.41800000000E+01 0. -1.
        -11    1    1    2    0    0  0.14384355965E+02 -0.15306793835E+02 -0.11048305869E+03  0.11246205534E+03  0.00000000000E+00 0. -1.
         11    1    1    2    0    0  0.20139550898E+02 -0.44142217450E+02 -0.18155963209E+01  0.48553406283E+02  0.00000000000E+00 0.  1.
</event>
<event>
 7    1  0.2644565E-009  0.8038237E+02  0.7561462E-02  0.1327970E+00
          2   -1    0    0  501    0  0.00000000000E+00  0.00000000000E+00  0.40167737250E+03  0.40167737250E+03  0.00000000000E+00 0. -1.
         -2   -1    0    0    0  501 -0.00000000000E+00 -0.00000000000E+00 -0.39199359077E+02  0.39199359077E+02  0.00000000000E+00 0.  1.
         25    2    1    2    0    0 -0.20693091853E+02 -0.57430844401E+02  0.15262305463E+03  0.20655629560E+03  0.12508077594E+03 0.  0.
          5    1    3    3  502    0 -0.43252101587E+02 -0.14267468060E+02  0.15086212566E+03  0.15764250155E+03  0.41800000000E+01 0.  1.
         -5    1    3    3    0  502  0.22559009734E+02 -0.43163376341E+02  0.17609289681E+01  0.48913794048E+02  0.41800000000E+01 0.  1.
        -11    1    1    2    0    0 -0.20296447626E+01  0.31916061603E+02  0.12998789003E+02  0.34521340670E+02  0.00000000000E+00 0.  1.
         11    1    1    2    0    0  0.22722736616E+02  0.25514782798E+02  0.19685616979E+03  0.19979909531E+03  0.00000000000E+00 0. -1.
</event>
<event>
 7    1  0.2805901E-009  0.2162426E+03  0.7561462E-02  0.1136716E+00
          1   -1    0    0  501    0  0.00000000000E+00  0.00000000000E+00  0.13162922069E+04  0.13162922069E+04  0.00000000000E+00 0.  1.
         -1   -1    0    0    0  501 -0.00000000000E+00 -0.00000000000E+00 -0.43422757152E+02  0.43422757152E+02  0.00000000000E+00 0. -1.
         25    2    1    2    0    0  0.67810319068E+02  0.20143639826E+03  0.62233015167E+03  0.66941442459E+03  0.12508394083E+03 0.  0.
          5    1    3    3  502    0  0.67412646297E+02  0.15106247046E+03  0.29531482702E+03  0.33851536793E+03  0.41800000000E+01 0.  1.
         -5    1    3    3    0  502  0.39767277145E+00  0.50373927798E+02  0.32701532465E+03  0.33089905667E+03  0.41800000000E+01 0.  1.
        -11    1    1    2    0    0 -0.58983391696E+02 -0.11191823206E+03  0.49215713476E+03  0.50815684238E+03  0.00000000000E+00 0.  1.
         11    1    1    2    0    0 -0.88269273726E+01 -0.89518166205E+02  0.15838216327E+03  0.18214369704E+03  0.00000000000E+00 0. -1.
</event>
<event>
 7    1  0.2644565E-009  0.7127312E+02  0.7561462E-02  0.1355816E+00
          1   -1    0    0  501    0  0.00000000000E+00  0.00000000000E+00  0.13273249542E+03  0.13273249542E+03  0.00000000000E+00 0. -1.
         -1   -1    0    0    0  501 -0.00000000000E+00 -0.00000000000E+00 -0.13403660043E+03  0.13403660043E+03  0.00000000000E+00 0.  1.
         25    2    1    2    0    0 -0.58144218117E+02  0.19936725989E+01  0.48621616514E+02  0.14627661231E+03  0.12509220953E+03 0.  0.
          5    1    3    3  502    0 -0.50372535022E+02  0.23972271514E+02  0.85662452371E+02  0.10231124196E+03  0.41800000000E+01 0.  1.
         -5    1    3    3    0  502 -0.77716830950E+01 -0.21978598915E+02 -0.37040835857E+02  0.43965370342E+02  0.41800000000E+01 0.  1.
        -11    1    1    2    0    0  0.28748863462E+02 -0.12974052974E+02 -0.74326963657E+02  0.80742310640E+02  0.00000000000E+00 0.  1.
         11    1    1    2    0    0  0.29395354656E+02  0.10980380376E+02  0.24401242134E+02  0.39750172908E+02  0.00000000000E+00 0. -1.
</event>
<event>
 7    1  0.2644565E-009  0.1361538E+03  0.7561462E-02  0.1218600E+00
         -2   -1    0    0    0  501 -0.00000000000E+00  0.00000000000E+00  0.52834633088E+02  0.52834633088E+02  0.00000000000E+00 0. -1.
          2   -1    0    0  501    0  0.00000000000E+00 -0.00000000000E+00 -0.41060653419E+03  0.41060653419E+03  0.00000000000E+00 0.  1.
         25    2    1    2    0    0  0.77007393944E+02 -0.51059377736E+02 -0.23307900262E+03  0.28019570985E+03  0.12508643242E+03 0.  0.
          5    1    3    3  502    0  0.48293075066E+02 -0.91013584145E+02 -0.13026828164E+03  0.16614147947E+03  0.41800000000E+01 0.  1.
         -5    1    3    3    0  502  0.28714318877E+02  0.39954206409E+02 -0.10281072098E+03  0.11405423038E+03  0.41800000000E+01 0.  1.
        -11    1    1    2    0    0 -0.90764343959E+02  0.54178790966E+02 -0.13054398700E+03  0.16797392675E+03  0.00000000000E+00 0.  1.
         11    1    1    2    0    0  0.13756950016E+02 -0.31194132298E+01  0.58510885195E+01  0.15271530686E+02  0.00000000000E+00 0. -1.
</event>
<event>
 7    1  0.2644565E-009  0.8100106E+02  0.7561462E-02  0.1326234E+00
          2   -1    0    0  501    0  0.00000000000E+00  0.00000000000E+00  0.47099213653E+03  0.47099213653E+03  0.00000000000E+00 0.  1.
         -2   -1    0    0    0  501 -0.00000000000E+00 -0.00000000000E+00 -0.31286719466E+02  0.31286719466E+02  0.00000000000E+00 0. -1.
         25    2    1    2    0    0 -0.76250969080E+01  0.42063945584E+02  0.31249204204E+03  0.33930204235E+03  0.12508829676E+03 0.  0.
          5    1    3    3  502    0  0.13654756875E+02  0.62558918454E+02  0.69920479888E+02  0.94902142080E+02  0.41800000000E+01 0. -1.
         -5    1    3    3    0  502 -0.21279853783E+02 -0.20494972871E+02  0.24257156215E+03  0.24439990027E+03  0.41800000000E+01 0. -1.
        -11    1    1    2    0    0  0.27526234550E+02 -0.82088693336E+01 -0.11433108041E+01  0.28746935207E+02  0.00000000000E+00 0. -1.
         11    1    1    2    0    0 -0.19901137642E+02 -0.33855076250E+02  0.12835668583E+03  0.13422987843E+03  0.00000000000E+00 0.  1.
</event>
<event>
 7    1  0.2644565E-009  0.1132808E+03  0.7561462E-02  0.1254612E+00
         -2   -1    0    0    0  501 -0.00000000000E+00  0.00000000000E+00  0.43530143964E+02  0.43530143964E+02  0.00000000000E+00 0.  1.
          2   -1    0    0  501    0  0.00000000000E+00 -0.00000000000E+00 -0.47098255402E+03  0.47098255402E+03  0.00000000000E+00 0. -1.
         25    2    1    2    0    0  0.26506596436E+02  0.65436618502E+02 -0.34384231040E+03  0.37264858297E+03  0.12511946800E+03 0.  0.
          5    1    3    3  502    0  0.23911880263E+02 -0.35198955882E+02 -0.94777787344E+02  0.10397617942E+03  0.41800000000E+01 0. -1.
         -5    1    3    3    0  502  0.25947161730E+01  0.10063557438E+03 -0.24906452305E+03  0.26867240355E+03  0.41800000000E+01 0. -1.
        -11    1    1    2    0    0  0.94293047707E+01 -0.34062995141E+02  0.10058581064E+02  0.36747441808E+02  0.00000000000E+00 0.  1.
         11    1    1    2    0    0 -0.35935901206E+02 -0.31373623361E+02 -0.93668680719E+02  0.10511667321E+03  0.00000000000E+00 0. -1.
</event>
<event>
 7    1  0.2644565E-009  0.1043914E+03  0.7561462E-02  0.1271323E+00
         -1   -1    0    0    0  501 -0.00000000000E+00  0.00000000000E+00  0.26494540776E+02  0.26494540776E+02  0.00000000000E+00 0.  1.
          1   -1    0    0  501    0  0.00000000000E+00 -0.00000000000E+00 -0.49672994603E+03  0.49672994603E+03  0.00000000000E+00 0. -1.
         25    2    1    2    0    0 -0.33940246356E+02 -0.17189903451E+02 -0.23910262272E+03  0.27251883220E+03  0.12509602955E+03 0.  0.
          5    1    3    3  502    0 -0.70798741228E+02 -0.35872664969E+02 -0.10227260272E+03  0.12952400364E+03  0.41800000000E+01 0.  1.
         -5    1    3    3    0  502  0.36858494872E+02  0.18682761518E+02 -0.13683002000E+03  0.14299482856E+03  0.41800000000E+01 0.  1.
        -11    1    1    2    0    0  0.39123721425E+02 -0.24235626606E+02 -0.17375669869E+03  0.17974821700E+03  0.00000000000E+00 0. -1.
         11    1    1    2    0    0 -0.51834750695E+01  0.41425530057E+02 -0.57376083844E+02  0.70957437606E+02  0.00000000000E+00 0.  1.
</event>
<event>
 7    1  0.2644565E-009  0.2149626E+03  0.7561462E-02  0.1137695E+00
          2   -1    0    0  501    0  0.00000000000E+00  0.00000000000E+00  0.51909060085E+03  0.51909060085E+03  0.00000000000E+00 0. -1.
         -2   -1    0    0    0  501 -0.00000000000E+00 -0.00000000000E+00 -0.11329986079E+03  0.11329986079E+03  0.00000000000E+00 0.  1.
         25    2    1    2    0    0  0.15592932096E+03 -0.10808800110E+03  0.34524900676E+03  0.41332870918E+03  0.12508707387E+03 0.  0.
          5    1    3    3  502    0  0.10995179590E+03 -0.13366390511E+03  0.24443810993E+03  0.29953780886E+03  0.41800000000E+01 0. -1.
         -5    1    3    3    0  502  0.45977525061E+02  0.25575904009E+02  0.10081089682E+03  0.11379090032E+03  0.41800000000E+01 0. -1.
        -11    1    1    2    0    0 -0.69383428474E+01 -0.11189204252E+02  0.20007139325E+02  0.23950459646E+02  0.00000000000E+00 0. -1.
         11    1    1    2    0    0 -0.14899097811E+03  0.11927720535E+03  0.40534593978E+02  0.19511129282E+03  0.00000000000E+00 0.  1.
</event>
<event>
 7    1  0.2644565E-009  0.9199885E+02  0.7561462E-02  0.1298082E+00
         -2   -1    0    0    0  501 -0.00000000000E+00  0.00000000000E+00  0.18333473716E+02  0.18333473716E+02  0.00000000000E+00 0. -1.
          2   -1    0    0  501    0  0.00000000000E+00 -0.00000000000E+00 -0.81540941817E+03  0.81540941817E+03  0.00000000000E+00 0.  1.
         25    2    1    2    0    0  0.43724861485E+02 -0.32149820080E+02 -0.50312158494E+03  0.52127347462E+03  0.12509688911E+03 0.  0.
          5    1    3    3  502    0 -0.26631433649E+01  0.19498001718E+02 -0.85894651503E+01  0.21875002060E+02  0.41800000000E+01 0.  1.
         -5    1    3    3    0  502  0.46388004850E+02 -0.51647821797E+02 -0.49453211979E+03  0.49939847256E+03  0.41800000000E+01 0.  1.
        -11    1    1    2    0    0  0.19646336126E+02  0.23089605044E+02 -0.37897591368E+02  0.48531802107E+02  0.00000000000E+00 0. -1.
         11    1    1    2    0    0 -0.63371197612E+02  0.90602150353E+01 -0.25605676815E+03  0.26393761516E+03  0.00000000000E+00 0.  1.
</event>
<event>
 7    1  0.2644565E-009  0.1289286E+03  0.7561462E-02  0.1229054E+00
          1   -1    0    0  501    0  0.00000000000E+00  0.00000000000E+00  0.43525255157E+02  0.43525255157E+02  0.00000000000E+00 0. -1.
         -1   -1    0    0    0  501 -0.00000000000E+00 -0.00000000000E+00 -0.51498774771E+03  0.51498774771E+03  0.00000000000E+00 0.  1.
         25    2    1    2    0    0 -0.73384780783E+02 -0.69372794167E+02 -0.23375802850E+03  0.28370132161E+03  0.12508282605E+03 0.  0.
          5    1    3    3  502    0  0.29189211590E+02 -0.23314862106E+01 -0.15580114534E+02  0.33431396472E+02  0.41800000000E+01 0.  1.
         -5    1    3    3    0  502 -0.10257399237E+03 -0.67041307956E+02 -0.21817791397E+03  0.25026992513E+03  0.41800000000E+01 0.  1.
        -11    1    1    2    0    0  0.24604404697E+02  0.44648135996E+02 -0.28141539765E+02  0.58230396175E+02  0.00000000000E+00 0. -1.
         11    1    1    2    0    0  0.48780376086E+02  0.24724658171E+02 -0.20956292429E+03  0.21658128509E+03  0.00000000000E+00 0.  1.
</event>
<event>
 7    1  0.2644565E-009  0.1441816E+03  0.7561462E-02  0.1207811E+00
          1   -1    0    0  501    0  0.00000000000E+00  0.00000000000E+00  0.71541404054E+03  0.71541404054E+03  0.00000000000E+00 0. -1.
         -1   -1    0    0    0  501 -0.00000000000E+00 -0.00000000000E+00 -0.33860596698E+02  0.33860596698E+02  0.00000000000E+00 0.  1.
         25    2    1    2    0    0 -0.43332784006E+01  0.11002071159E+03  0.33119483069E+03  0.37075682327E+03  0.12508905567E+03 0.  0.
          5    1    3    3  502    0  0.48764065380E+02  0.72421043506E+02  0.25962333440E+03  0.27394249356E+03  0.41800000000E+01 0. -1.
         -5    1    3    3    0  502 -0.53097343781E+02  0.37599668081E+02  0.71571496290E+02  0.96814329712E+02  0.41800000000E+01 0. -1.
        -11    1    1    2    0    0  0.40752424229E+02 -0.41516595345E+02  0.21258733693E+03  0.22040363788E+03  0.00000000000E+00 0. -1.
         11    1    1    2    0    0 -0.36419145829E+02 -0.68504116242E+02  0.13777127622E+03  0.15811417608E+03  0.00000000000E+00 0.  1.
</event>
<event>
 7    1  0.2644565E-009  0.9643472E+02  0.7561462E-02  0.1287977E+00
         -2   -1    0    0    0  501 -0.00000000000E+00  0.00000000000E+00  0.11450862654E+03  0.11450862654E+03  0.00000000000E+00 0.  1.
          2   -1    0    0  501    0  0.00000000000E+00 -0.00000000000E+00 -0.13357060082E+03  0.13357060082E+03  0.00000000000E+00 0. -1.
         25    2    1    2    0    0  0.13110847228E+02  0.35639487994E+02 -0.55579429290E+02  0.14205137413E+03  0.12508977781E+03 0.  0.
          5    1    3    3  502    0 -0.28387586701E+02 -0.11545131026E+02 -0.70801005235E+02  0.77261891456E+02  0.41800000000E+01 0.  1.
         -5    1    3    3    0  502  0.41498433929E+02  0.47184619020E+02  0.15221575945E+02  0.64789482672E+02  0.41800000000E+01 0.  1.
        -11    1    1    2    0    0 -0.50450244131E+02 -0.50644514018E+01  0.24400845437E+02  0.56269681525E+02  0.00000000000E+00 0. -1.
         11    1    1    2    0    0  0.37339396903E+02 -0.30575036592E+02  0.12116609578E+02  0.49758171704E+02  0.00000000000E+00 0.  1.
</event>
<event>
 7    1  0.2644565E-009  0.9125045E+02  0.7561462E-02  0.1299851E+00
         -2   -1    0    0    0  501 -0.00000000000E+00  0.00000000000E+00  0.10329605457E+03  0.10329605457E+03  0.00000000000E+00 0.  1.
          2   -1    0    0  501    0  0.00000000000E+00 -0.00000000000E+00 -0.11943868499E+03  0.11943868499E+03  0.00000000000E+00 0. -1.
         25    2    1    2    0    0  0.18159853667E+02  0.11881689397E+02  0.56201045476E+01  0.12708269073E+03  0.12508984723E+03 0.  0.
          5    1    3    3  502    0  0.16769227506E+02  0.56252385757E+02  0.39678337655E+02  0.70974507914E+02  0.41800000000E+01 0.  1.
         -5    1    3    3    0  502  0.13906261612E+01 -0.44370696360E+02 -0.34058233107E+02  0.56108182817E+02  0.41800000000E+01 0.  1.
        -11    1    1    2    0    0  0.17936962175E+02  0.22797863079E+02  0.15834432717E+02  0.33048546601E+02  0.00000000000E+00 0.  1.
         11    1    1    2    0    0 -0.36096815842E+02 -0.34679552475E+02 -0.37597167677E+02  0.62603502227E+02  0.00000000000E+00 0. -1.
</event>
<event>
 7    1  0.2644565E-009  0.2375703E+03  0.7561462E-02  0.1121422E+00
          2   -1    0    0  501    0  0.00000000000E+00  0.00000000000E+00  0.91668197380E+03  0.91668197380E+03  0.00000000000E+00 0. -1.
         -2   -1    0    0    0  501 -0.00000000000E+00 -0.00000000000E+00 -0.71029750514E+02  0.71029750514E+02  0.00000000000E+00 0.  1.
         25    2    1    2    0    0  0.22295487980E+03  0.49768893885E+02  0.38370518829E+03  0.46375155667E+03  0.12510001425E+03 0.  0.
          5    1    3    3  502    0  0.57773310913E+02  0.24560849684E+02  0.24419776967E+02  0.67489174674E+02  0.41800000000E+01 0.  1.
         -5    1    3    3    0  502  0.16518156889E+03  0.25208044201E+02  0.35928541132E+03  0.39626238199E+03  0.41800000000E+01 0.  1.
        -11    1    1    2    0    0 -0.14951574292E+03  0.10769847168E+02  0.31553714224E+03  0.34933456044E+03  0.00000000000E+00 0. -1.
         11    1    1    2    0    0 -0.73439136877E+02 -0.60538741053E+02  0.14640989276E+03  0.17462560721E+03  0.00000000000E+00 0.  1.
</event>
<event>
 7    1  0.2644565E-009  0.1299976E+03  0.7561462E-02  0.1227459E+00
          2   -1    0    0  501    0  0.00000000000E+00  0.00000000000E+00  0.57674209444E+03  0.57674209444E+03  0.00000000000E+00 0.  1.
         -2   -1    0    0    0  501 -0.00000000000E+00 -0.00000000000E+00 -0.41893695730E+02  0.41893695730E+02  0.00000000000E+00 0. -1.
         25    2    1    2    0    0 -0.85421411888E+02  0.12616914844E+02  0.42545044703E+03  0.45178675837E+03  0.12508872055E+03 0.  0.
          5    1    3    3  502    0 -0.76036169495E+02 -0.41159151502E+02  0.33547996022E+03  0.34646767660E+03  0.41800000000E+01 0.  1.
         -5    1    3    3    0  502 -0.93852423933E+01  0.53776066346E+02  0.89970486816E+02  0.10531908177E+03  0.41800000000E+01 0.  1.
        -11    1    1    2    0    0  0.85100825045E+02 -0.38070689373E+02  0.10600413335E+03  0.14116799956E+03  0.00000000000E+00 0.  1.
         11    1    1    2    0    0  0.32058684300E+00  0.25453774529E+02  0.33938183187E+01  0.25681032231E+02  0.00000000000E+00 0. -1.
</event>
<event>
 7    1  0.2644565E-009  0.1337523E+03  0.7561462E-02  0.1221992E+00
         -1   -1    0    0    0  501 -0.00000000000E+00  0.00000000000E+00  0.11187003067E+03  0.11187003067E+03  0.00000000000E+00 0.  1.
          1   -1    0    0  501    0  0.00000000000E+00 -0.00000000000E+00 -0.26298453218E+03  0.26298453218E+03  0.00000000000E+00 0. -1.
         25    2    1    2    0    0  0.29470529444E+02 -0.12719224861E+03 -0.10578178727E+03  0.20948437213E+03  0.12509010927E+03 0.  0.
          5    1    3    3  502    0  0.41735477905E+01 -0.56804045781E+02 -0.12030911699E+03  0.13317610202E+03  0.41800000000E+01 0.  1.
         -5    1    3    3    0  502  0.25296981654E+02 -0.70388202832E+02  0.14527329722E+02  0.76308270113E+02  0.41800000000E+01 0.  1.
        -11    1    1    2    0    0  0.84604200819E+01  0.29316481984E+02  0.24638018791E+02  0.39218194678E+02  0.00000000000E+00 0.  1.
         11    1    1    2    0    0 -0.37930949526E+02  0.97875766629E+02 -0.69970733035E+02  0.12615199605E+03  0.00000000000E+00 0. -1.
</event>
<event>
 7    1  0.2644565E-009  0.1496311E+03  0.7561462E-02  0.1200927E+00
          1   -1    0    0  501    0  0.00000000000E+00  0.00000000000E+00  0.18434953564E+03  0.18434953564E+03  0.00000000000E+00 0. -1.
         -1   -1    0    0    0  501 -0.00000000000E+00 -0.00000000000E+00 -0.13479079204E+03  0.13479079204E+03  0.00000000000E+00 0.  1.
         25    2    1    2    0    0 -0.97319757002E+02  0.61543645289E+02  0.16295578901E+02  0.17080341646E+03  0.12509798481E+03 0.  0.
          5    1    3    3  502    0  0.22632625343E+02  0.42397662883E+02  0.87317566718E+01  0.49025641479E+02  0.41800000000E+01 0.  1.
         -5    1    3    3    0  502 -0.11995238234E+03  0.19145982406E+02  0.75638222296E+01  0.12177777498E+03  0.41800000000E+01 0.  1.
        -11    1    1    2    0    0  0.10240753223E+03 -0.44441684591E+02  0.11976279014E+01  0.11164139152E+03  0.00000000000E+00 0.  1.
         11    1    1    2    0    0 -0.50877752291E+01 -0.17101960698E+02  0.32065536795E+02  0.36695519706E+02  0.00000000000E+00 0. -1.
</event>
<event>
 7    1  0.2644565E-009  0.1057526E+03  0.7561462E-02  0.1268644E+00
         -1   -1    0    0    0  501 -0.00000000000E+00  0.00000000000E+00  0.10318257705E+03  0.10318257705E+03  0.00000000000E+00 0.  1.
          1   -1    0    0  501    0  0.00000000000E+00 -0.00000000000E+00 -0.13205200954E+03  0.13205200954E+03  0.00000000000E+00 0. -1.
         25    2    1    2    0    0  0.34760409431E+02 -0.21160771083E+02 -0.35568766485E+02  0.13626799558E+03  0.12509102755E+03 0.  0.
          5    1    3    3  502    0  0.71839058489E+02  0.10470863826E+02 -0.46274498948E+02  0.86193334816E+02  0.41800000000E+01 0. -1.
         -5    1    3    3    0  502 -0.37078649058E+02 -0.31631634909E+02  0.10705732463E+02  0.50074660763E+02  0.41800000000E+01 0. -1.
        -11    1    1    2    0    0 -0.60733462154E+02  0.97921964264E+01  0.23680386193E+02  0.65918140344E+02  0.00000000000E+00 0.  1.
         11    1    1    2    0    0  0.25973052723E+02  0.11368574657E+02 -0.16981052203E+02  0.33048450666E+02  0.00000000000E+00 0. -1.
</event>
<event>
 7    1  0.2644565E-009  0.1080686E+03  0.7561462E-02  0.1264189E+00
          2   -1    0    0  501    0  0.00000000000E+00  0.00000000000E+00  0.89639841092E+03  0.89639841092E+03  0.00000000000E+00 0. -1.
         -2   -1    0    0    0  501 -0.00000000000E+00 -0.00000000000E+00 -0.14116784556E+02  0.14116784556E+02  0.00000000000E+00 0.  1.
         25    2    1    2    0    0  0.71236356683E+01 -0.12675161737E+02  0.62880004440E+03  0.64128733802E+03  0.12509415717E+03 0.  0.
          5    1    3    3  502    0 -0.55284140602E+02  0.14815926347E+02  0.26800616448E+03  0.27408141943E+03  0.41800000000E+01 0.  1.
         -5    1    3    3    0  502  0.62407776270E+02 -0.27491088084E+02  0.36079387991E+03  0.36720591859E+03  0.41800000000E+01 0.  1.
        -11    1    1    2    0    0 -0.41589648323E+02 -0.17015816625E+02  0.13683447846E+03  0.14402399577E+03  0.00000000000E+00 0. -1.
         11    1    1    2    0    0  0.34466012655E+02  0.29690978362E+02  0.11664710352E+03  0.12520386169E+03  0.00000000000E+00 0.  1.
</event>
<event>
 7    1  0.2644565E-009  0.8890063E+02  0.7561462E-02  0.1305536E+00
          2   -1    0    0  501    0  0.00000000000E+00  0.00000000000E+00  0.14494352001E+03  0.14494352001E+03  0.00000000000E+00 0.  1.
         -2   -1    0    0    0  501 -0.00000000000E+00 -0.00000000000E+00 -0.82766167264E+02  0.82766167264E+02  0.00000000000E+00 0. -1.
         25    2    1    2    0    0  0.11651990593E+02  0.34661105303E+01  0.27180054721E+02  0.12858412013E+03  0.12508931916E+03 0.  0.
          5    1    3    3  502    0 -0.28959657571E+02  0.35390674838E+02 -0.27274652723E+02  0.53409181919E+02  0.41800000000E+01 0. -1.
         -5    1    3    3    0  502  0.40611648164E+02 -0.31924564307E+02  0.54454707444E+02  0.75174938215E+02  0.41800000000E+01 0. -1.
        -11    1    1    2    0    0  0.22589667905E+02  0.26310406170E+02 -0.90990457813E+01  0.35851404477E+02  0.00000000000E+00 0. -1.
         11    1    1    2    0    0 -0.34241658498E+02 -0.29776516701E+02  0.44096343805E+02  0.63274162661E+02  0.00000000000E+00 0.  1.
</event>
<event>
 7    1  0.2644565E-009  0.1583568E+03  0.7561462E-02  0.1190564E+00
         -2   -1    0    0    0  501 -0.00000000000E+00  0.00000000000E+00  0.23299571117E+03  0.23299571117E+03  0.00000000000E+00 0. -1.
          2   -1    0    0  501    0  0.00000000000E+00 -0.00000000000E+00 -0.13191412940E+03  0.13191412940E+03  0.00000000000E+00 0.  1.
         25    2    1    2    0    0 -0.63561863339E+02 -0.11940857092E+03  0.78154509480E+02  0.20013474872E+03  0.12508906033E+03 0.  0.
          5    1    3    3  502    0 -0.66121888324E+02 -0.77456338789E+01  0.53906920017E+02  0.85764371305E+02  0.41800000000E+01 0.  1.
         -5    1    3    3    0  502  0.25600249845E+01 -0.11166293704E+03  0.24247589463E+02  0.11437037742E+03  0.41800000000E+01 0.  1.
        -11    1    1    2    0    0  0.17785941249E+02  0.63691338048E+02  0.54849630593E+02  0.85915122212E+02  0.00000000000E+00 0. -1.
         11    1    1    2    0    0  0.45775922090E+02  0.55717232867E+02 -0.31922558304E+02  0.78859969631E+02  0.00000000000E+00 0.  1.
</event>
<event>
 7    1  0.2644565E-009  0.1156168E+03  0.7561462E-02  0.1250508E+00
         -1   -1    0    0    0  501 -0.00000000000E+00  0.00000000000E+00  0.76497677508E+02  0.76497677508E+02  0.00000000000E+00 0.  1.
          1   -1    0    0  501    0  0.00000000000E+00 -0.00000000000E+00 -0.29552876528E+03  0.29552876528E+03  0.00000000000E+00 0. -1.
         25    2    1    2    0    0 -0.35046043892E+02  0.99801495310E+02 -0.13241364739E+03  0.21064715548E+03  0.12510110486E+03 0.  0.
          5    1    3    3  502    0  0.47384175359E+00  0.29881065238E+02  0.22043659100E+02  0.37369745682E+02  0.41800000000E+01 0. -1.
         -5    1    3    3    0  502 -0.35519885646E+02  0.69920430071E+02 -0.15445730649E+03  0.17327740980E+03  0.41800000000E+01 0. -1.
        -11    1    1    2    0    0  0.16811678956E+02  0.38757230626E+01  0.87419353789E+01  0.19341024087E+02  0.00000000000E+00 0.  1.
         11    1    1    2    0    0  0.18234364936E+02 -0.10367721837E+03 -0.95359375765E+02  0.14203826323E+03  0.00000000000E+00 0. -1.
</event>
<event>
 7    1  0.2644565E-009  0.1194810E+03  0.7561462E-02  0.1243956E+00
          1   -1    0    0  501    0  0.00000000000E+00  0.00000000000E+00  0.11898967194E+04  0.11898967194E+04  0.00000000000E+00 0. -1.
         -1   -1    0    0    0  501 -0.00000000000E+00 -0.00000000000E+00 -0.15957790753E+02  0.15957790753E+02  0.00000000000E+00 0.  1.
         25    2    1    2    0    0 -0.35849823004E+02  0.38348938041E+02  0.93430604683E+03  0.94410352604E+03  0.12509127816E+03 0.  0.
          5    1    3    3  502    0 -0.33105372005E+02  0.82724297524E+02  0.54604512329E+03  0.55328295123E+03  0.41800000000E+01 0. -1.
         -5    1    3    3    0  502 -0.27444509998E+01 -0.44375359483E+02  0.38826092354E+03  0.39082057481E+03  0.41800000000E+01 0. -1.
        -11    1    1    2    0    0 -0.76080117942E+01  0.26204511834E+02  0.55319244722E+02  0.61682875424E+02  0.00000000000E+00 0.  1.
         11    1    1    2    0    0  0.43457834798E+02 -0.64553449875E+02  0.18431363705E+03  0.20006810865E+03  0.00000000000E+00 0. -1.
</event>
<event>
 7    1  0.2644565E-009  0.1336016E+03  0.7561462E-02  0.1222207E+00
          2   -1    0    0  501    0  0.00000000000E+00  0.00000000000E+00  0.12157060437E+03  0.12157060437E+03  0.00000000000E+00 0. -1.
         -2   -1    0    0    0  501 -0.00000000000E+00 -0.00000000000E+00 -0.21445343590E+03  0.21445343590E+03  0.00000000000E+00 0.  1.
         25    2    1    2    0    0 -0.11203422142E+03 -0.30345440797E+02 -0.23526360878E+02  0.17226032689E+03  0.12509043936E+03 0.  0.
          5    1    3    3  502    0  0.74642137570E+01  0.18710775892E+02  0.26607568975E+02  0.33633952314E+02  0.41800000000E+01 0. -1.
         -5    1    3    3    0  502 -0.11949843518E+03 -0.49056216689E+02 -0.50133929853E+02  0.13862637458E+03  0.41800000000E+01 0. -1.
        -11    1    1    2    0    0  0.51491981081E+02  0.49366414452E+01  0.17745286235E+02  0.54687198940E+02  0.00000000000E+00 0. -1.
         11    1    1    2    0    0  0.60542240342E+02  0.25408799351E+02 -0.87101756880E+02  0.10907651444E+03  0.00000000000E+00 0.  1.
</event>
<event>
 7    1  0.2644565E-009  0.9107450E+02  0.7561462E-02  0.1300270E+00
         -2   -1    0    0    0  501 -0.00000000000E+00  0.00000000000E+00  0.33084119030E+02  0.33084119030E+02  0.00000000000E+00 0.  1.
          2   -1    0    0  501    0  0.00000000000E+00 -0.00000000000E+00 -0.36800593056E+03  0.36800593056E+03  0.00000000000E+00 0. -1.
         25    2    1    2    0    0 -0.17140794049E+01 -0.26786696344E+02 -0.21212541460E+03  0.24772075513E+03  0.12509162975E+03 0.  0.
          5    1    3    3  502    0  0.14247237007E+02  0.45791146124E+02 -0.11993552090E+03  0.12923549976E+03  0.41800000000E+01 0. -1.
         -5    1    3    3    0  502 -0.15961316412E+02 -0.72577842468E+02 -0.92189893705E+02  0.11848525537E+03  0.41800000000E+01 0. -1.
        -11    1    1    2    0    0 -0.14694391594E+02 -0.11019810771E+02 -0.10804513212E+03  0.10959521863E+03  0.00000000000E+00 0. -1.
         11    1    1    2    0    0  0.16408470999E+02  0.37806507115E+02 -0.14751264814E+02  0.43774075825E+02  0.00000000000E+00 0.  1.
</event>
<event>
 7    1  0.2644565E-009  0.1113185E+03  0.7561462E-02  0.1258148E+00
         -1   -1    0    0    0  501 -0.00000000000E+00  0.00000000000E+00  0.17772835558E+02  0.17772835558E+02  0.00000000000E+00 0.  1.
          1   -1    0    0  501    0  0.00000000000E+00 -0.00000000000E+00 -0.13679651425E+04  0.13679651425E+04  0.00000000000E+00 0. -1.
         25    2    1    2    0    0  0.73274681846E+02 -0.60939899723E+02 -0.98952938544E+03  0.10019473322E+04  0.12508877472E+03 0.  0.
          5    1    3    3  502    0  0.88924829691E+01 -0.35525525576E+02 -0.64241288715E+02  0.74064531299E+02  0.41800000000E+01 0. -1.
         -5    1    3    3    0  502  0.64382198877E+02 -0.25414374147E+02 -0.92528809672E+03  0.92788280094E+03  0.41800000000E+01 0. -1.
        -11    1    1    2    0    0 -0.57117191896E+02  0.40115258348E+01 -0.89520327848E+02  0.10626549321E+03  0.00000000000E+00 0.  1.
         11    1    1    2    0    0 -0.16157489950E+02  0.56928373888E+02 -0.27114259368E+03  0.27752515263E+03  0.00000000000E+00 0. -1.
</event>
<event>
 7    1  0.2644565E-009  0.9097349E+02  0.7561462E-02  0.1300511E+00
          1   -1    0    0  501    0  0.00000000000E+00  0.00000000000E+00  0.50756199073E+02  0.50756199073E+02  0.00000000000E+00 0. -1.
         -1   -1    0    0    0  501 -0.00000000000E+00 -0.00000000000E+00 -0.24784601392E+03  0.24784601392E+03  0.00000000000E+00 0.  1.
         25    2    1    2    0    0 -0.99831994752E+01 -0.75490839382E+01 -0.15094625894E+03  0.19644147996E+03  0.12509128276E+03 0.  0.
          5    1    3    3  502    0 -0.62592138862E+02 -0.15394794406E+02 -0.11565832256E+03  0.13247299921E+03  0.41800000000E+01 0. -1.
         -5    1    3    3    0  502  0.52608939387E+02  0.78457104674E+01 -0.35287936378E+02  0.63968480754E+02  0.41800000000E+01 0. -1.
        -11    1    1    2    0    0 -0.25030157898E+02 -0.71413668179E+01 -0.57005926217E+02  0.62667244620E+02  0.00000000000E+00 0.  1.
         11    1    1    2    0    0  0.35013357373E+02  0.14690450756E+02  0.10862370309E+02  0.39493488409E+02  0.00000000000E+00 0. -1.
</event>
<event>
 7    1  0.2644565E-009  0.1168217E+03  0.7561462E-02  0.1248434E+00
          1   -1    0    0  501    0  0.00000000000E+00  0.00000000000E+00  0.57867610085E+03  0.57867610085E+03  0.00000000000E+00 0. -1.
         -1   -1    0    0    0  501 -0.00000000000E+00 -0.00000000000E+00 -0.36978625496E+02  0.36978625496E+02  0.00000000000E+00 0.  1.
         25    2    1    2    0    0  0.17886110181E+02 -0.92321532270E+02  0.34915690983E+03  0.38262389184E+03  0.12508923482E+03 0.  0.
          5    1    3    3  502    0  0.29890521964E+02 -0.52255548889E+02  0.33164073054E+03  0.33708623859E+03  0.41800000000E+01 0. -1.
         -5    1    3    3    0  502 -0.12004411783E+02 -0.40065983381E+02  0.17516179286E+02  0.45537653248E+02  0.41800000000E+01 0. -1.
        -11    1    1    2    0    0 -0.34577822533E+02  0.10484297553E+03  0.16265513038E+03  0.19658170507E+03  0.00000000000E+00 0.  1.
         11    1    1    2    0    0  0.16691712352E+02 -0.12521443264E+02  0.29885435146E+02  0.36449129435E+02  0.00000000000E+00 0. -1.
</event>
<event>
 7    1  0.2644565E-009  0.9741184E+02  0.7561462E-02  0.1285835E+00
         -2   -1    0    0    0  501 -0.00000000000E+00  0.00000000000E+00  0.40516057604E+02  0.40516057604E+02  0.00000000000E+00 0.  1.
          2   -1    0    0  501    0  0.00000000000E+00 -0.00000000000E+00 -0.48841391666E+03  0.48841391666E+03  0.00000000000E+00 0. -1.
         25    2    1    2    0    0  0.78965602886E+02  0.17138453381E+02 -0.16772756970E+03  0.22429677368E+03  0.12508881654E+03 0.  0.
          5    1    3    3  502    0  0.59721235529E+02 -0.17867046931E+02 -0.12187096928E+02  0.63654183450E+02  0.41800000000E+01 0.  1.
         -5    1    3    3    0  502  0.19244367357E+02  0.35005500312E+02 -0.15554047277E+03  0.16064259023E+03  0.41800000000E+01 0.  1.
        -11    1    1    2    0    0 -0.79241366346E+02 -0.43180071670E+01 -0.28079568850E+03  0.29179454759E+03  0.00000000000E+00 0. -1.
         11    1    1    2    0    0  0.27576346041E+00 -0.12820446214E+02  0.62539913523E+00  0.12838652994E+02  0.00000000000E+00 0.  1.
</event>
<event>
 7    1  0.2644565E-009  0.1013035E+03  0.7561462E-02  0.1277578E+00
          3   -1    0    0  501    0  0.00000000000E+00  0.00000000000E+00  0.20314644833E+02  0.20314644833E+02  0.00000000000E+00 0. -1.
         -3   -1    0    0    0  501 -0.00000000000E+00 -0.00000000000E+00 -0.83459286507E+03  0.83459286507E+03  0.00000000000E+00 0.  1.
         25    2    1    2    0    0  0.24816990277E+02  0.28157032585E+02 -0.64634911582E+03  0.65940992875E+03  0.12508226544E+03 0.  0.
          5    1    3    3  502    0 -0.12561824970E+02  0.71414084424E+02 -0.32852035906E+03  0.33645336916E+03  0.41800000000E+01 0. -1.
         -5    1    3    3    0  502  0.37378815247E+02 -0.43257051839E+02 -0.31782875676E+03  0.32295655960E+03  0.41800000000E+01 0. -1.
        -11    1    1    2    0    0  0.19413245538E+02 -0.19632401753E+02 -0.13955853761E+03  0.14226345533E+03  0.00000000000E+00 0.  1.
         11    1    1    2    0    0 -0.44230235815E+02 -0.85246308317E+01 -0.28370566801E+02  0.53234125819E+02  0.00000000000E+00 0. -1.
</event>
<event>
 7    1  0.2644565E-009  0.4018584E+02  0.7561462E-02  0.1506848E+00
         -1   -1    0    0    0  501 -0.00000000000E+00  0.00000000000E+00  0.17566979292E+03  0.17566979292E+03  0.00000000000E+00 0.  1.
          1   -1    0    0  501    0  0.00000000000E+00 -0.00000000000E+00 -0.88454881024E+02  0.88454881024E+02  0.00000000000E+00 0. -1.
         25    2    1    2    0    0  0.27920084090E+02 -0.13113855778E+02  0.10624246755E+03  0.16699256684E+03  0.12509017212E+03 0.  0.
          5    1    3    3  502    0  0.32797296247E+02 -0.57565220179E+01 -0.20860455649E+02  0.39514949029E+02  0.41800000000E+01 0.  1.
         -5    1    3    3    0  502 -0.48772121577E+01 -0.73573337599E+01  0.12710292320E+03  0.12747761781E+03  0.41800000000E+01 0.  1.
        -11    1    1    2    0    0 -0.74453789645E+01  0.14731827796E+02  0.35345227114E+02  0.39009556495E+02  0.00000000000E+00 0.  1.
         11    1    1    2    0    0 -0.20474705125E+02 -0.16179720184E+01 -0.54372782765E+02  0.58122550607E+02  0.00000000000E+00 0. -1.
</event>
<event>
 7    1  0.2644565E-009  0.1054071E+03  0.7561462E-02  0.1269320E+00
         -2   -1    0    0    0  501 -0.00000000000E+00  0.00000000000E+00  0.59895037740E+02  0.59895037740E+02  0.00000000000E+00 0.  1.
          2   -1    0    0  501    0  0.00000000000E+00 -0.00000000000E+00 -0.29897812987E+03  0.29897812987E+03  0.00000000000E+00 0. -1.
         25    2    1    2    0    0  0.72064672419E+02 -0.15014536943E+02 -0.16562835004E+03  0.22021808600E+03  0.12507798261E+03 0.  0.
          5    1    3    3  502    0  0.93592625373E+02 -0.41741398194E+02 -0.15131604476E+03  0.18280027804E+03  0.41800000000E+01 0. -1.
         -5    1    3    3    0  502 -0.21527952954E+02  0.26726861251E+02 -0.14312305281E+02  0.37417807969E+02  0.41800000000E+01 0. -1.
        -11    1    1    2    0    0 -0.48029408970E+02  0.11497557604E+02  0.11152344897E+02  0.50629959051E+02  0.00000000000E+00 0.  1.
         11    1    1    2    0    0 -0.24035263449E+02  0.35169793388E+01 -0.84607086988E+02  0.88025122558E+02  0.00000000000E+00 0. -1.
</event>
<event>
 7    1  0.2644565E-009  0.8818796E+02  0.7561462E-02  0.1307300E+00
         -2   -1    0    0    0  501 -0.00000000000E+00  0.00000000000E+00  0.11609210236E+02  0.11609210236E+02  0.00000000000E+00 0.  1.
          2   -1    0    0  501    0  0.00000000000E+00 -0.00000000000E+00 -0.11114299568E+04  0.11114299568E+04  0.00000000000E+00 0. -1.
         25    2    1    2    0    0 -0.30529743684E+02 -0.31319874935E+01 -0.73370190939E+03  0.74492138378E+03  0.12508997395E+03 0.  0.
          5    1    3    3  502    0 -0.13603693091E+01  0.36805087177E+02 -0.61689311797E+03  0.61800570907E+03  0.41800000000E+01 0.  1.
         -5    1    3    3    0  502 -0.29169374375E+02 -0.39937074671E+02 -0.11680879142E+03  0.12691567471E+03  0.41800000000E+01 0.  1.
        -11    1    1    2    0    0 -0.29389666883E+02 -0.24907916558E+01 -0.70259781052E+02  0.76199694199E+02  0.00000000000E+00 0.  1.
         11    1    1    2    0    0  0.59919410566E+02  0.56227791493E+01 -0.29585905613E+03  0.30191808906E+03  0.00000000000E+00 0. -1.
</event>
<event>
 7    1  0.2644565E-009  0.1577434E+03  0.7561462E-02  0.1191268E+00
         -1   -1    0    0    0  501 -0.00000000000E+00  0.00000000000E+00  0.19165255653E+03  0.19165255653E+03  0.00000000000E+00 0.  1.
          1   -1    0    0  501    0  0.00000000000E+00 -0.00000000000E+00 -0.15136647293E+03  0.15136647293E+03  0.00000000000E+00 0. -1.
         25    2    1    2    0    0  0.11224538626E+03 -0.63728544701E+02  0.44833968040E+02  0.18524957167E+03  0.12508782901E+03 0.  0.
          5    1    3    3  502    0  0.78169977603E+02 -0.10078670191E+03  0.43118280491E+02  0.13470398358E+03  0.41800000000E+01 0.  1.
         -5    1    3    3    0  502  0.34075408660E+02  0.37058157209E+02  0.17156875491E+01  0.50545588084E+02  0.41800000000E+01 0.  1.
        -11    1    1    2    0    0 -0.72099933047E+02  0.14006047617E+02  0.36295534029E+02  0.81926402983E+02  0.00000000000E+00 0.  1.
         11    1    1    2    0    0 -0.40145453215E+02  0.49722497084E+02 -0.40843418472E+02  0.75843054808E+02  0.00000000000E+00 0. -1.
</event>
<event>
 7    1  0.3722246E-009  0.2363847E+03  0.7561462E-02  0.1122225E+00
         -1   -1    0    0    0  501 -0.00000000000E+00  0.00000000000E+00  0.78813154666E+02  0.78813154666E+02  0.00000000000E+00 0.  1.
          1   -1    0    0  501    0  0.00000000000E+00 -0.00000000000E+00 -0.80446761633E+03  0.80446761633E+03  0.00000000000E+00 0. -1.
         25    2    1    2    0    0  0.20619450260E+03  0.42429289723E+02 -0.52186832526E+03  0.57646428158E+03  0.12509237185E+03 0.  0.
          5    1    3    3  502    0  0.93875048219E+01  0.46842591775E+02 -0.99371273589E+02  0.11033800825E+03  0.41800000000E+01 0. -1.
         -5    1    3    3    0  502  0.19680699778E+03 -0.44133020522E+01 -0.42249705167E+03  0.46612627332E+03  0.41800000000E+01 0. -1.
        -11    1    1    2    0    0 -0.85320302286E+02  0.25767876004E+02 -0.96793786005E+02  0.13157725649E+03  0.00000000000E+00 0.  1.
         11    1    1    2    0    0 -0.12087420031E+03 -0.68197165726E+02 -0.10699235039E+03  0.17523923293E+03  0.00000000000E+00 0. -1.
</event>
<event>
 7    1  0.2644565E-009  0.1410447E+03  0.7561462E-02  0.1211930E+00
          1   -1    0    0  501    0  0.00000000000E+00  0.00000000000E+00  0.13388464752E+04  0.13388464752E+04  0.00000000000E+00 0. -1.
         -1   -1    0    0    0  501 -0.00000000000E+00 -0.00000000000E+00 -0.25898455930E+02  0.25898455930E+02  0.00000000000E+00 0.  1.
         25    2    1    2    0    0  0.13400708924E+02 -0.11393998080E+03  0.10570753615E+04  0.10706149991E+04  0.12508500406E+03 0.  0.
          5    1    3    3  502    0  0.35303035968E+02 -0.11275665970E+03  0.52825993571E+03  0.54132836683E+03  0.41800000000E+01 0. -1.
         -5    1    3    3    0  502 -0.21902327043E+02 -0.11833211032E+01  0.52881542575E+03  0.52928663226E+03  0.41800000000E+01 0. -1.
        -11    1    1    2    0    0  0.35054178706E+02  0.55147523292E+02  0.86473836723E+02  0.10838712658E+03  0.00000000000E+00 0.  1.
         11    1    1    2    0    0 -0.48454887630E+02  0.58792457510E+02  0.16939882105E+03  0.18574280543E+03  0.00000000000E+00 0. -1.
</event>
<event>
 7    1  0.2644565E-009  0.1356806E+03  0.7561462E-02  0.1219262E+00
          2   -1    0    0  501    0  0.00000000000E+00  0.00000000000E+00  0.23828246983E+03  0.23828246983E+03  0.00000000000E+00 0. -1.
         -2   -1    0    0    0  501 -0.00000000000E+00 -0.00000000000E+00 -0.92703391489E+02  0.92703391489E+02  0.00000000000E+00 0.  1.
         25    2    1    2    0    0  0.63917517465E+02  0.77440905398E+02  0.61639889836E+02  0.17184540189E+03  0.12509525676E+03 0.  0.
          5    1    3    3  502    0  0.85295798165E+02  0.43454734698E+02  0.82468523712E+02  0.12642079321E+03  0.41800000000E+01 0.  1.
         -5    1    3    3    0  502 -0.21378280700E+02  0.33986170701E+02 -0.20828633876E+02  0.45424608680E+02  0.41800000000E+01 0.  1.
        -11    1    1    2    0    0 -0.46142664452E+02 -0.97805858495E+02  0.68441447640E+02  0.12798188619E+03  0.00000000000E+00 0. -1.
         11    1    1    2    0    0 -0.17774853013E+02  0.20364953096E+02  0.15497740866E+02  0.31158573237E+02  0.00000000000E+00 0.  1.
</event>
<event>
 7    1  0.2644565E-009  0.1168509E+03  0.7561462E-02  0.1248384E+00
          2   -1    0    0  501    0  0.00000000000E+00  0.00000000000E+00  0.30195984828E+03  0.30195984828E+03  0.00000000000E+00 0. -1.
         -2   -1    0    0    0  501 -0.00000000000E+00 -0.00000000000E+00 -0.63170122099E+02  0.63170122099E+02  0.00000000000E+00 0.  1.
         25    2    1    2    0    0 -0.82161312737E+02 -0.75474563971E+01  0.15208059483E+03  0.21350078834E+03  0.12508650562E+03 0.  0.
          5    1    3    3  502    0  0.13752826108E+02 -0.20339581873E+02  0.10095446102E+03  0.10398131764E+03  0.41800000000E+01 0. -1.
         -5    1    3    3    0  502 -0.95914138845E+02  0.12792125476E+02  0.51126133806E+02  0.10951947070E+03  0.41800000000E+01 0. -1.
        -11    1    1    2    0    0  0.77372983830E+02 -0.23237445748E+02  0.28609329124E+02  0.85703274293E+02  0.00000000000E+00 0.  1.
         11    1    1    2    0    0  0.47883289066E+01  0.30784902145E+02  0.58099802225E+02  0.65925907748E+02  0.00000000000E+00 0. -1.
</event>
<event>
 7    1  0.2644565E-009  0.7003409E+02  0.7561462E-02  0.1359977E+00
         -2   -1    0    0    0  501 -0.00000000000E+00  0.00000000000E+00  0.19414212588E+03  0.19414212588E+03  0.00000000000E+00 0.  1.
          2   -1    0    0  501    0  0.00000000000E+00 -0.00000000000E+00 -0.63859790687E+02  0.63859790687E+02  0.00000000000E+00 0. -1.
         25    2    1    2    0    0 -0.25234075587E+01 -0.16775933670E+02  0.52953445653E+02  0.13691272160E+03  0.12511285463E+03 0.  0.
          5    1    3    3  502    0 -0.32198607832E+02 -0.43506571723E+01 -0.32110738828E+02  0.45872110396E+02  0.41800000000E+01 0.  1.
         -5    1    3    3    0  502  0.29675200273E+02 -0.12425276498E+02  0.85064184481E+02  0.91040611206E+02  0.41800000000E+01 0.  1.
        -11    1    1    2    0    0 -0.31802538493E+02 -0.76844601845E+01 -0.34101112721E+00  0.32719545711E+02  0.00000000000E+00 0. -1.
         11    1    1    2    0    0  0.34325946052E+02  0.24460393855E+02  0.77669900666E+02  0.88369649254E+02  0.00000000000E+00 0.  1.
</event>
<event>
 7    1  0.2644565E-009  0.2296856E+03  0.7561462E-02  0.1126861E+00
          2   -1    0    0  501    0  0.00000000000E+00  0.00000000000E+00  0.12281897335E+04  0.12281897335E+04  0.00000000000E+00 0. -1.
         -2   -1    0    0    0  501 -0.00000000000E+00 -0.00000000000E+00 -0.51477062336E+02  0.51477062336E+02  0.00000000000E+00 0.  1.
         25    2    1    2    0    0 -0.16019925461E+03  0.13576050432E+03  0.82078913495E+03  0.85640923480E+03  0.12508899905E+03 0.  0.
          5    1    3    3  502    0 -0.43855059157E+02 -0.16011340434E+02  0.25188566852E+03  0.25620985860E+03  0.41800000000E+01 0. -1.
         -5    1    3    3    0  502 -0.11634419545E+03  0.15177184475E+03  0.56890346643E+03  0.60019937620E+03  0.41800000000E+01 0. -1.
        -11    1    1    2    0    0  0.11663727953E+03 -0.53902342175E+02  0.25900322421E+03  0.28912348161E+03  0.00000000000E+00 0. -1.
         11    1    1    2    0    0  0.43561975082E+02 -0.81858162145E+02  0.96920311971E+02  0.13413407940E+03  0.00000000000E+00 0.  1.
</event>
<event>
 7    1  0.2644565E-009  0.8282684E+02  0.7561462E-02  0.1321215E+00
          2   -1    0    0  501    0  0.00000000000E+00  0.00000000000E+00  0.62234948903E+03  0.62234948903E+03  0.00000000000E+00 0. -1.
         -2   -1    0    0    0  501 -0.00000000000E+00 -0.00000000000E+00 -0.21976297494E+02  0.21976297494E+02  0.00000000000E+00 0.  1.
         25    2    1    2    0    0  0.27481568123E+02  0.14187357999E+02  0.42128779819E+03  0.44055373642E+03  0.12509063935E+03 0.  0.
          5    1    3    3  502    0  0.47145017641E+02 -0.12701540243E+02  0.39469317246E+03  0.39772371641E+03  0.41800000000E+01 0. -1.
         -5    1    3    3    0  502 -0.19663449517E+02  0.26888898243E+02  0.26594625732E+02  0.42830020003E+02  0.41800000000E+01 0. -1.
        -11    1    1    2    0    0  0.50015270977E+01 -0.40786543114E+02  0.14175827965E+03  0.14759392678E+03  0.00000000000E+00 0. -1.
         11    1    1    2    0    0 -0.32483095221E+02  0.26599185115E+02  0.37327113694E+02  0.56178123328E+02  0.00000000000E+00 0.  1.
</event>
<event>
 7    1  0.2644565E-009  0.1214450E+03  0.7561462E-02  0.1240732E+00
          1   -1    0    0  501    0  0.00000000000E+00  0.00000000000E+00  0.40504008387E+03  0.40504008387E+03  0.00000000000E+00 0. -1.
         -1   -1    0    0    0  501 -0.00000000000E+00 -0.00000000000E+00 -0.60909781416E+02  0.60909781416E+02  0.00000000000E+00 0.  1.
         25    2    1    2    0    0  0.89893754515E+02 -0.18567370997E+01  0.84166129608E+02  0.17550945927E+03  0.12504118660E+03 0.  0.
          5    1    3    3  502    0  0.11538517033E+03 -0.25608198098E+01  0.92916174257E+02  0.14822679639E+03  0.41800000000E+01 0.  1.
         -5    1    3    3    0  502 -0.25491415811E+02  0.70408271014E+00 -0.87500446488E+01  0.27282662881E+02  0.41800000000E+01 0.  1.
        -11    1    1    2    0    0 -0.49971408313E+02 -0.22489554370E+02  0.22625425922E+03  0.23279585804E+03  0.00000000000E+00 0. -1.
         11    1    1    2    0    0 -0.39922346201E+02  0.24346291469E+02  0.33709913620E+02  0.57644547971E+02  0.00000000000E+00 0.  1.
</event>
<event>
 7    1  0.2644565E-009  0.8631346E+02  0.7561462E-02  0.1312033E+00
          1   -1    0    0  501    0  0.00000000000E+00  0.00000000000E+00  0.14013531706E+04  0.14013531706E+04  0.00000000000E+00 0. -1.
         -1   -1    0    0    0  501 -0.00000000000E+00 -0.00000000000E+00 -0.11558773650E+02  0.11558773650E+02  0.00000000000E+00 0.  1.
         25    2    1    2    0    0 -0.18205897379E+02  0.35765070189E+02  0.11132004066E+04  0.11209253546E+04  0.12509160833E+03 0.  0.
          5    1    3    3  502    0  0.21911160197E+02 -0.86748355685E+01  0.44388023554E+02  0.50429363950E+02  0.41800000000E+01 0.  1.
         -5    1    3    3    0  502 -0.40117057576E+02  0.44439905757E+02  0.10688123830E+04  0.10704959907E+04  0.41800000000E+01 0.  1.
        -11    1    1    2    0    0  0.38278099101E+01  0.25481255815E+02  0.12892949838E+03  0.13147913172E+03  0.00000000000E+00 0. -1.
         11    1    1    2    0    0  0.14378087469E+02 -0.61246326004E+02  0.14766449199E+03  0.16050745791E+03  0.00000000000E+00 0.  1.
</event>
<event>
 7    1  0.2644565E-009  0.1104916E+03  0.7561462E-02  0.1259662E+00
          2   -1    0    0  501    0  0.00000000000E+00  0.00000000000E+00  0.10408011077E+04  0.10408011077E+04  0.00000000000E+00 0. -1.
         -2   -1    0    0    0  501 -0.00000000000E+00 -0.00000000000E+00 -0.12089769787E+02  0.12089769787E+02  0.00000000000E+00 0.  1.
         25    2    1    2    0    0  0.23204915022E+02  0.11414145479E+02  0.53176111067E+03  0.54688787555E+03  0.12509084223E+03 0.  0.
          5    1    3    3  502    0 -0.47981834572E+02 -0.14717953262E+02  0.17328842932E+03  0.18045837950E+03  0.41800000000E+01 0. -1.
         -5    1    3    3    0  502  0.71186749594E+02  0.26132098741E+02  0.35847268135E+03  0.36642949605E+03  0.41800000000E+01 0. -1.
        -11    1    1    2    0    0 -0.22095660894E+02  0.38691558431E+02  0.20547875930E+03  0.21025407356E+03  0.00000000000E+00 0.  1.
         11    1    1    2    0    0 -0.11092541283E+01 -0.50105703910E+02  0.29147146798E+03  0.29574892841E+03  0.00000000000E+00 0. -1.
</event>
<event>
 7    1  0.2644565E-009  0.9127944E+02  0.7561462E-02  0.1299783E+00
          2   -1    0    0  501    0  0.00000000000E+00  0.00000000000E+00  0.67290942648E+03  0.67290942648E+03  0.00000000000E+00 0. -1.
         -2   -1    0    0    0  501 -0.00000000000E+00 -0.00000000000E+00 -0.17849178959E+02  0.17849178959E+02  0.00000000000E+00 0.  1.
         25    2    1    2    0    0 -0.70135455187E+01 -0.15311792022E+02  0.39929392760E+03  0.41876776955E+03  0.12508862219E+03 0.  0.
          5    1    3    3  502    0 -0.51315712033E+02  0.14209991189E+02  0.88104103784E+02  0.10302927572E+03  0.41800000000E+01 0.  1.
         -5    1    3    3    0  502  0.44302166514E+02 -0.29521783210E+02  0.31118982382E+03  0.31573849384E+03  0.41800000000E+01 0.  1.
        -11    1    1    2    0    0  0.33703710540E+02 -0.13649483095E+02  0.46392343207E+02  0.58944872560E+02  0.00000000000E+00 0. -1.
         11    1    1    2    0    0 -0.26690165021E+02  0.28961275117E+02  0.20937397671E+03  0.21304596333E+03  0.00000000000E+00 0.  1.
</event>
<event>
 7    1  0.2644565E-009  0.2004030E+03  0.7561462E-02  0.1149399E+00
         -2   -1    0    0    0  501 -0.00000000000E+00  0.00000000000E+00  0.21550361752E+03  0.21550361752E+03  0.00000000000E+00 0.  1.
          2   -1    0    0  501    0  0.00000000000E+00 -0.00000000000E+00 -0.24268554536E+03  0.24268554536E+03  0.00000000000E+00 0. -1.
         25    2    1    2    0    0 -0.17148303059E+03  0.19844211256E+02  0.86636459814E+02  0.23011537934E+03  0.12508792565E+03 0.  0.
          5    1    3    3  502    0  0.15474379194E+02 -0.68525056602E+01  0.26788950329E+02  0.31961437780E+02  0.41800000000E+01 0. -1.
         -5    1    3    3    0  502 -0.18695740978E+03  0.26696716916E+02  0.59847509486E+02  0.19815394156E+03  0.41800000000E+01 0. -1.
        -11    1    1    2    0    0  0.13367744382E+03 -0.53376276241E+02 -0.65445665860E+02  0.15811964151E+03  0.00000000000E+00 0. -1.
         11    1    1    2    0    0  0.37805586767E+02  0.33532064985E+02 -0.48372721795E+02  0.69954142028E+02  0.00000000000E+00 0.  1.
</event>
<event>
 7    1  0.2644565E-009  0.9199374E+02  0.7561462E-02  0.1298094E+00
          2   -1    0    0  501    0  0.00000000000E+00  0.00000000000E+00  0.12672219121E+04  0.12672219121E+04  0.00000000000E+00 0. -1.
         -2   -1    0    0    0  501 -0.00000000000E+00 -0.00000000000E+00 -0.14036835017E+02  0.14036835017E+02  0.00000000000E+00 0.  1.
         25    2    1    2    0    0 -0.11413700807E+02  0.72112010044E+02  0.83747720506E+03  0.84990958065E+03  0.12509121362E+03 0.  0.
          5    1    3    3  502    0 -0.69878199368E+01  0.11158168228E+02  0.42765449008E+01  0.14460137689E+02  0.41800000000E+01 0. -1.
         -5    1    3    3    0  502 -0.44258808704E+01  0.60953841815E+02  0.83320066016E+03  0.83544944296E+03  0.41800000000E+01 0. -1.
        -11    1    1    2    0    0  0.43067619098E+02 -0.62376162129E+02  0.21599899000E+03  0.22891301645E+03  0.00000000000E+00 0.  1.
         11    1    1    2    0    0 -0.31653918291E+02 -0.97358479146E+01  0.19970888203E+03  0.20243615003E+03  0.00000000000E+00 0. -1.
</event>
<event>
 7    1  0.2644565E-009  0.1367353E+03  0.7561462E-02  0.1217791E+00
          1   -1    0    0  501    0  0.00000000000E+00  0.00000000000E+00  0.76533673112E+02  0.76533673112E+02  0.00000000000E+00 0. -1.
         -1   -1    0    0    0  501 -0.00000000000E+00 -0.00000000000E+00 -0.28787887180E+03  0.28787887180E+03  0.00000000000E+00 0.  1.
         25    2    1    2    0    0  0.25718915700E+02 -0.85011509744E+02 -0.17412495824E+03  0.23206782444E+03  0.12509018604E+03 0.  0.
          5    1    3    3  502    0  0.19633072349E+01 -0.11146732988E+03 -0.15641802402E+03  0.19212727772E+03  0.41800000000E+01 0.  1.
         -5    1    3    3    0  502  0.23755608465E+02  0.26455820134E+02 -0.17706934216E+02  0.39940546715E+02  0.41800000000E+01 0.  1.
        -11    1    1    2    0    0  0.29929452765E+02  0.55648727093E+02 -0.10800297019E+02  0.64103037257E+02  0.00000000000E+00 0. -1.
         11    1    1    2    0    0 -0.55648368465E+02  0.29362782651E+02 -0.26419943434E+02  0.68241683222E+02  0.00000000000E+00 0.  1.
</event>
<event>
 7    1  0.2644565E-009  0.1359004E+03  0.7561462E-02  0.1218954E+00
          2   -1    0    0  501    0  0.00000000000E+00  0.00000000000E+00  0.11616713555E+04  0.11616713555E+04  0.00000000000E+00 0. -1.
         -2   -1    0    0    0  501 -0.00000000000E+00 -0.00000000000E+00 -0.16510052033E+02  0.16510052033E+02  0.00000000000E+00 0.  1.
         25    2    1    2    0    0 -0.80781560978E+02 -0.23504328321E+02  0.69198331619E+03  0.70821366507E+03  0.12509025325E+03 0.  0.
          5    1    3    3  502    0  0.29401663882E+00  0.44502456575E+02  0.21995194885E+03  0.22444796121E+03  0.41800000000E+01 0.  1.
         -5    1    3    3    0  502 -0.81075577617E+02 -0.68006784896E+02  0.47203136734E+03  0.48376570386E+03  0.41800000000E+01 0.  1.
        -11    1    1    2    0    0  0.40237538614E+02 -0.32732267176E+02  0.24886065180E+03  0.25420874265E+03  0.00000000000E+00 0. -1.
         11    1    1    2    0    0  0.40544022364E+02  0.56236595497E+02  0.20431733544E+03  0.21575899977E+03  0.00000000000E+00 0.  1.
</event>
<event>
 7    1  0.2644565E-009  0.1158352E+03  0.7561462E-02  0.1250130E+00
         -2   -1    0    0    0  501 -0.00000000000E+00  0.00000000000E+00  0.26381228740E+02  0.26381228740E+02  0.00000000000E+00 0.  1.
          2   -1    0    0  501    0  0.00000000000E+00 -0.00000000000E+00 -0.83419351271E+03  0.83419351271E+03  0.00000000000E+00 0. -1.
         25    2    1    2    0    0  0.62268934861E+02 -0.50340598690E+02 -0.60716284394E+03  0.62506500926E+03  0.12509176876E+03 0.  0.
          5    1    3    3  502    0  0.69979578165E+02 -0.62968337053E+02 -0.24380319309E+03  0.26138022533E+03  0.41800000000E+01 0.  1.
         -5    1    3    3    0  502 -0.77106433037E+01  0.12627738363E+02 -0.36335965085E+03  0.36368478393E+03  0.41800000000E+01 0.  1.
        -11    1    1    2    0    0 -0.74709425735E+02  0.48098552994E+01 -0.13886025877E+03  0.15775552120E+03  0.00000000000E+00 0. -1.
         11    1    1    2    0    0  0.12440490874E+02  0.45530743391E+02 -0.61789181254E+02  0.77754210992E+02  0.00000000000E+00 0.  1.
</event>
<event>
 7    1  0.2644565E-009  0.1179955E+03  0.7561462E-02  0.1246441E+00
         -2   -1    0    0    0  501 -0.00000000000E+00  0.00000000000E+00  0.34992404565E+02  0.34992404565E+02  0.00000000000E+00 0.  1.
          2   -1    0    0  501    0  0.00000000000E+00 -0.00000000000E+00 -0.52272129543E+03  0.52272129543E+03  0.00000000000E+00 0. -1.
         25    2    1    2    0    0 -0.25726979998E+02 -0.51880601936E+02 -0.37113141901E+03  0.39590358880E+03  0.12509055557E+03 0.  0.
          5    1    3    3  502    0  0.42468870572E+02 -0.95344722854E+01 -0.22417583104E+03  0.22840049639E+03  0.41800000000E+01 0.  1.
         -5    1    3    3    0  502 -0.68195850570E+02 -0.42346129650E+02 -0.14695558797E+03  0.16750309241E+03  0.41800000000E+01 0.  1.
        -11    1    1    2    0    0  0.51021283604E+02 -0.33541297410E+01 -0.59319977497E+02  0.78315268608E+02  0.00000000000E+00 0.  1.
         11    1    1    2    0    0 -0.25294303605E+02  0.55234731677E+02 -0.57277494353E+02  0.83494842581E+02  0.00000000000E+00 0. -1.
</event>
<event>
 7    1  0.2644565E-009  0.1711707E+03  0.7561462E-02  0.1176632E+00
         -1   -1    0    0    0  501 -0.00000000000E+00  0.00000000000E+00  0.15703458178E+03  0.15703458178E+03  0.00000000000E+00 0.  1.
          1   -1    0    0  501    0  0.00000000000E+00 -0.00000000000E+00 -0.23623354414E+03  0.23623354414E+03  0.00000000000E+00 0. -1.
         25    2    1    2    0    0 -0.15365744252E+03  0.19077136773E+01 -0.63237605856E+00  0.19814621543E+03  0.12508906337E+03 0.  0.
          5    1    3    3  502    0  0.49931491002E+01  0.31502390697E+01 -0.35014756043E+02  0.35754175769E+02  0.41800000000E+01 0. -1.
         -5    1    3    3    0  502 -0.15865059162E+03 -0.12425253924E+01  0.34382379985E+02  0.16239203966E+03  0.41800000000E+01 0. -1.
        -11    1    1    2    0    0  0.10927528926E+03 -0.41530813226E+02 -0.66235342765E+02  0.13436151950E+03  0.00000000000E+00 0. -1.
         11    1    1    2    0    0  0.44382153259E+02  0.39623099549E+02 -0.12331243539E+02  0.60760390988E+02  0.00000000000E+00 0.  1.
</event>
<event>
 7    1  0.2644565E-009  0.1578938E+03  0.7561462E-02  0.1191095E+00
          3   -1    0    0  501    0  0.00000000000E+00  0.00000000000E+00  0.54050936278E+03  0.54050936278E+03  0.00000000000E+00 0. -1.
         -3   -1    0    0    0  501 -0.00000000000E+00 -0.00000000000E+00 -0.54418222877E+02  0.54418222877E+02  0.00000000000E+00 0.  1.
         25    2    1    2    0    0 -0.12359826158E+03  0.34541966061E+02  0.19866440949E+03  0.26755393258E+03  0.12509149275E+03 0.  0.
          5    1    3    3  502    0 -0.25300050446E+02  0.67130475553E+02  0.55435846291E+02  0.90759014729E+02  0.41800000000E+01 0. -1.
         -5    1    3    3    0  502 -0.98298211134E+02 -0.32588509492E+02  0.14322856319E+03  0.17679491785E+03  0.41800000000E+01 0. -1.
        -11    1    1    2    0    0  0.14564355555E+02 -0.27381113764E+02  0.16256359141E+02  0.35015925752E+02  0.00000000000E+00 0.  1.
         11    1    1    2    0    0  0.10903390602E+03 -0.71608522963E+01  0.27117037128E+03  0.29235772732E+03  0.00000000000E+00 0. -1.
</event>
<event>
 7    1  0.2644565E-009  0.2187096E+03  0.7561462E-02  0.1134849E+00
         -2   -1    0    0    0  501 -0.00000000000E+00  0.00000000000E+00  0.38354541116E+02  0.38354541116E+02  0.00000000000E+00 0.  1.
          2   -1    0    0  501    0  0.00000000000E+00 -0.00000000000E+00 -0.14660152383E+04  0.14660152383E+04  0.00000000000E+00 0. -1.
         25    2    1    2    0    0 -0.13268554444E+03 -0.16355415837E+03 -0.76222969322E+03  0.80062251885E+03  0.12508755352E+03 0.  0.
          5    1    3    3  502    0 -0.12314744829E+03 -0.16860169177E+03 -0.76082631201E+03  0.78896512847E+03  0.41800000000E+01 0.  1.
         -5    1    3    3    0  502 -0.95380961505E+01  0.50475334080E+01 -0.14033812044E+01  0.11657390381E+02  0.41800000000E+01 0.  1.
        -11    1    1    2    0    0  0.43239490877E+02  0.19453538537E+02 -0.69365790797E+02  0.84022060590E+02  0.00000000000E+00 0.  1.
         11    1    1    2    0    0  0.89446053568E+02  0.14410061983E+03 -0.59606521316E+03  0.61972519997E+03  0.00000000000E+00 0. -1.
</event>
<event>
 7    1  0.2644565E-009  0.1127870E+03  0.7561462E-02  0.1255494E+00
         -2   -1    0    0    0  501 -0.00000000000E+00  0.00000000000E+00  0.97438635738E+01  0.97438635738E+01  0.00000000000E+00 0.  1.
          2   -1    0    0  501    0  0.00000000000E+00 -0.00000000000E+00 -0.21770601120E+04  0.21770601120E+04  0.00000000000E+00 0. -1.
         25    2    1    2    0    0  0.15866602037E+02  0.35227176419E+02 -0.18416601251E+04  0.18463077716E+04  0.12509063976E+03 0.  0.
          5    1    3    3  502    0 -0.52107623907E+02  0.34787713778E+02 -0.90149564200E+03  0.90367984068E+03  0.41800000000E+01 0.  1.
         -5    1    3    3    0  502  0.67974225944E+02  0.43946264071E+00 -0.94016448305E+03  0.94262793090E+03  0.41800000000E+01 0.  1.
        -11    1    1    2    0    0 -0.37722401444E+02 -0.53996863947E+02 -0.17237581949E+03  0.18453201357E+03  0.00000000000E+00 0.  1.
         11    1    1    2    0    0  0.21855799407E+02  0.18769687528E+02 -0.15328030391E+03  0.15596419046E+03  0.00000000000E+00 0. -1.
</event>
<event>
 7    1  0.2644565E-009  0.7171395E+02  0.7561462E-02  0.1354360E+00
          1   -1    0    0  501    0  0.00000000000E+00  0.00000000000E+00  0.56150463728E+02  0.56150463728E+02  0.00000000000E+00 0. -1.
         -1   -1    0    0    0  501 -0.00000000000E+00 -0.00000000000E+00 -0.21456140021E+03  0.21456140021E+03  0.00000000000E+00 0.  1.
         25    2    1    2    0    0 -0.66121052183E+01 -0.12757931959E+01 -0.80282742796E+02  0.14878829449E+03  0.12508912904E+03 0.  0.
          5    1    3    3  502    0  0.99744808652E+01  0.38118589431E+02 -0.95365289455E+02  0.10326920142E+03  0.41800000000E+01 0.  1.
         -5    1    3    3    0  502 -0.16586586084E+02 -0.39394382626E+02  0.15082546659E+02  0.45519093073E+02  0.41800000000E+01 0.  1.
        -11    1    1    2    0    0 -0.23057561442E+02 -0.14516162461E+02 -0.83548191927E+02  0.87878726018E+02  0.00000000000E+00 0.  1.
         11    1    1    2    0    0  0.29669666661E+02  0.15791955657E+02  0.54199982402E+01  0.34044843430E+02  0.00000000000E+00 0. -1.
</event>
<event>
 7    1  0.2644565E-009  0.1027024E+03  0.7561462E-02  0.1274714E+00
         -4   -1    0    0    0  501 -0.00000000000E+00  0.00000000000E+00  0.11485002363E+02  0.11485002363E+02  0.00000000000E+00 0.  1.
          4   -1    0    0  501    0  0.00000000000E+00 -0.00000000000E+00 -0.12585326445E+04  0.12585326445E+04  0.00000000000E+00 0. -1.
         25    2    1    2    0    0 -0.77337353691E+01 -0.11854407748E+02 -0.97539015041E+03  0.98348022896E+03  0.12508827922E+03 0.  0.
          5    1    3    3  502    0 -0.56411761757E+02  0.15032622031E+02 -0.29136826786E+03  0.29718883980E+03  0.41800000000E+01 0.  1.
         -5    1    3    3    0  502  0.48678026388E+02 -0.26887029780E+02 -0.68402188255E+03  0.68629138916E+03  0.41800000000E+01 0.  1.
        -11    1    1    2    0    0  0.73194740578E+01  0.51220084582E+02 -0.15071823353E+03  0.15935199303E+03  0.00000000000E+00 0. -1.
         11    1    1    2    0    0  0.41426131130E+00 -0.39365676834E+02 -0.12093925816E+03  0.12718542483E+03  0.00000000000E+00 0.  1.
</event>
<event>
 7    1  0.2644565E-009  0.1304004E+03  0.7561462E-02  0.1226863E+00
         -2   -1    0    0    0  501 -0.00000000000E+00  0.00000000000E+00  0.11253109289E+04  0.11253109289E+04  0.00000000000E+00 0.  1.
          2   -1    0    0  501    0  0.00000000000E+00 -0.00000000000E+00 -0.18062471116E+02  0.18062471116E+02  0.00000000000E+00 0. -1.
         25    2    1    2    0    0 -0.68500620842E+02  0.54429560996E+02  0.72547708026E+03  0.74135460632E+03  0.12503897854E+03 0.  0.
          5    1    3    3  502    0 -0.98487793147E+02  0.11110987807E+02  0.44232942821E+03  0.45331677104E+03  0.41800000000E+01 0.  1.
         -5    1    3    3    0  502  0.29987172305E+02  0.43318573189E+02  0.28314765206E+03  0.28803783528E+03  0.41800000000E+01 0.  1.
        -11    1    1    2    0    0  0.51928224385E+02 -0.79007427217E-01  0.28587044811E+03  0.29054854988E+03  0.00000000000E+00 0.  1.
         11    1    1    2    0    0  0.16572396457E+02 -0.54350553569E+02  0.95900929430E+02  0.11147024385E+03  0.00000000000E+00 0. -1.
</event>
<event>
 7    1  0.2644565E-009  0.1767890E+03  0.7561462E-02  0.1170947E+00
         -1   -1    0    0    0  501 -0.00000000000E+00  0.00000000000E+00  0.15052284326E+03  0.15052284326E+03  0.00000000000E+00 0.  1.
          1   -1    0    0  501    0  0.00000000000E+00 -0.00000000000E+00 -0.24446257308E+03  0.24446257308E+03  0.00000000000E+00 0. -1.
         25    2    1    2    0    0 -0.76381892443E+02  0.12354092693E+03  0.16399240038E+02  0.19238555959E+03  0.12508682721E+03 0.  0.
          5    1    3    3  502    0  0.34187228064E+02  0.23323056619E+02 -0.36620578669E+01  0.41756611459E+02  0.41800000000E+01 0.  1.
         -5    1    3    3    0  502 -0.11056912051E+03  0.10021787031E+03  0.20061297905E+02  0.15062894813E+03  0.41800000000E+01 0.  1.
        -11    1    1    2    0    0  0.85032279270E+01  0.98585335835E+01  0.46800135351E+01  0.13834670082E+02  0.00000000000E+00 0.  1.
         11    1    1    2    0    0  0.67878664516E+02 -0.13339946052E+03 -0.11501898339E+03  0.18876518668E+03  0.00000000000E+00 0. -1.
</event>
<event>
 7    1  0.2644565E-009  0.1833990E+03  0.7561462E-02  0.1164553E+00
          2   -1    0    0  501    0  0.00000000000E+00  0.00000000000E+00  0.10938152050E+04  0.10938152050E+04  0.00000000000E+00 0. -1.
         -2   -1    0    0    0  501 -0.00000000000E+00 -0.00000000000E+00 -0.39429821766E+02  0.39429821766E+02  0.00000000000E+00 0.  1.
         25    2    1    2    0    0 -0.54315444537E+02 -0.14203603497E+03  0.30925412633E+03  0.36661825455E+03  0.12508567934E+03 0.  0.
          5    1    3    3  502    0 -0.70996467329E+02 -0.36296235851E+02  0.77364056820E+02  0.11117816691E+03  0.41800000000E+01 0.  1.
         -5    1    3    3    0  502  0.16681022792E+02 -0.10573979912E+03  0.23189006951E+03  0.25544008764E+03  0.41800000000E+01 0.  1.
        -11    1    1    2    0    0 -0.88724595114E+01  0.10739806286E+03  0.41983559377E+03  0.43344548705E+03  0.00000000000E+00 0. -1.
         11    1    1    2    0    0  0.63187904048E+02  0.34637972112E+02  0.32529566314E+03  0.33318128517E+03  0.00000000000E+00 0.  1.
</event>
<event>
 7    1  0.2644565E-009  0.1815579E+03  0.7561462E-02  0.1166304E+00
          2   -1    0    0  501    0  0.00000000000E+00  0.00000000000E+00  0.51983411729E+03  0.51983411729E+03  0.00000000000E+00 0. -1.
         -2   -1    0    0    0  501 -0.00000000000E+00 -0.00000000000E+00 -0.93420090977E+02  0.93420090977E+02  0.00000000000E+00 0.  1.
         25    2    1    2    0    0  0.16993330832E+03  0.18239580813E+02  0.10063304655E+03  0.23448909815E+03  0.12509242786E+03 0.  0.
          5    1    3    3  502    0  0.73162537116E+02  0.40478926527E+02  0.10586843797E+03  0.13496999255E+03  0.41800000000E+01 0.  1.
         -5    1    3    3    0  502  0.96770771201E+02 -0.22239345714E+02 -0.52353914151E+01  0.99519105602E+02  0.41800000000E+01 0.  1.
        -11    1    1    2    0    0 -0.13246525815E+03  0.10375391216E+02  0.16858892319E+03  0.21465534790E+03  0.00000000000E+00 0.  1.
         11    1    1    2    0    0 -0.37468050169E+02 -0.28614972029E+02  0.15719205657E+03  0.16410976222E+03  0.00000000000E+00 0. -1.
</event>
<event>
 7    1  0.2644565E-009  0.1469862E+03  0.7561462E-02  0.1204226E+00
          1   -1    0    0  501    0  0.00000000000E+00  0.00000000000E+00  0.76999812478E+02  0.76999812478E+02  0.00000000000E+00 0. -1.
         -1   -1    0    0    0  501 -0.00000000000E+00 -0.00000000000E+00 -0.33350388079E+03  0.33350388079E+03  0.00000000000E+00 0.  1.
         25    2    1    2    0    0  0.66776778268E+02  0.78442790789E+02 -0.66106068816E+02  0.17501268590E+03  0.12508804239E+03 0.  0.
          5    1    3    3  502    0 -0.32728350966E+02  0.31001401337E+02  0.20871288488E+01  0.45321742560E+02  0.41800000000E+01 0. -1.
         -5    1    3    3    0  502  0.99505129234E+02  0.47441389452E+02 -0.68193197664E+02  0.12969094334E+03  0.41800000000E+01 0. -1.
        -11    1    1    2    0    0 -0.67626795040E+02 -0.81845524859E+01 -0.10000540495E+03  0.12100186497E+03  0.00000000000E+00 0. -1.
         11    1    1    2    0    0  0.85001677218E+00 -0.70258238303E+02 -0.90392594545E+02  0.11448914240E+03  0.00000000000E+00 0.  1.
</event>
<event>
 7    1  0.2644565E-009  0.1428514E+03  0.7561462E-02  0.1209543E+00
          1   -1    0    0  501    0  0.00000000000E+00  0.00000000000E+00  0.81213304477E+02  0.81213304477E+02  0.00000000000E+00 0. -1.
         -1   -1    0    0    0  501 -0.00000000000E+00 -0.00000000000E+00 -0.40687868289E+03  0.40687868289E+03  0.00000000000E+00 0.  1.
         25    2    1    2    0    0  0.11457310879E+03 -0.62283093891E+02 -0.26111533930E+03  0.31754624991E+03  0.12509284300E+03 0.  0.
          5    1    3    3  502    0  0.74802034618E+02 -0.81643923529E+02 -0.96169456974E+02  0.14672120326E+03  0.41800000000E+01 0. -1.
         -5    1    3    3    0  502  0.39771074177E+02  0.19360829639E+02 -0.16494588232E+03  0.17082504665E+03  0.41800000000E+01 0. -1.
        -11    1    1    2    0    0 -0.12717154186E+02  0.83087369239E+01 -0.52489562841E+02  0.54643529600E+02  0.00000000000E+00 0.  1.
         11    1    1    2    0    0 -0.10185595461E+03  0.53974356967E+02 -0.12060476275E+02  0.11590220786E+03  0.00000000000E+00 0. -1.
</event>
<event>
 7    1  0.2644565E-009  0.9754094E+02  0.7561462E-02  0.1285554E+00
         -1   -1    0    0    0  501 -0.00000000000E+00  0.00000000000E+00  0.67938611127E+02  0.67938611127E+02  0.00000000000E+00 0.  1.
          1   -1    0    0  501    0  0.00000000000E+00 -0.00000000000E+00 -0.26896212151E+03  0.26896212151E+03  0.00000000000E+00 0. -1.
         25    2    1    2    0    0 -0.55121479451E+01 -0.36282948554E+01 -0.21372303162E+03  0.24772753622E+03  0.12509136525E+03 0.  0.
          5    1    3    3  502    0  0.53289547856E+01  0.54248375242E+02 -0.15543317807E+03  0.16476719704E+03  0.41800000000E+01 0. -1.
         -5    1    3    3    0  502 -0.10841102731E+02 -0.57876670098E+02 -0.58289853542E+02  0.82960339174E+02  0.41800000000E+01 0. -1.
        -11    1    1    2    0    0  0.24657563892E+02  0.36081016872E+02  0.23970962944E+02  0.49844180203E+02  0.00000000000E+00 0.  1.
         11    1    1    2    0    0 -0.19145415947E+02 -0.32452722017E+02 -0.11271441709E+02  0.39329016213E+02  0.00000000000E+00 0. -1.
</event>
<event>
 7    1  0.2644565E-009  0.1483009E+03  0.7561462E-02  0.1202577E+00
         -2   -1    0    0    0  501 -0.00000000000E+00  0.00000000000E+00  0.30009722477E+03  0.30009722477E+03  0.00000000000E+00 0.  1.
          2   -1    0    0  501    0  0.00000000000E+00 -0.00000000000E+00 -0.13263795253E+03  0.13263795253E+03  0.00000000000E+00 0. -1.
         25    2    1    2    0    0  0.21810247269E+02 -0.81667485281E+02 -0.57779869029E+02  0.16165288117E+03  0.12509146928E+03 0.  0.
          5    1    3    3  502    0 -0.10160085546E+02  0.31458415186E+02 -0.11630948774E+02  0.35293208890E+02  0.41800000000E+01 0. -1.
         -5    1    3    3    0  502  0.31970332815E+02 -0.11312590047E+03 -0.46148920254E+02  0.12635967228E+03  0.41800000000E+01 0. -1.
        -11    1    1    2    0    0 -0.65145847264E+02  0.78767097265E+02  0.18746465833E+03  0.21352104147E+03  0.00000000000E+00 0.  1.
         11    1    1    2    0    0  0.43335599994E+02  0.29003880162E+01  0.37774482936E+02  0.57561254665E+02  0.00000000000E+00 0. -1.
</event>
<event>
 7    1  0.2644565E-009  0.1537180E+03  0.7561462E-02  0.1195977E+00
         -2   -1    0    0    0  501 -0.00000000000E+00  0.00000000000E+00  0.47807178059E+02  0.47807178059E+02  0.00000000000E+00 0. -1.
          2   -1    0    0  501    0  0.00000000000E+00 -0.00000000000E+00 -0.63045599924E+03  0.63045599924E+03  0.00000000000E+00 0.  1.
         25    2    1    2    0    0  0.21335232746E+02  0.12826245429E+03 -0.38063348505E+03  0.42123140117E+03  0.12509034355E+03 0.  0.
          5    1    3    3  502    0 -0.30398953126E+02  0.11629170862E+03 -0.31182178976E+03  0.33421274484E+03  0.41800000000E+01 0. -1.
         -5    1    3    3    0  502  0.51734185872E+02  0.11970745669E+02 -0.68811695296E+02  0.87018656328E+02  0.41800000000E+01 0. -1.
        -11    1    1    2    0    0  0.55341565211E+01 -0.64086286434E+02 -0.16737737158E+03  0.17931219566E+03  0.00000000000E+00 0.  1.
         11    1    1    2    0    0 -0.26869389268E+02 -0.64176167856E+02 -0.34637964553E+02  0.77719580472E+02  0.00000000000E+00 0. -1.
</event>
<event>
 7    1  0.2644565E-009  0.8739549E+02  0.7561462E-02  0.1309284E+00
         -1   -1    0    0    0  501 -0.00000000000E+00  0.00000000000E+00  0.21444202027E+02  0.21444202027E+02  0.00000000000E+00 0.  1.
          1   -1    0    0  501    0  0.00000000000E+00 -0.00000000000E+00 -0.76171204480E+03  0.76171204480E+03  0.00000000000E+00 0. -1.
         25    2    1    2    0    0  0.58323026228E+02 -0.60904359953E+01 -0.31372192604E+03  0.34279406336E+03  0.12509058396E+03 0.  0.
          5    1    3    3  502    0  0.12556581163E+01 -0.13807601522E+02  0.75804499693E+01  0.16345095865E+02  0.41800000000E+01 0. -1.
         -5    1    3    3    0  502  0.57067368112E+02  0.77171655263E+01 -0.32130237601E+03  0.32644896749E+03  0.41800000000E+01 0. -1.
        -11    1    1    2    0    0 -0.41976865765E+02 -0.37331066673E+02 -0.15466002377E+03  0.16454600800E+03  0.00000000000E+00 0.  1.
         11    1    1    2    0    0 -0.16346160464E+02  0.43421502668E+02 -0.27188589297E+03  0.27581617547E+03  0.00000000000E+00 0. -1.
</event>
<event>
 7    1  0.2644565E-009  0.1056050E+03  0.7561462E-02  0.1268932E+00
         -2   -1    0    0    0  501 -0.00000000000E+00  0.00000000000E+00  0.90481450787E+02  0.90481450787E+02  0.00000000000E+00 0.  1.
          2   -1    0    0  501    0  0.00000000000E+00 -0.00000000000E+00 -0.13381471762E+03  0.13381471762E+03  0.00000000000E+00 0. -1.
         25    2    1    2    0    0  0.99640587680E+01  0.18143569304E+02 -0.29587330193E+02  0.13019546532E+03  0.12508787914E+03 0.  0.
          5    1    3    3  502    0 -0.55226474826E+02  0.37499287744E+01 -0.30418053139E+02  0.63298940309E+02  0.41800000000E+01 0.  1.
         -5    1    3    3    0  502  0.65190533594E+02  0.14393640530E+02  0.83072294640E+00  0.66896525011E+02  0.41800000000E+01 0.  1.
        -11    1    1    2    0    0  0.35861104109E+02 -0.23189014530E+02 -0.20732989349E+02  0.47472160580E+02  0.00000000000E+00 0. -1.
         11    1    1    2    0    0 -0.45825162877E+02  0.50454452254E+01  0.69870527139E+01  0.46628542502E+02  0.00000000000E+00 0.  1.
</event>
<event>
 7    1  0.2644565E-009  0.3195659E+03  0.7561462E-02  0.1075849E+00
          2   -1    0    0  501    0  0.00000000000E+00  0.00000000000E+00  0.16357002175E+04  0.16357002175E+04  0.00000000000E+00 0. -1.
         -2   -1    0    0    0  501 -0.00000000000E+00 -0.00000000000E+00 -0.66414591492E+02  0.66414591492E+02  0.00000000000E+00 0.  1.
         25    2    1    2    0    0 -0.72141029370E+02 -0.29664464654E+03  0.94858103440E+03  0.10043193645E+04  0.12509609344E+03 0.  0.
          5    1    3    3  502    0  0.10256703105E+02  0.16959216522E+01  0.71141363119E+01  0.13272507084E+02  0.41800000000E+01 0.  1.
         -5    1    3    3    0  502 -0.82397732474E+02 -0.29834056820E+03  0.94146689809E+03  0.99104685739E+03  0.41800000000E+01 0.  1.
        -11    1    1    2    0    0  0.17272652416E+02  0.23590326604E+03  0.44491377981E+03  0.50388189779E+03  0.00000000000E+00 0. -1.
         11    1    1    2    0    0  0.54868376953E+02  0.60741380501E+02  0.17579081183E+03  0.19391354676E+03  0.00000000000E+00 0.  1.
</event>
<event>
 7    1  0.2644565E-009  0.9465670E+02  0.7561462E-02  0.1291951E+00
         -2   -1    0    0    0  501 -0.00000000000E+00  0.00000000000E+00  0.10306828236E+03  0.10306828236E+03  0.00000000000E+00 0.  1.
          2   -1    0    0  501    0  0.00000000000E+00 -0.00000000000E+00 -0.17884216683E+03  0.17884216683E+03  0.00000000000E+00 0. -1.
         25    2    1    2    0    0  0.65161089891E+02 -0.12487807704E+02 -0.93853288282E+02  0.16989231052E+03  0.12511212761E+03 0.  0.
          5    1    3    3  502    0  0.31359427442E+02 -0.29982966415E+02 -0.11720231997E+03  0.12504498459E+03  0.41800000000E+01 0. -1.
         -5    1    3    3    0  502  0.33801662448E+02  0.17495158711E+02  0.23349031685E+02  0.44847325932E+02  0.41800000000E+01 0. -1.
        -11    1    1    2    0    0  0.19188290071E+02 -0.77478833818E+01  0.14374813856E+02  0.25196337951E+02  0.00000000000E+00 0.  1.
         11    1    1    2    0    0 -0.84349379962E+02  0.20235691086E+02  0.37045899644E+01  0.86821800721E+02  0.00000000000E+00 0. -1.
</event>
<event>
 7    1  0.2644565E-009  0.1591128E+03  0.7561462E-02  0.1189702E+00
          1   -1    0    0  501    0  0.00000000000E+00  0.00000000000E+00  0.88048477028E+03  0.88048477028E+03  0.00000000000E+00 0. -1.
         -1   -1    0    0    0  501 -0.00000000000E+00 -0.00000000000E+00 -0.49357144268E+02  0.49357144268E+02  0.00000000000E+00 0.  1.
         25    2    1    2    0    0  0.15207980987E+03 -0.33107563857E+02  0.21971800286E+03  0.29689957616E+03  0.12509587599E+03 0.  0.
          5    1    3    3  502    0  0.99958157529E+02 -0.28869247243E+02  0.43169150946E+02  0.11272140297E+03  0.41800000000E+01 0. -1.
         -5    1    3    3    0  502  0.52121652345E+02 -0.42383166147E+01  0.17654885191E+03  0.18417817320E+03  0.41800000000E+01 0. -1.
        -11    1    1    2    0    0 -0.53267721190E+02 -0.93639518802E+01  0.15988620445E+03  0.16878605419E+03  0.00000000000E+00 0.  1.
         11    1    1    2    0    0 -0.98812088684E+02  0.42471515738E+02  0.45152341870E+03  0.46415628419E+03  0.00000000000E+00 0. -1.
</event>
<event>
 7    1  0.2644565E-009  0.2169897E+03  0.7561462E-02  0.1136147E+00
          2   -1    0    0  501    0  0.00000000000E+00  0.00000000000E+00  0.96726033601E+03  0.96726033601E+03  0.00000000000E+00 0.  1.
         -2   -1    0    0    0  501 -0.00000000000E+00 -0.00000000000E+00 -0.60012438243E+02  0.60012438243E+02  0.00000000000E+00 0. -1.
         25    2    1    2    0    0 -0.18366058511E+02 -0.21404392664E+03  0.49946286922E+03  0.55790895034E+03  0.12508846670E+03 0.  0.
          5    1    3    3  502    0 -0.24468566884E+02 -0.16967817524E+03  0.24230778955E+03  0.29685001464E+03  0.41800000000E+01 0. -1.
         -5    1    3    3    0  502  0.61025083728E+01 -0.44365751405E+02  0.25715507967E+03  0.26105893570E+03  0.41800000000E+01 0. -1.
        -11    1    1    2    0    0  0.23681723016E+02  0.81612486287E+02  0.24574798202E+03  0.26002594599E+03  0.00000000000E+00 0. -1.
         11    1    1    2    0    0 -0.53156645052E+01  0.13243144036E+03  0.16203704652E+03  0.20933787792E+03  0.00000000000E+00 0.  1.
</event>
<event>
 7    1  0.2644565E-009  0.9282723E+02  0.7561462E-02  0.1296146E+00
          2   -1    0    0  501    0  0.00000000000E+00  0.00000000000E+00  0.90787730554E+03  0.90787730554E+03  0.00000000000E+00 0. -1.
         -2   -1    0    0    0  501 -0.00000000000E+00 -0.00000000000E+00 -0.21889529788E+02  0.21889529788E+02  0.00000000000E+00 0.  1.
         25    2    1    2    0    0 -0.17738059401E+02  0.43293418931E+02  0.74780659853E+03  0.75963880754E+03  0.12508976874E+03 0.  0.
          5    1    3    3  502    0  0.98388254919E+01 -0.37835357743E+02  0.12739691698E+03  0.13332578010E+03  0.41800000000E+01 0.  1.
         -5    1    3    3    0  502 -0.27576884893E+02  0.81128776674E+02  0.62040968155E+03  0.62631302745E+03  0.41800000000E+01 0.  1.
        -11    1    1    2    0    0  0.27066817215E+02 -0.15410527495E+02  0.13721981589E+03  0.14071025131E+03  0.00000000000E+00 0. -1.
         11    1    1    2    0    0 -0.93287578147E+01 -0.27882891437E+02  0.96136133662E+00  0.29417776477E+02  0.00000000000E+00 0.  1.
</event>
<event>
 7    1  0.2644565E-009  0.1086176E+03  0.7561462E-02  0.1263151E+00
          1   -1    0    0  501    0  0.00000000000E+00  0.00000000000E+00  0.33325987140E+03  0.33325987140E+03  0.00000000000E+00 0. -1.
         -1   -1    0    0    0  501 -0.00000000000E+00 -0.00000000000E+00 -0.47897399533E+02  0.47897399533E+02  0.00000000000E+00 0.  1.
         25    2    1    2    0    0 -0.31070267541E+02 -0.22971452226E+02  0.83151441519E+02  0.15509672468E+03  0.12509109736E+03 0.  0.
          5    1    3    3  502    0 -0.28799077208E+02 -0.68817158423E+02  0.79127850539E+02  0.10882957903E+03  0.41800000000E+01 0. -1.
         -5    1    3    3    0  502 -0.22711903331E+01  0.45845706197E+02  0.40235909805E+01  0.46267145650E+02  0.41800000000E+01 0. -1.
        -11    1    1    2    0    0  0.56394899406E+02 -0.74038291141E+01  0.84299815062E+02  0.10169395353E+03  0.00000000000E+00 0. -1.
         11    1    1    2    0    0 -0.25324631865E+02  0.30375281340E+02  0.11791121529E+03  0.12436659273E+03  0.00000000000E+00 0.  1.
</event>
<event>
 7    1  0.2699016E-009  0.9066180E+02  0.7561462E-02  0.1301257E+00
          2   -1    0    0  501    0  0.00000000000E+00  0.00000000000E+00  0.21395871224E+04  0.21395871224E+04  0.00000000000E+00 0. -1.
         -2   -1    0    0    0  501 -0.00000000000E+00 -0.00000000000E+00 -0.10782149798E+02  0.10782149798E+02  0.00000000000E+00 0.  1.
         25    2    1    2    0    0  0.39066005106E+02 -0.50680670970E+02  0.17530169609E+04  0.17586389112E+04  0.12509065432E+03 0.  0.
          5    1    3    3  502    0  0.20519989006E+02  0.15957729939E+01  0.14730301208E+04  0.14731798347E+04  0.41800000000E+01 0.  1.
         -5    1    3    3    0  502  0.18546016100E+02 -0.52276443963E+02  0.27998684013E+03  0.28545907649E+03  0.41800000000E+01 0.  1.
        -11    1    1    2    0    0 -0.61623833612E+02  0.16591144052E+02  0.28662413134E+03  0.29364290490E+03  0.00000000000E+00 0. -1.
         11    1    1    2    0    0  0.22557828506E+02  0.34089526917E+02  0.89163880329E+02  0.98087456016E+02  0.00000000000E+00 0.  1.
</event>
<event>
 7    1  0.2644565E-009  0.9527002E+02  0.7561462E-02  0.1290569E+00
         -1   -1    0    0    0  501 -0.00000000000E+00  0.00000000000E+00  0.18548366007E+02  0.18548366007E+02  0.00000000000E+00 0.  1.
          1   -1    0    0  501    0  0.00000000000E+00 -0.00000000000E+00 -0.80080384314E+03  0.80080384314E+03  0.00000000000E+00 0. -1.
         25    2    1    2    0    0 -0.14266273672E+02  0.16895164361E+02 -0.60951720900E+03  0.62261441519E+03  0.12509399984E+03 0.  0.
          5    1    3    3  502    0 -0.40275035601E+02 -0.41322687303E+02 -0.37956470306E+03  0.38394853716E+03  0.41800000000E+01 0.  1.
         -5    1    3    3    0  502  0.26008761929E+02  0.58217851664E+02 -0.22995250594E+03  0.23866587803E+03  0.41800000000E+01 0.  1.
        -11    1    1    2    0    0 -0.17650943576E+02 -0.29575050201E+02 -0.15361536952E+03  0.15742909882E+03  0.00000000000E+00 0. -1.
         11    1    1    2    0    0  0.31917217248E+02  0.12679885840E+02 -0.19122898622E+02  0.39308695139E+02  0.00000000000E+00 0.  1.
</event>
<event>
 7    1  0.2644565E-009  0.1348163E+03  0.7561462E-02  0.1220479E+00
         -1   -1    0    0    0  501 -0.00000000000E+00  0.00000000000E+00  0.23980832839E+03  0.23980832839E+03  0.00000000000E+00 0.  1.
          1   -1    0    0  501    0  0.00000000000E+00 -0.00000000000E+00 -0.10285859409E+03  0.10285859409E+03  0.00000000000E+00 0. -1.
         25    2    1    2    0    0 -0.35753769965E+02 -0.98834645042E+02  0.27537753855E+02  0.16568740318E+03  0.12508944223E+03 0.  0.
          5    1    3    3  502    0  0.45948665810E+02 -0.23254077781E+02  0.13698516287E+02  0.53452350478E+02  0.41800000000E+01 0.  1.
         -5    1    3    3    0  502 -0.81702435774E+02 -0.75580567261E+02  0.13839237569E+02  0.11223505270E+03  0.41800000000E+01 0.  1.
        -11    1    1    2    0    0  0.45659199319E+01  0.37512033588E+02 -0.10068628710E+02  0.39107257291E+02  0.00000000000E+00 0. -1.
         11    1    1    2    0    0  0.31187850033E+02  0.61322611454E+02  0.11948060916E+03  0.13787226200E+03  0.00000000000E+00 0.  1.
</event>
<event>
 7    1  0.2644565E-009  0.9317530E+02  0.7561462E-02  0.1295339E+00
          1   -1    0    0  501    0  0.00000000000E+00  0.00000000000E+00  0.25310847903E+03  0.25310847903E+03  0.00000000000E+00 0. -1.
         -1   -1    0    0    0  501 -0.00000000000E+00 -0.00000000000E+00 -0.47377660720E+02  0.47377660720E+02  0.00000000000E+00 0.  1.
         25    2    1    2    0    0 -0.17289566380E+02  0.16285323347E+02  0.12356147532E+03  0.17742245934E+03  0.12508856875E+03 0.  0.
          5    1    3    3  502    0  0.38548219378E+02  0.23891997224E+02  0.11036591681E+03  0.11939388905E+03  0.41800000000E+01 0. -1.
         -5    1    3    3    0  502 -0.55837785757E+02 -0.76066738779E+01  0.13195558510E+02  0.58028570292E+02  0.41800000000E+01 0. -1.
        -11    1    1    2    0    0  0.23319501347E+02  0.29788969019E+02  0.13535699577E+02  0.40179559247E+02  0.00000000000E+00 0.  1.
         11    1    1    2    0    0 -0.60299349669E+01 -0.46074292366E+02  0.68633643415E+02  0.82884121164E+02  0.00000000000E+00 0. -1.
</event>
<event>
 7    1  0.2644565E-009  0.2260415E+03  0.7561462E-02  0.1129457E+00
         -2   -1    0    0    0  501 -0.00000000000E+00  0.00000000000E+00  0.75115075685E+02  0.75115075685E+02  0.00000000000E+00 0.  1.
          2   -1    0    0  501    0  0.00000000000E+00 -0.00000000000E+00 -0.85534301269E+03  0.85534301269E+03  0.00000000000E+00 0. -1.
         25    2    1    2    0    0  0.14953168458E+03 -0.13844784640E+03 -0.59583036915E+03  0.64201952171E+03  0.12509079340E+03 0.  0.
          5    1    3    3  502    0  0.23625985987E+01  0.21233106500E+02 -0.61086070878E+02  0.64849110550E+02  0.41800000000E+01 0.  1.
         -5    1    3    3    0  502  0.14716908598E+03 -0.15968095290E+03 -0.53474429827E+03  0.57717041116E+03  0.41800000000E+01 0.  1.
        -11    1    1    2    0    0 -0.23648744875E+02  0.60740684227E+02 -0.22078282492E+02  0.68819651353E+02  0.00000000000E+00 0.  1.
         11    1    1    2    0    0 -0.12588293970E+03  0.77707162175E+02 -0.16231928536E+03  0.21961891531E+03  0.00000000000E+00 0. -1.
</event>
<event>
 7    1  0.2644565E-009  0.1413791E+03  0.7561462E-02  0.1211485E+00
          1   -1    0    0  501    0  0.00000000000E+00  0.00000000000E+00  0.33778390343E+03  0.33778390343E+03  0.00000000000E+00 0. -1.
         -1   -1    0    0    0  501 -0.00000000000E+00 -0.00000000000E+00 -0.10348942318E+03  0.10348942318E+03  0.00000000000E+00 0.  1.
         25    2    1    2    0    0 -0.11936036930E+03 -0.61116941194E+02  0.40303500670E+02  0.18776160606E+03  0.12509144768E+03 0.  0.
          5    1    3    3  502    0 -0.20507220886E+02  0.10987604792E+02  0.59329137100E+02  0.63864641834E+02  0.41800000000E+01 0.  1.
         -5    1    3    3    0  502 -0.98853148412E+02 -0.72104545986E+02 -0.19025636430E+02  0.12389696423E+03  0.41800000000E+01 0.  1.
        -11    1    1    2    0    0  0.70917449504E+02  0.50608317780E+02  0.18308360978E+03  0.20275624440E+03  0.00000000000E+00 0. -1.
         11    1    1    2    0    0  0.48442919794E+02  0.10508623414E+02  0.10907369805E+02  0.50755476160E+02  0.00000000000E+00 0.  1.
</event>
<event>
 7    1  0.2644565E-009  0.1957792E+03  0.7561462E-02  0.1153350E+00
          2   -1    0    0  501    0  0.00000000000E+00  0.00000000000E+00  0.15592082199E+03  0.15592082199E+03  0.00000000000E+00 0.  1.
         -2   -1    0    0    0  501 -0.00000000000E+00 -0.00000000000E+00 -0.25407721544E+03  0.25407721544E+03  0.00000000000E+00 0. -1.
         25    2    1    2    0    0  0.82634797157E+02 -0.14308299488E+03 -0.29617087050E+02  0.20934794343E+03  0.12509251155E+03 0.  0.
          5    1    3    3  502    0  0.48163850554E+02  0.77750971874E+01  0.90350861666E+01  0.49792708487E+02  0.41800000000E+01 0.  1.
         -5    1    3    3    0  502  0.34470946603E+02 -0.15085809207E+03 -0.38652173217E+02  0.15955523494E+03  0.41800000000E+01 0.  1.
        -11    1    1    2    0    0  0.12826991634E+02  0.59627180111E+02 -0.13756380097E+02  0.62523358161E+02  0.00000000000E+00 0.  1.
         11    1    1    2    0    0 -0.95461788791E+02  0.83455814768E+02 -0.54782926305E+02  0.13812673584E+03  0.00000000000E+00 0. -1.
</event>
<event>
 7    1  0.2644565E-009  0.1307571E+03  0.7561462E-02  0.1226337E+00
         -1   -1    0    0    0  501 -0.00000000000E+00  0.00000000000E+00  0.13992960224E+03  0.13992960224E+03  0.00000000000E+00 0.  1.
          1   -1    0    0  501    0  0.00000000000E+00 -0.00000000000E+00 -0.13262178513E+03  0.13262178513E+03  0.00000000000E+00 0. -1.
         25    2    1    2    0    0 -0.22549482594E+02 -0.72926623725E+02  0.34060124146E+02  0.15044685887E+03  0.12508954262E+03 0.  0.
          5    1    3    3  502    0 -0.72408471119E+02 -0.27811169792E+02  0.75361864088E+01  0.78043028904E+02  0.41800000000E+01 0. -1.
         -5    1    3    3    0  502  0.49858988525E+02 -0.45115453933E+02  0.26523937737E+02  0.72403829963E+02  0.41800000000E+01 0. -1.
        -11    1    1    2    0    0 -0.27134345859E+02 -0.12769355474E+01 -0.17527878738E+02  0.32328467682E+02  0.00000000000E+00 0. -1.
         11    1    1    2    0    0  0.49683828453E+02  0.74203559272E+02 -0.92244283004E+01  0.89776060818E+02  0.00000000000E+00 0.  1.
</event>
<event>
 7    1  0.2644565E-009  0.1038959E+03  0.7561462E-02  0.1272310E+00
         -2   -1    0    0    0  501 -0.00000000000E+00  0.00000000000E+00  0.33280766891E+02  0.33280766891E+02  0.00000000000E+00 0.  1.
          2   -1    0    0  501    0  0.00000000000E+00 -0.00000000000E+00 -0.63400439574E+03  0.63400439574E+03  0.00000000000E+00 0. -1.
         25    2    1    2    0    0 -0.16078495286E+02 -0.64869678084E+02 -0.49375453437E+03  0.51372669928E+03  0.12511989527E+03 0.  0.
          5    1    3    3  502    0  0.38168610597E+02 -0.11474366600E+02 -0.33747194453E+03  0.33984303681E+03  0.41800000000E+01 0. -1.
         -5    1    3    3    0  502 -0.54247105884E+02 -0.53395311485E+02 -0.15628258984E+03  0.17388366247E+03  0.41800000000E+01 0. -1.
        -11    1    1    2    0    0  0.69925770714E+01  0.76448302577E+02 -0.43148287692E+02  0.88062556355E+02  0.00000000000E+00 0.  1.
         11    1    1    2    0    0  0.90859182149E+01 -0.11578624492E+02 -0.63820806778E+02  0.65495906993E+02  0.00000000000E+00 0. -1.
</event>
<event>
 7    1  0.2644565E-009  0.2816739E+03  0.7561462E-02  0.1094778E+00
          2   -1    0    0  501    0  0.00000000000E+00  0.00000000000E+00  0.32657473301E+04  0.32657473301E+04  0.00000000000E+00 0.  1.
         -2   -1    0    0    0  501 -0.00000000000E+00 -0.00000000000E+00 -0.31421325024E+02  0.31421325024E+02  0.00000000000E+00 0. -1.
         25    2    1    2    0    0  0.21520717837E+03 -0.17113861042E+03  0.22771970865E+04  0.22971453902E+04  0.12509124440E+03 0.  0.
          5    1    3    3  502    0  0.25056726820E+02 -0.55632747634E+02  0.23375390074E+03  0.24162202027E+03  0.41800000000E+01 0.  1.
         -5    1    3    3    0  502  0.19015045155E+03 -0.11550586278E+03  0.20434431858E+04  0.20555233700E+04  0.41800000000E+01 0.  1.
        -11    1    1    2    0    0 -0.18086427094E+03  0.11651842177E+03  0.83036224337E+03  0.85778195501E+03  0.00000000000E+00 0.  1.
         11    1    1    2    0    0 -0.34342907437E+02  0.54620188651E+02  0.12676667516E+03  0.14224130986E+03  0.00000000000E+00 0. -1.
</event>
<event>
 7    1  0.2644565E-009  0.1630832E+03  0.7561462E-02  0.1185259E+00
          2   -1    0    0  501    0  0.00000000000E+00  0.00000000000E+00  0.16548846304E+04  0.16548846304E+04  0.00000000000E+00 0. -1.
         -2   -1    0    0    0  501 -0.00000000000E+00 -0.00000000000E+00 -0.22279502004E+02  0.22279502004E+02  0.00000000000E+00 0.  1.
         25    2    1    2    0    0  0.13547435702E+03  0.37185653027E+02  0.11598756665E+04  0.11750298199E+04  0.12508973548E+03 0.  0.
          5    1    3    3  502    0  0.11754381851E+03 -0.25099889459E+02  0.64982770669E+03  0.66086312842E+03  0.41800000000E+01 0. -1.
         -5    1    3    3    0  502  0.17930538512E+02  0.62285542486E+02  0.51004795976E+03  0.51416669152E+03  0.41800000000E+01 0. -1.
        -11    1    1    2    0    0 -0.67330142151E+02 -0.24411805165E+02  0.99938843471E+02  0.12295144045E+03  0.00000000000E+00 0. -1.
         11    1    1    2    0    0 -0.68144214872E+02 -0.12773847861E+02  0.37279061849E+03  0.37918287204E+03  0.00000000000E+00 0.  1.
</event>
<event>
 7    1  0.2644565E-009  0.1229686E+03  0.7561462E-02  0.1238279E+00
         -1   -1    0    0    0  501 -0.00000000000E+00  0.00000000000E+00  0.15339973133E+02  0.15339973133E+02  0.00000000000E+00 0.  1.
          1   -1    0    0  501    0  0.00000000000E+00 -0.00000000000E+00 -0.13300614227E+04  0.13300614227E+04  0.00000000000E+00 0. -1.
         25    2    1    2    0    0  0.26192290299E+02 -0.53149165530E+02 -0.10482251611E+04  0.10573242280E+04  0.12509062700E+03 0.  0.
          5    1    3    3  502    0  0.12790935284E+02  0.40087759152E+02 -0.40945453903E+03  0.41163227326E+03  0.41800000000E+01 0.  1.
         -5    1    3    3    0  502  0.13401355015E+02 -0.93236924682E+02 -0.63877062203E+03  0.64569195473E+03  0.41800000000E+01 0.  1.
        -11    1    1    2    0    0  0.16601325364E+02 -0.19152753133E+02 -0.64925794438E+02  0.69697853194E+02  0.00000000000E+00 0.  1.
         11    1    1    2    0    0 -0.42793615663E+02  0.72301918663E+02 -0.20157049405E+03  0.21837931463E+03  0.00000000000E+00 0. -1.
</event>
<event>
 7    1  0.2644565E-009  0.1146842E+03  0.7561462E-02  0.1252133E+00
         -1   -1    0    0    0  501 -0.00000000000E+00  0.00000000000E+00  0.24073001996E+02  0.24073001996E+02  0.00000000000E+00 0.  1.
          1   -1    0    0  501    0  0.00000000000E+00 -0.00000000000E+00 -0.62733712242E+03  0.62733712242E+03  0.00000000000E+00 0. -1.
         25    2    1    2    0    0 -0.51597501049E+02 -0.17615827576E+02 -0.38748188042E+03  0.41080541769E+03  0.12508502730E+03 0.  0.
          5    1    3    3  502    0 -0.73562132404E+02  0.23902249014E+02 -0.31462004038E+03  0.32401535001E+03  0.41800000000E+01 0. -1.
         -5    1    3    3    0  502  0.21964631354E+02 -0.41518076590E+02 -0.72861840041E+02  0.86790067683E+02  0.41800000000E+01 0. -1.
        -11    1    1    2    0    0  0.76528037238E+02  0.46948994206E+01 -0.13740197938E+03  0.15734639018E+03  0.00000000000E+00 0.  1.
         11    1    1    2    0    0 -0.24930536189E+02  0.12920928156E+02 -0.78380260622E+02  0.83258316547E+02  0.00000000000E+00 0. -1.
</event>
<event>
 7    1  0.2644565E-009  0.9696160E+02  0.7561462E-02  0.1286818E+00
          2   -1    0    0  501    0  0.00000000000E+00  0.00000000000E+00  0.68211601700E+02  0.68211601700E+02  0.00000000000E+00 0. -1.
         -2   -1    0    0    0  501 -0.00000000000E+00 -0.00000000000E+00 -0.39734999281E+03  0.39734999281E+03  0.00000000000E+00 0.  1.
         25    2    1    2    0    0 -0.41465681496E+02  0.40049927856E+02 -0.32708861297E+03  0.35490781018E+03  0.12509673668E+03 0.  0.
          5    1    3    3  502    0 -0.51760092354E+02  0.11479316904E+02 -0.40922449961E+02  0.67104405130E+02  0.41800000000E+01 0.  1.
         -5    1    3    3    0  502  0.10294410858E+02  0.28570610952E+02 -0.28616616301E+03  0.28780340505E+03  0.41800000000E+01 0.  1.
        -11    1    1    2    0    0 -0.27577625497E+02 -0.29254325253E+02  0.45510939407E+01  0.40460516929E+02  0.00000000000E+00 0. -1.
         11    1    1    2    0    0  0.69043306993E+02 -0.10795602603E+02 -0.66008720766E+01  0.70193267400E+02  0.00000000000E+00 0.  1.
</event>
<event>
 7    1  0.2644565E-009  0.8948554E+02  0.7561462E-02  0.1304102E+00
         -1   -1    0    0    0  501 -0.00000000000E+00  0.00000000000E+00  0.14821073022E+03  0.14821073022E+03  0.00000000000E+00 0.  1.
          1   -1    0    0  501    0  0.00000000000E+00 -0.00000000000E+00 -0.12263109831E+03  0.12263109831E+03  0.00000000000E+00 0. -1.
         25    2    1    2    0    0  0.30545582575E+02  0.73372088156E+02  0.84138123838E+01  0.14844103217E+03  0.12508977520E+03 0.  0.
          5    1    3    3  502    0  0.18857243117E+02  0.20137885813E+02 -0.56838610334E+02  0.63318481407E+02  0.41800000000E+01 0.  1.
         -5    1    3    3    0  502  0.11688339458E+02  0.53234202343E+02  0.65252422718E+02  0.85122550766E+02  0.41800000000E+01 0.  1.
        -11    1    1    2    0    0 -0.19879165089E+02  0.22759091361E+01  0.38233558571E+02  0.43152821090E+02  0.00000000000E+00 0.  1.
         11    1    1    2    0    0 -0.10666417486E+02 -0.75647997293E+02 -0.21067739043E+02  0.79247975272E+02  0.00000000000E+00 0. -1.
</event>
<event>
 7    1  0.2644565E-009  0.1198702E+03  0.7561462E-02  0.1243311E+00
          2   -1    0    0  501    0  0.00000000000E+00  0.00000000000E+00  0.10538321787E+04  0.10538321787E+04  0.00000000000E+00 0. -1.
         -2   -1    0    0    0  501 -0.00000000000E+00 -0.00000000000E+00 -0.25782427351E+02  0.25782427351E+02  0.00000000000E+00 0.  1.
         25    2    1    2    0    0 -0.62266917556E+02 -0.26237488484E+02  0.88605837855E+03  0.89739357500E+03  0.12510077307E+03 0.  0.
          5    1    3    3  502    0 -0.31955875390E+02  0.40860175910E+02  0.58993057766E+03  0.59222148796E+03  0.41800000000E+01 0. -1.
         -5    1    3    3    0  502 -0.30311042166E+02 -0.67097664394E+02  0.29612780089E+03  0.30517208704E+03  0.41800000000E+01 0. -1.
        -11    1    1    2    0    0  0.61552151420E+02 -0.22258887943E+02  0.75541522878E+02  0.99953224639E+02  0.00000000000E+00 0.  1.
         11    1    1    2    0    0  0.71476613593E+00  0.48496376427E+02  0.66449849898E+02  0.82267806392E+02  0.00000000000E+00 0. -1.
</event>
<event>
 7    1  0.2644565E-009  0.1071112E+03  0.7561462E-02  0.1266015E+00
          1   -1    0    0  501    0  0.00000000000E+00  0.00000000000E+00  0.17162872705E+02  0.17162872705E+02  0.00000000000E+00 0.  1.
         -1   -1    0    0    0  501 -0.00000000000E+00 -0.00000000000E+00 -0.77973053680E+03  0.77973053680E+03  0.00000000000E+00 0. -1.
         25    2    1    2    0    0 -0.66612509110E+01 -0.34181289769E+02 -0.35772492040E+03  0.38056296498E+03  0.12509324046E+03 0.  0.
          5    1    3    3  502    0 -0.62332475705E+01 -0.75810611349E+02 -0.29837691835E+03  0.30794863204E+03  0.41800000000E+01 0. -1.
         -5    1    3    3    0  502 -0.42800334053E+00  0.41629321580E+02 -0.59348002047E+02  0.72614332945E+02  0.41800000000E+01 0. -1.
        -11    1    1    2    0    0 -0.19129922143E+02  0.58012131576E+02 -0.28365170573E+03  0.29015453038E+03  0.00000000000E+00 0.  1.
         11    1    1    2    0    0  0.25791173054E+02 -0.23830841808E+02 -0.12119103795E+03  0.12617591414E+03  0.00000000000E+00 0. -1.
</event>
<event>
 7    1  0.3711961E-009  0.1634323E+03  0.7561462E-02  0.1184875E+00
          2   -1    0    0  501    0  0.00000000000E+00  0.00000000000E+00  0.57624668042E+03  0.57624668042E+03  0.00000000000E+00 0. -1.
         -2   -1    0    0    0  501 -0.00000000000E+00 -0.00000000000E+00 -0.51101120545E+02  0.51101120545E+02  0.00000000000E+00 0.  1.
         25    2    1    2    0    0  0.19599441213E+02  0.13097233247E+03  0.27750807846E+03  0.33196486727E+03  0.12510815130E+03 0.  0.
          5    1    3    3  502    0  0.40554529555E+02  0.84299609363E+01  0.14219307849E+03  0.14816233691E+03  0.41800000000E+01 0.  1.
         -5    1    3    3    0  502 -0.20955088342E+02  0.12254237153E+03  0.13531499997E+03  0.18380253035E+03  0.41800000000E+01 0.  1.
        -11    1    1    2    0    0 -0.56081646047E+02 -0.89367811324E+02  0.15579070250E+03  0.18815552001E+03  0.00000000000E+00 0. -1.
         11    1    1    2    0    0  0.36482204834E+02 -0.41604521145E+02  0.91846778913E+02  0.10722741369E+03  0.00000000000E+00 0.  1.
</event>
<event>
 7    1  0.2644565E-009  0.8880407E+02  0.7561462E-02  0.1305774E+00
         -2   -1    0    0    0  501 -0.00000000000E+00  0.00000000000E+00  0.31768242579E+02  0.31768242579E+02  0.00000000000E+00 0.  1.
          2   -1    0    0  501    0  0.00000000000E+00 -0.00000000000E+00 -0.90418729070E+03  0.90418729070E+03  0.00000000000E+00 0. -1.
         25    2    1    2    0    0 -0.84817875484E+01 -0.12318034382E+02 -0.82204283882E+03  0.83164031516E+03  0.12509000867E+03 0.  0.
          5    1    3    3  502    0 -0.91998147485E+01 -0.64184899962E+02 -0.60346557138E+03  0.60695346298E+03  0.41800000000E+01 0.  1.
         -5    1    3    3    0  502  0.71802720017E+00  0.51866865580E+02 -0.21857726743E+03  0.22468685219E+03  0.41800000000E+01 0.  1.
        -11    1    1    2    0    0  0.30639563062E+02  0.20618652106E+02 -0.66231801409E+02  0.75832467698E+02  0.00000000000E+00 0. -1.
         11    1    1    2    0    0 -0.22157775513E+02 -0.83006177241E+01  0.15855592103E+02  0.28482750416E+02  0.00000000000E+00 0.  1.
</event>
<event>
 7    1  0.2644565E-009  0.1095200E+03  0.7561462E-02  0.1261461E+00
         -1   -1    0    0    0  501 -0.00000000000E+00  0.00000000000E+00  0.18893589400E+02  0.18893589400E+02  0.00000000000E+00 0.  1.
          1   -1    0    0  501    0  0.00000000000E+00 -0.00000000000E+00 -0.19130155369E+04  0.19130155369E+04  0.00000000000E+00 0. -1.
         25    2    1    2    0    0 -0.14136736171E+02  0.53119305000E+02 -0.17284731195E+04  0.17338650111E+04  0.12508814488E+03 0.  0.
          5    1    3    3  502    0 -0.23283335547E+02  0.79618232892E+02 -0.68646710289E+03  0.69147359492E+03  0.41800000000E+01 0. -1.
         -5    1    3    3    0  502  0.91465993758E+01 -0.26498927891E+02 -0.10420060166E+04  0.10423914162E+04  0.41800000000E+01 0. -1.
        -11    1    1    2    0    0 -0.37596229279E+02 -0.68128698483E+01 -0.46973994565E+02  0.60551199963E+02  0.00000000000E+00 0. -1.
         11    1    1    2    0    0  0.51732965450E+02 -0.46306435152E+02 -0.11867483343E+03  0.13749291524E+03  0.00000000000E+00 0.  1.
</event>
<event>
 7    1  0.2644565E-009  0.1332149E+03  0.7561462E-02  0.1222762E+00
         -1   -1    0    0    0  501 -0.00000000000E+00  0.00000000000E+00  0.14322065467E+04  0.14322065467E+04  0.00000000000E+00 0.  1.
          1   -1    0    0  501    0  0.00000000000E+00 -0.00000000000E+00 -0.20984985332E+02  0.20984985332E+02  0.00000000000E+00 0. -1.
         25    2    1    2    0    0  0.85571469767E+02  0.11871139803E+02  0.11846391047E+04  0.11943536214E+04  0.12508942524E+03 0.  0.
          5    1    3    3  502    0 -0.16010836682E+02 -0.34333825690E+02  0.22065601860E+03  0.22392344545E+03  0.41800000000E+01 0.  1.
         -5    1    3    3    0  502  0.10158230645E+03  0.46204965493E+02  0.96398308607E+03  0.97043017598E+03  0.41800000000E+01 0.  1.
        -11    1    1    2    0    0 -0.46066738319E+02  0.33143168177E+02  0.15748087479E+03  0.16739426484E+03  0.00000000000E+00 0.  1.
         11    1    1    2    0    0 -0.39504731449E+02 -0.45014307980E+02  0.69101581929E+02  0.91443645787E+02  0.00000000000E+00 0. -1.
</event>
<event>
 7    1  0.2644565E-009  0.9544623E+02  0.7561462E-02  0.1290174E+00
         -2   -1    0    0    0  501 -0.00000000000E+00  0.00000000000E+00  0.83965315715E+02  0.83965315715E+02  0.00000000000E+00 0.  1.
          2   -1    0    0  501    0  0.00000000000E+00 -0.00000000000E+00 -0.18040874108E+03  0.18040874108E+03  0.00000000000E+00 0. -1.
         25    2    1    2    0    0  0.24364893383E+02  0.14835508905E+02 -0.10905100997E+03  0.16838775746E+03  0.12509425939E+03 0.  0.
          5    1    3    3  502    0 -0.39377679894E+02  0.36881512484E+02 -0.75636641898E+02  0.93001191576E+02  0.41800000000E+01 0. -1.
         -5    1    3    3    0  502  0.63742573278E+02 -0.22046003578E+02 -0.33414368070E+02  0.75386565881E+02  0.41800000000E+01 0. -1.
        -11    1    1    2    0    0  0.17977727746E+02 -0.19594962087E+02 -0.26938786185E+02  0.37853129794E+02  0.00000000000E+00 0. -1.
         11    1    1    2    0    0 -0.42342621130E+02  0.47594531813E+01  0.39546370788E+02  0.58133169544E+02  0.00000000000E+00 0.  1.
</event>
<event>
 7    1  0.2644565E-009  0.1591484E+03  0.7561462E-02  0.1189662E+00
          1   -1    0    0  501    0  0.00000000000E+00  0.00000000000E+00  0.40810461385E+03  0.40810461385E+03  0.00000000000E+00 0. -1.
         -1   -1    0    0    0  501 -0.00000000000E+00 -0.00000000000E+00 -0.71667268024E+02  0.71667268024E+02  0.00000000000E+00 0.  1.
         25    2    1    2    0    0  0.10574354271E+03 -0.68381827847E+02  0.12394951657E+03  0.21649133887E+03  0.12508895212E+03 0.  0.
          5    1    3    3  502    0  0.35551762958E+01  0.33012561148E+02  0.22295653727E+02  0.40212399172E+02  0.41800000000E+01 0.  1.
         -5    1    3    3    0  502  0.10218836642E+03 -0.10139438899E+03  0.10165386284E+03  0.17627893970E+03  0.41800000000E+01 0.  1.
        -11    1    1    2    0    0 -0.10321172864E+03  0.37475055298E+02  0.20309670723E+03  0.23087943431E+03  0.00000000000E+00 0. -1.
         11    1    1    2    0    0 -0.25318140756E+01  0.30906772549E+02  0.93911220299E+01  0.32401108698E+02  0.00000000000E+00 0.  1.
</event>
<event>
 7    1  0.2644565E-009  0.6746211E+02  0.7561462E-02  0.1368942E+00
         -2   -1    0    0    0  501 -0.00000000000E+00  0.00000000000E+00  0.48263000217E+02  0.48263000217E+02  0.00000000000E+00 0. -1.
          2   -1    0    0  501    0  0.00000000000E+00 -0.00000000000E+00 -0.26132564342E+03  0.26132564342E+03  0.00000000000E+00 0.  1.
         25    2    1    2    0    0 -0.90581324035E+01 -0.25565359106E+02 -0.19342125423E+03  0.23193822579E+03  0.12509165299E+03 0.  0.
          5    1    3    3  502    0 -0.30645045468E+02 -0.59850158667E+01 -0.19941830217E+03  0.20189123524E+03  0.41800000000E+01 0. -1.
         -5    1    3    3    0  502  0.21586913064E+02 -0.19580343240E+02  0.59970479437E+01  0.30046990549E+02  0.41800000000E+01 0. -1.
        -11    1    1    2    0    0  0.38713085067E+02  0.20789755527E+02 -0.18249690987E+02  0.47581173918E+02  0.00000000000E+00 0. -1.
         11    1    1    2    0    0 -0.29654952664E+02  0.47756035793E+01 -0.13916979875E+01  0.30069243927E+02  0.00000000000E+00 0.  1.
</event>
<event>
 7    1  0.2644565E-009  0.9509139E+02  0.7561462E-02  0.1290970E+00
         -2   -1    0    0    0  501 -0.00000000000E+00  0.00000000000E+00  0.11530533012E+04  0.11530533012E+04  0.00000000000E+00 0.  1.
          2   -1    0    0  501    0  0.00000000000E+00 -0.00000000000E+00 -0.23800961202E+02  0.23800961202E+02  0.00000000000E+00 0. -1.
         25    2    1    2    0    0 -0.40807609375E+02 -0.15797201907E+02  0.10126327709E+04  0.10212640499E+04  0.12506125888E+03 0.  0.
          5    1    3    3  502    0 -0.47308590059E+00  0.39226962709E+02  0.12674194805E+03  0.13274024337E+03  0.41800000000E+01 0. -1.
         -5    1    3    3    0  502 -0.40334523474E+02 -0.55024164616E+02  0.88589082283E+03  0.88852380658E+03  0.41800000000E+01 0. -1.
        -11    1    1    2    0    0  0.57979630646E+02  0.24717052238E+02  0.12037602330E+03  0.13587846491E+03  0.00000000000E+00 0.  1.
         11    1    1    2    0    0 -0.17172021272E+02 -0.89198503305E+01 -0.37564541594E+01  0.19711747571E+02  0.00000000000E+00 0. -1.
</event>
<event>
 7    1  0.3062219E-009  0.1242444E+03  0.7561462E-02  0.1236255E+00
         -1   -1    0    0    0  501 -0.00000000000E+00  0.00000000000E+00  0.59850828781E+02  0.59850828781E+02  0.00000000000E+00 0.  1.
          1   -1    0    0  501    0  0.00000000000E+00 -0.00000000000E+00 -0.33483259434E+03  0.33483259434E+03  0.00000000000E+00 0. -1.
         25    2    1    2    0    0 -0.38755897186E+02 -0.82091000871E+02 -0.14562298181E+03  0.21235054231E+03  0.12508296446E+03 0.  0.
          5    1    3    3  502    0  0.45057781637E+02 -0.24710241036E+02 -0.62584150733E+02  0.81086669811E+02  0.41800000000E+01 0.  1.
         -5    1    3    3    0  502 -0.83813678823E+02 -0.57380759835E+02 -0.83038831078E+02  0.13126387250E+03  0.41800000000E+01 0.  1.
        -11    1    1    2    0    0  0.26675612168E+02  0.23827919117E+02  0.43020283411E+01  0.36025899875E+02  0.00000000000E+00 0.  1.
         11    1    1    2    0    0  0.12080285018E+02  0.58263081754E+02 -0.13366081209E+03  0.14630698093E+03  0.00000000000E+00 0. -1.
</event>
<event>
 7    1  0.2644565E-009  0.9836664E+02  0.7561462E-02  0.1283769E+00
         -1   -1    0    0    0  501 -0.00000000000E+00  0.00000000000E+00  0.33519049233E+02  0.33519049233E+02  0.00000000000E+00 0.  1.
          1   -1    0    0  501    0  0.00000000000E+00 -0.00000000000E+00 -0.62880308663E+03  0.62880308663E+03  0.00000000000E+00 0. -1.
         25    2    1    2    0    0 -0.16321575486E+02 -0.54297885322E+02 -0.50616198616E+03  0.52446398414E+03  0.12509140759E+03 0.  0.
          5    1    3    3  502    0 -0.41313786076E+02 -0.13315208712E+02 -0.52491310508E+02  0.68241730501E+02  0.41800000000E+01 0. -1.
         -5    1    3    3    0  502  0.24992210589E+02 -0.40982676610E+02 -0.45367067565E+03  0.45622225364E+03  0.41800000000E+01 0. -1.
        -11    1    1    2    0    0  0.52920014907E+02  0.27961073010E+02 -0.46248950809E+02  0.75639374882E+02  0.00000000000E+00 0.  1.
         11    1    1    2    0    0 -0.36598439421E+02  0.26336812312E+02 -0.42873100429E+02  0.62218776838E+02  0.00000000000E+00 0. -1.
</event>
<event>
 7    1  0.2644565E-009  0.3670418E+03  0.7561462E-02  0.1055830E+00
          1   -1    0    0  501    0  0.00000000000E+00  0.00000000000E+00  0.70316225172E+03  0.70316225172E+03  0.00000000000E+00 0. -1.
         -1   -1    0    0    0  501 -0.00000000000E+00 -0.00000000000E+00 -0.19411285525E+03  0.19411285525E+03  0.00000000000E+00 0.  1.
         25    2    1    2    0    0  0.34189366724E+03 -0.84440073099E+02  0.28605780162E+03  0.47063419469E+03  0.12508426639E+03 0.  0.
          5    1    3    3  502    0  0.19231994541E+03 -0.10983218752E+03  0.18087619934E+03  0.28597857036E+03  0.41800000000E+01 0. -1.
         -5    1    3    3    0  502  0.14957372184E+03  0.25392114425E+02  0.10518160227E+03  0.18465562433E+03  0.41800000000E+01 0. -1.
        -11    1    1    2    0    0 -0.68401320005E+02 -0.14573250749E+02  0.22864593114E+02  0.73579275846E+02  0.00000000000E+00 0.  1.
         11    1    1    2    0    0 -0.27349234724E+03  0.99013323848E+02  0.20012700174E+03  0.35306163644E+03  0.00000000000E+00 0. -1.
</event>
<event>
 7    1  0.2644565E-009  0.1092192E+03  0.7561462E-02  0.1262023E+00
         -1   -1    0    0    0  501 -0.00000000000E+00  0.00000000000E+00  0.71223770123E+02  0.71223770123E+02  0.00000000000E+00 0.  1.
          1   -1    0    0  501    0  0.00000000000E+00 -0.00000000000E+00 -0.18237786164E+03  0.18237786164E+03  0.00000000000E+00 0. -1.
         25    2    1    2    0    0 -0.29985608547E+02  0.62400091635E+01 -0.10002734125E+03  0.16306617300E+03  0.12508810233E+03 0.  0.
          5    1    3    3  502    0  0.27342565861E+02  0.49592406866E+02 -0.44616324971E+02  0.72215729453E+02  0.41800000000E+01 0. -1.
         -5    1    3    3    0  502 -0.57328174408E+02 -0.43352397702E+02 -0.55411016276E+02  0.90850443544E+02  0.41800000000E+01 0. -1.
        -11    1    1    2    0    0  0.13371705293E+02  0.39124611768E+02 -0.21889326075E+01  0.41404458388E+02  0.00000000000E+00 0.  1.
         11    1    1    2    0    0  0.16613903255E+02 -0.45364620931E+02 -0.89378176640E+01  0.49131000378E+02  0.00000000000E+00 0. -1.
</event>
<event>
 7    1  0.2644565E-009  0.4033135E+03  0.7561462E-02  0.1042638E+00
         -2   -1    0    0    0  501 -0.00000000000E+00  0.00000000000E+00  0.57988460213E+03  0.57988460213E+03  0.00000000000E+00 0.  1.
          2   -1    0    0  501    0  0.00000000000E+00 -0.00000000000E+00 -0.37456890367E+03  0.37456890367E+03  0.00000000000E+00 0. -1.
         25    2    1    2    0    0 -0.34882385459E+03  0.19125907906E+03  0.32138800360E+03  0.52649426849E+03  0.12509136279E+03 0.  0.
          5    1    3    3  502    0 -0.25057770172E+03  0.94804818745E+02  0.26740659539E+03  0.37855105061E+03  0.41800000000E+01 0.  1.
         -5    1    3    3    0  502 -0.98246152873E+02  0.96454260313E+02  0.53981408204E+02  0.14794321789E+03  0.41800000000E+01 0.  1.
        -11    1    1    2    0    0  0.14840867118E+03 -0.53560545006E+02 -0.94335582796E+02  0.18382890916E+03  0.00000000000E+00 0. -1.
         11    1    1    2    0    0  0.20041518341E+03 -0.13769853405E+03 -0.21736722350E+02  0.24413032815E+03  0.00000000000E+00 0.  1.
</event>
<event>
 7    1  0.2644565E-009  0.8353534E+02  0.7561462E-02  0.1319308E+00
         -2   -1    0    0    0  501 -0.00000000000E+00  0.00000000000E+00  0.37476226424E+02  0.37476226424E+02  0.00000000000E+00 0.  1.
          2   -1    0    0  501    0  0.00000000000E+00 -0.00000000000E+00 -0.31910671456E+03  0.31910671456E+03  0.00000000000E+00 0. -1.
         25    2    1    2    0    0 -0.12724375910E+02 -0.72580521041E+01 -0.16754843721E+03  0.20960553328E+03  0.12508961471E+03 0.  0.
          5    1    3    3  502    0 -0.55325599214E+02 -0.17115087625E+02 -0.15248971812E+03  0.16316995644E+03  0.41800000000E+01 0.  1.
         -5    1    3    3    0  502  0.42601223303E+02  0.98570355206E+01 -0.15058719097E+02  0.46435576846E+02  0.41800000000E+01 0.  1.
        -11    1    1    2    0    0  0.26388115237E+01 -0.28145772969E+02 -0.12553017778E+01  0.28297060710E+02  0.00000000000E+00 0.  1.
         11    1    1    2    0    0  0.10085564386E+02  0.35403825073E+02 -0.11282674915E+03  0.11868034699E+03  0.00000000000E+00 0. -1.
</event>
<event>
 7    1  0.2644565E-009  0.1134887E+03  0.7561462E-02  0.1254242E+00
          3   -1    0    0  501    0  0.00000000000E+00  0.00000000000E+00  0.42009489226E+03  0.42009489226E+03  0.00000000000E+00 0. -1.
         -3   -1    0    0    0  501 -0.00000000000E+00 -0.00000000000E+00 -0.38387182533E+02  0.38387182533E+02  0.00000000000E+00 0.  1.
         25    2    1    2    0    0 -0.58012377409E+02 -0.30707901865E+02  0.21858797024E+03  0.26026377212E+03  0.12509244252E+03 0.  0.
          5    1    3    3  502    0  0.31929488847E+02 -0.32114510852E+02  0.41372168153E+02  0.61481401765E+02  0.41800000000E+01 0.  1.
         -5    1    3    3    0  502 -0.89941866256E+02  0.14066089871E+01  0.17721580208E+03  0.19878237035E+03  0.41800000000E+01 0.  1.
        -11    1    1    2    0    0  0.10208779821E+02  0.41251862658E+02  0.13550813721E+03  0.14201545904E+03  0.00000000000E+00 0. -1.
         11    1    1    2    0    0  0.47803597588E+02 -0.10543960793E+02  0.27611602281E+02  0.56202843630E+02  0.00000000000E+00 0.  1.
</event>
<event>
 7    1  0.2644565E-009  0.1441660E+03  0.7561462E-02  0.1207831E+00
          2   -1    0    0  501    0  0.00000000000E+00  0.00000000000E+00  0.22774635233E+02  0.22774635233E+02  0.00000000000E+00 0. -1.
         -2   -1    0    0    0  501 -0.00000000000E+00 -0.00000000000E+00 -0.10331105516E+04  0.10331105516E+04  0.00000000000E+00 0.  1.
         25    2    1    2    0    0  0.12586588760E+02  0.94173118350E+02 -0.71991490957E+03  0.73685238684E+03  0.12508782727E+03 0.  0.
          5    1    3    3  502    0  0.67911412838E+02  0.62851618127E+02 -0.39080595061E+03  0.40163297838E+03  0.41800000000E+01 0. -1.
         -5    1    3    3    0  502 -0.55324824078E+02  0.31321500223E+02 -0.32910895897E+03  0.33521940846E+03  0.41800000000E+01 0. -1.
        -11    1    1    2    0    0  0.37329441444E+02 -0.19348571106E+02 -0.88106232863E+02  0.97624600751E+02  0.00000000000E+00 0.  1.
         11    1    1    2    0    0 -0.49916030204E+02 -0.74824547244E+02 -0.20231477397E+03  0.22140819928E+03  0.00000000000E+00 0. -1.
</event>
<event>
 7    1  0.2644565E-009  0.4181686E+03  0.7561462E-02  0.1037664E+00
         -1   -1    0    0    0  501 -0.00000000000E+00  0.00000000000E+00  0.40998597756E+03  0.40998597756E+03  0.00000000000E+00 0.  1.
          1   -1    0    0  501    0  0.00000000000E+00 -0.00000000000E+00 -0.91649986652E+03  0.91649986652E+03  0.00000000000E+00 0. -1.
         25    2    1    2    0    0  0.40664993191E+03  0.53958944632E+02 -0.73322585150E+03  0.84943705030E+03  0.12508964103E+03 0.  0.
          5    1    3    3  502    0  0.40898379345E+03  0.47530698085E+02 -0.67510521590E+03  0.79076635962E+03  0.41800000000E+01 0.  1.
         -5    1    3    3    0  502 -0.23338615389E+01  0.64282465471E+01 -0.58120635599E+02  0.58670690688E+02  0.41800000000E+01 0.  1.
        -11    1    1    2    0    0 -0.59225990405E+02  0.17726777593E+02  0.13888416415E+02  0.63362802130E+02  0.00000000000E+00 0.  1.
         11    1    1    2    0    0 -0.34742394150E+03 -0.71685722225E+02  0.21282354613E+03  0.41368599165E+03  0.00000000000E+00 0. -1.
</event>
<event>
 7    1  0.2644565E-009  0.1209382E+03  0.7561462E-02  0.1241557E+00
         -2   -1    0    0    0  501 -0.00000000000E+00  0.00000000000E+00  0.25461450357E+02  0.25461450357E+02  0.00000000000E+00 0.  1.
          2   -1    0    0  501    0  0.00000000000E+00 -0.00000000000E+00 -0.21488913892E+04  0.21488913892E+04  0.00000000000E+00 0. -1.
         25    2    1    2    0    0  0.52797194245E+01 -0.56996169206E+02 -0.20175910872E+04  0.20222752834E+04  0.12508832047E+03 0.  0.
          5    1    3    3  502    0 -0.36288657695E+02  0.25068063869E+02 -0.53779429630E+03  0.53961602277E+03  0.41800000000E+01 0.  1.
         -5    1    3    3    0  502  0.41568377120E+02 -0.82064233075E+02 -0.14797967909E+04  0.14826592606E+04  0.41800000000E+01 0.  1.
        -11    1    1    2    0    0  0.14228175284E+02 -0.20845255280E+02 -0.10175264933E+02  0.27212160078E+02  0.00000000000E+00 0.  1.
         11    1    1    2    0    0 -0.19507894709E+02  0.77841424486E+02 -0.95663586766E+02  0.12486539615E+03  0.00000000000E+00 0. -1.
</event>
<event>
 7    1  0.2644565E-009  0.2660410E+03  0.7561462E-02  0.1103567E+00
          1   -1    0    0  501    0  0.00000000000E+00  0.00000000000E+00  0.12444179611E+04  0.12444179611E+04  0.00000000000E+00 0. -1.
         -1   -1    0    0    0  501 -0.00000000000E+00 -0.00000000000E+00 -0.12117916191E+03  0.12117916191E+03  0.00000000000E+00 0.  1.
         25    2    1    2    0    0  0.43252865200E+01  0.25818484034E+03  0.10409432674E+04  0.10797639004E+04  0.12509626251E+03 0.  0.
          5    1    3    3  502    0  0.23109969919E+02  0.11084331311E+03  0.24318311412E+03  0.26828307841E+03  0.41800000000E+01 0.  1.
         -5    1    3    3    0  502 -0.18784683399E+02  0.14734152723E+03  0.79776015325E+03  0.81148082201E+03  0.41800000000E+01 0.  1.
        -11    1    1    2    0    0  0.36717650519E+02 -0.93202837823E+02  0.52952707363E+02  0.11330906431E+03  0.00000000000E+00 0. -1.
         11    1    1    2    0    0 -0.41042937039E+02 -0.16498200252E+03  0.29342824433E+02  0.17252415825E+03  0.00000000000E+00 0.  1.
</event>
<event>
 7    1  0.2644565E-009  0.1733992E+03  0.7561462E-02  0.1174349E+00
          2   -1    0    0  501    0  0.00000000000E+00  0.00000000000E+00  0.88077039953E+03  0.88077039953E+03  0.00000000000E+00 0.  1.
         -2   -1    0    0    0  501 -0.00000000000E+00 -0.00000000000E+00 -0.44111080288E+02  0.44111080288E+02  0.00000000000E+00 0. -1.
         25    2    1    2    0    0  0.40526630682E+02  0.15579509383E+03  0.51346558089E+03  0.55245689103E+03  0.12508874704E+03 0.  0.
          5    1    3    3  502    0  0.13979107001E+02  0.14103735265E+02  0.12561990123E+01  0.20331778499E+02  0.41800000000E+01 0.  1.
         -5    1    3    3    0  502  0.26547523681E+02  0.14169135857E+03  0.51220938188E+03  0.53212511253E+03  0.41800000000E+01 0.  1.
        -11    1    1    2    0    0  0.16139757189E+02 -0.10485852393E+03  0.15564695554E+03  0.18836607064E+03  0.00000000000E+00 0.  1.
         11    1    1    2    0    0 -0.56666387871E+02 -0.50936569909E+02  0.16754678282E+03  0.18405851814E+03  0.00000000000E+00 0. -1.
</event>
<event>
 7    1  0.2644565E-009  0.9906795E+02  0.7561462E-02  0.1282268E+00
          2   -1    0    0  501    0  0.00000000000E+00  0.00000000000E+00  0.12320536534E+03  0.12320536534E+03  0.00000000000E+00 0. -1.
         -2   -1    0    0    0  501 -0.00000000000E+00 -0.00000000000E+00 -0.11237705701E+03  0.11237705701E+03  0.00000000000E+00 0.  1.
         25    2    1    2    0    0  0.29855514983E+02 -0.29175598870E+02 -0.93269869683E+01  0.13222419416E+03  0.12511465738E+03 0.  0.
          5    1    3    3  502    0  0.51515116790E+02 -0.64188388860E+02  0.15657625675E+02  0.83884385699E+02  0.41800000000E+01 0. -1.
         -5    1    3    3    0  502 -0.21659601807E+02  0.35012789990E+02 -0.24984612643E+02  0.48339808463E+02  0.41800000000E+01 0. -1.
        -11    1    1    2    0    0 -0.47235005737E+02  0.96632806353E+01 -0.22602369049E+02  0.53248397593E+02  0.00000000000E+00 0.  1.
         11    1    1    2    0    0  0.17379490754E+02  0.19512318234E+02  0.42757664349E+02  0.50109830596E+02  0.00000000000E+00 0. -1.
</event>
<event>
 7    1  0.3111135E-009  0.1293601E+03  0.7561462E-02  0.1228408E+00
         -1   -1    0    0    0  501 -0.00000000000E+00  0.00000000000E+00  0.81887572308E+02  0.81887572308E+02  0.00000000000E+00 0.  1.
          1   -1    0    0  501    0  0.00000000000E+00 -0.00000000000E+00 -0.48245103503E+03  0.48245103503E+03  0.00000000000E+00 0. -1.
         25    2    1    2    0    0  0.78114457154E+02  0.62510847190E+02 -0.39829780046E+03  0.42930238591E+03  0.12509966530E+03 0.  0.
          5    1    3    3  502    0  0.10397046339E+03  0.72624401568E+02 -0.27523541350E+03  0.30307782203E+03  0.41800000000E+01 0.  1.
         -5    1    3    3    0  502 -0.25856006239E+02 -0.10113554378E+02 -0.12306238696E+03  0.12622456387E+03  0.41800000000E+01 0.  1.
        -11    1    1    2    0    0 -0.38489248482E+02 -0.48061907166E+02  0.41500944146E+02  0.74254276201E+02  0.00000000000E+00 0.  1.
         11    1    1    2    0    0 -0.39625208672E+02 -0.14448940024E+02 -0.43766606408E+02  0.60781945235E+02  0.00000000000E+00 0. -1.
</event>
<event>
 7    1  0.2644565E-009  0.8592090E+02  0.7561462E-02  0.1313042E+00
         -1   -1    0    0    0  501 -0.00000000000E+00  0.00000000000E+00  0.19722744072E+02  0.19722744072E+02  0.00000000000E+00 0.  1.
          1   -1    0    0  501    0  0.00000000000E+00 -0.00000000000E+00 -0.11719373984E+04  0.11719373984E+04  0.00000000000E+00 0. -1.
         25    2    1    2    0    0  0.26929284194E+02  0.10634400926E+02 -0.10254466275E+04  0.10334537350E+04  0.12509020610E+03 0.  0.
          5    1    3    3  502    0  0.52159253513E+02 -0.87710954415E+01 -0.18668642804E+03  0.19407940297E+03  0.41800000000E+01 0.  1.
         -5    1    3    3    0  502 -0.25229969319E+02  0.19405496368E+02 -0.83876019949E+03  0.83937433204E+03  0.41800000000E+01 0.  1.
        -11    1    1    2    0    0  0.22977274312E+02  0.17960820910E+02 -0.15682947469E+02  0.33113457443E+02  0.00000000000E+00 0.  1.
         11    1    1    2    0    0 -0.49906558506E+02 -0.28595221836E+02 -0.11108507930E+03  0.12509294999E+03  0.00000000000E+00 0. -1.
</event>
<event>
 7    1  0.2911602E-009  0.1157036E+03  0.7561462E-02  0.1250358E+00
          1   -1    0    0  501    0  0.00000000000E+00  0.00000000000E+00  0.18251370402E+03  0.18251370402E+03  0.00000000000E+00 0. -1.
         -1   -1    0    0    0  501 -0.00000000000E+00 -0.00000000000E+00 -0.11020440590E+03  0.11020440590E+03  0.00000000000E+00 0.  1.
         25    2    1    2    0    0  0.36387902545E+02  0.66117729169E+02 -0.13296331927E+02  0.14669445213E+03  0.12508731463E+03 0.  0.
          5    1    3    3  502    0  0.70829305255E+02  0.42068136650E+02 -0.44942452615E+02  0.93935164082E+02  0.41800000000E+01 0.  1.
         -5    1    3    3    0  502 -0.34441402710E+02  0.24049592519E+02  0.31646120687E+02  0.52759288050E+02  0.41800000000E+01 0.  1.
        -11    1    1    2    0    0 -0.58110295194E+02 -0.32217955069E+02  0.20608545737E+02  0.69566624136E+02  0.00000000000E+00 0.  1.
         11    1    1    2    0    0  0.21722392649E+02 -0.33899774100E+02  0.64997084309E+02  0.76457033653E+02  0.00000000000E+00 0. -1.
</event>
<event>
 7    1  0.2644565E-009  0.1340512E+03  0.7561462E-02  0.1221565E+00
          2   -1    0    0  501    0  0.00000000000E+00  0.00000000000E+00  0.85196452103E+03  0.85196452103E+03  0.00000000000E+00 0. -1.
         -2   -1    0    0    0  501 -0.00000000000E+00 -0.00000000000E+00 -0.25853715605E+02  0.25853715605E+02  0.00000000000E+00 0.  1.
         25    2    1    2    0    0 -0.46299881491E+02 -0.72220744977E+02  0.61196064368E+03  0.63047856503E+03  0.12509147258E+03 0.  0.
          5    1    3    3  502    0  0.32163054641E+02 -0.57116646276E+02  0.19091914105E+03  0.20190186771E+03  0.41800000000E+01 0. -1.
         -5    1    3    3    0  502 -0.78462936133E+02 -0.15104098701E+02  0.42104150263E+03  0.42857669732E+03  0.41800000000E+01 0. -1.
        -11    1    1    2    0    0 -0.63274491609E+01  0.69417092747E+02  0.10355763973E+03  0.12483170320E+03  0.00000000000E+00 0.  1.
         11    1    1    2    0    0  0.52627330652E+02  0.28036522295E+01  0.11059252201E+03  0.12250796840E+03  0.00000000000E+00 0. -1.
</event>
<event>
 7    1  0.2644565E-009  0.1316610E+03  0.7561462E-02  0.1225012E+00
         -2   -1    0    0    0  501 -0.00000000000E+00  0.00000000000E+00  0.44881912880E+02  0.44881912880E+02  0.00000000000E+00 0.  1.
          2   -1    0    0  501    0  0.00000000000E+00 -0.00000000000E+00 -0.53665049309E+03  0.53665049309E+03  0.00000000000E+00 0. -1.
         25    2    1    2    0    0 -0.89818555600E+02  0.62157305313E+02 -0.28080636380E+03  0.32623780192E+03  0.12509190987E+03 0.  0.
          5    1    3    3  502    0 -0.53269234064E+02  0.65102388115E+02 -0.27654692899E+03  0.28908754482E+03  0.41800000000E+01 0.  1.
         -5    1    3    3    0  502 -0.36549321536E+02 -0.29450828023E+01 -0.42594348076E+01  0.37150257097E+02  0.41800000000E+01 0.  1.
        -11    1    1    2    0    0  0.10744311525E+03 -0.41850787791E+02 -0.18450729313E+03  0.21757401653E+03  0.00000000000E+00 0. -1.
         11    1    1    2    0    0 -0.17624559653E+02 -0.20306517522E+02 -0.26454923287E+02  0.37720587521E+02  0.00000000000E+00 0.  1.
</event>
<event>
 7    1  0.2644565E-009  0.7582130E+02  0.7561462E-02  0.1341346E+00
         -1   -1    0    0    0  501 -0.00000000000E+00  0.00000000000E+00  0.24182931381E+03  0.24182931381E+03  0.00000000000E+00 0.  1.
          1   -1    0    0  501    0  0.00000000000E+00 -0.00000000000E+00 -0.51854914070E+02  0.51854914070E+02  0.00000000000E+00 0. -1.
         25    2    1    2    0    0  0.17632025751E+02  0.21315076196E+02  0.11520128411E+03  0.17229217290E+03  0.12509211077E+03 0.  0.
          5    1    3    3  502    0  0.59576937713E+02  0.68090224390E+01  0.14016873132E+02  0.61722924641E+02  0.41800000000E+01 0.  1.
         -5    1    3    3    0  502 -0.41944911962E+02  0.14506053757E+02  0.10118441098E+03  0.11056924826E+03  0.41800000000E+01 0.  1.
        -11    1    1    2    0    0  0.11643813649E+02 -0.10697133169E+02  0.86636146764E+02  0.88067184470E+02  0.00000000000E+00 0.  1.
         11    1    1    2    0    0 -0.29275839400E+02 -0.10617943028E+02 -0.11863031136E+02  0.33324870509E+02  0.00000000000E+00 0. -1.
</event>
<event>
 7    1  0.2644565E-009  0.7564796E+02  0.7561462E-02  0.1341876E+00
         -1   -1    0    0    0  501 -0.00000000000E+00  0.00000000000E+00  0.38142756727E+03  0.38142756727E+03  0.00000000000E+00 0.  1.
          1   -1    0    0  501    0  0.00000000000E+00 -0.00000000000E+00 -0.65392882626E+02  0.65392882626E+02  0.00000000000E+00 0. -1.
         25    2    1    2    0    0 -0.13017881790E+02 -0.49806182441E+02  0.31197243815E+03  0.34003890539E+03  0.12509809734E+03 0.  0.
          5    1    3    3  502    0  0.23882833080E+02 -0.23516987357E+02  0.10819153579E+02  0.35467800812E+02  0.41800000000E+01 0. -1.
         -5    1    3    3    0  502 -0.36900714870E+02 -0.26289195084E+02  0.30115328457E+03  0.30457110458E+03  0.41800000000E+01 0. -1.
        -11    1    1    2    0    0 -0.19499977531E+02  0.18929627291E+02 -0.37048037696E+02  0.45947111010E+02  0.00000000000E+00 0. -1.
         11    1    1    2    0    0  0.32517859321E+02  0.30876555150E+02  0.41110284192E+02  0.60834433498E+02  0.00000000000E+00 0.  1.
</event>
<event>
 7    1  0.2644565E-009  0.1191046E+03  0.7561462E-02  0.1244582E+00
         -2   -1    0    0    0  501 -0.00000000000E+00  0.00000000000E+00  0.39335352523E+03  0.39335352523E+03  0.00000000000E+00 0.  1.
          2   -1    0    0  501    0  0.00000000000E+00 -0.00000000000E+00 -0.58307647905E+02  0.58307647905E+02  0.00000000000E+00 0. -1.
         25    2    1    2    0    0 -0.42625120339E+02 -0.87074595890E+02  0.24258668439E+03  0.28964488067E+03  0.12508785441E+03 0.  0.
          5    1    3    3  502    0 -0.20444282193E+02 -0.70326230587E+01  0.18995264511E+03  0.19122475322E+03  0.41800000000E+01 0.  1.
         -5    1    3    3    0  502 -0.22180838146E+02 -0.80041972831E+02  0.52634039282E+02  0.98420127447E+02  0.41800000000E+01 0.  1.
        -11    1    1    2    0    0  0.52872172472E+02  0.82197178850E+01  0.38511734992E+02  0.65925595303E+02  0.00000000000E+00 0. -1.
         11    1    1    2    0    0 -0.10247052133E+02  0.78854878005E+02  0.53947457945E+02  0.96090697163E+02  0.00000000000E+00 0.  1.
</event>
<event>
 7    1  0.2644565E-009  0.9326658E+02  0.7561462E-02  0.1295129E+00
         -1   -1    0    0    0  501 -0.00000000000E+00  0.00000000000E+00  0.17777884138E+03  0.17777884138E+03  0.00000000000E+00 0.  1.
          1   -1    0    0  501    0  0.00000000000E+00 -0.00000000000E+00 -0.71803871460E+02  0.71803871460E+02  0.00000000000E+00 0. -1.
         25    2    1    2    0    0  0.31348786748E+02 -0.29533614320E+01  0.55368863010E+02  0.14037384613E+03  0.12509051488E+03 0.  0.
          5    1    3    3  502    0  0.23593695523E+02 -0.63458479025E+02  0.30291051881E+02  0.74287692471E+02  0.41800000000E+01 0. -1.
         -5    1    3    3    0  502  0.77550912248E+01  0.60505117593E+02  0.25077811129E+02  0.66086153663E+02  0.41800000000E+01 0. -1.
        -11    1    1    2    0    0 -0.43808458944E+02 -0.26676627127E+01 -0.11698937921E+02  0.45422050238E+02  0.00000000000E+00 0. -1.
         11    1    1    2    0    0  0.12459672196E+02  0.56210241447E+01  0.62305044832E+02  0.63786816469E+02  0.00000000000E+00 0.  1.
</event>
<event>
 7    1  0.2644565E-009  0.1839518E+03  0.7561462E-02  0.1164032E+00
         -2   -1    0    0    0  501 -0.00000000000E+00  0.00000000000E+00  0.32868534815E+02  0.32868534815E+02  0.00000000000E+00 0. -1.
          2   -1    0    0  501    0  0.00000000000E+00 -0.00000000000E+00 -0.13512150721E+04  0.13512150721E+04  0.00000000000E+00 0.  1.
         25    2    1    2    0    0 -0.14919341020E+03  0.91868222832E+02 -0.75985132385E+03  0.78975974503E+03  0.12509187227E+03 0.  0.
          5    1    3    3  502    0 -0.11869661643E+03  0.83653868363E+02 -0.35384983051E+03  0.38251017163E+03  0.41800000000E+01 0. -1.
         -5    1    3    3    0  502 -0.30496793767E+02  0.82143544689E+01 -0.40600149333E+03  0.40724957340E+03  0.41800000000E+01 0. -1.
        -11    1    1    2    0    0  0.77313294555E+02 -0.42345824463E+01 -0.33377560470E+03  0.34263892291E+03  0.00000000000E+00 0.  1.
         11    1    1    2    0    0  0.71880115642E+02 -0.87633640385E+02 -0.22471960874E+03  0.25168493897E+03  0.00000000000E+00 0. -1.
</event>
<event>
 7    1  0.2644565E-009  0.9235090E+02  0.7561462E-02  0.1297256E+00
          1   -1    0    0  501    0  0.00000000000E+00  0.00000000000E+00  0.69020103219E+03  0.69020103219E+03  0.00000000000E+00 0. -1.
         -1   -1    0    0    0  501 -0.00000000000E+00 -0.00000000000E+00 -0.27833733051E+02  0.27833733051E+02  0.00000000000E+00 0.  1.
         25    2    1    2    0    0 -0.41500864533E+02 -0.31365644790E+02  0.54346308643E+03  0.56009434048E+03  0.12508964185E+03 0.  0.
          5    1    3    3  502    0  0.52407120268E+01 -0.41243791543E+02  0.53957061381E+02  0.68244796697E+02  0.41800000000E+01 0.  1.
         -5    1    3    3    0  502 -0.46741576560E+02  0.98781467523E+01  0.48950602505E+03  0.49184954379E+03  0.41800000000E+01 0.  1.
        -11    1    1    2    0    0  0.62551468138E+01  0.53155902850E+02  0.97682500199E+02  0.11138468348E+03  0.00000000000E+00 0. -1.
         11    1    1    2    0    0  0.35245717720E+02 -0.21790258060E+02  0.21221712512E+02  0.46555741277E+02  0.00000000000E+00 0.  1.
</event>
<event>
 7    1  0.2644565E-009  0.1345107E+03  0.7561462E-02  0.1220912E+00
          1   -1    0    0  501    0  0.00000000000E+00  0.00000000000E+00  0.73786520712E+02  0.73786520712E+02  0.00000000000E+00 0. -1.
         -1   -1    0    0    0  501 -0.00000000000E+00 -0.00000000000E+00 -0.31542672411E+03  0.31542672411E+03  0.00000000000E+00 0.  1.
         25    2    1    2    0    0  0.51727243577E+02 -0.90957809343E+02 -0.15881084676E+03  0.22763614598E+03  0.12509316169E+03 0.  0.
          5    1    3    3  502    0 -0.36221386107E+02 -0.42441007769E+02 -0.27739665275E+02  0.62451496231E+02  0.41800000000E+01 0.  1.
         -5    1    3    3    0  502  0.87948629684E+02 -0.48516801574E+02 -0.13107118148E+03  0.16518464975E+03  0.41800000000E+01 0.  1.
        -11    1    1    2    0    0 -0.20131260272E+02  0.73979807256E+02 -0.96448834326E+02  0.12320980953E+03  0.00000000000E+00 0.  1.
         11    1    1    2    0    0 -0.31595983305E+02  0.16978002087E+02  0.13619477692E+02  0.38367289303E+02  0.00000000000E+00 0. -1.
</event>
<event>
 7    1  0.2644565E-009  0.7235914E+02  0.7561462E-02  0.1352250E+00
          1   -1    0    0  501    0  0.00000000000E+00  0.00000000000E+00  0.11653148937E+03  0.11653148937E+03  0.00000000000E+00 0. -1.
         -1   -1    0    0    0  501 -0.00000000000E+00 -0.00000000000E+00 -0.14993427856E+03  0.14993427856E+03  0.00000000000E+00 0.  1.
         25    2    1    2    0    0  0.44927725594E+02  0.39448803326E+02  0.30945250586E+02  0.14205450055E+03  0.12508862451E+03 0.  0.
          5    1    3    3  502    0  0.19481266019E+02 -0.46155029979E+01 -0.45638976443E+02  0.50012110177E+02  0.41800000000E+01 0.  1.
         -5    1    3    3    0  502  0.25446459575E+02  0.44064306324E+02  0.76584227029E+02  0.92042390377E+02  0.41800000000E+01 0.  1.
        -11    1    1    2    0    0 -0.24524221221E+02  0.43365517129E+01  0.16752244345E+02  0.30014676374E+02  0.00000000000E+00 0. -1.
         11    1    1    2    0    0 -0.20403504373E+02 -0.43785355039E+02 -0.81100284130E+02  0.94396591001E+02  0.00000000000E+00 0.  1.
</event>
<event>
 7    1  0.2644565E-009  0.1119510E+03  0.7561462E-02  0.1256999E+00
          2   -1    0    0  501    0  0.00000000000E+00  0.00000000000E+00  0.67360966558E+03  0.67360966558E+03  0.00000000000E+00 0. -1.
         -2   -1    0    0    0  501 -0.00000000000E+00 -0.00000000000E+00 -0.19285673858E+02  0.19285673858E+02  0.00000000000E+00 0.  1.
         25    2    1    2    0    0 -0.24635865617E+02  0.22624584679E+02  0.41584389691E+03  0.43553733227E+03  0.12509126068E+03 0.  0.
          5    1    3    3  502    0 -0.22762881676E+02  0.73162747021E+02  0.28640477826E+03  0.29650650202E+03  0.41800000000E+01 0.  1.
         -5    1    3    3    0  502 -0.18729839405E+01 -0.50538162342E+02  0.12943911865E+03  0.13903083024E+03  0.41800000000E+01 0.  1.
        -11    1    1    2    0    0  0.12315512216E+02 -0.57827411142E+02  0.13573219741E+03  0.14805036553E+03  0.00000000000E+00 0.  1.
         11    1    1    2    0    0  0.12320353401E+02  0.35202826463E+02  0.10274789741E+03  0.10930764164E+03  0.00000000000E+00 0. -1.
</event>
<event>
 7    1  0.4135147E-009  0.1312714E+03  0.7561462E-02  0.1225581E+00
         -1   -1    0    0    0  501 -0.00000000000E+00  0.00000000000E+00  0.70618621998E+02  0.70618621998E+02  0.00000000000E+00 0.  1.
          1   -1    0    0  501    0  0.00000000000E+00 -0.00000000000E+00 -0.29814381888E+03  0.29814381888E+03  0.00000000000E+00 0. -1.
         25    2    1    2    0    0 -0.78806008780E+02 -0.20507053316E+02 -0.59705540179E+02  0.16075555794E+03  0.12508665646E+03 0.  0.
          5    1    3    3  502    0  0.14153888198E+02  0.36998244324E+02 -0.14402254770E+02  0.42356817357E+02  0.41800000000E+01 0. -1.
         -5    1    3    3    0  502 -0.92959896977E+02 -0.57505297641E+02 -0.45303285409E+02  0.11839874058E+03  0.41800000000E+01 0. -1.
        -11    1    1    2    0    0  0.52774822067E+02  0.50888348041E+02 -0.66137092681E+02  0.98736623595E+02  0.00000000000E+00 0.  1.
         11    1    1    2    0    0  0.26031186713E+02 -0.30381294725E+02 -0.10168256402E+03  0.10927025934E+03  0.00000000000E+00 0. -1.
</event>
<event>
 7    1  0.2644565E-009  0.7728861E+02  0.7561462E-02  0.1336927E+00
          4   -1    0    0  501    0  0.00000000000E+00  0.00000000000E+00  0.36460325887E+03  0.36460325887E+03  0.00000000000E+00 0. -1.
         -4   -1    0    0    0  501 -0.00000000000E+00 -0.00000000000E+00 -0.47463690340E+02  0.47463690340E+02  0.00000000000E+00 0.  1.
         25    2    1    2    0    0  0.14482533511E+02  0.13635943263E+02  0.28829197459E+03  0.31488968939E+03  0.12509025199E+03 0.  0.
          5    1    3    3  502    0 -0.50079664504E+02 -0.17141028887E+02  0.15037658473E+03  0.15947531879E+03  0.41800000000E+01 0. -1.
         -5    1    3    3    0  502  0.64562198015E+02  0.30776972150E+02  0.13791538986E+03  0.15541437060E+03  0.41800000000E+01 0. -1.
        -11    1    1    2    0    0  0.10541301127E+01 -0.14248099675E+02  0.60365245822E+02  0.62032914149E+02  0.00000000000E+00 0. -1.
         11    1    1    2    0    0 -0.15536663624E+02  0.61215641250E+00 -0.31517651888E+02  0.35144345670E+02  0.00000000000E+00 0.  1.
</event>
<event>
 7    1  0.2644565E-009  0.8535847E+02  0.7561462E-02  0.1314498E+00
          3   -1    0    0  501    0  0.00000000000E+00  0.00000000000E+00  0.11924384071E+02  0.11924384071E+02  0.00000000000E+00 0. -1.
         -3   -1    0    0    0  501 -0.00000000000E+00 -0.00000000000E+00 -0.19325654886E+04  0.19325654886E+04  0.00000000000E+00 0.  1.
         25    2    1    2    0    0  0.32381280332E+02 -0.68435865806E+02 -0.15069577053E+04  0.15140348319E+04  0.12509169286E+03 0.  0.
          5    1    3    3  502    0  0.25811525011E+01 -0.22410596625E+02 -0.12904203552E+04  0.12906242918E+04  0.41800000000E+01 0.  1.
         -5    1    3    3    0  502  0.29800127831E+02 -0.46025269182E+02 -0.21653735007E+03  0.22341054003E+03  0.41800000000E+01 0.  1.
        -11    1    1    2    0    0 -0.14258112238E+02 -0.65134029158E+01 -0.81724037100E+01  0.17677849545E+02  0.00000000000E+00 0. -1.
         11    1    1    2    0    0 -0.18123168094E+02  0.74949268722E+02 -0.40551099554E+03  0.41277719124E+03  0.00000000000E+00 0.  1.
</event>
<event>
 7    1  0.2644565E-009  0.1248286E+03  0.7561462E-02  0.1235337E+00
         -1   -1    0    0    0  501 -0.00000000000E+00  0.00000000000E+00  0.10751584527E+03  0.10751584527E+03  0.00000000000E+00 0.  1.
          1   -1    0    0  501    0  0.00000000000E+00 -0.00000000000E+00 -0.26439643029E+03  0.26439643029E+03  0.00000000000E+00 0. -1.
         25    2    1    2    0    0 -0.72975300641E+02 -0.78536720688E+02 -0.17359416760E+03  0.23932378241E+03  0.12509007475E+03 0.  0.
          5    1    3    3  502    0  0.35227132427E+01  0.17313901323E+02 -0.87656439167E+02  0.89517062145E+02  0.41800000000E+01 0. -1.
         -5    1    3    3    0  502 -0.76498013884E+02 -0.95850622011E+02 -0.85937728434E+02  0.14980672026E+03  0.41800000000E+01 0. -1.
        -11    1    1    2    0    0  0.28919287946E+02  0.18509262158E+02  0.41729020422E+02  0.54039144574E+02  0.00000000000E+00 0.  1.
         11    1    1    2    0    0  0.44056012695E+02  0.60027458531E+02 -0.25015437839E+02  0.78549348581E+02  0.00000000000E+00 0. -1.
</event>
<event>
 7    1  0.2644565E-009  0.7710873E+02  0.7561462E-02  0.1337463E+00
          1   -1    0    0  501    0  0.00000000000E+00  0.00000000000E+00  0.74707236536E+02  0.74707236536E+02  0.00000000000E+00 0. -1.
         -1   -1    0    0    0  501 -0.00000000000E+00 -0.00000000000E+00 -0.16686536231E+03  0.16686536231E+03  0.00000000000E+00 0.  1.
         25    2    1    2    0    0 -0.25523543290E+01 -0.21568362755E+02 -0.70257281543E+02  0.14510484651E+03  0.12509045562E+03 0.  0.
          5    1    3    3  502    0 -0.24171517033E+02  0.25044853239E+02 -0.84615562417E+02  0.91590243545E+02  0.41800000000E+01 0. -1.
         -5    1    3    3    0  502  0.21619162704E+02 -0.46613215994E+02  0.14358280875E+02  0.53514602970E+02  0.41800000000E+01 0. -1.
        -11    1    1    2    0    0  0.14484811164E+02 -0.19811712382E+02 -0.42230825620E+02  0.48844204718E+02  0.00000000000E+00 0.  1.
         11    1    1    2    0    0 -0.11932456836E+02  0.41380075137E+02  0.20329981384E+02  0.47623547617E+02  0.00000000000E+00 0. -1.
</event>
<event>
 7    1  0.2644565E-009  0.1080478E+03  0.7561462E-02  0.1264228E+00
         -2   -1    0    0    0  501 -0.00000000000E+00  0.00000000000E+00  0.54397772112E+02  0.54397772112E+02  0.00000000000E+00 0.  1.
          2   -1    0    0  501    0  0.00000000000E+00 -0.00000000000E+00 -0.23722890133E+03  0.23722890133E+03  0.00000000000E+00 0. -1.
         25    2    1    2    0    0 -0.18862823350E+02  0.52908879891E+01 -0.14007045356E+03  0.18880457561E+03  0.12507452262E+03 0.  0.
          5    1    3    3  502    0  0.31938208517E+02 -0.42828972699E+02 -0.41154052157E+02  0.67568472491E+02  0.41800000000E+01 0.  1.
         -5    1    3    3    0  502 -0.50801031868E+02  0.48119860688E+02 -0.98916401405E+02  0.12123610311E+03  0.41800000000E+01 0.  1.
        -11    1    1    2    0    0  0.10620322402E+02 -0.47872266418E+02 -0.30511507690E+02  0.57753763872E+02  0.00000000000E+00 0. -1.
         11    1    1    2    0    0  0.82425009483E+01  0.42581378429E+02 -0.12249167970E+02  0.45068333969E+02  0.00000000000E+00 0.  1.
</event>
<event>
 7    1  0.2644565E-009  0.1095021E+03  0.7561462E-02  0.1261495E+00
         -2   -1    0    0    0  501 -0.00000000000E+00  0.00000000000E+00  0.57728003106E+02  0.57728003106E+02  0.00000000000E+00 0.  1.
          2   -1    0    0  501    0  0.00000000000E+00 -0.00000000000E+00 -0.55748250418E+03  0.55748250418E+03  0.00000000000E+00 0. -1.
         25    2    1    2    0    0 -0.64688790586E+02  0.52738159636E+02 -0.66251821007E+02  0.16432019700E+03  0.12508345313E+03 0.  0.
          5    1    3    3  502    0 -0.14308355016E+02  0.49025400814E+02  0.27194729336E+02  0.58010728765E+02  0.41800000000E+01 0.  1.
         -5    1    3    3    0  502 -0.50380435570E+02  0.37127588220E+01 -0.93446550342E+02  0.10630946824E+03  0.41800000000E+01 0.  1.
        -11    1    1    2    0    0  0.77465165852E+02 -0.63658261974E+02 -0.40944644870E+03  0.42154432815E+03  0.00000000000E+00 0. -1.
         11    1    1    2    0    0 -0.12776375266E+02  0.10920102338E+02 -0.24056231369E+02  0.29345982139E+02  0.00000000000E+00 0.  1.
</event>
<event>
 7    1  0.2644565E-009  0.3907954E+03  0.7561462E-02  0.1047014E+00
          2   -1    0    0  501    0  0.00000000000E+00  0.00000000000E+00  0.11201731172E+04  0.11201731172E+04  0.00000000000E+00 0. -1.
         -2   -1    0    0    0  501 -0.00000000000E+00 -0.00000000000E+00 -0.15601878787E+03  0.15601878787E+03  0.00000000000E+00 0.  1.
         25    2    1    2    0    0 -0.37327774102E+03  0.56453242003E+02  0.27011723777E+03  0.48076323041E+03  0.12508685423E+03 0.  0.
          5    1    3    3  502    0 -0.38278172526E+03  0.55540307210E+02  0.26650295534E+03  0.46973170270E+03  0.41800000000E+01 0.  1.
         -5    1    3    3    0  502  0.95039842332E+01  0.91293479298E+00  0.36142824313E+01  0.11031527715E+02  0.41800000000E+01 0.  1.
        -11    1    1    2    0    0  0.24902132977E+03 -0.71773024147E+02  0.41022605278E+03  0.48523025880E+03  0.00000000000E+00 0. -1.
         11    1    1    2    0    0  0.12425641125E+03  0.15319782144E+02  0.28381103878E+03  0.31019841585E+03  0.00000000000E+00 0.  1.
</event>
<event>
 7    1  0.2644565E-009  0.1632649E+03  0.7561462E-02  0.1185059E+00
         -3   -1    0    0    0  501 -0.00000000000E+00  0.00000000000E+00  0.25587054711E+03  0.25587054711E+03  0.00000000000E+00 0.  1.
          3   -1    0    0  501    0  0.00000000000E+00 -0.00000000000E+00 -0.12980207953E+03  0.12980207953E+03  0.00000000000E+00 0. -1.
         25    2    1    2    0    0 -0.12415749593E+03 -0.74134153625E+02  0.50466384217E+02  0.19775009273E+03  0.12508911508E+03 0.  0.
          5    1    3    3  502    0 -0.29002192501E-01 -0.48701691547E+02  0.51453301601E+02  0.70970206751E+02  0.41800000000E+01 0.  1.
         -5    1    3    3    0  502 -0.12412849373E+03 -0.25432462079E+02 -0.98691738439E+00  0.12677988598E+03  0.41800000000E+01 0. -1.
        -11    1    1    2    0    0  0.57092107729E+02  0.97763511091E+01  0.75263463257E+02  0.94971968008E+02  0.00000000000E+00 0.  1.
         11    1    1    2    0    0  0.67065388197E+02  0.64357802516E+02  0.33862010606E+00  0.92950565907E+02  0.00000000000E+00 0. -1.
</event>
<event>
 7    1  0.2644565E-009  0.1511929E+03  0.7561462E-02  0.1199015E+00
         -1   -1    0    0    0  501 -0.00000000000E+00  0.00000000000E+00  0.33838357065E+02  0.33838357065E+02  0.00000000000E+00 0.  1.
          1   -1    0    0  501    0  0.00000000000E+00 -0.00000000000E+00 -0.81725196990E+03  0.81725196990E+03  0.00000000000E+00 0. -1.
         25    2    1    2    0    0  0.25544596491E+02  0.10255677271E+03 -0.26252084609E+03  0.30941246717E+03  0.12509381349E+03 0.  0.
          5    1    3    3  502    0 -0.19837428504E+02  0.11297773423E+03 -0.16189085671E+03  0.19845305210E+03  0.41800000000E+01 0. -1.
         -5    1    3    3    0  502  0.45382024995E+02 -0.10420961516E+02 -0.10062998938E+03  0.11095941508E+03  0.41800000000E+01 0. -1.
        -11    1    1    2    0    0  0.35321804273E+02 -0.31894557034E+02 -0.26677481699E+03  0.27098652292E+03  0.00000000000E+00 0. -1.
         11    1    1    2    0    0 -0.60866400764E+02 -0.70662215679E+02 -0.25411794976E+03  0.27069133687E+03  0.00000000000E+00 0.  1.
</event>
<event>
 7    1  0.2644565E-009  0.9136035E+02  0.7561462E-02  0.1299590E+00
         -2   -1    0    0    0  501 -0.00000000000E+00  0.00000000000E+00  0.19026277339E+02  0.19026277339E+02  0.00000000000E+00 0.  1.
          2   -1    0    0  501    0  0.00000000000E+00 -0.00000000000E+00 -0.71385924699E+03  0.71385924699E+03  0.00000000000E+00 0. -1.
         25    2    1    2    0    0 -0.38732916525E+02 -0.23878461379E+00 -0.48606329905E+03  0.50339367852E+03  0.12508944421E+03 0.  0.
          5    1    3    3  502    0  0.18403625496E+02 -0.44545703949E+02 -0.29735964035E+03  0.30126938324E+03  0.41800000000E+01 0. -1.
         -5    1    3    3    0  502 -0.57136542022E+02  0.44306919335E+02 -0.18870365870E+03  0.20212429528E+03  0.41800000000E+01 0. -1.
        -11    1    1    2    0    0  0.15738814707E+02 -0.23876948418E+02 -0.13905108403E+02  0.31798914980E+02  0.00000000000E+00 0.  1.
         11    1    1    2    0    0  0.22994101818E+02  0.24115733032E+02 -0.19486456220E+03  0.19769293083E+03  0.00000000000E+00 0. -1.
</event>
<event>
 7    1  0.2644565E-009  0.1398333E+03  0.7561462E-02  0.1213553E+00
          1   -1    0    0  501    0  0.00000000000E+00  0.00000000000E+00  0.31001887654E+03  0.31001887654E+03  0.00000000000E+00 0. -1.
         -1   -1    0    0    0  501 -0.00000000000E+00 -0.00000000000E+00 -0.85795127426E+02  0.85795127426E+02  0.00000000000E+00 0.  1.
         25    2    1    2    0    0  0.49516486003E+02  0.10245922994E+03  0.69435928872E+02  0.18280764949E+03  0.12509001682E+03 0.  0.
          5    1    3    3  502    0  0.70027001918E+02  0.10094255491E+03  0.14229019238E+02  0.12374618289E+03  0.41800000000E+01 0. -1.
         -5    1    3    3    0  502 -0.20510515915E+02  0.15166750258E+01  0.55206909634E+02  0.59061466605E+02  0.41800000000E+01 0. -1.
        -11    1    1    2    0    0 -0.29699172524E+02 -0.11045989867E+03  0.92342965679E+02  0.14700562361E+03  0.00000000000E+00 0.  1.
         11    1    1    2    0    0 -0.19817313479E+02  0.80006687267E+01  0.62444854559E+02  0.66000730863E+02  0.00000000000E+00 0. -1.
</event>
<event>
 7    1  0.2644565E-009  0.1136459E+03  0.7561462E-02  0.1253963E+00
         -2   -1    0    0    0  501 -0.00000000000E+00  0.00000000000E+00  0.59868669470E+02  0.59868669470E+02  0.00000000000E+00 0.  1.
          2   -1    0    0  501    0  0.00000000000E+00 -0.00000000000E+00 -0.26474282117E+03  0.26474282117E+03  0.00000000000E+00 0. -1.
         25    2    1    2    0    0 -0.55841004411E+02  0.10135162181E+02 -0.14955471910E+03  0.20306391115E+03  0.12508956280E+03 0.  0.
          5    1    3    3  502    0 -0.22336254660E+02 -0.52847294952E+02 -0.32924666070E+02  0.66281602967E+02  0.41800000000E+01 0. -1.
         -5    1    3    3    0  502 -0.33504749751E+02  0.62982457133E+02 -0.11663005303E+03  0.13678230819E+03  0.41800000000E+01 0. -1.
        -11    1    1    2    0    0  0.53429213933E+02  0.27843395096E+02 -0.79282162380E+01  0.60768348379E+02  0.00000000000E+00 0.  1.
         11    1    1    2    0    0  0.24117904782E+01 -0.37978557277E+02 -0.47391216357E+02  0.60779231107E+02  0.00000000000E+00 0. -1.
</event>
<event>
 7    1  0.2644565E-009  0.2164997E+03  0.7561462E-02  0.1136520E+00
         -1   -1    0    0    0  501 -0.00000000000E+00  0.00000000000E+00  0.33553493379E+02  0.33553493379E+02  0.00000000000E+00 0.  1.
          1   -1    0    0  501    0  0.00000000000E+00 -0.00000000000E+00 -0.13993662365E+04  0.13993662365E+04  0.00000000000E+00 0. -1.
         25    2    1    2    0    0 -0.13591998003E+03 -0.92728072191E+02 -0.64329360841E+03  0.67568308119E+03  0.12509285843E+03 0.  0.
          5    1    3    3  502    0  0.14591741320E+02 -0.46881151580E+02 -0.15724960711E+03  0.16478978313E+03  0.41800000000E+01 0.  1.
         -5    1    3    3    0  502 -0.15051172135E+03 -0.45846920610E+02 -0.48604400130E+03  0.51089329805E+03  0.41800000000E+01 0.  1.
        -11    1    1    2    0    0  0.72591919016E+02 -0.37361535881E+02 -0.28053526575E+03  0.29217376063E+03  0.00000000000E+00 0.  1.
         11    1    1    2    0    0  0.63328061013E+02  0.13008960807E+03 -0.44198386898E+03  0.46506288809E+03  0.00000000000E+00 0. -1.
</event>
<event>
 7    1  0.2644565E-009  0.1150695E+03  0.7561462E-02  0.1251460E+00
         -1   -1    0    0    0  501 -0.00000000000E+00  0.00000000000E+00  0.27510644582E+02  0.27510644582E+02  0.00000000000E+00 0.  1.
          1   -1    0    0  501    0  0.00000000000E+00 -0.00000000000E+00 -0.70587931088E+03  0.70587931088E+03  0.00000000000E+00 0. -1.
         25    2    1    2    0    0 -0.54032431280E+02 -0.45957412271E+02 -0.50515399889E+03  0.52522345121E+03  0.12509006250E+03 0.  0.
          5    1    3    3  502    0  0.28394910853E+02  0.36457734077E+01 -0.26361519498E+03  0.26519805062E+03  0.41800000000E+01 0.  1.
         -5    1    3    3    0  502 -0.82427342134E+02 -0.49603185678E+02 -0.24153880391E+03  0.26002540060E+03  0.41800000000E+01 0.  1.
        -11    1    1    2    0    0 -0.60766768450E+01 -0.16890125178E+02 -0.74394374174E+02  0.76529244336E+02  0.00000000000E+00 0. -1.
         11    1    1    2    0    0  0.60109108125E+02  0.62847537448E+02 -0.98820293234E+02  0.13163725991E+03  0.00000000000E+00 0.  1.
</event>
<event>
 7    1  0.2644565E-009  0.7297011E+02  0.7561462E-02  0.1350275E+00
         -2   -1    0    0    0  501 -0.00000000000E+00  0.00000000000E+00  0.38388668655E+03  0.38388668655E+03  0.00000000000E+00 0.  1.
          2   -1    0    0  501    0  0.00000000000E+00 -0.00000000000E+00 -0.36572091136E+02  0.36572091136E+02  0.00000000000E+00 0. -1.
         25    2    1    2    0    0  0.87329228044E+01  0.43607470905E+02  0.23245418926E+03  0.26769505025E+03  0.12509122418E+03 0.  0.
          5    1    3    3  502    0  0.92305996661E+01  0.40726830510E+02  0.24790069359E+03  0.25142813083E+03  0.41800000000E+01 0. -1.
         -5    1    3    3    0  502 -0.49767686170E+00  0.28806403947E+01 -0.15446504329E+02  0.16266919418E+02  0.41800000000E+01 0. -1.
        -11    1    1    2    0    0 -0.36632412944E+02 -0.57130994564E+02  0.91610256492E+02  0.11401018951E+03  0.00000000000E+00 0.  1.
         11    1    1    2    0    0  0.27899490139E+02  0.13523523659E+02  0.23250149664E+02  0.38753537924E+02  0.00000000000E+00 0. -1.
</event>
<event>
 7    1  0.2644565E-009  0.1027035E+03  0.7561462E-02  0.1274711E+00
         -1   -1    0    0    0  501 -0.00000000000E+00  0.00000000000E+00  0.31184112646E+02  0.31184112646E+02  0.00000000000E+00 0.  1.
          1   -1    0    0  501    0  0.00000000000E+00 -0.00000000000E+00 -0.44311175880E+03  0.44311175880E+03  0.00000000000E+00 0. -1.
         25    2    1    2    0    0  0.37746389237E+01  0.18817261838E+02 -0.32000540117E+03  0.34412094995E+03  0.12508970450E+03 0.  0.
          5    1    3    3  502    0  0.62176596234E+02  0.15015307849E+01 -0.19978622650E+03  0.20928495506E+03  0.41800000000E+01 0. -1.
         -5    1    3    3    0  502 -0.58401957310E+02  0.17315731053E+02 -0.12021917467E+03  0.13483599489E+03  0.41800000000E+01 0. -1.
        -11    1    1    2    0    0 -0.21978110733E+02  0.25760851056E+02 -0.10275764628E+02  0.35387146497E+02  0.00000000000E+00 0.  1.
         11    1    1    2    0    0  0.18203471809E+02 -0.44578112894E+02 -0.81646480355E+02  0.94787775000E+02  0.00000000000E+00 0. -1.
</event>
<event>
 7    1  0.2644565E-009  0.1406723E+03  0.7561462E-02  0.1212427E+00
          2   -1    0    0  501    0  0.00000000000E+00  0.00000000000E+00  0.37594991839E+03  0.37594991839E+03  0.00000000000E+00 0. -1.
         -2   -1    0    0    0  501 -0.00000000000E+00 -0.00000000000E+00 -0.64807625438E+02  0.64807625438E+02  0.00000000000E+00 0.  1.
         25    2    1    2    0    0  0.10186874761E+03 -0.39825178060E+02  0.14433833896E+03  0.22010197698E+03  0.12509211658E+03 0.  0.
          5    1    3    3  502    0  0.23478999716E+02  0.38524559612E+02  0.79841773090E+02  0.91801885880E+02  0.41800000000E+01 0. -1.
         -5    1    3    3    0  502  0.78389747897E+02 -0.78349737672E+02  0.64496565869E+02  0.12830009110E+03  0.41800000000E+01 0. -1.
        -11    1    1    2    0    0 -0.81501769971E+02  0.12587684620E+01  0.49162534579E+02  0.95189693836E+02  0.00000000000E+00 0.  1.
         11    1    1    2    0    0 -0.20366977643E+02  0.38566409598E+02  0.11764141942E+03  0.12546587301E+03  0.00000000000E+00 0. -1.
</event>
<event>
 7    1  0.2697722E-009  0.1122834E+03  0.7561462E-02  0.1256399E+00
         -1   -1    0    0    0  501 -0.00000000000E+00  0.00000000000E+00  0.27471713200E+02  0.27471713200E+02  0.00000000000E+00 0.  1.
          1   -1    0    0  501    0  0.00000000000E+00 -0.00000000000E+00 -0.82794938575E+03  0.82794938575E+03  0.00000000000E+00 0. -1.
         25    2    1    2    0    0 -0.90018261131E+02  0.20895663242E+02 -0.29384919583E+03  0.33246619617E+03  0.12508599293E+03 0.  0.
          5    1    3    3  502    0  0.29281074385E+01  0.28368858593E+01 -0.19654864703E+03  0.19663535995E+03  0.41800000000E+01 0. -1.
         -5    1    3    3    0  502 -0.92946368570E+02  0.18058777383E+02 -0.97300548803E+02  0.13583083622E+03  0.41800000000E+01 0. -1.
        -11    1    1    2    0    0 -0.57913702083E+01 -0.27319320693E+02 -0.60862877100E+02  0.66963983312E+02  0.00000000000E+00 0.  1.
         11    1    1    2    0    0  0.95809631340E+02  0.64236574511E+01 -0.44576559962E+03  0.45599091947E+03  0.00000000000E+00 0. -1.
</event>
<event>
 7    1  0.2644565E-009  0.9273230E+02  0.7561462E-02  0.1296367E+00
         -2   -1    0    0    0  501 -0.00000000000E+00  0.00000000000E+00  0.16142351844E+03  0.16142351844E+03  0.00000000000E+00 0.  1.
          2   -1    0    0  501    0  0.00000000000E+00 -0.00000000000E+00 -0.10369878820E+03  0.10369878820E+03  0.00000000000E+00 0. -1.
         25    2    1    2    0    0 -0.45287103640E+02  0.39017706402E+02 -0.77996423196E+01  0.13885752063E+03  0.12508906205E+03 0.  0.
          5    1    3    3  502    0  0.11314752018E+02  0.46277494391E+02  0.41508089489E+02  0.63324750244E+02  0.41800000000E+01 0. -1.
         -5    1    3    3    0  502 -0.56601855658E+02 -0.72597879897E+01 -0.49307731809E+02  0.75532770383E+02  0.41800000000E+01 0. -1.
        -11    1    1    2    0    0  0.36285573077E+02  0.39703370646E+01  0.73089631270E+02  0.81697616790E+02  0.00000000000E+00 0.  1.
         11    1    1    2    0    0  0.90015305633E+01 -0.42988043466E+02 -0.75652587087E+01  0.44567169227E+02  0.00000000000E+00 0. -1.
</event>
<event>
 7    1  0.2644565E-009  0.9686062E+02  0.7561462E-02  0.1287040E+00
         -1   -1    0    0    0  501 -0.00000000000E+00  0.00000000000E+00  0.19519700622E+02  0.19519700622E+02  0.00000000000E+00 0.  1.
          1   -1    0    0  501    0  0.00000000000E+00 -0.00000000000E+00 -0.68977768092E+03  0.68977768092E+03  0.00000000000E+00 0. -1.
         25    2    1    2    0    0  0.34507712869E+02 -0.25798846722E+02 -0.38455629528E+03  0.40667783772E+03  0.12508779603E+03 0.  0.
          5    1    3    3  502    0  0.10920112977E+01 -0.54020291964E+02 -0.33930231489E+03  0.34360284883E+03  0.41800000000E+01 0.  1.
         -5    1    3    3    0  502  0.33415701571E+02  0.28221445243E+02 -0.45253980388E+02  0.63074988894E+02  0.41800000000E+01 0.  1.
        -11    1    1    2    0    0 -0.19445249123E+02 -0.31129289384E+02 -0.15464456559E+03  0.15894052988E+03  0.00000000000E+00 0. -1.
         11    1    1    2    0    0 -0.15062463746E+02  0.56928136105E+02 -0.13105711943E+03  0.14367901394E+03  0.00000000000E+00 0.  1.
</event>
<event>
 7    1  0.2644565E-009  0.1661782E+03  0.7561462E-02  0.1181893E+00
         -2   -1    0    0    0  501 -0.00000000000E+00  0.00000000000E+00  0.16766497774E+04  0.16766497774E+04  0.00000000000E+00 0.  1.
          2   -1    0    0  501    0  0.00000000000E+00 -0.00000000000E+00 -0.20776224395E+02  0.20776224395E+02  0.00000000000E+00 0. -1.
         25    2    1    2    0    0 -0.13745874061E+03 -0.19458447654E+02  0.11582855918E+04  0.11732629523E+04  0.12508759579E+03 0.  0.
          5    1    3    3  502    0 -0.16059771496E+03 -0.20511082401E+02  0.10527203904E+04  0.10651056395E+04  0.41800000000E+01 0. -1.
         -5    1    3    3    0  502  0.23138974341E+02  0.10526347474E+01  0.10556520133E+03  0.10815731277E+03  0.41800000000E+01 0. -1.
        -11    1    1    2    0    0  0.47698324608E+02  0.30211160901E+02  0.86815985368E+02  0.10356089865E+03  0.00000000000E+00 0. -1.
         11    1    1    2    0    0  0.89760416006E+02 -0.10752713247E+02  0.41077197586E+03  0.42060215082E+03  0.00000000000E+00 0.  1.
</event>
<event>
 7    1  0.2644565E-009  0.1189919E+03  0.7561462E-02  0.1244769E+00
          2   -1    0    0  501    0  0.00000000000E+00  0.00000000000E+00  0.25419777640E+02  0.25419777640E+02  0.00000000000E+00 0. -1.
         -2   -1    0    0    0  501 -0.00000000000E+00 -0.00000000000E+00 -0.10036737189E+04  0.10036737189E+04  0.00000000000E+00 0.  1.
         25    2    1    2    0    0 -0.14481037034E+02 -0.92799090885E+02 -0.75066027716E+03  0.76678558046E+03  0.12509157839E+03 0.  0.
          5    1    3    3  502    0  0.15166088955E+02 -0.71987630346E+02 -0.17381701646E+03  0.18879104001E+03  0.41800000000E+01 0.  1.
         -5    1    3    3    0  502 -0.29647125989E+02 -0.20811460539E+02 -0.57684326070E+03  0.57799454045E+03  0.41800000000E+01 0.  1.
        -11    1    1    2    0    0  0.45514753757E+01 -0.16994161348E+02 -0.16296264294E+02  0.23980944059E+02  0.00000000000E+00 0. -1.
         11    1    1    2    0    0  0.99295616584E+01  0.10979325223E+03 -0.21129739981E+03  0.23832697203E+03  0.00000000000E+00 0.  1.
</event>
<event>
 7    1  0.2644565E-009  0.1003550E+03  0.7561462E-02  0.1279551E+00
         -2   -1    0    0    0  501 -0.00000000000E+00  0.00000000000E+00  0.83110265310E+02  0.83110265310E+02  0.00000000000E+00 0.  1.
          2   -1    0    0  501    0  0.00000000000E+00 -0.00000000000E+00 -0.26703242965E+03  0.26703242965E+03  0.00000000000E+00 0. -1.
         25    2    1    2    0    0  0.51090052943E+02  0.51786563873E+02 -0.18211845812E+03  0.23261110570E+03  0.12509497193E+03 0.  0.
          5    1    3    3  502    0  0.11538887706E+02 -0.32472410449E+02 -0.87633490608E+01  0.35803240867E+02  0.41800000000E+01 0. -1.
         -5    1    3    3    0  502  0.39551165237E+02  0.84258974322E+02 -0.17335510906E+03  0.19680786484E+03  0.41800000000E+01 0. -1.
        -11    1    1    2    0    0 -0.17270866796E+02 -0.19775025629E+02  0.44623708796E+02  0.51774606374E+02  0.00000000000E+00 0.  1.
         11    1    1    2    0    0 -0.33819186147E+02 -0.32011538244E+02 -0.46427415015E+02  0.65756982879E+02  0.00000000000E+00 0. -1.
</event>
<event>
 7    1  0.2644565E-009  0.1199594E+03  0.7561462E-02  0.1243164E+00
         -1   -1    0    0    0  501 -0.00000000000E+00  0.00000000000E+00  0.15381787765E+03  0.15381787765E+03  0.00000000000E+00 0.  1.
          1   -1    0    0  501    0  0.00000000000E+00 -0.00000000000E+00 -0.14846660123E+03  0.14846660123E+03  0.00000000000E+00 0. -1.
         25    2    1    2    0    0 -0.50924283741E+02  0.79540010012E+02 -0.44477533115E+02  0.16292955162E+03  0.12509153438E+03 0.  0.
          5    1    3    3  502    0 -0.57374916590E+02  0.84225623060E+02  0.14718352469E+02  0.10305308794E+03  0.41800000000E+01 0.  1.
         -5    1    3    3    0  502  0.64506328483E+01 -0.46856130488E+01 -0.59195885584E+02  0.59876463689E+02  0.41800000000E+01 0.  1.
        -11    1    1    2    0    0  0.11533771732E+02 -0.87898883920E+02  0.25247817465E+02  0.92177513372E+02  0.00000000000E+00 0. -1.
         11    1    1    2    0    0  0.39390512009E+02  0.83588739083E+01  0.24580992076E+02  0.47177413884E+02  0.00000000000E+00 0.  1.
</event>
<event>
 7    1  0.2644565E-009  0.1242060E+03  0.7561462E-02  0.1236315E+00
          2   -1    0    0  501    0  0.00000000000E+00  0.00000000000E+00  0.43615566062E+03  0.43615566062E+03  0.00000000000E+00 0. -1.
         -2   -1    0    0    0  501 -0.00000000000E+00 -0.00000000000E+00 -0.37939601048E+02  0.37939601048E+02  0.00000000000E+00 0.  1.
         25    2    1    2    0    0 -0.64682350028E+02  0.18290592559E+02  0.20106134621E+03  0.24615369251E+03  0.12509046014E+03 0.  0.
          5    1    3    3  502    0 -0.96268452119E+02 -0.11098932558E+02  0.15546195712E+03  0.18323944359E+03  0.41800000000E+01 0. -1.
         -5    1    3    3    0  502  0.31586102091E+02  0.29389525116E+02  0.45599389090E+02  0.62914248920E+02  0.41800000000E+01 0. -1.
        -11    1    1    2    0    0  0.30164143527E+02  0.33975527091E+02  0.12153685589E+03  0.12975137508E+03  0.00000000000E+00 0. -1.
         11    1    1    2    0    0  0.34518206501E+02 -0.52266119649E+02  0.75617857479E+02  0.98190194077E+02  0.00000000000E+00 0.  1.
</event>
<event>
 7    1  0.2644565E-009  0.9635441E+02  0.7561462E-02  0.1288154E+00
          2   -1    0    0  501    0  0.00000000000E+00  0.00000000000E+00  0.67749440171E+02  0.67749440171E+02  0.00000000000E+00 0. -1.
         -2   -1    0    0    0  501 -0.00000000000E+00 -0.00000000000E+00 -0.25739036849E+03  0.25739036849E+03  0.00000000000E+00 0.  1.
         25    2    1    2    0    0 -0.57289279707E+02  0.23184672523E+02 -0.10301352684E+03  0.17343521514E+03  0.12509355110E+03 0.  0.
          5    1    3    3  502    0 -0.69508162234E+02 -0.17638762025E+02 -0.10864942282E+03  0.13024853175E+03  0.41800000000E+01 0.  1.
         -5    1    3    3    0  502  0.12218882526E+02  0.40823434548E+02  0.56358959793E+01  0.43186683388E+02  0.41800000000E+01 0.  1.
        -11    1    1    2    0    0  0.52842327781E+01 -0.25461031805E+02 -0.95431159456E+02  0.98910532562E+02  0.00000000000E+00 0.  1.
         11    1    1    2    0    0  0.52005046929E+02  0.22763592814E+01  0.88037579859E+01  0.52794060957E+02  0.00000000000E+00 0. -1.
</event>
<event>
 7    1  0.2644565E-009  0.1042840E+03  0.7561462E-02  0.1271537E+00
         -1   -1    0    0    0  501 -0.00000000000E+00  0.00000000000E+00  0.14249405469E+03  0.14249405469E+03  0.00000000000E+00 0.  1.
          1   -1    0    0  501    0  0.00000000000E+00 -0.00000000000E+00 -0.12726983376E+03  0.12726983376E+03  0.00000000000E+00 0. -1.
         25    2    1    2    0    0 -0.76945684245E+01 -0.79047107497E+02 -0.43954230869E+01  0.14823821764E+03  0.12509035869E+03 0.  0.
          5    1    3    3  502    0  0.33965955745E+02 -0.37725594347E+02  0.47608900736E+02  0.69720774865E+02  0.41800000000E+01 0.  1.
         -5    1    3    3    0  502 -0.41660524170E+02 -0.41321513151E+02 -0.52004323823E+02  0.78517442772E+02  0.41800000000E+01 0.  1.
        -11    1    1    2    0    0  0.27010967322E+02  0.12969112473E+02 -0.25390277713E+02  0.39274119167E+02  0.00000000000E+00 0. -1.
         11    1    1    2    0    0 -0.19316398898E+02  0.66077995025E+02  0.45009921728E+02  0.82251551638E+02  0.00000000000E+00 0.  1.
</event>
<event>
 7    1  0.2644565E-009  0.1062920E+03  0.7561462E-02  0.1267595E+00
          1   -1    0    0  501    0  0.00000000000E+00  0.00000000000E+00  0.94868659298E+03  0.94868659298E+03  0.00000000000E+00 0. -1.
         -1   -1    0    0    0  501 -0.00000000000E+00 -0.00000000000E+00 -0.13857622136E+02  0.13857622136E+02  0.00000000000E+00 0.  1.
         25    2    1    2    0    0 -0.26882082197E+01 -0.35821190474E+02  0.56573115759E+03  0.58050830756E+03  0.12509104014E+03 0.  0.
          5    1    3    3  502    0 -0.25096334172E+02  0.37737680387E+02  0.12344533256E+03  0.13156816120E+03  0.41800000000E+01 0.  1.
         -5    1    3    3    0  502  0.22408125952E+02 -0.73558870861E+02  0.44228582503E+03  0.44894014636E+03  0.41800000000E+01 0.  1.
        -11    1    1    2    0    0 -0.52146619629E+01 -0.26617926955E+02  0.50924644227E+02  0.57697713338E+02  0.00000000000E+00 0.  1.
         11    1    1    2    0    0  0.79028701826E+01  0.62439117429E+02  0.31817316902E+03  0.32433819422E+03  0.00000000000E+00 0. -1.
</event>
<event>
 6    1  0.2644565E-009  0.1141547E+03  0.7561462E-02  0.1253064E+00
         -2   -1    0    0    0  501 -0.00000000000E+00  0.00000000000E+00  0.12932393189E+02  0.12932393189E+02  0.00000000000E+00 0.  1.
          2   -1    0    0  501    0  0.00000000000E+00 -0.00000000000E+00 -0.12902671839E+04  0.12902671839E+04  0.00000000000E+00 0. -1.
          5    1    1    2  502    0  0.51892640256E+02 -0.62593347712E+02 -0.77411168084E+03  0.77838110210E+03  0.41800000000E+01 0.  1.
         -5    1    1    2    0  502  0.40270676425E+01  0.35433323561E+02 -0.88987885241E+02  0.95958604680E+02  0.41800000000E+01 0.  1.
        -11    1    1    2    0    0  0.21614105972E+02  0.25514112945E+02 -0.13080873027E+03  0.13501504898E+03  0.00000000000E+00 0.  1.
         11    1    1    2    0    0 -0.77533813870E+02  0.16459112058E+01 -0.28342649432E+03  0.29384482129E+03  0.00000000000E+00 0. -1.
</event>
<event>
 7    1  0.2644565E-009  0.1019498E+03  0.7561462E-02  0.1276248E+00
          3   -1    0    0  501    0  0.00000000000E+00  0.00000000000E+00  0.11943461057E+04  0.11943461057E+04  0.00000000000E+00 0. -1.
         -3   -1    0    0    0  501 -0.00000000000E+00 -0.00000000000E+00 -0.15398253645E+02  0.15398253645E+02  0.00000000000E+00 0.  1.
         25    2    1    2    0    0  0.75136026252E+02  0.72863017315E+01  0.76154590170E+03  0.77543437712E+03  0.12509116752E+03 0.  0.
          5    1    3    3  502    0  0.32428674531E+02  0.20997798937E+02  0.54390533113E+02  0.66845560693E+02  0.41800000000E+01 0. -1.
         -5    1    3    3    0  502  0.42707351721E+02 -0.13711497206E+02  0.70715536859E+03  0.70858881643E+03  0.41800000000E+01 0. -1.
        -11    1    1    2    0    0  0.22316479440E+02 -0.11138696662E+01  0.80057999955E+02  0.83117683540E+02  0.00000000000E+00 0. -1.
         11    1    1    2    0    0 -0.97452505692E+02 -0.61724320653E+01  0.33734395043E+03  0.35119229871E+03  0.00000000000E+00 0.  1.
</event>
<event>
 7    1  0.2644565E-009  0.2273397E+03  0.7561462E-02  0.1128526E+00
          2   -1    0    0  501    0  0.00000000000E+00  0.00000000000E+00  0.49775653161E+02  0.49775653161E+02  0.00000000000E+00 0. -1.
         -2   -1    0    0    0  501 -0.00000000000E+00 -0.00000000000E+00 -0.11757599499E+04  0.11757599499E+04  0.00000000000E+00 0.  1.
         25    2    1    2    0    0  0.21960725746E+02  0.21285905512E+03 -0.46605025491E+03  0.52786521010E+03  0.12509032383E+03 0.  0.
          5    1    3    3  502    0  0.14580537336E+02 -0.44750496183E+01 -0.27499748213E+01  0.16051570005E+02  0.41800000000E+01 0.  1.
         -5    1    3    3    0  502  0.73801884094E+01  0.21733410474E+03 -0.46330028008E+03  0.51181364010E+03  0.41800000000E+01 0.  1.
        -11    1    1    2    0    0  0.41415636474E+01 -0.17681084477E+03 -0.45965388890E+03  0.49250474613E+03  0.00000000000E+00 0. -1.
         11    1    1    2    0    0 -0.26102289393E+02 -0.36048210350E+02 -0.20028015297E+03  0.20516564687E+03  0.00000000000E+00 0.  1.
</event>
<event>
 7    1  0.2644565E-009  0.1226250E+03  0.7561462E-02  0.1238828E+00
         -2   -1    0    0    0  501 -0.00000000000E+00  0.00000000000E+00  0.23030387671E+02  0.23030387671E+02  0.00000000000E+00 0.  1.
          2   -1    0    0  501    0  0.00000000000E+00 -0.00000000000E+00 -0.82019371587E+03  0.82019371587E+03  0.00000000000E+00 0. -1.
         25    2    1    2    0    0 -0.79680849629E+02  0.22964061881E+02 -0.51662815743E+03  0.53798587433E+03  0.12509101481E+03 0.  0.
          5    1    3    3  502    0 -0.59246861693E+02  0.58746847528E+02 -0.46167611614E+03  0.46917341286E+03  0.41800000000E+01 0.  1.
         -5    1    3    3    0  502 -0.20433987935E+02 -0.35782785647E+02 -0.54952041290E+02  0.68812461470E+02  0.41800000000E+01 0.  1.
        -11    1    1    2    0    0  0.16492645251E+02  0.32351671116E+02 -0.84977724278E+02  0.92411317461E+02  0.00000000000E+00 0. -1.
         11    1    1    2    0    0  0.63188204378E+02 -0.55315732997E+02 -0.19555744649E+03  0.21282691175E+03  0.00000000000E+00 0.  1.
</event>
<event>
 7    1  0.2644565E-009  0.1044519E+03  0.7561462E-02  0.1271203E+00
         -2   -1    0    0    0  501 -0.00000000000E+00  0.00000000000E+00  0.68570485545E+02  0.68570485545E+02  0.00000000000E+00 0. -1.
          2   -1    0    0  501    0  0.00000000000E+00 -0.00000000000E+00 -0.26157856417E+03  0.26157856417E+03  0.00000000000E+00 0.  1.
         25    2    1    2    0    0  0.68369757798E+02 -0.26672561982E+02 -0.13289633440E+03  0.19670802520E+03  0.12508701826E+03 0.  0.
          5    1    3    3  502    0  0.80343154069E+01 -0.35552682077E+02  0.12680645668E+02  0.38817709895E+02  0.41800000000E+01 0.  1.
         -5    1    3    3    0  502  0.60335442391E+02  0.88801200950E+01 -0.14557698006E+03  0.15789031530E+03  0.41800000000E+01 0.  1.
        -11    1    1    2    0    0 -0.23652889015E+02 -0.30441308874E+02 -0.45165073396E+02  0.59380268605E+02  0.00000000000E+00 0.  1.
         11    1    1    2    0    0 -0.44716868783E+02  0.57113870856E+02 -0.14946670836E+02  0.74060755917E+02  0.00000000000E+00 0. -1.
</event>
<event>
 7    1  0.2644565E-009  0.1120308E+03  0.7561462E-02  0.1256855E+00
         -1   -1    0    0    0  501 -0.00000000000E+00  0.00000000000E+00  0.10991615682E+03  0.10991615682E+03  0.00000000000E+00 0.  1.
          1   -1    0    0  501    0  0.00000000000E+00 -0.00000000000E+00 -0.28539983782E+03  0.28539983782E+03  0.00000000000E+00 0. -1.
         25    2    1    2    0    0  0.67330151197E+02  0.74155773361E+02 -0.20218051091E+03  0.25798533141E+03  0.12508814591E+03 0.  0.
          5    1    3    3  502    0  0.40303581201E+02  0.13419688480E+02 -0.18407530545E+03  0.18895940615E+03  0.41800000000E+01 0.  1.
         -5    1    3    3    0  502  0.27026569996E+02  0.60736084881E+02 -0.18105205458E+02  0.69025925254E+02  0.41800000000E+01 0.  1.
        -11    1    1    2    0    0  0.10015637686E+02 -0.11324881472E+02  0.34206210079E+02  0.37398271973E+02  0.00000000000E+00 0.  1.
         11    1    1    2    0    0 -0.77345788883E+02 -0.62830891889E+02 -0.75093801722E+01  0.99932391266E+02  0.00000000000E+00 0. -1.
</event>
<event>
 7    1  0.2644565E-009  0.3657786E+03  0.7561462E-02  0.1056319E+00
         -2   -1    0    0    0  501 -0.00000000000E+00  0.00000000000E+00  0.51609882866E+03  0.51609882866E+03  0.00000000000E+00 0.  1.
          2   -1    0    0  501    0  0.00000000000E+00 -0.00000000000E+00 -0.27480877908E+03  0.27480877908E+03  0.00000000000E+00 0. -1.
         25    2    1    2    0    0  0.35492734210E+03 -0.19861304415E+02  0.59527616062E+02  0.38152237063E+03  0.12509153702E+03 0.  0.
          5    1    3    3  502    0  0.33869747915E+03  0.12614891943E+02  0.43951214072E+02  0.34179569848E+03  0.41800000000E+01 0.  1.
         -5    1    3    3    0  502  0.16229862949E+02 -0.32476196357E+02  0.15576401990E+02  0.39726672150E+02  0.41800000000E+01 0. -1.
        -11    1    1    2    0    0 -0.18848785290E+03  0.47240778996E+00  0.46759016220E+02  0.19420169788E+03  0.00000000000E+00 0. -1.
         11    1    1    2    0    0 -0.16643948920E+03  0.19388896625E+02  0.13500341730E+03  0.21518353924E+03  0.00000000000E+00 0.  1.
</event>
<event>
 7    1  0.2644565E-009  0.1279883E+03  0.7561462E-02  0.1230472E+00
          1   -1    0    0  501    0  0.00000000000E+00  0.00000000000E+00  0.54560212503E+03  0.54560212503E+03  0.00000000000E+00 0. -1.
         -1   -1    0    0    0  501 -0.00000000000E+00 -0.00000000000E+00 -0.33020356265E+02  0.33020356265E+02  0.00000000000E+00 0.  1.
         25    2    1    2    0    0 -0.60349131296E+02  0.44974908903E+02  0.22968408368E+03  0.27215192614E+03  0.12508849879E+03 0.  0.
          5    1    3    3  502    0 -0.62071012483E+02 -0.30938099110E+02  0.12045814488E+03  0.13905974844E+03  0.41800000000E+01 0. -1.
         -5    1    3    3    0  502  0.17218811879E+01  0.75913008012E+02  0.10922593879E+03  0.13309217770E+03  0.41800000000E+01 0. -1.
        -11    1    1    2    0    0 -0.68544558827E+01  0.17436255471E+02  0.17364633523E+02  0.25544805101E+02  0.00000000000E+00 0.  1.
         11    1    1    2    0    0  0.67203587178E+02 -0.62411164373E+02  0.26553305156E+03  0.28092575005E+03  0.00000000000E+00 0. -1.
</event>
<event>
 7    1  0.2644565E-009  0.2052822E+03  0.7561462E-02  0.1145357E+00
         -1   -1    0    0    0  501 -0.00000000000E+00  0.00000000000E+00  0.72859083234E+03  0.72859083234E+03  0.00000000000E+00 0.  1.
          1   -1    0    0  501    0  0.00000000000E+00 -0.00000000000E+00 -0.10949682157E+03  0.10949682157E+03  0.00000000000E+00 0. -1.
         25    2    1    2    0    0  0.15036818920E+03 -0.11033089240E+03  0.46740865972E+02  0.22937854864E+03  0.12508521849E+03 0.  0.
          5    1    3    3  502    0  0.49453156045E+02 -0.11187756860E+03  0.37177628809E+02  0.12791346091E+03  0.41800000000E+01 0.  1.
         -5    1    3    3    0  502  0.10091503315E+03  0.15466761914E+01  0.95632371627E+01  0.10146508773E+03  0.41800000000E+01 0.  1.
        -11    1    1    2    0    0 -0.57041861598E+02  0.32586944841E+02  0.90798627738E+02  0.11207173483E+03  0.00000000000E+00 0. -1.
         11    1    1    2    0    0 -0.93326327602E+02  0.77743947564E+02  0.48155451707E+03  0.49663737044E+03  0.00000000000E+00 0.  1.
</event>
<event>
 7    1  0.2644565E-009  0.1020312E+03  0.7561462E-02  0.1276082E+00
         -1   -1    0    0    0  501 -0.00000000000E+00  0.00000000000E+00  0.39962315167E+02  0.39962315167E+02  0.00000000000E+00 0.  1.
          1   -1    0    0  501    0  0.00000000000E+00 -0.00000000000E+00 -0.44551957261E+03  0.44551957261E+03  0.00000000000E+00 0. -1.
         25    2    1    2    0    0  0.33899990216E+02  0.70593509800E+02 -0.22546751305E+03  0.26947267910E+03  0.12508905779E+03 0.  0.
          5    1    3    3  502    0 -0.15840985781E+02  0.41142033278E+02 -0.20224451855E+03  0.20703603893E+03  0.41800000000E+01 0. -1.
         -5    1    3    3    0  502  0.49740975997E+02  0.29451476522E+02 -0.23222994502E+02  0.62436640173E+02  0.41800000000E+01 0. -1.
        -11    1    1    2    0    0  0.14862402077E+02 -0.43648629521E+02 -0.13993117182E+03  0.14733236814E+03  0.00000000000E+00 0. -1.
         11    1    1    2    0    0 -0.48762392293E+02 -0.26944880279E+02 -0.40158572581E+02  0.68676840544E+02  0.00000000000E+00 0.  1.
</event>
<event>
 7    1  0.2644565E-009  0.1596988E+03  0.7561462E-02  0.1189037E+00
          1   -1    0    0  501    0  0.00000000000E+00  0.00000000000E+00  0.82642895017E+03  0.82642895017E+03  0.00000000000E+00 0. -1.
         -1   -1    0    0    0  501 -0.00000000000E+00 -0.00000000000E+00 -0.45687837136E+02  0.45687837136E+02  0.00000000000E+00 0.  1.
         25    2    1    2    0    0  0.15877546258E+03 -0.15201124237E+02  0.35994064543E+03  0.41308009998E+03  0.12504870679E+03 0.  0.
          5    1    3    3  502    0  0.26681081665E+02 -0.26528361292E+01 -0.23445662697E+01  0.27237603590E+02  0.41800000000E+01 0. -1.
         -5    1    3    3    0  502  0.13209438092E+03 -0.12548288108E+02  0.36228521170E+03  0.38584249639E+03  0.41800000000E+01 0. -1.
        -11    1    1    2    0    0 -0.23520534127E+02  0.26883730797E+01  0.88565708567E+01  0.25276109724E+02  0.00000000000E+00 0.  1.
         11    1    1    2    0    0 -0.13525492846E+03  0.12512751158E+02  0.41194389675E+03  0.43376057760E+03  0.00000000000E+00 0. -1.
</event>
<event>
 7    1  0.2644565E-009  0.9540919E+02  0.7561462E-02  0.1290257E+00
         -2   -1    0    0    0  501 -0.00000000000E+00  0.00000000000E+00  0.44102142343E+02  0.44102142343E+02  0.00000000000E+00 0.  1.
          2   -1    0    0  501    0  0.00000000000E+00 -0.00000000000E+00 -0.33077844425E+03  0.33077844425E+03  0.00000000000E+00 0. -1.
         25    2    1    2    0    0 -0.16349253143E+02  0.66359712412E+02 -0.19634903163E+03  0.24263403443E+03  0.12508965956E+03 0.  0.
          5    1    3    3  502    0 -0.53280272134E+02  0.95801063619E+01 -0.27933165203E+02  0.61059806377E+02  0.41800000000E+01 0. -1.
         -5    1    3    3    0  502  0.36931018991E+02  0.56779606050E+02 -0.16841586643E+03  0.18157422805E+03  0.41800000000E+01 0. -1.
        -11    1    1    2    0    0  0.89200590621E+01 -0.23009554186E+02  0.68231923534E+01  0.25603964368E+02  0.00000000000E+00 0.  1.
         11    1    1    2    0    0  0.74291940808E+01 -0.43350158226E+02 -0.97150462628E+02  0.10664258780E+03  0.00000000000E+00 0. -1.
</event>
<event>
 7    1  0.2644565E-009  0.1018217E+03  0.7561462E-02  0.1276511E+00
         -1   -1    0    0    0  501 -0.00000000000E+00  0.00000000000E+00  0.16112215055E+03  0.16112215055E+03  0.00000000000E+00 0.  1.
          1   -1    0    0  501    0  0.00000000000E+00 -0.00000000000E+00 -0.10056882651E+03  0.10056882651E+03  0.00000000000E+00 0. -1.
         25    2    1    2    0    0  0.27412970268E+02 -0.60450959720E+02  0.39292933424E+02  0.14695969640E+03  0.12508968095E+03 0.  0.
          5    1    3    3  502    0 -0.81927696814E+00  0.17136908507E+02  0.59324616286E+02  0.61896909013E+02  0.41800000000E+01 0.  1.
         -5    1    3    3    0  502  0.28232247236E+02 -0.77587868227E+02 -0.20031682861E+02  0.85062787389E+02  0.41800000000E+01 0.  1.
        -11    1    1    2    0    0  0.23955109338E+02 -0.40652295016E-01  0.25845247043E+02  0.35239547539E+02  0.00000000000E+00 0.  1.
         11    1    1    2    0    0 -0.51368079607E+02  0.60491612015E+02 -0.45848564309E+01  0.79491733124E+02  0.00000000000E+00 0. -1.
</event>
<event>
 7    1  0.2644565E-009  0.9545267E+02  0.7561462E-02  0.1290160E+00
         -4   -1    0    0    0  501 -0.00000000000E+00  0.00000000000E+00  0.13652715059E+04  0.13652715059E+04  0.00000000000E+00 0.  1.
          4   -1    0    0  501    0  0.00000000000E+00 -0.00000000000E+00 -0.12489831004E+02  0.12489831004E+02  0.00000000000E+00 0. -1.
         25    2    1    2    0    0 -0.61310724719E+02  0.36837340903E+02  0.83219777928E+03  0.84458048050E+03  0.12508816712E+03 0.  0.
          5    1    3    3  502    0 -0.38195194109E+02  0.40221867985E+02  0.81055352186E+03  0.81245994099E+03  0.41800000000E+01 0.  1.
         -5    1    3    3    0  502 -0.23115530610E+02 -0.33845270820E+01  0.21644257417E+02  0.32120539505E+02  0.41800000000E+01 0.  1.
        -11    1    1    2    0    0  0.54703423956E+02 -0.63653049586E+02  0.44167081671E+03  0.44957456072E+03  0.00000000000E+00 0.  1.
         11    1    1    2    0    0  0.66073007627E+01  0.26815708684E+02  0.78913078926E+02  0.83606295703E+02  0.00000000000E+00 0. -1.
</event>
<event>
 7    1  0.3187716E-009  0.1131231E+03  0.7561462E-02  0.1254893E+00
          2   -1    0    0  501    0  0.00000000000E+00  0.00000000000E+00  0.21017151381E+03  0.21017151381E+03  0.00000000000E+00 0.  1.
         -2   -1    0    0    0  501 -0.00000000000E+00 -0.00000000000E+00 -0.86348561924E+02  0.86348561924E+02  0.00000000000E+00 0. -1.
         25    2    1    2    0    0 -0.23758978458E+02  0.75616192978E+02  0.78779714979E+02  0.16773776144E+03  0.12508962955E+03 0.  0.
          5    1    3    3  502    0  0.33006900918E+02  0.81827773624E+02  0.62509581716E+02  0.10821349385E+03  0.41800000000E+01 0.  1.
         -5    1    3    3    0  502 -0.56765879375E+02 -0.62115806465E+01  0.16270133263E+02  0.59524267587E+02  0.41800000000E+01 0.  1.
        -11    1    1    2    0    0  0.15162969937E+01 -0.28636859869E+02 -0.27371976158E+02  0.39643334604E+02  0.00000000000E+00 0. -1.
         11    1    1    2    0    0  0.22242681464E+02 -0.46979333109E+02  0.72415213068E+02  0.89138979698E+02  0.00000000000E+00 0.  1.
</event>
<event>
 7    1  0.2644565E-009  0.1087862E+03  0.7561462E-02  0.1262834E+00
          2   -1    0    0  501    0  0.00000000000E+00  0.00000000000E+00  0.20520054483E+04  0.20520054483E+04  0.00000000000E+00 0.  1.
         -2   -1    0    0    0  501 -0.00000000000E+00 -0.00000000000E+00 -0.13544106334E+02  0.13544106334E+02  0.00000000000E+00 0. -1.
         25    2    1    2    0    0  0.71436546138E+02  0.29511829902E+02  0.17081759347E+04  0.17144930459E+04  0.12508897687E+03 0.  0.
          5    1    3    3  502    0 -0.97019433571E+01 -0.66678678498E+01  0.17619443223E+02  0.21598734825E+02  0.41800000000E+01 0.  1.
         -5    1    3    3    0  502  0.81138489496E+02  0.36179697752E+02  0.16905564915E+04  0.16928943110E+04  0.41800000000E+01 0.  1.
        -11    1    1    2    0    0  0.42578370367E+01  0.23402548743E+02  0.10326324980E+03  0.10596748192E+03  0.00000000000E+00 0.  1.
         11    1    1    2    0    0 -0.75694383175E+02 -0.52914378645E+02  0.22702215740E+03  0.24508902681E+03  0.00000000000E+00 0. -1.
</event>
<event>
 6    1  0.2644565E-009  0.1001352E+03  0.7561462E-02  0.1280012E+00
         -1   -1    0    0    0  501 -0.00000000000E+00  0.00000000000E+00  0.40165774370E+02  0.40165774370E+02  0.00000000000E+00 0.  1.
          1   -1    0    0  501    0  0.00000000000E+00 -0.00000000000E+00 -0.39224741949E+03  0.39224741949E+03  0.00000000000E+00 0. -1.
          5    1    1    2  502    0  0.48229574990E+02 -0.16111053091E+02 -0.98459349649E+02  0.11089352492E+03  0.41800000000E+01 0. -1.
         -5    1    1    2    0  502 -0.74049510725E+02  0.17333767353E+02 -0.18366014291E+03  0.19882733721E+03  0.41800000000E+01 0. -1.
        -11    1    1    2    0    0  0.31138996688E+02 -0.30345064593E+02  0.33702161885E+01  0.43609843121E+02  0.00000000000E+00 0.  1.
         11    1    1    2    0    0 -0.53190609530E+01  0.29122350331E+02 -0.73332368755E+02  0.79082488614E+02  0.00000000000E+00 0. -1.
</event>
<event>
 7    1  0.2644565E-009  0.1026913E+03  0.7561462E-02  0.1274736E+00
         -3   -1    0    0    0  501 -0.00000000000E+00  0.00000000000E+00  0.12782567538E+03  0.12782567538E+03  0.00000000000E+00 0.  1.
          3   -1    0    0  501    0  0.00000000000E+00 -0.00000000000E+00 -0.96426253143E+02  0.96426253143E+02  0.00000000000E+00 0. -1.
         25    2    1    2    0    0  0.18133015490E+02 -0.13255663640E+02  0.24458323798E+02  0.12942182325E+03  0.12508908770E+03 0.  0.
          5    1    3    3  502    0 -0.10663796443E+02  0.52435591882E+02  0.20538361146E+02  0.57467421459E+02  0.41800000000E+01 0.  1.
         -5    1    3    3    0  502  0.28796811934E+02 -0.65691255522E+02  0.39199626522E+01  0.71954401789E+02  0.41800000000E+01 0.  1.
        -11    1    1    2    0    0 -0.45972325105E+01  0.45062209236E+02 -0.21431279612E+02  0.50110248391E+02  0.00000000000E+00 0. -1.
         11    1    1    2    0    0 -0.13535782980E+02 -0.31806545597E+02  0.28372378054E+02  0.44719856888E+02  0.00000000000E+00 0.  1.
</event>
<event>
 7    1  0.2644565E-009  0.1300351E+03  0.7561462E-02  0.1227404E+00
          1   -1    0    0  501    0  0.00000000000E+00  0.00000000000E+00  0.17448518609E+03  0.17448518609E+03  0.00000000000E+00 0. -1.
         -1   -1    0    0    0  501 -0.00000000000E+00 -0.00000000000E+00 -0.11840164410E+03  0.11840164410E+03  0.00000000000E+00 0.  1.
         25    2    1    2    0    0  0.72018663618E+02  0.51367023475E+02  0.66111618404E+02  0.16685630690E+03  0.12508006258E+03 0.  0.
          5    1    3    3  502    0  0.16957247789E+02  0.73432689468E+02 -0.31783721847E+01  0.75547882729E+02  0.41800000000E+01 0. -1.
         -5    1    3    3    0  502  0.55061415829E+02 -0.22065665993E+02  0.69289990588E+02  0.91308424171E+02  0.41800000000E+01 0. -1.
        -11    1    1    2    0    0 -0.15542494073E+02 -0.65159757951E+02 -0.11008104796E+02  0.67886239765E+02  0.00000000000E+00 0.  1.
         11    1    1    2    0    0 -0.56476169545E+02  0.13792734476E+02  0.98002838691E+00  0.58144283523E+02  0.00000000000E+00 0. -1.
</event>
<event>
 7    1  0.2644565E-009  0.1422519E+03  0.7561462E-02  0.1210331E+00
          1   -1    0    0  501    0  0.00000000000E+00  0.00000000000E+00  0.59997484271E+03  0.59997484271E+03  0.00000000000E+00 0. -1.
         -1   -1    0    0    0  501 -0.00000000000E+00 -0.00000000000E+00 -0.47529328480E+02  0.47529328480E+02  0.00000000000E+00 0.  1.
         25    2    1    2    0    0 -0.90821776731E+02 -0.71836476750E+02  0.30404777288E+03  0.34857278259E+03  0.12509541179E+03 0.  0.
          5    1    3    3  502    0  0.12079591359E+02 -0.63472038984E+02  0.89760053591E+02  0.11067500116E+03  0.41800000000E+01 0. -1.
         -5    1    3    3    0  502 -0.10290136809E+03 -0.83644377657E+01  0.21428771929E+03  0.23789778143E+03  0.41800000000E+01 0. -1.
        -11    1    1    2    0    0  0.74008416941E+02  0.64166245150E+02  0.25950093521E+03  0.27737211138E+03  0.00000000000E+00 0. -1.
         11    1    1    2    0    0  0.16813359789E+02  0.76702316003E+01 -0.11103193864E+02  0.21559277219E+02  0.00000000000E+00 0.  1.
</event>
<event>
 7    1  0.2644565E-009  0.7161096E+02  0.7561462E-02  0.1354699E+00
         -3   -1    0    0    0  501 -0.00000000000E+00  0.00000000000E+00  0.25499919509E+03  0.25499919509E+03  0.00000000000E+00 0.  1.
          3   -1    0    0  501    0  0.00000000000E+00 -0.00000000000E+00 -0.60449816727E+02  0.60449816727E+02  0.00000000000E+00 0. -1.
         25    2    1    2    0    0  0.72578510675E+01  0.34582590241E+02  0.46404127495E+02  0.13802022246E+03  0.12509039455E+03 0.  0.
          5    1    3    3  502    0 -0.31754390484E+02  0.30325212831E+02  0.76556987068E+02  0.88353859662E+02  0.41800000000E+01 0. -1.
         -5    1    3    3    0  502  0.39012241552E+02  0.42573774101E+01 -0.30152859573E+02  0.49666362799E+02  0.41800000000E+01 0. -1.
        -11    1    1    2    0    0  0.18489859713E+02 -0.27153459672E+02  0.14697885992E+03  0.15060534701E+03  0.00000000000E+00 0.  1.
         11    1    1    2    0    0 -0.25747710780E+02 -0.74291305682E+01  0.11663909474E+01  0.26823442346E+02  0.00000000000E+00 0. -1.
</event>
<event>
 7    1  0.2644565E-009  0.1063019E+03  0.7561462E-02  0.1267576E+00
          2   -1    0    0  501    0  0.00000000000E+00  0.00000000000E+00  0.48422958866E+02  0.48422958866E+02  0.00000000000E+00 0. -1.
         -2   -1    0    0    0  501 -0.00000000000E+00 -0.00000000000E+00 -0.37569477233E+03  0.37569477233E+03  0.00000000000E+00 0.  1.
         25    2    1    2    0    0  0.21010884015E+02  0.26491373846E+02 -0.26485382223E+03  0.29485286405E+03  0.12508962448E+03 0.  0.
          5    1    3    3  502    0  0.20998210575E+02  0.64696457390E+02 -0.75790251798E+02  0.10192247600E+03  0.41800000000E+01 0.  1.
         -5    1    3    3    0  502  0.12673439824E-01 -0.38205083544E+02 -0.18906357043E+03  0.19293038805E+03  0.41800000000E+01 0.  1.
        -11    1    1    2    0    0 -0.29278979300E+02 -0.62531798421E+02 -0.61204186001E+02  0.92268287221E+02  0.00000000000E+00 0.  1.
         11    1    1    2    0    0  0.82680952852E+01  0.36040424575E+02 -0.12138052373E+01  0.36996579927E+02  0.00000000000E+00 0. -1.
</event>
<event>
 7    1  0.2644565E-009  0.1816147E+03  0.7561462E-02  0.1166249E+00
          2   -1    0    0  501    0  0.00000000000E+00  0.00000000000E+00  0.32383051436E+03  0.32383051436E+03  0.00000000000E+00 0. -1.
         -2   -1    0    0    0  501 -0.00000000000E+00 -0.00000000000E+00 -0.10566079337E+03  0.10566079337E+03  0.00000000000E+00 0.  1.
         25    2    1    2    0    0 -0.12599530781E+03 -0.79031812293E+02  0.13711460460E+03  0.23784107280E+03  0.12508843340E+03 0.  0.
          5    1    3    3  502    0 -0.92484505176E+01 -0.76811184966E+02  0.56267734834E+02  0.95755012173E+02  0.41800000000E+01 0. -1.
         -5    1    3    3    0  502 -0.11674685729E+03 -0.22206273270E+01  0.80846869765E+02  0.14208606063E+03  0.41800000000E+01 0. -1.
        -11    1    1    2    0    0  0.12987908680E+03  0.49296222775E+02  0.47902029079E+02  0.14694658607E+03  0.00000000000E+00 0.  1.
         11    1    1    2    0    0 -0.38837789854E+01  0.29735589518E+02  0.33153087315E+02  0.44703648864E+02  0.00000000000E+00 0. -1.
</event>
<event>
 7    1  0.2644565E-009  0.1349423E+03  0.7561462E-02  0.1220301E+00
          2   -1    0    0  501    0  0.00000000000E+00  0.00000000000E+00  0.81237087985E+03  0.81237087985E+03  0.00000000000E+00 0. -1.
         -2   -1    0    0    0  501 -0.00000000000E+00 -0.00000000000E+00 -0.26459768766E+02  0.26459768766E+02  0.00000000000E+00 0.  1.
         25    2    1    2    0    0 -0.52382184882E+02 -0.79548587960E+02  0.47315975461E+03  0.49859766605E+03  0.12509039961E+03 0.  0.
          5    1    3    3  502    0 -0.65918959415E+01  0.22764708709E+02  0.22476966943E+03  0.22605433363E+03  0.41800000000E+01 0.  1.
         -5    1    3    3    0  502 -0.45790288940E+02 -0.10231329667E+03  0.24839008517E+03  0.27254333242E+03  0.41800000000E+01 0.  1.
        -11    1    1    2    0    0 -0.19437672667E+02  0.54045937770E+02  0.14597277444E+03  0.15686566669E+03  0.00000000000E+00 0.  1.
         11    1    1    2    0    0  0.71819857549E+02  0.25502650190E+02  0.16677858204E+03  0.18336731587E+03  0.00000000000E+00 0. -1.
</event>
<event>
 7    1  0.2644565E-009  0.1901968E+03  0.7561462E-02  0.1158284E+00
         -2   -1    0    0    0  501 -0.00000000000E+00  0.00000000000E+00  0.98621563410E+02  0.98621563410E+02  0.00000000000E+00 0.  1.
          2   -1    0    0  501    0  0.00000000000E+00 -0.00000000000E+00 -0.53809978478E+03  0.53809978478E+03  0.00000000000E+00 0. -1.
         25    2    1    2    0    0 -0.36355196634E+02 -0.17610991215E+03 -0.97514766668E+02  0.23977404906E+03  0.12508422525E+03 0.  0.
          5    1    3    3  502    0 -0.16166284514E+02 -0.72727485197E+02  0.24488915533E+02  0.78535439401E+02  0.41800000000E+01 0. -1.
         -5    1    3    3    0  502 -0.20188912120E+02 -0.10338242695E+03 -0.12200368220E+03  0.16123860966E+03  0.41800000000E+01 0. -1.
        -11    1    1    2    0    0 -0.86251608194E+01 -0.74302226485E+01 -0.31507837829E+02  0.33501424633E+02  0.00000000000E+00 0. -1.
         11    1    1    2    0    0  0.44980357454E+02  0.18354013480E+03 -0.31045561688E+03  0.36344587450E+03  0.00000000000E+00 0.  1.
</event>
<event>
 7    1  0.2644565E-009  0.9686776E+02  0.7561462E-02  0.1287024E+00
         -2   -1    0    0    0  501 -0.00000000000E+00  0.00000000000E+00  0.44882642311E+02  0.44882642311E+02  0.00000000000E+00 0. -1.
          2   -1    0    0  501    0  0.00000000000E+00 -0.00000000000E+00 -0.44160796443E+03  0.44160796443E+03  0.00000000000E+00 0.  1.
         25    2    1    2    0    0 -0.47911022807E+02  0.69897742945E+02 -0.27276049029E+03  0.31180989641E+03  0.12508383532E+03 0.  0.
          5    1    3    3  502    0 -0.75912879082E+01 -0.11919022900E+02 -0.18359990256E+03  0.18419035636E+03  0.41800000000E+01 0.  1.
         -5    1    3    3    0  502 -0.40319734899E+02  0.81816765845E+02 -0.89160587735E+02  0.12761954004E+03  0.41800000000E+01 0.  1.
        -11    1    1    2    0    0  0.27650122747E+02 -0.20871194263E+02  0.52145435673E+01  0.35033234257E+02  0.00000000000E+00 0. -1.
         11    1    1    2    0    0  0.20260900060E+02 -0.49026548682E+02 -0.12917937540E+03  0.13964747608E+03  0.00000000000E+00 0.  1.
</event>
<event>
 7    1  0.2644565E-009  0.1164151E+03  0.7561462E-02  0.1249131E+00
         -1   -1    0    0    0  501 -0.00000000000E+00  0.00000000000E+00  0.19123385876E+03  0.19123385876E+03  0.00000000000E+00 0.  1.
          1   -1    0    0  501    0  0.00000000000E+00 -0.00000000000E+00 -0.72626199502E+02  0.72626199502E+02  0.00000000000E+00 0. -1.
         25    2    1    2    0    0  0.20202344644E+02  0.36941123867E+02  0.80407911108E+02  0.15454978246E+03  0.12508965477E+03 0.  0.
          5    1    3    3  502    0  0.23714191272E+02  0.81901640454E+02  0.62702327852E+02  0.10592117774E+03  0.41800000000E+01 0.  1.
         -5    1    3    3    0  502 -0.35118466273E+01 -0.44960516587E+02  0.17705583256E+02  0.48628604719E+02  0.41800000000E+01 0.  1.
        -11    1    1    2    0    0  0.37042931551E+02 -0.21703538921E+02  0.19811673556E+02  0.47283451531E+02  0.00000000000E+00 0. -1.
         11    1    1    2    0    0 -0.57245276195E+02 -0.15237584946E+02  0.18388074596E+02  0.62026824270E+02  0.00000000000E+00 0.  1.
</event>
<event>
 7    1  0.2644565E-009  0.8874272E+02  0.7561462E-02  0.1305925E+00
          2   -1    0    0  501    0  0.00000000000E+00  0.00000000000E+00  0.19517546654E+03  0.19517546654E+03  0.00000000000E+00 0. -1.
         -2   -1    0    0    0  501 -0.00000000000E+00 -0.00000000000E+00 -0.67420791082E+02  0.67420791082E+02  0.00000000000E+00 0.  1.
         25    2    1    2    0    0 -0.20340246062E+02  0.17321494164E+02  0.44517200401E+02  0.13543611561E+03  0.12508956995E+03 0.  0.
          5    1    3    3  502    0  0.19865291420E+02 -0.26140767569E+02 -0.26845555602E+02  0.42616027359E+02  0.41800000000E+01 0. -1.
         -5    1    3    3    0  502 -0.40205537482E+02  0.43462261733E+02  0.71362756003E+02  0.92820088254E+02  0.41800000000E+01 0. -1.
        -11    1    1    2    0    0  0.40873484179E+02  0.17616883606E+02  0.13513915854E+02  0.46514752699E+02  0.00000000000E+00 0.  1.
         11    1    1    2    0    0 -0.20533238117E+02 -0.34938377771E+02  0.69723559200E+02  0.80645389306E+02  0.00000000000E+00 0. -1.
</event>
<event>
 7    1  0.2644565E-009  0.1180403E+03  0.7561462E-02  0.1246365E+00
         -2   -1    0    0    0  501 -0.00000000000E+00  0.00000000000E+00  0.26615348922E+03  0.26615348922E+03  0.00000000000E+00 0. -1.
          2   -1    0    0  501    0  0.00000000000E+00 -0.00000000000E+00 -0.55336661130E+02  0.55336661130E+02  0.00000000000E+00 0.  1.
         25    2    1    2    0    0  0.49886700924E+02 -0.22055034518E+02  0.11277904525E+03  0.17703785119E+03  0.12509268656E+03 0.  0.
          5    1    3    3  502    0 -0.73798354670E+01 -0.60369638433E+02  0.80112759704E+02  0.10067016382E+03  0.41800000000E+01 0. -1.
         -5    1    3    3    0  502  0.57266536391E+02  0.38314603915E+02  0.32666285544E+02  0.76367687372E+02  0.41800000000E+01 0. -1.
        -11    1    1    2    0    0 -0.76699439266E+02  0.19603199303E+02  0.73004572910E+02  0.10768824018E+03  0.00000000000E+00 0.  1.
         11    1    1    2    0    0  0.26812738343E+02  0.24518352144E+01  0.25033209937E+02  0.36764058985E+02  0.00000000000E+00 0. -1.
</event>
<event>
 7    1  0.2644565E-009  0.6296652E+02  0.7561462E-02  0.1385788E+00
          1   -1    0    0  501    0  0.00000000000E+00  0.00000000000E+00  0.16542914654E+03  0.16542914654E+03  0.00000000000E+00 0. -1.
         -1   -1    0    0    0  501 -0.00000000000E+00 -0.00000000000E+00 -0.94945874099E+02  0.94945874099E+02  0.00000000000E+00 0.  1.
         25    2    1    2    0    0 -0.18574689973E+02 -0.34971644755E+02 -0.10721878772E+02  0.13163962099E+03  0.12508395615E+03 0.  0.
          5    1    3    3  502    0 -0.11136566504E+02 -0.21111939730E+02 -0.67950290681E+02  0.72141884619E+02  0.41800000000E+01 0. -1.
         -5    1    3    3    0  502 -0.74381234689E+01 -0.13859705025E+02  0.57228411910E+02  0.59497736376E+02  0.41800000000E+01 0. -1.
        -11    1    1    2    0    0 -0.68166471095E+01  0.53537873134E+02  0.15922434956E+02  0.56269836258E+02  0.00000000000E+00 0.  1.
         11    1    1    2    0    0  0.25391337082E+02 -0.18566228379E+02  0.65282716259E+02  0.72465563388E+02  0.00000000000E+00 0. -1.
</event>
<event>
 7    1  0.2644565E-009  0.1332148E+03  0.7561462E-02  0.1222762E+00
         -1   -1    0    0    0  501 -0.00000000000E+00  0.00000000000E+00  0.46522690658E+03  0.46522690658E+03  0.00000000000E+00 0.  1.
          1   -1    0    0  501    0  0.00000000000E+00 -0.00000000000E+00 -0.63561368138E+02  0.63561368138E+02  0.00000000000E+00 0. -1.
         25    2    1    2    0    0 -0.83500795180E+02  0.61437405335E+02  0.34498312593E+03  0.38132298895E+03  0.12508767786E+03 0.  0.
          5    1    3    3  502    0 -0.46186829282E+02  0.98622480329E+02  0.24767016130E+03  0.27058750529E+03  0.41800000000E+01 0.  1.
         -5    1    3    3    0  502 -0.37313965897E+02 -0.37185074994E+02  0.97312964636E+02  0.11073548365E+03  0.41800000000E+01 0.  1.
        -11    1    1    2    0    0  0.22833637059E+02 -0.24893458573E+02  0.67824377550E+02  0.75770742712E+02  0.00000000000E+00 0.  1.
         11    1    1    2    0    0  0.60667158121E+02 -0.36543946763E+02 -0.11141965042E+02  0.71694543059E+02  0.00000000000E+00 0. -1.
</event>
<event>
 7    1  0.2644565E-009  0.1422955E+03  0.7561462E-02  0.1210273E+00
         -1   -1    0    0    0  501 -0.00000000000E+00  0.00000000000E+00  0.28181959078E+02  0.28181959078E+02  0.00000000000E+00 0.  1.
          1   -1    0    0  501    0  0.00000000000E+00 -0.00000000000E+00 -0.82811957328E+03  0.82811957328E+03  0.00000000000E+00 0. -1.
         25    2    1    2    0    0  0.58930630632E+02 -0.83224029247E+02 -0.32833372766E+03  0.36585438240E+03  0.12508930462E+03 0.  0.
          5    1    3    3  502    0  0.31185747469E+02  0.23784737923E+02 -0.15723907576E+03  0.16211065341E+03  0.41800000000E+01 0.  1.
         -5    1    3    3    0  502  0.27744883164E+02 -0.10700876717E+03 -0.17109465190E+03  0.20374372899E+03  0.41800000000E+01 0.  1.
        -11    1    1    2    0    0 -0.68826988479E+02  0.96148307778E+02 -0.42094861400E+03  0.43724065120E+03  0.00000000000E+00 0.  1.
         11    1    1    2    0    0  0.98963578464E+01 -0.12924278531E+02 -0.50655272542E+02  0.53206498762E+02  0.00000000000E+00 0. -1.
</event>
<event>
 7    1  0.2644565E-009  0.7509744E+02  0.7561462E-02  0.1343570E+00
         -1   -1    0    0    0  501 -0.00000000000E+00  0.00000000000E+00  0.91557035156E+02  0.91557035156E+02  0.00000000000E+00 0.  1.
          1   -1    0    0  501    0  0.00000000000E+00 -0.00000000000E+00 -0.19606766288E+03  0.19606766288E+03  0.00000000000E+00 0. -1.
         25    2    1    2    0    0  0.21117805501E+02  0.38245189255E+01  0.23567256228E+02  0.12909359477E+03  0.12509657066E+03 0.  0.
          5    1    3    3  502    0  0.24220673841E+02  0.34621476506E+02 -0.39958448989E+02  0.58304697258E+02  0.41800000000E+01 0.  1.
         -5    1    3    3    0  502 -0.31028683393E+01 -0.30796957581E+02  0.63525705216E+02  0.70788897515E+02  0.41800000000E+01 0.  1.
        -11    1    1    2    0    0  0.27296646659E+02  0.35596926071E+01 -0.96283382035E+02  0.10014124019E+03  0.00000000000E+00 0. -1.
         11    1    1    2    0    0 -0.48414452161E+02 -0.73842115326E+01 -0.31794501921E+02  0.58389863079E+02  0.00000000000E+00 0.  1.
</event>
<event>
 7    1  0.3064475E-009  0.2027158E+03  0.7561462E-02  0.1147468E+00
          1   -1    0    0  501    0  0.00000000000E+00  0.00000000000E+00  0.80269686866E+03  0.80269686866E+03  0.00000000000E+00 0. -1.
         -1   -1    0    0    0  501 -0.00000000000E+00 -0.00000000000E+00 -0.64770308113E+02  0.64770308113E+02  0.00000000000E+00 0.  1.
         25    2    1    2    0    0  0.76602885213E+02 -0.16728114733E+03  0.23168076661E+03  0.32120827011E+03  0.12509113035E+03 0.  0.
          5    1    3    3  502    0  0.10050757056E+03 -0.85528873922E+02  0.17326115507E+03  0.21783906966E+03  0.41800000000E+01 0. -1.
         -5    1    3    3    0  502 -0.23904685346E+02 -0.81752273404E+02  0.58419611542E+02  0.10336920045E+03  0.41800000000E+01 0. -1.
        -11    1    1    2    0    0 -0.58895356611E+02  0.81670381502E+02  0.37705759713E+03  0.39027060586E+03  0.00000000000E+00 0.  1.
         11    1    1    2    0    0 -0.17707528602E+02  0.85610765825E+02  0.12918819680E+03  0.15598830080E+03  0.00000000000E+00 0. -1.
</event>
<event>
 7    1  0.2644565E-009  0.1138819E+03  0.7561462E-02  0.1253545E+00
          1   -1    0    0  501    0  0.00000000000E+00  0.00000000000E+00  0.39655186989E+03  0.39655186989E+03  0.00000000000E+00 0. -1.
         -1   -1    0    0    0  501 -0.00000000000E+00 -0.00000000000E+00 -0.78988885224E+02  0.78988885224E+02  0.00000000000E+00 0.  1.
         25    2    1    2    0    0  0.87441221674E+02  0.48970479941E+01  0.30890981127E+03  0.34458916723E+03  0.12508586789E+03 0.  0.
          5    1    3    3  502    0  0.21039197342E+02  0.33957774909E+02  0.16706675614E+02  0.43501307010E+02  0.41800000000E+01 0.  1.
         -5    1    3    3    0  502  0.66402024332E+02 -0.29060726914E+02  0.29220313565E+03  0.30108786022E+03  0.41800000000E+01 0.  1.
        -11    1    1    2    0    0  0.52569932456E+01  0.18630480630E+02 -0.23138843112E+02  0.30168474391E+02  0.00000000000E+00 0.  1.
         11    1    1    2    0    0 -0.92698214920E+02 -0.23527528624E+02  0.31792016514E+02  0.10078311350E+03  0.00000000000E+00 0. -1.
</event>
<event>
 7    1  0.2644565E-009  0.1516146E+03  0.7561462E-02  0.1198503E+00
         -2   -1    0    0    0  501 -0.00000000000E+00  0.00000000000E+00  0.24586293254E+02  0.24586293254E+02  0.00000000000E+00 0.  1.
          2   -1    0    0  501    0  0.00000000000E+00 -0.00000000000E+00 -0.10485062977E+04  0.10485062977E+04  0.00000000000E+00 0. -1.
         25    2    1    2    0    0 -0.42754024414E+02 -0.10747379185E+03 -0.61663533306E+03  0.63974891657E+03  0.12514399601E+03 0.  0.
          5    1    3    3  502    0  0.28212767550E+02 -0.68900436022E+02 -0.42886841411E+03  0.43530313502E+03  0.41800000000E+01 0. -1.
         -5    1    3    3    0  502 -0.70966791965E+02 -0.38573355828E+02 -0.18776691894E+03  0.20444578154E+03  0.41800000000E+01 0. -1.
        -11    1    1    2    0    0 -0.21948372423E+02  0.69214067993E+02 -0.18811037246E+03  0.20163786967E+03  0.00000000000E+00 0. -1.
         11    1    1    2    0    0  0.64702396837E+02  0.38259723858E+02 -0.21917429895E+03  0.23170580473E+03  0.00000000000E+00 0.  1.
</event>
<event>
 7    1  0.2644565E-009  0.1110090E+03  0.7561462E-02  0.1258713E+00
         -2   -1    0    0    0  501 -0.00000000000E+00  0.00000000000E+00  0.44158033607E+02  0.44158033607E+02  0.00000000000E+00 0.  1.
          2   -1    0    0  501    0  0.00000000000E+00 -0.00000000000E+00 -0.37960437798E+03  0.37960437798E+03  0.00000000000E+00 0. -1.
         25    2    1    2    0    0 -0.18147743049E+02 -0.55185393510E+02 -0.24614306911E+03  0.28213750562E+03  0.12506155833E+03 0.  0.
          5    1    3    3  502    0 -0.38915683317E+02  0.28640206603E+02 -0.11774483931E+03  0.12734210390E+03  0.41800000000E+01 0. -1.
         -5    1    3    3    0  502  0.20767940268E+02 -0.83825600113E+02 -0.12839822980E+03  0.15479540172E+03  0.41800000000E+01 0. -1.
        -11    1    1    2    0    0 -0.24132989387E+02  0.27157496671E+02 -0.82879581605E+02  0.90492849713E+02  0.00000000000E+00 0. -1.
         11    1    1    2    0    0  0.42280732436E+02  0.28027896839E+02 -0.64236936600E+01  0.51132056254E+02  0.00000000000E+00 0.  1.
</event>
<event>
 7    1  0.3073866E-009  0.1862928E+03  0.7561462E-02  0.1161848E+00
         -2   -1    0    0    0  501 -0.00000000000E+00  0.00000000000E+00  0.11306941041E+03  0.11306941041E+03  0.00000000000E+00 0.  1.
          2   -1    0    0  501    0  0.00000000000E+00 -0.00000000000E+00 -0.37310802868E+03  0.37310802868E+03  0.00000000000E+00 0. -1.
         25    2    1    2    0    0 -0.81337086069E+02  0.15068330976E+03 -0.17277501473E+03  0.27353038456E+03  0.12508590709E+03 0.  0.
          5    1    3    3  502    0 -0.83723320861E+02  0.58144350698E+02 -0.14404855161E+03  0.17651577152E+03  0.41800000000E+01 0. -1.
         -5    1    3    3    0  502  0.23862347925E+01  0.92538959058E+02 -0.28726463121E+02  0.97014613041E+02  0.41800000000E+01 0. -1.
        -11    1    1    2    0    0 -0.14461989777E+00 -0.42333891985E+02  0.12711705049E+02  0.44201434036E+02  0.00000000000E+00 0.  1.
         11    1    1    2    0    0  0.81481705967E+02 -0.10834941777E+03 -0.99975308576E+02  0.16844562049E+03  0.00000000000E+00 0. -1.
</event>
<event>
 7    1  0.2644565E-009  0.1300653E+03  0.7561462E-02  0.1227359E+00
          2   -1    0    0  501    0  0.00000000000E+00  0.00000000000E+00  0.67899028861E+03  0.67899028861E+03  0.00000000000E+00 0. -1.
         -2   -1    0    0    0  501 -0.00000000000E+00 -0.00000000000E+00 -0.35053959700E+02  0.35053959700E+02  0.00000000000E+00 0.  1.
         25    2    1    2    0    0 -0.28222032696E+02 -0.76026731437E+02  0.50266241491E+03  0.52430254383E+03  0.12508839709E+03 0.  0.
          5    1    3    3  502    0 -0.39033766948E+02  0.18507469041E+02  0.26037942294E+03  0.26397173648E+03  0.41800000000E+01 0. -1.
         -5    1    3    3    0  502  0.10811734252E+02 -0.94534200478E+02  0.24228299197E+03  0.26033080735E+03  0.41800000000E+01 0. -1.
        -11    1    1    2    0    0  0.44776970274E+02  0.11387254012E+01  0.79549106108E+02  0.91292573877E+02  0.00000000000E+00 0. -1.
         11    1    1    2    0    0 -0.16554937578E+02  0.74888006036E+02  0.61724807892E+02  0.98449130598E+02  0.00000000000E+00 0.  1.
</event>
<event>
 7    1  0.2644565E-009  0.8495836E+02  0.7561462E-02  0.1315541E+00
          1   -1    0    0  501    0  0.00000000000E+00  0.00000000000E+00  0.10200644882E+03  0.10200644882E+03  0.00000000000E+00 0. -1.
         -1   -1    0    0    0  501 -0.00000000000E+00 -0.00000000000E+00 -0.14718129082E+03  0.14718129082E+03  0.00000000000E+00 0.  1.
         25    2    1    2    0    0 -0.41315857296E+02 -0.18965541040E+01 -0.63936964408E+02  0.14644203415E+03  0.12508691765E+03 0.  0.
          5    1    3    3  502    0  0.63050937980E+01 -0.20557606628E+02 -0.87336488683E+02  0.90041679536E+02  0.41800000000E+01 0.  1.
         -5    1    3    3    0  502 -0.47620951094E+02  0.18661052524E+02  0.23399524276E+02  0.56400354615E+02  0.41800000000E+01 0.  1.
        -11    1    1    2    0    0  0.28601364333E+02  0.44130214834E+02 -0.46818080659E+01  0.52796147868E+02  0.00000000000E+00 0.  1.
         11    1    1    2    0    0  0.12714492963E+02 -0.42233660730E+02  0.23443930472E+02  0.49949557615E+02  0.00000000000E+00 0. -1.
</event>
<event>
 7    1  0.3106767E-009  0.2166970E+03  0.7561462E-02  0.1136370E+00
          2   -1    0    0  501    0  0.00000000000E+00  0.00000000000E+00  0.12693591685E+04  0.12693591685E+04  0.00000000000E+00 0.  1.
         -2   -1    0    0    0  501 -0.00000000000E+00 -0.00000000000E+00 -0.38053625162E+02  0.38053625162E+02  0.00000000000E+00 0. -1.
         25    2    1    2    0    0 -0.16484974383E+02 -0.18970374482E+03  0.66095740552E+03  0.69912180741E+03  0.12508934613E+03 0.  0.
          5    1    3    3  502    0  0.46361785448E+02 -0.47597618384E+02  0.13261369081E+03  0.14838737081E+03  0.41800000000E+01 0.  1.
         -5    1    3    3    0  502 -0.62846759831E+02 -0.14210612643E+03  0.52834371471E+03  0.55073443660E+03  0.41800000000E+01 0.  1.
        -11    1    1    2    0    0 -0.37893657497E+02  0.63321406920E+02  0.19050999670E+03  0.20430268891E+03  0.00000000000E+00 0. -1.
         11    1    1    2    0    0  0.54378631880E+02  0.12638233790E+03  0.37983814113E+03  0.40398829735E+03  0.00000000000E+00 0.  1.
</event>
<event>
 7    1  0.2644565E-009  0.1081122E+03  0.7561462E-02  0.1264106E+00
         -2   -1    0    0    0  501 -0.00000000000E+00  0.00000000000E+00  0.94282437709E+01  0.94282437709E+01  0.00000000000E+00 0. -1.
          2   -1    0    0  501    0  0.00000000000E+00 -0.00000000000E+00 -0.13801629005E+04  0.13801629005E+04  0.00000000000E+00 0.  1.
         25    2    1    2    0    0 -0.17357692956E+02  0.17334966657E+02 -0.95080288403E+03  0.95930998802E+03  0.12509091997E+03 0.  0.
          5    1    3    3  502    0 -0.66391136823E+02 -0.10570774316E+02 -0.40259588114E+03  0.40819167095E+03  0.41800000000E+01 0.  1.
         -5    1    3    3    0  502  0.49033443866E+02  0.27905740973E+02 -0.54820700289E+03  0.55111831707E+03  0.41800000000E+01 0.  1.
        -11    1    1    2    0    0 -0.14244988244E+02 -0.46901579303E+02 -0.26097744220E+03  0.26554077496E+03  0.00000000000E+00 0. -1.
         11    1    1    2    0    0  0.31602681200E+02  0.29566612646E+02 -0.15895433050E+03  0.16474038129E+03  0.00000000000E+00 0.  1.
</event>
<event>
 7    1  0.2644565E-009  0.3060736E+03  0.7561462E-02  0.1082243E+00
          2   -1    0    0  501    0  0.00000000000E+00  0.00000000000E+00  0.52754303288E+03  0.52754303288E+03  0.00000000000E+00 0.  1.
         -2   -1    0    0    0  501 -0.00000000000E+00 -0.00000000000E+00 -0.21329216690E+03  0.21329216690E+03  0.00000000000E+00 0. -1.
         25    2    1    2    0    0  0.15234496036E+03 -0.25679977143E+03  0.27843701099E+03  0.42700216307E+03  0.12509423897E+03 0.  0.
          5    1    3    3  502    0  0.13728117500E+03 -0.25286312629E+03  0.20881396147E+03  0.35553709308E+03  0.41800000000E+01 0. -1.
         -5    1    3    3    0  502  0.15063785361E+02 -0.39366451328E+01  0.69623049519E+02  0.71465069990E+02  0.41800000000E+01 0. -1.
        -11    1    1    2    0    0 -0.93017585408E+02  0.83145814962E+02  0.37637477679E+02  0.13031530020E+03  0.00000000000E+00 0.  1.
         11    1    1    2    0    0 -0.59327374956E+02  0.17365395647E+03 -0.18236226797E+01  0.18351773651E+03  0.00000000000E+00 0. -1.
</event>
<event>
 7    1  0.3765800E-009  0.1533779E+03  0.7561462E-02  0.1196383E+00
         -2   -1    0    0    0  501 -0.00000000000E+00  0.00000000000E+00  0.15257039941E+03  0.15257039941E+03  0.00000000000E+00 0.  1.
          2   -1    0    0  501    0  0.00000000000E+00 -0.00000000000E+00 -0.17898481160E+03  0.17898481160E+03  0.00000000000E+00 0. -1.
         25    2    1    2    0    0  0.12260018194E+03  0.21560553713E+02 -0.15080649152E+02  0.17711542479E+03  0.12508711217E+03 0.  0.
          5    1    3    3  502    0 -0.13452811613E+02  0.36882746805E+02 -0.24487447651E+01  0.39557349546E+02  0.41800000000E+01 0. -1.
         -5    1    3    3    0  502  0.13605299356E+03 -0.15322193092E+02 -0.12631904386E+02  0.13755807524E+03  0.41800000000E+01 0. -1.
        -11    1    1    2    0    0 -0.55356841726E+02  0.96034905355E+01  0.35788491088E+02  0.66613985399E+02  0.00000000000E+00 0.  1.
         11    1    1    2    0    0 -0.67243340217E+02 -0.31164044249E+02 -0.47122254126E+02  0.87825800830E+02  0.00000000000E+00 0. -1.
</event>
<event>
 7    1  0.2644565E-009  0.1289484E+03  0.7561462E-02  0.1229024E+00
          2   -1    0    0  501    0  0.00000000000E+00  0.00000000000E+00  0.75010684924E+03  0.75010684924E+03  0.00000000000E+00 0.  1.
         -2   -1    0    0    0  501 -0.00000000000E+00 -0.00000000000E+00 -0.32522008780E+02  0.32522008780E+02  0.00000000000E+00 0. -1.
         25    2    1    2    0    0 -0.70118019852E+01 -0.95687141863E+02  0.52934587431E+03  0.55232187261E+03  0.12508877579E+03 0.  0.
          5    1    3    3  502    0 -0.45791784246E+02 -0.10701574990E+03  0.41185818210E+03  0.42801155685E+03  0.41800000000E+01 0. -1.
         -5    1    3    3    0  502  0.38779982261E+02  0.11328608039E+02  0.11748769221E+03  0.12431031576E+03  0.41800000000E+01 0. -1.
        -11    1    1    2    0    0 -0.89374902150E+01  0.69999411698E+02  0.44510461946E+02  0.83432473246E+02  0.00000000000E+00 0. -1.
         11    1    1    2    0    0  0.15949292200E+02  0.25687730166E+02  0.14372850420E+03  0.14687451216E+03  0.00000000000E+00 0.  1.
</event>
<event>
 7    1  0.2644565E-009  0.1199038E+03  0.7561462E-02  0.1243256E+00
         -1   -1    0    0    0  501 -0.00000000000E+00  0.00000000000E+00  0.27076689576E+02  0.27076689576E+02  0.00000000000E+00 0.  1.
          1   -1    0    0  501    0  0.00000000000E+00 -0.00000000000E+00 -0.66625333665E+03  0.66625333665E+03  0.00000000000E+00 0. -1.
         25    2    1    2    0    0 -0.63743627561E+02 -0.36079403091E+02 -0.28163915142E+03  0.31675344610E+03  0.12508861108E+03 0.  0.
          5    1    3    3  502    0 -0.91896329985E+02 -0.46459535770E+02 -0.15214975780E+03  0.18376736687E+03  0.41800000000E+01 0.  1.
         -5    1    3    3    0  502  0.28152702424E+02  0.10380132679E+02 -0.12948939362E+03  0.13298607923E+03  0.41800000000E+01 0.  1.
        -11    1    1    2    0    0  0.25385424122E+02 -0.24156670695E+02 -0.20717298335E+03  0.21011570509E+03  0.00000000000E+00 0. -1.
         11    1    1    2    0    0  0.38358203439E+02  0.60236073786E+02 -0.15036451231E+03  0.16646087503E+03  0.00000000000E+00 0.  1.
</event>
<event>
 7    1  0.2644565E-009  0.1516871E+03  0.7561462E-02  0.1198415E+00
         -1   -1    0    0    0  501 -0.00000000000E+00  0.00000000000E+00  0.13784911640E+03  0.13784911640E+03  0.00000000000E+00 0.  1.
          1   -1    0    0  501    0  0.00000000000E+00 -0.00000000000E+00 -0.19994920085E+03  0.19994920085E+03  0.00000000000E+00 0. -1.
         25    2    1    2    0    0 -0.29834106860E+02  0.12065562712E+03 -0.19818488029E+02  0.17745187092E+03  0.12509412351E+03 0.  0.
          5    1    3    3  502    0 -0.48700856106E+02  0.23190492246E+02  0.34544578973E+02  0.64190128933E+02  0.41800000000E+01 0.  1.
         -5    1    3    3    0  502  0.18866749245E+02  0.97465134876E+02 -0.54363067002E+02  0.11326174198E+03  0.41800000000E+01 0.  1.
        -11    1    1    2    0    0  0.54236482317E+01 -0.12499829642E+03 -0.19406145233E+02  0.12661196050E+03  0.00000000000E+00 0.  1.
         11    1    1    2    0    0  0.24410458629E+02  0.43426692984E+01 -0.22875451188E+02  0.33734485829E+02  0.00000000000E+00 0. -1.
</event>
<event>
 7    1  0.2644565E-009  0.1135693E+03  0.7561462E-02  0.1254099E+00
         -3   -1    0    0    0  501 -0.00000000000E+00  0.00000000000E+00  0.63379602451E+02  0.63379602451E+02  0.00000000000E+00 0.  1.
          3   -1    0    0  501    0  0.00000000000E+00 -0.00000000000E+00 -0.29937682489E+03  0.29937682489E+03  0.00000000000E+00 0. -1.
         25    2    1    2    0    0  0.73904380863E+02 -0.17756790581E+02 -0.17345836634E+03  0.22696341021E+03  0.12508966224E+03 0.  0.
          5    1    3    3  502    0 -0.26624572047E+02 -0.28196136018E+02 -0.21854010836E+02  0.44709731744E+02  0.41800000000E+01 0. -1.
         -5    1    3    3    0  502  0.10052895291E+03  0.10439345436E+02 -0.15160435550E+03  0.18225367846E+03  0.41800000000E+01 0. -1.
        -11    1    1    2    0    0 -0.52449887714E+02 -0.84318090750E+01 -0.81277412772E+02  0.97098424047E+02  0.00000000000E+00 0. -1.
         11    1    1    2    0    0 -0.21454493149E+02  0.26188599656E+02  0.18738556669E+02  0.38694593088E+02  0.00000000000E+00 0.  1.
</event>
<event>
 7    1  0.2644565E-009  0.1324850E+03  0.7561462E-02  0.1223814E+00
          2   -1    0    0  501    0  0.00000000000E+00  0.00000000000E+00  0.21507810592E+03  0.21507810592E+03  0.00000000000E+00 0.  1.
         -2   -1    0    0    0  501 -0.00000000000E+00 -0.00000000000E+00 -0.12028253734E+03  0.12028253734E+03  0.00000000000E+00 0. -1.
         25    2    1    2    0    0 -0.10503681273E+03  0.48742691933E+02  0.25408851924E+02  0.17234118501E+03  0.12508913721E+03 0.  0.
          5    1    3    3  502    0 -0.11184213801E+03  0.45202273878E+02  0.61317277807E+02  0.13538534025E+03  0.41800000000E+01 0. -1.
         -5    1    3    3    0  502  0.68053252791E+01  0.35404180553E+01 -0.35908425883E+02  0.36955844755E+02  0.41800000000E+01 0. -1.
        -11    1    1    2    0    0  0.75566164162E+02  0.33921569945E+01  0.60986540745E+01  0.75887716244E+02  0.00000000000E+00 0.  1.
         11    1    1    2    0    0  0.29470648565E+02 -0.52134848928E+02  0.63288062586E+02  0.87131742008E+02  0.00000000000E+00 0. -1.
</event>
<event>
 7    1  0.2644565E-009  0.1120191E+03  0.7561462E-02  0.1256876E+00
         -2   -1    0    0    0  501 -0.00000000000E+00  0.00000000000E+00  0.44783695199E+02  0.44783695199E+02  0.00000000000E+00 0.  1.
          2   -1    0    0  501    0  0.00000000000E+00 -0.00000000000E+00 -0.47612550624E+03  0.47612550624E+03  0.00000000000E+00 0. -1.
         25    2    1    2    0    0  0.95270908410E+02 -0.47033779227E+01 -0.18994208294E+03  0.24662467849E+03  0.12508824651E+03 0.  0.
          5    1    3    3  502    0  0.50877743272E+02 -0.24647771717E+02 -0.68165015468E+01  0.57096361569E+02  0.41800000000E+01 0. -1.
         -5    1    3    3    0  502  0.44393165138E+02  0.19944393794E+02 -0.18312558139E+03  0.18952831692E+03  0.41800000000E+01 0. -1.
        -11    1    1    2    0    0 -0.55121871937E+02  0.37494451822E+02 -0.76715224083E+02  0.10163405084E+03  0.00000000000E+00 0.  1.
         11    1    1    2    0    0 -0.40149036473E+02 -0.32791073899E+02 -0.16468450403E+03  0.17265047212E+03  0.00000000000E+00 0. -1.
</event>
<event>
 7    1  0.2644565E-009  0.1106927E+03  0.7561462E-02  0.1259292E+00
         -2   -1    0    0    0  501 -0.00000000000E+00  0.00000000000E+00  0.15746320404E+03  0.15746320404E+03  0.00000000000E+00 0. -1.
          2   -1    0    0  501    0  0.00000000000E+00 -0.00000000000E+00 -0.86477438012E+02  0.86477438012E+02  0.00000000000E+00 0.  1.
         25    2    1    2    0    0  0.58424236706E+01  0.41632799140E+02  0.53590789671E+02  0.14243010720E+03  0.12508772450E+03 0.  0.
          5    1    3    3  502    0  0.61774612354E+02  0.41908286573E+02  0.39676945992E+02  0.84641240882E+02  0.41800000000E+01 0. -1.
         -5    1    3    3    0  502 -0.55932188683E+02 -0.27548743306E+00  0.13913843679E+02  0.57788866316E+02  0.41800000000E+01 0. -1.
        -11    1    1    2    0    0  0.35954486913E+02 -0.78809857764E+01  0.28622189036E+02  0.46626867482E+02  0.00000000000E+00 0. -1.
         11    1    1    2    0    0 -0.41796910583E+02 -0.33751813363E+02 -0.11227212678E+02  0.54883667372E+02  0.00000000000E+00 0.  1.
</event>
<event>
 7    1  0.2644565E-009  0.1169739E+03  0.7561462E-02  0.1248174E+00
          2   -1    0    0  501    0  0.00000000000E+00  0.00000000000E+00  0.78019895468E+02  0.78019895468E+02  0.00000000000E+00 0. -1.
         -2   -1    0    0    0  501 -0.00000000000E+00 -0.00000000000E+00 -0.20251576559E+03  0.20251576559E+03  0.00000000000E+00 0.  1.
         25    2    1    2    0    0  0.45358385576E+02 -0.45814479174E+02 -0.69753418238E+02  0.15705793125E+03  0.12508119271E+03 0.  0.
          5    1    3    3  502    0 -0.22751563502E+02  0.18696807092E+02 -0.54268283160E+02  0.61884757367E+02  0.41800000000E+01 0.  1.
         -5    1    3    3    0  502  0.68109949078E+02 -0.64511286266E+02 -0.15485135078E+02  0.95173173886E+02  0.41800000000E+01 0.  1.
        -11    1    1    2    0    0  0.28098106672E+01  0.60015533421E+02 -0.34896878969E+02  0.69480583256E+02  0.00000000000E+00 0.  1.
         11    1    1    2    0    0 -0.48168196243E+02 -0.14201054247E+02 -0.19845572915E+02  0.53997146549E+02  0.00000000000E+00 0. -1.
</event>
<event>
 7    1  0.2644565E-009  0.2710126E+03  0.7561462E-02  0.1100701E+00
          1   -1    0    0  501    0  0.00000000000E+00  0.00000000000E+00  0.23088969823E+03  0.23088969823E+03  0.00000000000E+00 0. -1.
         -1   -1    0    0    0  501 -0.00000000000E+00 -0.00000000000E+00 -0.32244394152E+03  0.32244394152E+03  0.00000000000E+00 0.  1.
         25    2    1    2    0    0  0.16818831040E+03 -0.18140233967E+03 -0.78550766418E+02  0.28811699547E+03  0.12508822319E+03 0.  0.
          5    1    3    3  502    0  0.18844687486E+03 -0.15844459015E+03 -0.67894644568E+02  0.25542918383E+03  0.41800000000E+01 0.  1.
         -5    1    3    3    0  502 -0.20258564457E+02 -0.22957749517E+02 -0.10656121850E+02  0.32687811637E+02  0.41800000000E+01 0.  1.
        -11    1    1    2    0    0 -0.85537902801E+02  0.15685764742E+03 -0.74437687565E+01  0.17881964115E+03  0.00000000000E+00 0.  1.
         11    1    1    2    0    0 -0.82650407603E+02  0.24544692250E+02 -0.55597081133E+01  0.86397003125E+02  0.00000000000E+00 0. -1.
</event>
<event>
 7    1  0.2644565E-009  0.1056628E+03  0.7561462E-02  0.1268819E+00
         -2   -1    0    0    0  501 -0.00000000000E+00  0.00000000000E+00  0.64532970834E+02  0.64532970834E+02  0.00000000000E+00 0.  1.
          2   -1    0    0  501    0  0.00000000000E+00 -0.00000000000E+00 -0.23367995361E+03  0.23367995361E+03  0.00000000000E+00 0. -1.
         25    2    1    2    0    0  0.43123349491E+02  0.37634160430E+02 -0.84871045339E+02  0.16163945758E+03  0.12509303180E+03 0.  0.
          5    1    3    3  502    0 -0.17735263393E+02 -0.20511539680E+02  0.14753357859E+02  0.31151192526E+02  0.41800000000E+01 0. -1.
         -5    1    3    3    0  502  0.60858612884E+02  0.58145700111E+02 -0.99624403198E+02  0.13048826505E+03  0.41800000000E+01 0. -1.
        -11    1    1    2    0    0 -0.40008155876E+02  0.18016403028E+02 -0.12357162874E+02  0.45584457756E+02  0.00000000000E+00 0.  1.
         11    1    1    2    0    0 -0.31151936157E+01 -0.55650563458E+02 -0.71918774566E+02  0.90989009114E+02  0.00000000000E+00 0. -1.
</event>
<event>
 7    1  0.2644565E-009  0.9667339E+02  0.7561462E-02  0.1287451E+00
          4   -1    0    0  501    0  0.00000000000E+00  0.00000000000E+00  0.24871293714E+02  0.24871293714E+02  0.00000000000E+00 0.  1.
         -4   -1    0    0    0  501 -0.00000000000E+00 -0.00000000000E+00 -0.63490698733E+03  0.63490698733E+03  0.00000000000E+00 0. -1.
         25    2    1    2    0    0  0.49308116807E+02  0.28962107168E+02 -0.38799376367E+03  0.41165074358E+03  0.12508828885E+03 0.  0.
          5    1    3    3  502    0 -0.10320651794E+02 -0.69626481704E+01  0.38214511043E+01  0.13677361278E+02  0.41800000000E+01 0. -1.
         -5    1    3    3    0  502  0.59628768601E+02  0.35924755339E+02 -0.39181521478E+03  0.39797338231E+03  0.41800000000E+01 0. -1.
        -11    1    1    2    0    0 -0.54948541034E+02 -0.58583618288E+02 -0.15344654925E+03  0.17319707264E+03  0.00000000000E+00 0. -1.
         11    1    1    2    0    0  0.56404242272E+01  0.29621511120E+02 -0.68595380691E+02  0.74930464823E+02  0.00000000000E+00 0.  1.
</event>
<event>
 7    1  0.2644565E-009  0.7197512E+02  0.7561462E-02  0.1353502E+00
          2   -1    0    0  501    0  0.00000000000E+00  0.00000000000E+00  0.18448191737E+03  0.18448191737E+03  0.00000000000E+00 0.  1.
         -2   -1    0    0    0  501 -0.00000000000E+00 -0.00000000000E+00 -0.69926801474E+02  0.69926801474E+02  0.00000000000E+00 0. -1.
         25    2    1    2    0    0 -0.36188287634E+02 -0.11928525114E+02  0.62893419540E+02  0.14510181819E+03  0.12508826303E+03 0.  0.
          5    1    3    3  502    0  0.19540202280E+02 -0.27331457772E+02  0.78141581122E+02  0.85161066159E+02  0.41800000000E+01 0.  1.
         -5    1    3    3    0  502 -0.55728489913E+02  0.15402932659E+02 -0.15248161582E+02  0.59940752032E+02  0.41800000000E+01 0.  1.
        -11    1    1    2    0    0  0.27383193015E+02  0.24521824266E+02 -0.15878282746E+02  0.40040966372E+02  0.00000000000E+00 0. -1.
         11    1    1    2    0    0  0.88050946183E+01 -0.12593299152E+02  0.67539979099E+02  0.69265934279E+02  0.00000000000E+00 0.  1.
</event>
<event>
 7    1  0.2644565E-009  0.1829770E+03  0.7561462E-02  0.1164953E+00
         -1   -1    0    0    0  501 -0.00000000000E+00  0.00000000000E+00  0.40849482572E+02  0.40849482572E+02  0.00000000000E+00 0.  1.
          1   -1    0    0  501    0  0.00000000000E+00 -0.00000000000E+00 -0.10138001789E+04  0.10138001789E+04  0.00000000000E+00 0. -1.
         25    2    1    2    0    0 -0.16725959941E+03  0.63260821723E+01 -0.61615685669E+03  0.65062531052E+03  0.12509288438E+03 0.  0.
          5    1    3    3  502    0 -0.11563339016E+03 -0.26224368991E+02 -0.54031090681E+03  0.55318364660E+03  0.41800000000E+01 0.  1.
         -5    1    3    3    0  502 -0.51626209252E+02  0.32550451163E+02 -0.75845949883E+02  0.97441663914E+02  0.41800000000E+01 0.  1.
        -11    1    1    2    0    0  0.13226089584E+03  0.30077376528E+02 -0.22291451197E+03  0.26093767990E+03  0.00000000000E+00 0. -1.
         11    1    1    2    0    0  0.34998703570E+02 -0.36403458700E+02 -0.13387932768E+03  0.14308667107E+03  0.00000000000E+00 0.  1.
</event>
<event>
 7    1  0.2644565E-009  0.1442662E+03  0.7561462E-02  0.1207701E+00
          1   -1    0    0  501    0  0.00000000000E+00  0.00000000000E+00  0.10856939132E+04  0.10856939132E+04  0.00000000000E+00 0. -1.
         -1   -1    0    0    0  501 -0.00000000000E+00 -0.00000000000E+00 -0.23095508269E+02  0.23095508269E+02  0.00000000000E+00 0.  1.
         25    2    1    2    0    0  0.46144350956E+02 -0.10018634716E+03  0.44109603300E+03  0.47156899590E+03  0.12507998355E+03 0.  0.
          5    1    3    3  502    0 -0.93435303083E+01 -0.10957900444E+03  0.27841733338E+03  0.29938026605E+03  0.41800000000E+01 0. -1.
         -5    1    3    3    0  502  0.55487881265E+02  0.93926572789E+01  0.16267869961E+03  0.17218872984E+03  0.41800000000E+01 0. -1.
        -11    1    1    2    0    0 -0.14078906689E+02 -0.26486719770E+01  0.13284134757E+02  0.19537126529E+02  0.00000000000E+00 0.  1.
         11    1    1    2    0    0 -0.32065444268E+02  0.10283501914E+03  0.60821823715E+03  0.61768329901E+03  0.00000000000E+00 0. -1.
</event>
<event>
 7    1  0.2644565E-009  0.1161869E+03  0.7561462E-02  0.1249523E+00
          1   -1    0    0  501    0  0.00000000000E+00  0.00000000000E+00  0.71904858432E+03  0.71904858432E+03  0.00000000000E+00 0. -1.
         -1   -1    0    0    0  501 -0.00000000000E+00 -0.00000000000E+00 -0.21590834472E+02  0.21590834472E+02  0.00000000000E+00 0.  1.
         25    2    1    2    0    0  0.44607645191E+02 -0.11037614549E+01  0.32708471769E+03  0.35301965550E+03  0.12508958519E+03 0.  0.
          5    1    3    3  502    0  0.66377834164E+02 -0.40904243491E+02  0.13833412859E+03  0.15884891418E+03  0.41800000000E+01 0.  1.
         -5    1    3    3    0  502 -0.21770188973E+02  0.39800482036E+02  0.18875058911E+03  0.19417074132E+03  0.41800000000E+01 0.  1.
        -11    1    1    2    0    0  0.44689652929E+01  0.43592729422E+02  0.93806102936E+02  0.10353686617E+03  0.00000000000E+00 0.  1.
         11    1    1    2    0    0 -0.49076610484E+02 -0.42488967967E+02  0.27656692922E+03  0.28408289712E+03  0.00000000000E+00 0. -1.
</event>
<event>
 7    1  0.2644565E-009  0.7817016E+02  0.7561462E-02  0.1334326E+00
          1   -1    0    0  501    0  0.00000000000E+00  0.00000000000E+00  0.49072202080E+02  0.49072202080E+02  0.00000000000E+00 0. -1.
         -1   -1    0    0    0  501 -0.00000000000E+00 -0.00000000000E+00 -0.35930457099E+03  0.35930457099E+03  0.00000000000E+00 0.  1.
         25    2    1    2    0    0  0.57679712203E+02  0.16483407343E+01 -0.91655847552E+02  0.16546646793E+03  0.12509472968E+03 0.  0.
          5    1    3    3  502    0  0.13142282996E+02  0.38102518005E+02  0.15802720452E+02  0.43493905945E+02  0.41800000000E+01 0.  1.
         -5    1    3    3    0  502  0.44537429206E+02 -0.36454177271E+02 -0.10745856800E+03  0.12197256199E+03  0.41800000000E+01 0.  1.
        -11    1    1    2    0    0 -0.12693685369E+02 -0.32334116085E+01  0.56096448384E+01  0.14249656631E+02  0.00000000000E+00 0. -1.
         11    1    1    2    0    0 -0.44986026833E+02  0.15850708742E+01 -0.22418616620E+03  0.22866064850E+03  0.00000000000E+00 0.  1.
</event>
<event>
 7    1  0.2644565E-009  0.1148264E+03  0.7561462E-02  0.1251884E+00
         -2   -1    0    0    0  501 -0.00000000000E+00  0.00000000000E+00  0.30339099636E+02  0.30339099636E+02  0.00000000000E+00 0.  1.
          2   -1    0    0  501    0  0.00000000000E+00 -0.00000000000E+00 -0.90918089842E+03  0.90918089842E+03  0.00000000000E+00 0. -1.
         25    2    1    2    0    0  0.24632678929E+02  0.44947717565E+02 -0.79872521503E+03  0.81008405273E+03  0.12508851736E+03 0.  0.
          5    1    3    3  502    0 -0.46304007732E+02 -0.69968250040E+01 -0.29623215786E+03  0.29993996139E+03  0.41800000000E+01 0.  1.
         -5    1    3    3    0  502  0.70936686660E+02  0.51944542569E+02 -0.50249305718E+03  0.51014409134E+03  0.41800000000E+01 0.  1.
        -11    1    1    2    0    0 -0.10254817004E+02  0.22989996670E+02 -0.25128069346E+01  0.25298525992E+02  0.00000000000E+00 0.  1.
         11    1    1    2    0    0 -0.14377861925E+02 -0.67937714236E+02 -0.77603776813E+02  0.10413741933E+03  0.00000000000E+00 0. -1.
</event>
<event>
 7    1  0.2644565E-009  0.2436919E+03  0.7561462E-02  0.1117358E+00
         -1   -1    0    0    0  501 -0.00000000000E+00  0.00000000000E+00  0.17391295532E+03  0.17391295532E+03  0.00000000000E+00 0.  1.
          1   -1    0    0  501    0  0.00000000000E+00 -0.00000000000E+00 -0.35830823268E+03  0.35830823268E+03  0.00000000000E+00 0. -1.
         25    2    1    2    0    0 -0.10079821704E+03 -0.19492294358E+03 -0.42226979835E+02  0.25609745995E+03  0.12509019415E+03 0.  0.
          5    1    3    3  502    0  0.13436286528E+02 -0.10661233938E+03 -0.26800068432E+02  0.11082617367E+03  0.41800000000E+01 0.  1.
         -5    1    3    3    0  502 -0.11423450357E+03 -0.88310604206E+02 -0.15426911403E+02  0.14527128627E+03  0.41800000000E+01 0.  1.
        -11    1    1    2    0    0  0.38728886707E+02  0.15907025934E+03 -0.11195718617E+03  0.19833730261E+03  0.00000000000E+00 0. -1.
         11    1    1    2    0    0  0.62069330332E+02  0.35852684245E+02 -0.30211111356E+02  0.77786425453E+02  0.00000000000E+00 0.  1.
</event>
<event>
 7    1  0.2644565E-009  0.1441459E+03  0.7561462E-02  0.1207857E+00
          1   -1    0    0  501    0  0.00000000000E+00  0.00000000000E+00  0.40436499147E+03  0.40436499147E+03  0.00000000000E+00 0. -1.
         -1   -1    0    0    0  501 -0.00000000000E+00 -0.00000000000E+00 -0.79125863718E+02  0.79125863718E+02  0.00000000000E+00 0.  1.
         25    2    1    2    0    0  0.85405119464E+02 -0.61748852685E+02  0.29684236570E+03  0.33892976967E+03  0.12510413045E+03 0.  0.
          5    1    3    3  502    0  0.10145584233E+03 -0.74591520795E+02  0.29107574663E+03  0.31717462949E+03  0.41800000000E+01 0.  1.
         -5    1    3    3    0  502 -0.16050722868E+02  0.12842668110E+02  0.57666190740E+01  0.21755140181E+02  0.41800000000E+01 0.  1.
        -11    1    1    2    0    0 -0.35805444150E+01  0.59352588697E+02  0.17480660344E+02  0.61976798638E+02  0.00000000000E+00 0. -1.
         11    1    1    2    0    0 -0.81824575049E+02  0.23962639882E+01  0.10916101710E+02  0.82584286881E+02  0.00000000000E+00 0.  1.
</event>
<event>
 7    1  0.2644565E-009  0.1302677E+03  0.7561462E-02  0.1227059E+00
          2   -1    0    0  501    0  0.00000000000E+00  0.00000000000E+00  0.82825497297E+02  0.82825497297E+02  0.00000000000E+00 0.  1.
         -2   -1    0    0    0  501 -0.00000000000E+00 -0.00000000000E+00 -0.24882290599E+03  0.24882290599E+03  0.00000000000E+00 0. -1.
         25    2    1    2    0    0 -0.85067411718E+02 -0.50258217950E+01 -0.14637117014E+03  0.21055623462E+03  0.12509070737E+03 0.  0.
          5    1    3    3  502    0 -0.58483189039E+02  0.51860517124E+02 -0.42398226697E+02  0.89021787578E+02  0.41800000000E+01 0. -1.
         -5    1    3    3    0  502 -0.26584222678E+02 -0.56886338919E+02 -0.10397294344E+03  0.12153444704E+03  0.41800000000E+01 0. -1.
        -11    1    1    2    0    0  0.21345927114E+02 -0.37197337022E+02 -0.40254241699E+01  0.43075451543E+02  0.00000000000E+00 0.  1.
         11    1    1    2    0    0  0.63721484603E+02  0.42223158817E+02 -0.15600814384E+02  0.78016717119E+02  0.00000000000E+00 0. -1.
</event>
<event>
 7    1  0.2644565E-009  0.1374925E+03  0.7561462E-02  0.1216743E+00
         -1   -1    0    0    0  501 -0.00000000000E+00  0.00000000000E+00  0.16709031508E+03  0.16709031508E+03  0.00000000000E+00 0.  1.
          1   -1    0    0  501    0  0.00000000000E+00 -0.00000000000E+00 -0.13736126920E+03  0.13736126920E+03  0.00000000000E+00 0. -1.
         25    2    1    2    0    0 -0.10387185142E+03 -0.22735468355E+02  0.86461493126E+01  0.16439685240E+03  0.12508119820E+03 0.  0.
          5    1    3    3  502    0  0.27007742534E+02  0.97739895922E+01  0.48136273148E+01  0.29420952351E+02  0.41800000000E+01 0.  1.
         -5    1    3    3    0  502 -0.13087959396E+03 -0.32509457947E+02  0.38325219978E+01  0.13497590005E+03  0.41800000000E+01 0.  1.
        -11    1    1    2    0    0  0.33742790950E+02  0.23129114819E+02 -0.32132879796E+02  0.52019744880E+02  0.00000000000E+00 0. -1.
         11    1    1    2    0    0  0.70129060472E+02 -0.39364646425E+00  0.53215776370E+02  0.88034986993E+02  0.00000000000E+00 0.  1.
</event>
<event>
 7    1  0.3130297E-009  0.1285785E+03  0.7561462E-02  0.1229580E+00
         -2   -1    0    0    0  501 -0.00000000000E+00  0.00000000000E+00  0.62808136837E+02  0.62808136837E+02  0.00000000000E+00 0.  1.
          2   -1    0    0  501    0  0.00000000000E+00 -0.00000000000E+00 -0.39427723234E+03  0.39427723234E+03  0.00000000000E+00 0. -1.
         25    2    1    2    0    0 -0.10483668475E+03 -0.40117829897E+02 -0.20482575118E+03  0.26495817207E+03  0.12509625837E+03 0.  0.
          5    1    3    3  502    0 -0.35147816045E+02 -0.60569066187E+02 -0.17080064626E+03  0.18464645654E+03  0.41800000000E+01 0.  1.
         -5    1    3    3    0  502 -0.69688868701E+02  0.20451236291E+02 -0.34025104917E+02  0.80311715529E+02  0.41800000000E+01 0.  1.
        -11    1    1    2    0    0  0.66569763921E+02  0.36235106220E+02 -0.19459351955E+02  0.78250768493E+02  0.00000000000E+00 0.  1.
         11    1    1    2    0    0  0.38266920825E+02  0.38827236769E+01 -0.10718399237E+03  0.11387642861E+03  0.00000000000E+00 0. -1.
</event>
<event>
 7    1  0.2694553E-009  0.1252649E+03  0.7561462E-02  0.1234656E+00
          4   -1    0    0  501    0  0.00000000000E+00  0.00000000000E+00  0.29502672733E+03  0.29502672733E+03  0.00000000000E+00 0. -1.
         -4   -1    0    0    0  501 -0.00000000000E+00 -0.00000000000E+00 -0.64742345563E+02  0.64742345563E+02  0.00000000000E+00 0.  1.
         25    2    1    2    0    0  0.61584651796E+02  0.58668269884E+02  0.11956046143E+03  0.19282187013E+03  0.12510369474E+03 0.  0.
          5    1    3    3  502    0 -0.29672375243E+02  0.19565013824E+02  0.76630519820E+02  0.84575106186E+02  0.41800000000E+01 0. -1.
         -5    1    3    3    0  502  0.91257027038E+02  0.39103256060E+02  0.42929941608E+02  0.10824676395E+03  0.41800000000E+01 0. -1.
        -11    1    1    2    0    0 -0.80096948321E+02 -0.52874039465E+02  0.61371486405E+02  0.11391946508E+03  0.00000000000E+00 0.  1.
         11    1    1    2    0    0  0.18512296525E+02 -0.57942304187E+01  0.49352433932E+02  0.53027737683E+02  0.00000000000E+00 0. -1.
</event>
<event>
 7    1  0.2644565E-009  0.1286928E+03  0.7561462E-02  0.1229408E+00
          2   -1    0    0  501    0  0.00000000000E+00  0.00000000000E+00  0.61174567948E+02  0.61174567948E+02  0.00000000000E+00 0. -1.
         -2   -1    0    0    0  501 -0.00000000000E+00 -0.00000000000E+00 -0.34265938910E+03  0.34265938910E+03  0.00000000000E+00 0.  1.
         25    2    1    2    0    0 -0.11648508121E+02  0.98424613441E+02 -0.14076148735E+03  0.21280031647E+03  0.12508831319E+03 0.  0.
          5    1    3    3  502    0 -0.63200901024E+02  0.81684961249E+02 -0.76298019266E+02  0.12847430455E+03  0.41800000000E+01 0. -1.
         -5    1    3    3    0  502  0.51552392903E+02  0.16739652192E+02 -0.64463468083E+02  0.84326011923E+02  0.41800000000E+01 0. -1.
        -11    1    1    2    0    0  0.13227279125E+02 -0.73307125126E+02 -0.14726267332E+03  0.16503087729E+03  0.00000000000E+00 0.  1.
         11    1    1    2    0    0 -0.15787710040E+01 -0.25117488315E+02  0.65393395160E+01  0.26002763285E+02  0.00000000000E+00 0. -1.
</event>
<event>
 7    1  0.2644565E-009  0.9203054E+02  0.7561462E-02  0.1298008E+00
         -2   -1    0    0    0  501 -0.00000000000E+00  0.00000000000E+00  0.13293879215E+02  0.13293879215E+02  0.00000000000E+00 0.  1.
          2   -1    0    0  501    0  0.00000000000E+00 -0.00000000000E+00 -0.10237067647E+04  0.10237067647E+04  0.00000000000E+00 0. -1.
         25    2    1    2    0    0 -0.21591158245E+02 -0.14625935045E+02 -0.73929440515E+03  0.75025772770E+03  0.12510133648E+03 0.  0.
          5    1    3    3  502    0 -0.60433509872E+02  0.14172349716E+02 -0.21784625230E+03  0.22655579148E+03  0.41800000000E+01 0.  1.
         -5    1    3    3    0  502  0.38842351627E+02 -0.28798284760E+02 -0.52144815286E+03  0.52370193622E+03  0.41800000000E+01 0.  1.
        -11    1    1    2    0    0 -0.23542241044E+02  0.15473624827E+02 -0.28920465157E+02  0.40374044676E+02  0.00000000000E+00 0.  1.
         11    1    1    2    0    0  0.45133399289E+02 -0.84768978227E+00 -0.24219801517E+03  0.24636887153E+03  0.00000000000E+00 0. -1.
</event>
<event>
 7    1  0.2644565E-009  0.1321163E+03  0.7561462E-02  0.1224349E+00
         -2   -1    0    0    0  501 -0.00000000000E+00  0.00000000000E+00  0.18362042217E+02  0.18362042217E+02  0.00000000000E+00 0.  1.
          2   -1    0    0  501    0  0.00000000000E+00 -0.00000000000E+00 -0.10314620522E+04  0.10314620522E+04  0.00000000000E+00 0. -1.
         25    2    1    2    0    0 -0.55950211991E+02 -0.51593368248E+02 -0.41507438204E+03  0.44014368912E+03  0.12508965813E+03 0.  0.
          5    1    3    3  502    0 -0.29672467183E+02  0.40520795846E+02 -0.15246914923E+03  0.16058239029E+03  0.41800000000E+01 0.  1.
         -5    1    3    3    0  502 -0.26277744808E+02 -0.92114164094E+02 -0.26260523281E+03  0.27956129882E+03  0.41800000000E+01 0.  1.
        -11    1    1    2    0    0  0.69749197478E+01 -0.25601833354E+02 -0.10903726118E+03  0.11221955134E+03  0.00000000000E+00 0. -1.
         11    1    1    2    0    0  0.48975292243E+02  0.77195201602E+02 -0.48898836672E+03  0.49746085393E+03  0.00000000000E+00 0.  1.
</event>
<event>
 7    1  0.2644565E-009  0.3394483E+03  0.7561462E-02  0.1067031E+00
          2   -1    0    0  501    0  0.00000000000E+00  0.00000000000E+00  0.13142928153E+04  0.13142928153E+04  0.00000000000E+00 0. -1.
         -2   -1    0    0    0  501 -0.00000000000E+00 -0.00000000000E+00 -0.99732002235E+02  0.99732002235E+02  0.00000000000E+00 0.  1.
         25    2    1    2    0    0  0.21225367276E+03  0.25120309951E+03  0.41104420267E+03  0.54107324962E+03  0.12509318970E+03 0.  0.
          5    1    3    3  502    0  0.38964687606E+02 -0.61936151787E+01  0.66022348841E+02  0.77026168902E+02  0.41800000000E+01 0.  1.
         -5    1    3    3    0  502  0.17328898515E+03  0.25739671469E+03  0.34502185383E+03  0.46404708072E+03  0.41800000000E+01 0.  1.
        -11    1    1    2    0    0 -0.35776471196E+02 -0.45018942960E+02  0.24937622028E+03  0.25592022264E+03  0.00000000000E+00 0.  1.
         11    1    1    2    0    0 -0.17647720156E+03 -0.20618415655E+03  0.55414039011E+03  0.61703134526E+03  0.00000000000E+00 0. -1.
</event>
<event>
 7    1  0.3270721E-009  0.1156635E+03  0.7561462E-02  0.1250427E+00
         -2   -1    0    0    0  501 -0.00000000000E+00  0.00000000000E+00  0.77360081659E+01  0.77360081659E+01  0.00000000000E+00 0.  1.
          2   -1    0    0  501    0  0.00000000000E+00 -0.00000000000E+00 -0.23403029716E+04  0.23403029716E+04  0.00000000000E+00 0. -1.
         25    2    1    2    0    0 -0.40786392254E+02  0.66009091979E+01 -0.18777893569E+04  0.18824043649E+04  0.12508486035E+03 0.  0.
          5    1    3    3  502    0 -0.84950844833E+02 -0.59760324869E+01 -0.11509358532E+04  0.11540897580E+04  0.41800000000E+01 0. -1.
         -5    1    3    3    0  502  0.44164452579E+02  0.12576941685E+02 -0.72685350367E+03  0.72831460684E+03  0.41800000000E+01 0. -1.
        -11    1    1    2    0    0  0.10012885779E+02  0.41588209506E+02 -0.19120325575E+03  0.19592989068E+03  0.00000000000E+00 0.  1.
         11    1    1    2    0    0  0.30773506475E+02 -0.48189118704E+02 -0.26357435082E+03  0.26970472423E+03  0.00000000000E+00 0. -1.
</event>
<event>
 7    1  0.2644565E-009  0.9515147E+02  0.7561462E-02  0.1290835E+00
         -1   -1    0    0    0  501 -0.00000000000E+00  0.00000000000E+00  0.27260770800E+03  0.27260770800E+03  0.00000000000E+00 0.  1.
          1   -1    0    0  501    0  0.00000000000E+00 -0.00000000000E+00 -0.63627555329E+02  0.63627555329E+02  0.00000000000E+00 0. -1.
         25    2    1    2    0    0 -0.50276431319E+02  0.21853157789E+02  0.18085122770E+03  0.22662784760E+03  0.12509090573E+03 0.  0.
          5    1    3    3  502    0 -0.67252772500E+02  0.59469237171E+02  0.92215483306E+02  0.12876604110E+03  0.41800000000E+01 0. -1.
         -5    1    3    3    0  502  0.16976341181E+02 -0.37616079382E+02  0.88635744392E+02  0.97861806502E+02  0.41800000000E+01 0. -1.
        -11    1    1    2    0    0  0.25756236602E+02  0.51339255099E+00  0.58938389812E+02  0.64322477327E+02  0.00000000000E+00 0.  1.
         11    1    1    2    0    0  0.24520194717E+02 -0.22366550340E+02 -0.30809464835E+02  0.45284938407E+02  0.00000000000E+00 0. -1.
</event>
<event>
 7    1  0.2644565E-009  0.1396394E+03  0.7561462E-02  0.1213815E+00
         -2   -1    0    0    0  501 -0.00000000000E+00  0.00000000000E+00  0.67626575328E+02  0.67626575328E+02  0.00000000000E+00 0.  1.
          2   -1    0    0  501    0  0.00000000000E+00 -0.00000000000E+00 -0.37953540649E+03  0.37953540649E+03  0.00000000000E+00 0. -1.
         25    2    1    2    0    0 -0.99271798867E+02 -0.68884357211E+01 -0.21336736499E+03  0.26659829992E+03  0.12508669186E+03 0.  0.
          5    1    3    3  502    0  0.22035860734E+02 -0.20990097920E+02 -0.16445209694E+02  0.34843660698E+02  0.41800000000E+01 0.  1.
         -5    1    3    3    0  502 -0.12130765960E+03  0.14101662199E+02 -0.19692215530E+03  0.23175463922E+03  0.41800000000E+01 0.  1.
        -11    1    1    2    0    0  0.13269713272E+02  0.33749752132E+02  0.11775558569E+02  0.38128661646E+02  0.00000000000E+00 0.  1.
         11    1    1    2    0    0  0.86002085596E+02 -0.26861316411E+02 -0.11031702474E+03  0.14243502025E+03  0.00000000000E+00 0. -1.
</event>
<event>
 7    1  0.2644565E-009  0.1351079E+03  0.7561462E-02  0.1220067E+00
          4   -1    0    0  501    0  0.00000000000E+00  0.00000000000E+00  0.52810539394E+02  0.52810539394E+02  0.00000000000E+00 0. -1.
         -4   -1    0    0    0  501 -0.00000000000E+00 -0.00000000000E+00 -0.47575810732E+03  0.47575810732E+03  0.00000000000E+00 0.  1.
         25    2    1    2    0    0 -0.63381391514E+02 -0.93586565139E+02 -0.25818826438E+03  0.30835831999E+03  0.12509207680E+03 0.  0.
          5    1    3    3  502    0  0.13778357396E+02 -0.76381411802E+02 -0.71633344673E+02  0.10570133240E+03  0.41800000000E+01 0.  1.
         -5    1    3    3    0  502 -0.77159748911E+02 -0.17205153337E+02 -0.18655491971E+03  0.20265698759E+03  0.41800000000E+01 0.  1.
        -11    1    1    2    0    0  0.18613258379E+02  0.21192296895E+02  0.65175830035E+01  0.28949019386E+02  0.00000000000E+00 0. -1.
         11    1    1    2    0    0  0.44768133135E+02  0.72394268243E+02 -0.17127688655E+03  0.19126130734E+03  0.00000000000E+00 0.  1.
</event>
<event>
 7    1  0.2644565E-009  0.1020098E+03  0.7561462E-02  0.1276125E+00
          1   -1    0    0  501    0  0.00000000000E+00  0.00000000000E+00  0.32262598586E+02  0.32262598586E+02  0.00000000000E+00 0. -1.
         -1   -1    0    0    0  501 -0.00000000000E+00 -0.00000000000E+00 -0.38774305882E+03  0.38774305882E+03  0.00000000000E+00 0.  1.
         25    2    1    2    0    0  0.38805544327E+01 -0.22582892626E+02 -0.22637756201E+03  0.25965306929E+03  0.12509144682E+03 0.  0.
          5    1    3    3  502    0 -0.55318702976E+02  0.13338571499E+02 -0.11625055214E+03  0.12949802956E+03  0.41800000000E+01 0. -1.
         -5    1    3    3    0  502  0.59199257408E+02 -0.35921464125E+02 -0.11012700988E+03  0.13015503973E+03  0.41800000000E+01 0. -1.
        -11    1    1    2    0    0  0.10934829738E+02  0.47423442333E+02 -0.12084007046E+03  0.13027231484E+03  0.00000000000E+00 0.  1.
         11    1    1    2    0    0 -0.14815384171E+02 -0.24840549707E+02 -0.82628277599E+01  0.30080273278E+02  0.00000000000E+00 0. -1.
</event>
<event>
 7    1  0.2644565E-009  0.9800982E+02  0.7561462E-02  0.1284538E+00
          2   -1    0    0  501    0  0.00000000000E+00  0.00000000000E+00  0.11550002977E+04  0.11550002977E+04  0.00000000000E+00 0. -1.
         -2   -1    0    0    0  501 -0.00000000000E+00 -0.00000000000E+00 -0.12757407044E+02  0.12757407044E+02  0.00000000000E+00 0.  1.
         25    2    1    2    0    0 -0.22326386793E+02 -0.41274423371E+02  0.75877830545E+03  0.77045149234E+03  0.12509572198E+03 0.  0.
          5    1    3    3  502    0 -0.50730724159E+02 -0.69198352580E+01  0.66004712634E+03  0.66204317977E+03  0.41800000000E+01 0.  1.
         -5    1    3    3    0  502  0.28404337366E+02 -0.34354588113E+02  0.98731179117E+02  0.10840831258E+03  0.41800000000E+01 0.  1.
        -11    1    1    2    0    0 -0.27429234231E+02  0.41944432048E+02  0.24747406283E+03  0.25249774265E+03  0.00000000000E+00 0. -1.
         11    1    1    2    0    0  0.49755621024E+02 -0.67000867679E+00  0.13599052235E+03  0.14480846973E+03  0.00000000000E+00 0.  1.
</event>
<event>
 7    1  0.2644565E-009  0.1465509E+03  0.7561462E-02  0.1204776E+00
          2   -1    0    0  501    0  0.00000000000E+00  0.00000000000E+00  0.37235991460E+02  0.37235991460E+02  0.00000000000E+00 0. -1.
         -2   -1    0    0    0  501 -0.00000000000E+00 -0.00000000000E+00 -0.77100056901E+03  0.77100056901E+03  0.00000000000E+00 0.  1.
         25    2    1    2    0    0 -0.92520730529E+02  0.49866838651E+02 -0.57263245176E+03  0.59548499075E+03  0.12509061605E+03 0.  0.
          5    1    3    3  502    0 -0.89941831876E+02 -0.13258164214E+02 -0.42850631339E+03  0.43806443025E+03  0.41800000000E+01 0. -1.
         -5    1    3    3    0  502 -0.25788986527E+01  0.63125002865E+02 -0.14412613837E+03  0.15742056049E+03  0.41800000000E+01 0. -1.
        -11    1    1    2    0    0  0.19198026935E+01 -0.48120089893E+02 -0.60628540281E+02  0.77427699116E+02  0.00000000000E+00 0.  1.
         11    1    1    2    0    0  0.90600927835E+02 -0.17467487586E+01 -0.10050358552E+03  0.13532387061E+03  0.00000000000E+00 0. -1.
</event>
<event>
 7    1  0.2644565E-009  0.8071976E+02  0.7561462E-02  0.1327021E+00
         -1   -1    0    0    0  501 -0.00000000000E+00  0.00000000000E+00  0.76708889199E+02  0.76708889199E+02  0.00000000000E+00 0.  1.
          1   -1    0    0  501    0  0.00000000000E+00 -0.00000000000E+00 -0.16003789793E+03  0.16003789793E+03  0.00000000000E+00 0. -1.
         25    2    1    2    0    0 -0.22791160176E+02 -0.90755881174E+01 -0.58967341664E+02  0.14045258303E+03  0.12509187589E+03 0.  0.
          5    1    3    3  502    0 -0.54664820259E+02 -0.21307895981E+02  0.13400584578E+02  0.60326752540E+02  0.41800000000E+01 0. -1.
         -5    1    3    3    0  502  0.31873660082E+02  0.12232307863E+02 -0.72367926243E+02  0.80125830488E+02  0.41800000000E+01 0. -1.
        -11    1    1    2    0    0  0.22498469178E-01  0.34267903628E+02  0.20575133879E+02  0.39970312225E+02  0.00000000000E+00 0.  1.
         11    1    1    2    0    0  0.22768661707E+02 -0.25192315511E+02 -0.44936800941E+02  0.56323891871E+02  0.00000000000E+00 0. -1.
</event>
<event>
 7    1  0.2644565E-009  0.6919600E+02  0.7561462E-02  0.1362849E+00
          1   -1    0    0  501    0  0.00000000000E+00  0.00000000000E+00  0.99310816103E+02  0.99310816103E+02  0.00000000000E+00 0. -1.
         -1   -1    0    0    0  501 -0.00000000000E+00 -0.00000000000E+00 -0.13031608134E+03  0.13031608134E+03  0.00000000000E+00 0.  1.
         25    2    1    2    0    0 -0.29693971392E+02  0.15700736193E+02 -0.19140465320E+02  0.13092524039E+03  0.12508723398E+03 0.  0.
          5    1    3    3  502    0  0.53139587390E+01  0.22194957300E+02  0.48840106233E+02  0.54071088984E+02  0.41800000000E+01 0.  1.
         -5    1    3    3    0  502 -0.35007930131E+02 -0.64942211071E+01 -0.67980571553E+02  0.76854151407E+02  0.41800000000E+01 0.  1.
        -11    1    1    2    0    0 -0.13533266017E+02 -0.30727585691E+02 -0.34070340152E+02  0.47834317070E+02  0.00000000000E+00 0.  1.
         11    1    1    2    0    0  0.43227237409E+02  0.15026849497E+02  0.22205540234E+02  0.50867339982E+02  0.00000000000E+00 0. -1.
</event>
<event>
 7    1  0.2644565E-009  0.7619116E+02  0.7561462E-02  0.1340222E+00
         -1   -1    0    0    0  501 -0.00000000000E+00  0.00000000000E+00  0.86897320177E+02  0.86897320177E+02  0.00000000000E+00 0.  1.
          1   -1    0    0  501    0  0.00000000000E+00 -0.00000000000E+00 -0.14691534500E+03  0.14691534500E+03  0.00000000000E+00 0. -1.
         25    2    1    2    0    0 -0.28770669490E+02  0.47033858704E+02 -0.59715062034E+02  0.14917459747E+03  0.12508891481E+03 0.  0.
          5    1    3    3  502    0 -0.44918587628E+02  0.58789188090E+02 -0.87524406081E+02  0.11468148155E+03  0.41800000000E+01 0.  1.
         -5    1    3    3    0  502  0.16147918139E+02 -0.11755329386E+02  0.27809344047E+02  0.34493115915E+02  0.41800000000E+01 0.  1.
        -11    1    1    2    0    0  0.26042441266E+02 -0.26486428181E+02 -0.30465178799E+02  0.48040261700E+02  0.00000000000E+00 0. -1.
         11    1    1    2    0    0  0.27282282238E+01 -0.20547430523E+02  0.30162216010E+02  0.36597806013E+02  0.00000000000E+00 0.  1.
</event>
<event>
 7    1  0.2644565E-009  0.7759699E+02  0.7561462E-02  0.1336013E+00
          1   -1    0    0  501    0  0.00000000000E+00  0.00000000000E+00  0.13563659970E+02  0.13563659970E+02  0.00000000000E+00 0. -1.
         -1   -1    0    0    0  501 -0.00000000000E+00 -0.00000000000E+00 -0.11720690138E+04  0.11720690138E+04  0.00000000000E+00 0.  1.
         25    2    1    2    0    0 -0.46494342519E+02  0.18897564155E+02 -0.82882442940E+03  0.83971088272E+03  0.12508233279E+03 0.  0.
          5    1    3    3  502    0 -0.45926475676E+02  0.31386525192E+02 -0.82366998640E+03  0.82555682665E+03  0.41800000000E+01 0. -1.
         -5    1    3    3    0  502 -0.56786684214E+00 -0.12488961037E+02 -0.51544429924E+01  0.14154056065E+02  0.41800000000E+01 0. -1.
        -11    1    1    2    0    0  0.25461400131E+02 -0.45606019536E+02 -0.28516646898E+03  0.28991051541E+03  0.00000000000E+00 0.  1.
         11    1    1    2    0    0  0.21032942388E+02  0.26708455382E+02 -0.44514455442E+02  0.56011275630E+02  0.00000000000E+00 0. -1.
</event>
<event>
 7    1  0.2644565E-009  0.5553444E+02  0.7561462E-02  0.1417588E+00
         -2   -1    0    0    0  501 -0.00000000000E+00  0.00000000000E+00  0.13241868414E+03  0.13241868414E+03  0.00000000000E+00 0.  1.
          2   -1    0    0  501    0  0.00000000000E+00 -0.00000000000E+00 -0.86765444545E+02  0.86765444545E+02  0.00000000000E+00 0. -1.
         25    2    1    2    0    0  0.20595577972E+02 -0.16761252526E+02  0.35125759385E+02  0.13260984313E+03  0.12508570704E+03 0.  0.
          5    1    3    3  502    0  0.23933442965E+02 -0.12735399276E+02  0.81377292278E+02  0.85876284184E+02  0.41800000000E+01 0.  1.
         -5    1    3    3    0  502 -0.33378649923E+01 -0.40258532498E+01 -0.46251532892E+02  0.46733558948E+02  0.41800000000E+01 0.  1.
        -11    1    1    2    0    0 -0.30625240668E+02 -0.21480639127E+02  0.24415861447E+02  0.44670544136E+02  0.00000000000E+00 0.  1.
         11    1    1    2    0    0  0.10029662695E+02  0.38241891652E+02 -0.13888381240E+02  0.41903741413E+02  0.00000000000E+00 0. -1.
</event>
<event>
 7    1  0.2644565E-009  0.1367812E+03  0.7561462E-02  0.1217727E+00
          4   -1    0    0  501    0  0.00000000000E+00  0.00000000000E+00  0.85849294627E+02  0.85849294627E+02  0.00000000000E+00 0. -1.
         -4   -1    0    0    0  501 -0.00000000000E+00 -0.00000000000E+00 -0.30804846240E+03  0.30804846240E+03  0.00000000000E+00 0.  1.
         25    2    1    2    0    0  0.48047037211E+02  0.10624209477E+03 -0.89725039562E+02  0.19311561145E+03  0.12508859330E+03 0.  0.
          5    1    3    3  502    0  0.56081737900E+02  0.61972399042E+02 -0.11431409577E+03  0.14167189015E+03  0.41800000000E+01 0.  1.
         -5    1    3    3    0  502 -0.80347006897E+01  0.44269695731E+02  0.24589056204E+02  0.51443721291E+02  0.41800000000E+01 0.  1.
        -11    1    1    2    0    0 -0.72804959232E+02 -0.86239613170E+02 -0.12435478634E+03  0.16793434984E+03  0.00000000000E+00 0.  1.
         11    1    1    2    0    0  0.24757922021E+02 -0.20002481603E+02 -0.81193418719E+01  0.32847795748E+02  0.00000000000E+00 0. -1.
</event>
<event>
 7    1  0.2644565E-009  0.9031424E+02  0.7561462E-02  0.1302092E+00
          2   -1    0    0  501    0  0.00000000000E+00  0.00000000000E+00  0.17006472796E+03  0.17006472796E+03  0.00000000000E+00 0. -1.
         -2   -1    0    0    0  501 -0.00000000000E+00 -0.00000000000E+00 -0.98830765493E+02  0.98830765493E+02  0.00000000000E+00 0.  1.
         25    2    1    2    0    0  0.11767410882E+02  0.13275302968E+00 -0.33330572208E+02  0.12999157077E+03  0.12509353239E+03 0.  0.
          5    1    3    3  502    0  0.11747858518E+02 -0.52240870303E+02  0.17896043560E+02  0.56611496048E+02  0.41800000000E+01 0. -1.
         -5    1    3    3    0  502  0.19552364305E-01  0.52373623332E+02 -0.51226615767E+02  0.73380074722E+02  0.41800000000E+01 0. -1.
        -11    1    1    2    0    0 -0.11493265107E+02 -0.36369406795E+02  0.93553736858E+02  0.10103034482E+03  0.00000000000E+00 0. -1.
         11    1    1    2    0    0 -0.27414577505E+00  0.36236653766E+02  0.11010797820E+02  0.37873577870E+02  0.00000000000E+00 0.  1.
</event>
<event>
 7    1  0.2644565E-009  0.1141447E+03  0.7561462E-02  0.1253081E+00
          2   -1    0    0  501    0  0.00000000000E+00  0.00000000000E+00  0.36593076143E+03  0.36593076143E+03  0.00000000000E+00 0. -1.
         -2   -1    0    0    0  501 -0.00000000000E+00 -0.00000000000E+00 -0.51306914145E+02  0.51306914145E+02  0.00000000000E+00 0.  1.
         25    2    1    2    0    0  0.66128315746E+02 -0.44869014193E+02  0.17629705230E+03  0.23046288620E+03  0.12508520572E+03 0.  0.
          5    1    3    3  502    0  0.10011310824E+03 -0.50976443052E+02  0.14649191525E+03  0.18465802399E+03  0.41800000000E+01 0.  1.
         -5    1    3    3    0  502 -0.33984792498E+02  0.61074288586E+01  0.29805137043E+02  0.45804862215E+02  0.41800000000E+01 0.  1.
        -11    1    1    2    0    0 -0.47357953301E+02  0.24259229941E+02  0.14799469937E+03  0.15726956800E+03  0.00000000000E+00 0. -1.
         11    1    1    2    0    0 -0.18770362445E+02  0.20609784252E+02 -0.96679043764E+01  0.29505221373E+02  0.00000000000E+00 0.  1.
</event>
<event>
 7    1  0.2644565E-009  0.1378595E+03  0.7561462E-02  0.1216238E+00
         -4   -1    0    0    0  501 -0.00000000000E+00  0.00000000000E+00  0.31483251460E+03  0.31483251460E+03  0.00000000000E+00 0.  1.
          4   -1    0    0  501    0  0.00000000000E+00 -0.00000000000E+00 -0.77106896415E+02  0.77106896415E+02  0.00000000000E+00 0. -1.
         25    2    1    2    0    0 -0.27864191668E+01 -0.94692824033E+02  0.21540553742E+03  0.26650046553E+03  0.12509379489E+03 0.  0.
          5    1    3    3  502    0  0.56220777652E+02 -0.76494138806E+02  0.12984414593E+03  0.16090091282E+03  0.41800000000E+01 0. -1.
         -5    1    3    3    0  502 -0.59007196819E+02 -0.18198685227E+02  0.85561391484E+02  0.10559955271E+03  0.41800000000E+01 0. -1.
        -11    1    1    2    0    0 -0.31955469646E+02  0.23763256695E+02  0.23896295420E+02  0.46442193573E+02  0.00000000000E+00 0.  1.
         11    1    1    2    0    0  0.34741888813E+02  0.70929567338E+02 -0.15762146496E+01  0.78996751919E+02  0.00000000000E+00 0. -1.
</event>
<event>
 7    1  0.2644565E-009  0.9864491E+02  0.7561462E-02  0.1283172E+00
          2   -1    0    0  501    0  0.00000000000E+00  0.00000000000E+00  0.18799650310E+02  0.18799650310E+02  0.00000000000E+00 0.  1.
         -2   -1    0    0    0  501 -0.00000000000E+00 -0.00000000000E+00 -0.76739602364E+03  0.76739602364E+03  0.00000000000E+00 0. -1.
         25    2    1    2    0    0 -0.51221226036E+02 -0.61457770891E+01 -0.44284690612E+03  0.46305681915E+03  0.12508737318E+03 0.  0.
          5    1    3    3  502    0 -0.23430991899E+02  0.35593581796E+02 -0.45282993045E+02  0.62321234789E+02  0.41800000000E+01 0. -1.
         -5    1    3    3    0  502 -0.27790234136E+02 -0.41739358885E+02 -0.39756391307E+03  0.40073558436E+03  0.41800000000E+01 0. -1.
        -11    1    1    2    0    0  0.41205317930E+02  0.46758580638E+02 -0.19693117188E+03  0.20655781163E+03  0.00000000000E+00 0.  1.
         11    1    1    2    0    0  0.10015908106E+02 -0.40612803549E+02 -0.10881829533E+03  0.11658104316E+03  0.00000000000E+00 0. -1.
</event>
<event>
 7    1  0.2644565E-009  0.1335508E+03  0.7561462E-02  0.1222280E+00
          1   -1    0    0  501    0  0.00000000000E+00  0.00000000000E+00  0.65105161890E+03  0.65105161890E+03  0.00000000000E+00 0. -1.
         -1   -1    0    0    0  501 -0.00000000000E+00 -0.00000000000E+00 -0.30725021065E+02  0.30725021065E+02  0.00000000000E+00 0.  1.
         25    2    1    2    0    0  0.85299268292E+02  0.60314948237E+01  0.42033520187E+03  0.44681321947E+03  0.12509207435E+03 0.  0.
          5    1    3    3  502    0  0.95079795749E+01  0.58171266416E+02  0.17924829103E+03  0.18873717214E+03  0.41800000000E+01 0.  1.
         -5    1    3    3    0  502  0.75791288717E+02 -0.52139771592E+02  0.24108691084E+03  0.25807604733E+03  0.41800000000E+01 0.  1.
        -11    1    1    2    0    0 -0.49641981340E+02 -0.42183054739E+02  0.71102808843E+02  0.96433115908E+02  0.00000000000E+00 0.  1.
         11    1    1    2    0    0 -0.35657286952E+02  0.36151559915E+02  0.12888858713E+03  0.13853030459E+03  0.00000000000E+00 0. -1.
</event>
<event>
 7    1  0.2644565E-009  0.1176411E+03  0.7561462E-02  0.1247040E+00
         -1   -1    0    0    0  501 -0.00000000000E+00  0.00000000000E+00  0.51532409090E+02  0.51532409090E+02  0.00000000000E+00 0.  1.
          1   -1    0    0  501    0  0.00000000000E+00 -0.00000000000E+00 -0.33785723487E+03  0.33785723487E+03  0.00000000000E+00 0. -1.
         25    2    1    2    0    0 -0.51372252139E+02  0.45772302913E+02 -0.13428201099E+03  0.19598826195E+03  0.12508208642E+03 0.  0.
          5    1    3    3  502    0 -0.59984919754E+02 -0.91861688921E+01 -0.12587834716E+02  0.62116843768E+02  0.41800000000E+01 0.  1.
         -5    1    3    3    0  502  0.86126676156E+01  0.54958471805E+02 -0.12169417628E+03  0.13387141818E+03  0.41800000000E+01 0.  1.
        -11    1    1    2    0    0 -0.67897827134E+01 -0.58696129911E+02 -0.64128179328E+02  0.87199542429E+02  0.00000000000E+00 0.  1.
         11    1    1    2    0    0  0.58162034852E+02  0.12923826998E+02 -0.87914635461E+02  0.10620183958E+03  0.00000000000E+00 0. -1.
</event>
<event>
 7    1  0.2644565E-009  0.1835778E+03  0.7561462E-02  0.1164385E+00
          2   -1    0    0  501    0  0.00000000000E+00  0.00000000000E+00  0.55416465522E+02  0.55416465522E+02  0.00000000000E+00 0.  1.
         -2   -1    0    0    0  501 -0.00000000000E+00 -0.00000000000E+00 -0.66810891747E+03  0.66810891747E+03  0.00000000000E+00 0. -1.
         25    2    1    2    0    0  0.15312305865E+03 -0.22289103985E+01 -0.39711823441E+03  0.44362529099E+03  0.12509543385E+03 0.  0.
          5    1    3    3  502    0  0.44886265149E+02  0.50904562087E+02 -0.84026348663E+02  0.10809232586E+03  0.41800000000E+01 0. -1.
         -5    1    3    3    0  502  0.10823679350E+03 -0.53133472485E+02 -0.31309188575E+03  0.33553296512E+03  0.41800000000E+01 0. -1.
        -11    1    1    2    0    0 -0.14956231143E+02  0.33643700011E+02 -0.45956296779E+02  0.58886064685E+02  0.00000000000E+00 0. -1.
         11    1    1    2    0    0 -0.13816682751E+03 -0.31414789613E+02 -0.16961792076E+03  0.22101402732E+03  0.00000000000E+00 0.  1.
</event>
<event>
 7    1  0.2644565E-009  0.1174004E+03  0.7561462E-02  0.1247448E+00
         -1   -1    0    0    0  501 -0.00000000000E+00  0.00000000000E+00  0.21193492805E+02  0.21193492805E+02  0.00000000000E+00 0.  1.
          1   -1    0    0  501    0  0.00000000000E+00 -0.00000000000E+00 -0.68078280623E+03  0.68078280623E+03  0.00000000000E+00 0. -1.
         25    2    1    2    0    0 -0.43439449316E+02 -0.22548456738E+02 -0.34024923712E+03  0.36579305555E+03  0.12505837625E+03 0.  0.
          5    1    3    3  502    0  0.36338969127E+02 -0.34837826074E+02 -0.16972636406E+03  0.17708389497E+03  0.41800000000E+01 0. -1.
         -5    1    3    3    0  502 -0.79778418443E+02  0.12289369336E+02 -0.17052287306E+03  0.18870916058E+03  0.41800000000E+01 0. -1.
        -11    1    1    2    0    0  0.71529483609E+02  0.84414484885E+01 -0.24750111611E+03  0.25776836027E+03  0.00000000000E+00 0.  1.
         11    1    1    2    0    0 -0.28090034294E+02  0.14107008250E+02 -0.71838960189E+02  0.78414883214E+02  0.00000000000E+00 0. -1.
</event>
<event>
 7    1  0.2644565E-009  0.1060509E+03  0.7561462E-02  0.1268063E+00
          1   -1    0    0  501    0  0.00000000000E+00  0.00000000000E+00  0.21510270701E+02  0.21510270701E+02  0.00000000000E+00 0. -1.
         -1   -1    0    0    0  501 -0.00000000000E+00 -0.00000000000E+00 -0.57853311958E+03  0.57853311958E+03  0.00000000000E+00 0.  1.
         25    2    1    2    0    0  0.65555552901E+01 -0.14621041019E+02 -0.37889330223E+03  0.39932969775E+03  0.12508925965E+03 0.  0.
          5    1    3    3  502    0  0.43928148943E+02 -0.51832348657E+02 -0.15531521847E+03  0.16957760503E+03  0.41800000000E+01 0.  1.
         -5    1    3    3    0  502 -0.37372593653E+02  0.37211307639E+02 -0.22357808376E+03  0.22975209272E+03  0.41800000000E+01 0.  1.
        -11    1    1    2    0    0 -0.18457874697E+02 -0.35284505074E+02 -0.95257421063E+02  0.10324565707E+03  0.00000000000E+00 0.  1.
         11    1    1    2    0    0  0.11902319407E+02  0.49905546093E+02 -0.82872125587E+02  0.97468035465E+02  0.00000000000E+00 0. -1.
</event>
<event>
 7    1  0.2644565E-009  0.1220884E+03  0.7561462E-02  0.1239691E+00
          1   -1    0    0  501    0  0.00000000000E+00  0.00000000000E+00  0.34543585124E+03  0.34543585124E+03  0.00000000000E+00 0. -1.
         -1   -1    0    0    0  501 -0.00000000000E+00 -0.00000000000E+00 -0.71834752860E+02  0.71834752860E+02  0.00000000000E+00 0.  1.
         25    2    1    2    0    0  0.72460496873E+02  0.77352305966E+02  0.87570057535E+02  0.18587779842E+03  0.12509251826E+03 0.  0.
          5    1    3    3  502    0  0.33719298043E+02  0.81239721755E+01  0.99583249756E+02  0.10553334078E+03  0.41800000000E+01 0. -1.
         -5    1    3    3    0  502  0.38741198830E+02  0.69228333790E+02 -0.12013192221E+02  0.80344457640E+02  0.41800000000E+01 0. -1.
        -11    1    1    2    0    0 -0.88323115244E+02 -0.66974234677E+02  0.18019661840E+03  0.21155931102E+03  0.00000000000E+00 0. -1.
         11    1    1    2    0    0  0.15862618371E+02 -0.10378071289E+02  0.58344224543E+01  0.19833494665E+02  0.00000000000E+00 0.  1.
</event>
<event>
 7    1  0.2644565E-009  0.9632061E+02  0.7561462E-02  0.1288229E+00
         -2   -1    0    0    0  501 -0.00000000000E+00  0.00000000000E+00  0.18213730372E+02  0.18213730372E+02  0.00000000000E+00 0.  1.
          2   -1    0    0  501    0  0.00000000000E+00 -0.00000000000E+00 -0.71286483392E+03  0.71286483392E+03  0.00000000000E+00 0. -1.
         25    2    1    2    0    0 -0.36982882818E+02 -0.39219441521E+01 -0.45118827870E+03  0.46968164801E+03  0.12508745888E+03 0.  0.
          5    1    3    3  502    0  0.19842776558E+02  0.29391563728E+02 -0.41662389219E+02  0.54871002136E+02  0.41800000000E+01 0. -1.
         -5    1    3    3    0  502 -0.56825659376E+02 -0.33313507880E+02 -0.40952588948E+03  0.41481064587E+03  0.41800000000E+01 0. -1.
        -11    1    1    2    0    0 -0.20901646190E+02  0.21943314879E+02 -0.12116442385E+03  0.12489677934E+03  0.00000000000E+00 0.  1.
         11    1    1    2    0    0  0.57884529008E+02 -0.18021370727E+02 -0.12229840099E+03  0.13650013695E+03  0.00000000000E+00 0. -1.
</event>
<event>
 7    1  0.2644565E-009  0.1514656E+03  0.7561462E-02  0.1198684E+00
         -1   -1    0    0    0  501 -0.00000000000E+00  0.00000000000E+00  0.11822211204E+03  0.11822211204E+03  0.00000000000E+00 0.  1.
          1   -1    0    0  501    0  0.00000000000E+00 -0.00000000000E+00 -0.24820101824E+03  0.24820101824E+03  0.00000000000E+00 0. -1.
         25    2    1    2    0    0 -0.12365520672E+03  0.23694400771E+02 -0.11660740577E+03  0.21235521677E+03  0.12508163828E+03 0.  0.
          5    1    3    3  502    0 -0.49252908739E+02 -0.43611697669E+02 -0.84002552566E+02  0.10677888570E+03  0.41800000000E+01 0. -1.
         -5    1    3    3    0  502 -0.74402297979E+02  0.67306098440E+02 -0.32604853199E+02  0.10557633108E+03  0.41800000000E+01 0. -1.
        -11    1    1    2    0    0  0.49716835928E+02  0.16570528108E+02  0.28915505968E+02  0.59853593559E+02  0.00000000000E+00 0. -1.
         11    1    1    2    0    0  0.73938370790E+02 -0.40264928879E+02 -0.42287006401E+02  0.94214319947E+02  0.00000000000E+00 0.  1.
</event>
<event>
 7    1  0.2644565E-009  0.1307084E+03  0.7561462E-02  0.1226408E+00
         -2   -1    0    0    0  501 -0.00000000000E+00  0.00000000000E+00  0.28410924505E+03  0.28410924505E+03  0.00000000000E+00 0.  1.
          2   -1    0    0  501    0  0.00000000000E+00 -0.00000000000E+00 -0.90712563746E+02  0.90712563746E+02  0.00000000000E+00 0. -1.
         25    2    1    2    0    0  0.14519864709E+02 -0.59213385130E+02  0.20947815969E+03  0.25148801940E+03  0.12509225822E+03 0.  0.
          5    1    3    3  502    0  0.83590190078E+01  0.39274549028E+02  0.58931515967E+02  0.71433601157E+02  0.41800000000E+01 0. -1.
         -5    1    3    3    0  502  0.61608457016E+01 -0.98487934158E+02  0.15054664372E+03  0.18005441825E+03  0.41800000000E+01 0. -1.
        -11    1    1    2    0    0  0.45562650573E+02  0.35188180059E+02 -0.70645833106E+01  0.58000616208E+02  0.00000000000E+00 0. -1.
         11    1    1    2    0    0 -0.60082515283E+02  0.24025205071E+02 -0.90168950752E+01  0.65333173183E+02  0.00000000000E+00 0.  1.
</event>
<event>
 7    1  0.2644565E-009  0.1078823E+03  0.7561462E-02  0.1264543E+00
         -4   -1    0    0    0  501 -0.00000000000E+00  0.00000000000E+00  0.15122239450E+03  0.15122239450E+03  0.00000000000E+00 0. -1.
          4   -1    0    0  501    0  0.00000000000E+00 -0.00000000000E+00 -0.82999516983E+02  0.82999516983E+02  0.00000000000E+00 0.  1.
         25    2    1    2    0    0 -0.16359859144E+02  0.10832113999E+02  0.16565664387E+02  0.12770000169E+03  0.12509152454E+03 0.  0.
          5    1    3    3  502    0 -0.20544657251E+02  0.66794753722E+02  0.13818997020E+02  0.71358665521E+02  0.41800000000E+01 0.  1.
         -5    1    3    3    0  502  0.41847981069E+01 -0.55962639723E+02  0.27466673670E+01  0.56341336172E+02  0.41800000000E+01 0.  1.
        -11    1    1    2    0    0  0.33180215421E+02  0.30369042751E+02  0.11142388051E+02  0.46339597155E+02  0.00000000000E+00 0.  1.
         11    1    1    2    0    0 -0.16820356277E+02 -0.41201156750E+02  0.40514825079E+02  0.60182312635E+02  0.00000000000E+00 0. -1.
</event>
<event>
 7    1  0.2647081E-009  0.1189138E+03  0.7561462E-02  0.1244900E+00
         -4   -1    0    0    0  501 -0.00000000000E+00  0.00000000000E+00  0.20114402161E+03  0.20114402161E+03  0.00000000000E+00 0.  1.
          4   -1    0    0  501    0  0.00000000000E+00 -0.00000000000E+00 -0.91406803753E+02  0.91406803753E+02  0.00000000000E+00 0. -1.
         25    2    1    2    0    0  0.76155220127E+02  0.16293469393E+02  0.85115394514E+02  0.17016803279E+03  0.12508970502E+03 0.  0.
          5    1    3    3  502    0  0.62086587640E+02  0.64365167846E+02  0.27381466258E+02  0.93620704393E+02  0.41800000000E+01 0. -1.
         -5    1    3    3    0  502  0.14068632486E+02 -0.48071698453E+02  0.57733928257E+02  0.76547328393E+02  0.41800000000E+01 0. -1.
        -11    1    1    2    0    0 -0.23209596813E+02 -0.34904805231E+02  0.46085529287E+02  0.62296924660E+02  0.00000000000E+00 0.  1.
         11    1    1    2    0    0 -0.52945623314E+02  0.18611335839E+02 -0.21463705947E+02  0.60085867912E+02  0.00000000000E+00 0. -1.
</event>
<event>
 7    1  0.2644565E-009  0.9845574E+02  0.7561462E-02  0.1283577E+00
          2   -1    0    0  501    0  0.00000000000E+00  0.00000000000E+00  0.16835863486E+03  0.16835863486E+03  0.00000000000E+00 0. -1.
         -2   -1    0    0    0  501 -0.00000000000E+00 -0.00000000000E+00 -0.83660961263E+02  0.83660961263E+02  0.00000000000E+00 0.  1.
         25    2    1    2    0    0 -0.19367787087E+02  0.26498971325E+02  0.85589440523E+02  0.15508204932E+03  0.12509029952E+03 0.  0.
          5    1    3    3  502    0 -0.71561639353E+02  0.26823437493E+02  0.56938613085E+02  0.95394145973E+02  0.41800000000E+01 0. -1.
         -5    1    3    3    0  502  0.52193852266E+02 -0.32446616768E+00  0.28650827438E+02  0.59687903344E+02  0.41800000000E+01 0. -1.
        -11    1    1    2    0    0 -0.18879624047E+02 -0.22775957842E+02  0.33974465186E+02  0.45049403375E+02  0.00000000000E+00 0. -1.
         11    1    1    2    0    0  0.38247411134E+02 -0.37230134833E+01 -0.34866232108E+02  0.51888143436E+02  0.00000000000E+00 0.  1.
</event>
<event>
 7    1  0.2644565E-009  0.1232206E+03  0.7561462E-02  0.1237877E+00
         -1   -1    0    0    0  501 -0.00000000000E+00  0.00000000000E+00  0.59557360218E+02  0.59557360218E+02  0.00000000000E+00 0.  1.
          1   -1    0    0  501    0  0.00000000000E+00 -0.00000000000E+00 -0.27859389045E+03  0.27859389045E+03  0.00000000000E+00 0. -1.
         25    2    1    2    0    0 -0.62099241835E+02  0.52262265075E+01 -0.74757098650E+02  0.15849182025E+03  0.12508958393E+03 0.  0.
          5    1    3    3  502    0 -0.65257083258E+02 -0.51136943340E+02 -0.41006399796E+02  0.92587640178E+02  0.41800000000E+01 0. -1.
         -5    1    3    3    0  502  0.31578414227E+01  0.56363169847E+02 -0.33750698853E+02  0.65904180071E+02  0.41800000000E+01 0. -1.
        -11    1    1    2    0    0 -0.13525303992E+02  0.22520028591E+02 -0.30539561642E+02  0.40283375741E+02  0.00000000000E+00 0.  1.
         11    1    1    2    0    0  0.75624545827E+02 -0.27746255098E+02 -0.11373986994E+03  0.13937605468E+03  0.00000000000E+00 0. -1.
</event>
<event>
 7    1  0.2644565E-009  0.9267893E+02  0.7561462E-02  0.1296491E+00
          1   -1    0    0  501    0  0.00000000000E+00  0.00000000000E+00  0.29632665912E+03  0.29632665912E+03  0.00000000000E+00 0. -1.
         -1   -1    0    0    0  501 -0.00000000000E+00 -0.00000000000E+00 -0.61441083295E+02  0.61441083295E+02  0.00000000000E+00 0.  1.
         25    2    1    2    0    0 -0.23500167715E+02  0.67063576550E+02  0.80454914917E+02  0.16482504868E+03  0.12507806425E+03 0.  0.
          5    1    3    3  502    0  0.26280916523E+02 -0.22684844972E+01 -0.19685791236E+02  0.33178839217E+02  0.41800000000E+01 0.  1.
         -5    1    3    3    0  502 -0.49781084238E+02  0.69332061047E+02  0.10014070615E+03  0.13164620946E+03  0.41800000000E+01 0.  1.
        -11    1    1    2    0    0  0.53721155492E+00 -0.27089992968E+02  0.14286849309E+03  0.14541513894E+03  0.00000000000E+00 0. -1.
         11    1    1    2    0    0  0.22962956160E+02 -0.39973583582E+02  0.11562167818E+02  0.47527554793E+02  0.00000000000E+00 0.  1.
</event>
<event>
 7    1  0.2644565E-009  0.1347511E+03  0.7561462E-02  0.1220571E+00
         -1   -1    0    0    0  501 -0.00000000000E+00  0.00000000000E+00  0.13535167036E+03  0.13535167036E+03  0.00000000000E+00 0.  1.
          1   -1    0    0  501    0  0.00000000000E+00 -0.00000000000E+00 -0.18715089319E+03  0.18715089319E+03  0.00000000000E+00 0. -1.
         25    2    1    2    0    0 -0.11928214113E+02  0.87248983963E+02  0.48482317051E+02  0.16047523123E+03  0.12508835788E+03 0.  0.
          5    1    3    3  502    0  0.17932920803E+02  0.11207578103E+03  0.31354533621E+02  0.11782677761E+03  0.41800000000E+01 0. -1.
         -5    1    3    3    0  502 -0.29861134916E+02 -0.24826797068E+02  0.17127783430E+02  0.42648453622E+02  0.41800000000E+01 0. -1.
        -11    1    1    2    0    0 -0.19971880870E+02 -0.82172067029E+02 -0.98294516968E+02  0.12966470873E+03  0.00000000000E+00 0. -1.
         11    1    1    2    0    0  0.31900094983E+02 -0.50769169341E+01 -0.19870229070E+01  0.32362623588E+02  0.00000000000E+00 0.  1.
</event>
<event>
 7    1  0.2644565E-009  0.1086358E+03  0.7561462E-02  0.1263117E+00
          2   -1    0    0  501    0  0.00000000000E+00  0.00000000000E+00  0.97626955991E+03  0.97626955991E+03  0.00000000000E+00 0. -1.
         -2   -1    0    0    0  501 -0.00000000000E+00 -0.00000000000E+00 -0.16061710306E+02  0.16061710306E+02  0.00000000000E+00 0.  1.
         25    2    1    2    0    0 -0.45661396513E+02  0.29019631505E+02  0.41420284600E+03  0.43604858944E+03  0.12508905855E+03 0.  0.
          5    1    3    3  502    0 -0.65424586791E+02  0.49440752684E+02  0.38981081988E+03  0.39836504902E+03  0.41800000000E+01 0.  1.
         -5    1    3    3    0  502  0.19763190278E+02 -0.20421121179E+02  0.24392026120E+02  0.37683540418E+02  0.41800000000E+01 0.  1.
        -11    1    1    2    0    0 -0.16176510234E+02 -0.40437561160E+02  0.22474521602E+03  0.22892638110E+03  0.00000000000E+00 0. -1.
         11    1    1    2    0    0  0.61837906747E+02  0.11417929655E+02  0.32125978758E+03  0.32735629969E+03  0.00000000000E+00 0.  1.
</event>
<event>
 7    1  0.2644565E-009  0.1938767E+03  0.7561462E-02  0.1155011E+00
          1   -1    0    0  501    0  0.00000000000E+00  0.00000000000E+00  0.54850189967E+02  0.54850189967E+02  0.00000000000E+00 0. -1.
         -1   -1    0    0    0  501 -0.00000000000E+00 -0.00000000000E+00 -0.78740760611E+03  0.78740760611E+03  0.00000000000E+00 0.  1.
         25    2    1    2    0    0 -0.14078988163E+03  0.92656854559E+02 -0.27102140856E+03  0.34279289252E+03  0.12508908745E+03 0.  0.
          5    1    3    3  502    0 -0.28811760133E+02  0.93127069705E+02 -0.11762149831E+03  0.15282361695E+03  0.41800000000E+01 0. -1.
         -5    1    3    3    0  502 -0.11197812149E+03 -0.47021514585E+00 -0.15339991025E+03  0.18996927556E+03  0.41800000000E+01 0. -1.
        -11    1    1    2    0    0  0.68068058243E+02 -0.78740432473E+02 -0.17588747650E+03  0.20437641901E+03  0.00000000000E+00 0. -1.
         11    1    1    2    0    0  0.72721823383E+02 -0.13916422086E+02 -0.28564853109E+03  0.29508848455E+03  0.00000000000E+00 0.  1.
</event>
<event>
 7    1  0.2644565E-009  0.3278980E+02  0.7561462E-02  0.1569152E+00
         -2   -1    0    0    0  501 -0.00000000000E+00  0.00000000000E+00  0.40406620745E+02  0.40406620745E+02  0.00000000000E+00 0.  1.
          2   -1    0    0  501    0  0.00000000000E+00 -0.00000000000E+00 -0.31224830452E+03  0.31224830452E+03  0.00000000000E+00 0. -1.
         25    2    1    2    0    0  0.33194939183E+01 -0.10710016756E+02 -0.20840376302E+03  0.24332245345E+03  0.12509182393E+03 0.  0.
          5    1    3    3  502    0  0.61399729124E+01  0.61672635964E+01  0.15752264219E+02  0.18475406238E+02  0.41800000000E+01 0.  1.
         -5    1    3    3    0  502 -0.28204789941E+01 -0.16877280353E+02 -0.22415602723E+03  0.22484704721E+03  0.41800000000E+01 0.  1.
        -11    1    1    2    0    0  0.54361730997E+01  0.22768669795E+02 -0.82145069017E+02  0.85415318685E+02  0.00000000000E+00 0. -1.
         11    1    1    2    0    0 -0.87556670180E+01 -0.12058653039E+02  0.18707148257E+02  0.23917153132E+02  0.00000000000E+00 0.  1.
</event>
<event>
 7    1  0.2644565E-009  0.1830843E+03  0.7561462E-02  0.1164851E+00
         -2   -1    0    0    0  501 -0.00000000000E+00  0.00000000000E+00  0.35038525174E+02  0.35038525174E+02  0.00000000000E+00 0.  1.
          2   -1    0    0  501    0  0.00000000000E+00 -0.00000000000E+00 -0.14333823587E+04  0.14333823587E+04  0.00000000000E+00 0. -1.
         25    2    1    2    0    0 -0.13896577310E+03 -0.11348296500E+03 -0.98077443628E+03  0.10048735157E+04  0.12514958386E+03 0.  0.
          5    1    3    3  502    0 -0.57055614635E+02 -0.72567651485E+02 -0.22029600326E+03  0.23889162533E+03  0.41800000000E+01 0.  1.
         -5    1    3    3    0  502 -0.81910158463E+02 -0.40915313512E+02 -0.76047843302E+03  0.76598189040E+03  0.41800000000E+01 0.  1.
        -11    1    1    2    0    0  0.12671345891E+03  0.89368831865E+02 -0.40510317096E+03  0.43376453048E+03  0.00000000000E+00 0. -1.
         11    1    1    2    0    0  0.12252314187E+02  0.24114133131E+02 -0.12466226246E+02  0.29782837615E+02  0.00000000000E+00 0.  1.
</event>
<event>
 7    1  0.2644565E-009  0.1073590E+03  0.7561462E-02  0.1265540E+00
         -2   -1    0    0    0  501 -0.00000000000E+00  0.00000000000E+00  0.25838339680E+02  0.25838339680E+02  0.00000000000E+00 0.  1.
          2   -1    0    0  501    0  0.00000000000E+00 -0.00000000000E+00 -0.79213390333E+03  0.79213390333E+03  0.00000000000E+00 0. -1.
         25    2    1    2    0    0 -0.52356333319E+02  0.59153863014E+02 -0.54599202887E+03  0.56568110034E+03  0.12508975394E+03 0.  0.
          5    1    3    3  502    0  0.20132922699E+02  0.16966504002E+02 -0.20786813030E+02  0.33804745679E+02  0.41800000000E+01 0. -1.
         -5    1    3    3    0  502 -0.72489256018E+02  0.42187359013E+02 -0.52520521584E+03  0.53187635466E+03  0.41800000000E+01 0. -1.
        -11    1    1    2    0    0  0.12941545955E+02  0.15179316519E+02 -0.41972623629E+01  0.20384118157E+02  0.00000000000E+00 0.  1.
         11    1    1    2    0    0  0.39414787364E+02 -0.74333179534E+02 -0.21610627242E+03  0.23190702452E+03  0.00000000000E+00 0. -1.
</event>
<event>
 7    1  0.2644565E-009  0.8346071E+02  0.7561462E-02  0.1319508E+00
         -2   -1    0    0    0  501 -0.00000000000E+00  0.00000000000E+00  0.29167295752E+02  0.29167295752E+02  0.00000000000E+00 0.  1.
          2   -1    0    0  501    0  0.00000000000E+00 -0.00000000000E+00 -0.42835085471E+03  0.42835085471E+03  0.00000000000E+00 0. -1.
         25    2    1    2    0    0 -0.16928048249E+02  0.29351669992E+01 -0.18284719297E+03  0.22220611217E+03  0.12508911338E+03 0.  0.
          5    1    3    3  502    0  0.36072133487E+02  0.19108446983E+02 -0.15443516738E+03  0.15979369476E+03  0.41800000000E+01 0.  1.
         -5    1    3    3    0  502 -0.53000181736E+02 -0.16173279984E+02 -0.28412025591E+02  0.62412417415E+02  0.41800000000E+01 0.  1.
        -11    1    1    2    0    0 -0.25272436897E+02 -0.10636270782E+02 -0.18980696752E+02  0.33348060994E+02  0.00000000000E+00 0.  1.
         11    1    1    2    0    0  0.42200485146E+02  0.77011037831E+01 -0.19735566923E+03  0.20196397729E+03  0.00000000000E+00 0. -1.
</event>
<event>
 7    1  0.2644565E-009  0.1857028E+03  0.7561462E-02  0.1162395E+00
         -1   -1    0    0    0  501 -0.00000000000E+00  0.00000000000E+00  0.42557088351E+02  0.42557088351E+02  0.00000000000E+00 0.  1.
          1   -1    0    0  501    0  0.00000000000E+00 -0.00000000000E+00 -0.99571549434E+03  0.99571549434E+03  0.00000000000E+00 0. -1.
         25    2    1    2    0    0  0.11188516497E+03 -0.13319221887E+03 -0.53878705695E+03  0.57982454843E+03  0.12508619797E+03 0.  0.
          5    1    3    3  502    0  0.94540837503E+02 -0.12474347840E+03 -0.53772286876E+03  0.56005558773E+03  0.41800000000E+01 0.  1.
         -5    1    3    3    0  502  0.17344327464E+02 -0.84487404679E+01 -0.10641881857E+01  0.19768960701E+02  0.41800000000E+01 0.  1.
        -11    1    1    2    0    0 -0.40201513967E+02 -0.38956384407E+01 -0.67821717009E+02  0.78937462730E+02  0.00000000000E+00 0. -1.
         11    1    1    2    0    0 -0.71683651001E+02  0.13708785731E+03 -0.34654963203E+03  0.37951057153E+03  0.00000000000E+00 0.  1.
</event>
<event>
 7    1  0.2644565E-009  0.1000617E+03  0.7561462E-02  0.1280166E+00
         -2   -1    0    0    0  501 -0.00000000000E+00  0.00000000000E+00  0.36276913538E+02  0.36276913538E+02  0.00000000000E+00 0.  1.
          2   -1    0    0  501    0  0.00000000000E+00 -0.00000000000E+00 -0.45771956199E+03  0.45771956199E+03  0.00000000000E+00 0. -1.
         25    2    1    2    0    0 -0.11246749911E+01 -0.64889672938E+02 -0.28590444507E+03  0.31874817236E+03  0.12508841322E+03 0.  0.
          5    1    3    3  502    0 -0.37761313685E+02  0.81261476780E+01 -0.27217038552E+02  0.47436174749E+02  0.41800000000E+01 0. -1.
         -5    1    3    3    0  502  0.36636638694E+02 -0.73015820616E+02 -0.25868740652E+03  0.27131199761E+03  0.41800000000E+01 0. -1.
        -11    1    1    2    0    0 -0.18896026487E+02  0.10726085026E+02 -0.10996944562E+03  0.11209544008E+03  0.00000000000E+00 0. -1.
         11    1    1    2    0    0  0.20020701478E+02  0.54163587912E+02 -0.25568757766E+02  0.63152863094E+02  0.00000000000E+00 0.  1.
</event>
<event>
 7    1  0.2644565E-009  0.1065749E+03  0.7561462E-02  0.1267047E+00
          2   -1    0    0  501    0  0.00000000000E+00  0.00000000000E+00  0.11722733944E+03  0.11722733944E+03  0.00000000000E+00 0.  1.
         -2   -1    0    0    0  501 -0.00000000000E+00 -0.00000000000E+00 -0.15979588693E+03  0.15979588693E+03  0.00000000000E+00 0. -1.
         25    2    1    2    0    0 -0.59305499327E+02 -0.37344549462E+02  0.22303209696E+02  0.14510525413E+03  0.12508534682E+03 0.  0.
          5    1    3    3  502    0  0.26565991984E+02  0.88306245059E+01 -0.23979778928E+02  0.37097628721E+02  0.41800000000E+01 0.  1.
         -5    1    3    3    0  502 -0.85871491311E+02 -0.46175173968E+02  0.46282988624E+02  0.10800762541E+03  0.41800000000E+01 0.  1.
        -11    1    1    2    0    0  0.93685636824E+01  0.36107729728E+02 -0.72358129860E+02  0.81407844145E+02  0.00000000000E+00 0. -1.
         11    1    1    2    0    0  0.49936935645E+02  0.12368197348E+01  0.74863726734E+01  0.50510128098E+02  0.00000000000E+00 0.  1.
</event>
<event>
 7    1  0.2644565E-009  0.9598290E+02  0.7561462E-02  0.1288978E+00
         -1   -1    0    0    0  501 -0.00000000000E+00  0.00000000000E+00  0.25441523000E+02  0.25441523000E+02  0.00000000000E+00 0.  1.
          1   -1    0    0  501    0  0.00000000000E+00 -0.00000000000E+00 -0.14938407867E+04  0.14938407867E+04  0.00000000000E+00 0. -1.
         25    2    1    2    0    0  0.13003099372E+02 -0.44607488406E+02 -0.13756954788E+04  0.13821522366E+04  0.12509135124E+03 0.  0.
          5    1    3    3  502    0  0.48901988157E+02 -0.52679664448E+01 -0.11122603669E+04  0.11133551779E+04  0.41800000000E+01 0. -1.
         -5    1    3    3    0  502 -0.35898888784E+02 -0.39339521961E+02 -0.26343511190E+03  0.26879705874E+03  0.41800000000E+01 0. -1.
        -11    1    1    2    0    0 -0.80721754717E+01  0.66374766724E+02 -0.93321479962E+02  0.11480273645E+03  0.00000000000E+00 0. -1.
         11    1    1    2    0    0 -0.49309239004E+01 -0.21767278318E+02  0.61769502689E+00  0.22327336675E+02  0.00000000000E+00 0.  1.
</event>
<event>
 7    1  0.2644565E-009  0.1037399E+03  0.7561462E-02  0.1272622E+00
         -1   -1    0    0    0  501 -0.00000000000E+00  0.00000000000E+00  0.91201333434E+02  0.91201333434E+02  0.00000000000E+00 0.  1.
          1   -1    0    0  501    0  0.00000000000E+00 -0.00000000000E+00 -0.20883317330E+03  0.20883317330E+03  0.00000000000E+00 0. -1.
         25    2    1    2    0    0 -0.67345643983E+02  0.35646438304E+02 -0.11061636933E+03  0.18354582368E+03  0.12508790468E+03 0.  0.
          5    1    3    3  502    0 -0.43145214341E+02  0.67066649626E+02 -0.16797730400E+02  0.81603193315E+02  0.41800000000E+01 0. -1.
         -5    1    3    3    0  502 -0.24200429642E+02 -0.31420211322E+02 -0.93818638930E+02  0.10194263036E+03  0.41800000000E+01 0. -1.
        -11    1    1    2    0    0  0.69810145064E+02 -0.21011175977E+02 -0.37941640928E+02  0.82185728604E+02  0.00000000000E+00 0. -1.
         11    1    1    2    0    0 -0.24645010813E+01 -0.14635262327E+02  0.30926170393E+02  0.34302954452E+02  0.00000000000E+00 0.  1.
</event>
<event>
 7    1  0.2644565E-009  0.8420800E+02  0.7561462E-02  0.1317517E+00
         -3   -1    0    0    0  501 -0.00000000000E+00  0.00000000000E+00  0.18585866451E+03  0.18585866451E+03  0.00000000000E+00 0.  1.
          3   -1    0    0  501    0  0.00000000000E+00 -0.00000000000E+00 -0.66975083089E+02  0.66975083089E+02  0.00000000000E+00 0. -1.
         25    2    1    2    0    0  0.11977531860E+01 -0.20318762735E+02  0.85941974512E+02  0.15313278642E+03  0.12509732436E+03 0.  0.
          5    1    3    3  502    0  0.16446768063E+02  0.26839793593E+02  0.97097864918E+02  0.10215839893E+03  0.41800000000E+01 0. -1.
         -5    1    3    3    0  502 -0.15249014877E+02 -0.47158556329E+02 -0.11155890406E+02  0.50974387495E+02  0.41800000000E+01 0. -1.
        -11    1    1    2    0    0 -0.23460303275E+02 -0.26311005246E+02  0.32620033565E+02  0.48028339723E+02  0.00000000000E+00 0.  1.
         11    1    1    2    0    0  0.22262550089E+02  0.46629767981E+02  0.32157334355E+00  0.51672621453E+02  0.00000000000E+00 0. -1.
</event>
<event>
 7    1  0.2644565E-009  0.1029906E+03  0.7561462E-02  0.1274130E+00
         -1   -1    0    0    0  501 -0.00000000000E+00  0.00000000000E+00  0.31884900041E+03  0.31884900041E+03  0.00000000000E+00 0.  1.
          1   -1    0    0  501    0  0.00000000000E+00 -0.00000000000E+00 -0.61773622561E+02  0.61773622561E+02  0.00000000000E+00 0. -1.
         25    2    1    2    0    0 -0.84321894325E+02  0.13270479328E+02  0.15341719425E+03  0.21557090482E+03  0.12509073518E+03 0.  0.
          5    1    3    3  502    0 -0.63142918262E+02 -0.18798101843E+02  0.16289954027E+03  0.17576725912E+03  0.41800000000E+01 0.  1.
         -5    1    3    3    0  502 -0.21178976063E+02  0.32068581171E+02 -0.94823460107E+01  0.39803645703E+02  0.41800000000E+01 0.  1.
        -11    1    1    2    0    0  0.46863589090E+02 -0.34555408101E+02  0.62741378765E+01  0.58563102867E+02  0.00000000000E+00 0. -1.
         11    1    1    2    0    0  0.37458305236E+02  0.21284928773E+02  0.97384045717E+02  0.10648861528E+03  0.00000000000E+00 0.  1.
</event>
<event>
 7    1  0.3163821E-009  0.1166816E+03  0.7561462E-02  0.1248674E+00
         -2   -1    0    0    0  501 -0.00000000000E+00  0.00000000000E+00  0.78935286597E+02  0.78935286597E+02  0.00000000000E+00 0.  1.
          2   -1    0    0  501    0  0.00000000000E+00 -0.00000000000E+00 -0.25703525500E+03  0.25703525500E+03  0.00000000000E+00 0. -1.
         25    2    1    2    0    0 -0.12356059491E+02 -0.91285297960E+02 -0.90692615024E+02  0.17988690194E+03  0.12509384174E+03 0.  0.
          5    1    3    3  502    0 -0.30782366381E+02 -0.54627144094E+02  0.16552346929E+02  0.64985625647E+02  0.41800000000E+01 0.  1.
         -5    1    3    3    0  502  0.18426306890E+02 -0.36658153866E+02 -0.10724496195E+03  0.11490127630E+03  0.41800000000E+01 0.  1.
        -11    1    1    2    0    0  0.51802596489E+02  0.56918596189E+02 -0.53785835707E+02  0.93894364675E+02  0.00000000000E+00 0. -1.
         11    1    1    2    0    0 -0.39446536997E+02  0.34366701772E+02 -0.33621517671E+02  0.62189274978E+02  0.00000000000E+00 0.  1.
</event>
<event>
 7    1  0.2644565E-009  0.1789736E+03  0.7561462E-02  0.1168800E+00
          1   -1    0    0  501    0  0.00000000000E+00  0.00000000000E+00  0.17821353319E+04  0.17821353319E+04  0.00000000000E+00 0. -1.
         -1   -1    0    0    0  501 -0.00000000000E+00 -0.00000000000E+00 -0.26178449433E+02  0.26178449433E+02  0.00000000000E+00 0.  1.
         25    2    1    2    0    0  0.72364559846E+01 -0.14837395824E+03  0.13791449132E+04  0.13927510315E+04  0.12509015331E+03 0.  0.
          5    1    3    3  502    0  0.29454809035E+02 -0.15621751586E+03  0.97370208960E+03  0.98660261997E+03  0.41800000000E+01 0.  1.
         -5    1    3    3    0  502 -0.22218353050E+02  0.78435576231E+01  0.40544282355E+03  0.40614841152E+03  0.41800000000E+01 0.  1.
        -11    1    1    2    0    0 -0.49956221682E+02  0.84014283831E+02  0.19969003311E+03  0.22232888543E+03  0.00000000000E+00 0.  1.
         11    1    1    2    0    0  0.42719765698E+02  0.64359674409E+02  0.17712193617E+03  0.19323386438E+03  0.00000000000E+00 0. -1.
</event>
<event>
 7    1  0.2644565E-009  0.1409154E+03  0.7561462E-02  0.1212103E+00
          1   -1    0    0  501    0  0.00000000000E+00  0.00000000000E+00  0.53334191433E+03  0.53334191433E+03  0.00000000000E+00 0. -1.
         -1   -1    0    0    0  501 -0.00000000000E+00 -0.00000000000E+00 -0.47699634874E+02  0.47699634874E+02  0.00000000000E+00 0.  1.
         25    2    1    2    0    0  0.54186131872E+02  0.90048023730E+02  0.35236307865E+03  0.38839688991E+03  0.12509045300E+03 0.  0.
          5    1    3    3  502    0  0.10851155430E+02  0.10593551718E+03  0.17340965754E+03  0.20353983173E+03  0.41800000000E+01 0. -1.
         -5    1    3    3    0  502  0.43334976441E+02 -0.15887493446E+02  0.17895342110E+03  0.18485705817E+03  0.41800000000E+01 0. -1.
        -11    1    1    2    0    0 -0.44561791258E+02 -0.10332003086E+03  0.83169370739E+02  0.13992114296E+03  0.00000000000E+00 0.  1.
         11    1    1    2    0    0 -0.96243406136E+01  0.13272007131E+02  0.50109830076E+02  0.52723516345E+02  0.00000000000E+00 0. -1.
</event>
<event>
 7    1  0.2644565E-009  0.7619124E+02  0.7561462E-02  0.1340221E+00
          2   -1    0    0  501    0  0.00000000000E+00  0.00000000000E+00  0.12116713440E+03  0.12116713440E+03  0.00000000000E+00 0. -1.
         -2   -1    0    0    0  501 -0.00000000000E+00 -0.00000000000E+00 -0.12913621731E+03  0.12913621731E+03  0.00000000000E+00 0.  1.
         25    2    1    2    0    0  0.46595052038E+02  0.23169775615E+02 -0.52744128095E+02  0.14538810938E+03  0.12509125439E+03 0.  0.
          5    1    3    3  502    0  0.36573338584E+01 -0.51455257392E+01  0.39215284090E+02  0.39939497147E+02  0.41800000000E+01 0. -1.
         -5    1    3    3    0  502  0.42937718179E+02  0.28315301354E+02 -0.91959412186E+02  0.10544861224E+03  0.41800000000E+01 0. -1.
        -11    1    1    2    0    0 -0.32711985556E+02  0.26207978366E+02  0.10454878277E+02  0.43199960750E+02  0.00000000000E+00 0. -1.
         11    1    1    2    0    0 -0.13883066481E+02 -0.49377753980E+02  0.34320166908E+02  0.61715281573E+02  0.00000000000E+00 0.  1.
</event>
<event>
 7    1  0.2644565E-009  0.9460988E+02  0.7561462E-02  0.1292057E+00
         -1   -1    0    0    0  501 -0.00000000000E+00  0.00000000000E+00  0.18884280652E+02  0.18884280652E+02  0.00000000000E+00 0.  1.
          1   -1    0    0  501    0  0.00000000000E+00 -0.00000000000E+00 -0.10912088030E+04  0.10912088030E+04  0.00000000000E+00 0. -1.
         25    2    1    2    0    0  0.10859173583E+02 -0.21881856719E+02 -0.93358176488E+03  0.94224080232E+03  0.12508429369E+03 0.  0.
          5    1    3    3  502    0 -0.18077429424E+02  0.43161073700E+02 -0.55618673958E+03  0.55816738835E+03  0.41800000000E+01 0.  1.
         -5    1    3    3    0  502  0.28936603007E+02 -0.65042930419E+02 -0.37739502531E+03  0.38407341397E+03  0.41800000000E+01 0.  1.
        -11    1    1    2    0    0 -0.29543840619E+02  0.36675957889E+02 -0.28466293124E+02  0.55029939576E+02  0.00000000000E+00 0.  1.
         11    1    1    2    0    0  0.18684667036E+02 -0.14794101169E+02 -0.11027646431E+03  0.11282234173E+03  0.00000000000E+00 0. -1.
</event>
<event>
 7    1  0.2644565E-009  0.1344972E+03  0.7561462E-02  0.1220931E+00
          2   -1    0    0  501    0  0.00000000000E+00  0.00000000000E+00  0.22719441073E+02  0.22719441073E+02  0.00000000000E+00 0. -1.
         -2   -1    0    0    0  501 -0.00000000000E+00 -0.00000000000E+00 -0.95752493434E+03  0.95752493434E+03  0.00000000000E+00 0.  1.
         25    2    1    2    0    0  0.36915272109E+02 -0.85152444383E+02 -0.64168229815E+03  0.66031281549E+03  0.12507264463E+03 0.  0.
          5    1    3    3  502    0 -0.45646162404E+02 -0.40912870297E+02 -0.22748758830E+03  0.23563851622E+03  0.41800000000E+01 0.  1.
         -5    1    3    3    0  502  0.82561434513E+02 -0.44239574085E+02 -0.41419470986E+03  0.42467429927E+03  0.41800000000E+01 0.  1.
        -11    1    1    2    0    0  0.18479349040E+02  0.32400624518E+02 -0.17693317292E+03  0.18082210730E+03  0.00000000000E+00 0.  1.
         11    1    1    2    0    0 -0.55394621149E+02  0.52751819864E+02 -0.11619002220E+03  0.13910945262E+03  0.00000000000E+00 0. -1.
</event>
<event>
 7    1  0.2644565E-009  0.1716909E+03  0.7561462E-02  0.1176096E+00
         -2   -1    0    0    0  501 -0.00000000000E+00  0.00000000000E+00  0.37666165510E+02  0.37666165510E+02  0.00000000000E+00 0.  1.
          2   -1    0    0  501    0  0.00000000000E+00 -0.00000000000E+00 -0.10971142276E+04  0.10971142276E+04  0.00000000000E+00 0. -1.
         25    2    1    2    0    0  0.11849873277E+03  0.11339621817E+03 -0.41102069097E+03  0.45987535607E+03  0.12508670093E+03 0.  0.
          5    1    3    3  502    0  0.21240256366E+02  0.68316104681E+02 -0.28738052804E+03  0.29618115900E+03  0.41800000000E+01 0. -1.
         -5    1    3    3    0  502  0.97258476406E+02  0.45080113485E+02 -0.12364016293E+03  0.16369419707E+03  0.41800000000E+01 0. -1.
        -11    1    1    2    0    0 -0.10714588510E+03 -0.97240517848E+02 -0.63438113133E+03  0.65067301987E+03  0.00000000000E+00 0. -1.
         11    1    1    2    0    0 -0.11352847674E+02 -0.16155700319E+02 -0.14046239752E+02  0.24232017132E+02  0.00000000000E+00 0.  1.
</event>
<event>
 7    1  0.2644565E-009  0.2310793E+03  0.7561462E-02  0.1125882E+00
          1   -1    0    0  501    0  0.00000000000E+00  0.00000000000E+00  0.11824642507E+04  0.11824642507E+04  0.00000000000E+00 0. -1.
         -1   -1    0    0    0  501 -0.00000000000E+00 -0.00000000000E+00 -0.54479789277E+02  0.54479789277E+02  0.00000000000E+00 0.  1.
         25    2    1    2    0    0 -0.10311903064E+02  0.21107270403E+03  0.36345375037E+03  0.43863989338E+03  0.12509318796E+03 0.  0.
          5    1    3    3  502    0 -0.30669022115E+02  0.21586852432E+03  0.35289844598E+03  0.41484285493E+03  0.41800000000E+01 0.  1.
         -5    1    3    3    0  502  0.20357119051E+02 -0.47958202927E+01  0.10555304398E+02  0.23797038456E+02  0.41800000000E+01 0.  1.
        -11    1    1    2    0    0 -0.11852004351E+02 -0.19503914198E+03  0.71999058050E+03  0.74603429742E+03  0.00000000000E+00 0. -1.
         11    1    1    2    0    0  0.22163907415E+02 -0.16033562047E+02  0.44540130533E+02  0.52269849165E+02  0.00000000000E+00 0.  1.
</event>
<event>
 7    1  0.2644565E-009  0.1559515E+03  0.7561462E-02  0.1193345E+00
          2   -1    0    0  501    0  0.00000000000E+00  0.00000000000E+00  0.16876222124E+03  0.16876222124E+03  0.00000000000E+00 0. -1.
         -2   -1    0    0    0  501 -0.00000000000E+00 -0.00000000000E+00 -0.16184277922E+03  0.16184277922E+03  0.00000000000E+00 0.  1.
         25    2    1    2    0    0 -0.51085960245E+02 -0.10715632496E+03 -0.32069607919E+02  0.17540430552E+03  0.12508380122E+03 0.  0.
          5    1    3    3  502    0 -0.80205706767E+02 -0.10657209909E+03 -0.21837828804E+01  0.13346463581E+03  0.41800000000E+01 0. -1.
         -5    1    3    3    0  502  0.29119746522E+02 -0.58422587021E+00 -0.29885825039E+02  0.41939669712E+02  0.41800000000E+01 0. -1.
        -11    1    1    2    0    0  0.77012122752E+02  0.72654770065E+02  0.18706396628E+02  0.10751517074E+03  0.00000000000E+00 0.  1.
         11    1    1    2    0    0 -0.25926162507E+02  0.34501554900E+02  0.20282653319E+02  0.47685524203E+02  0.00000000000E+00 0. -1.
</event>
<event>
 7    1  0.2644565E-009  0.1439232E+03  0.7561462E-02  0.1208145E+00
         -1   -1    0    0    0  501 -0.00000000000E+00  0.00000000000E+00  0.10104797828E+03  0.10104797828E+03  0.00000000000E+00 0.  1.
          1   -1    0    0  501    0  0.00000000000E+00 -0.00000000000E+00 -0.29058872354E+03  0.29058872354E+03  0.00000000000E+00 0. -1.
         25    2    1    2    0    0 -0.11996271476E+03 -0.55335208685E+02 -0.10103068210E+03  0.20810489714E+03  0.12508961282E+03 0.  0.
          5    1    3    3  502    0 -0.95099927800E+02 -0.71683634622E+02 -0.12271254832E+03  0.17105081601E+03  0.41800000000E+01 0. -1.
         -5    1    3    3    0  502 -0.24862786961E+02  0.16348425937E+02  0.21681866220E+02  0.37054081136E+02  0.41800000000E+01 0. -1.
        -11    1    1    2    0    0  0.87014049192E+02  0.59516633805E+02 -0.10291757952E+03  0.14732855335E+03  0.00000000000E+00 0. -1.
         11    1    1    2    0    0  0.32948665568E+02 -0.41814251198E+01  0.14407516365E+02  0.36203251326E+02  0.00000000000E+00 0.  1.
</event>
<event>
 7    1  0.5819613E-009  0.1264170E+03  0.7561462E-02  0.1232871E+00
          1   -1    0    0  501    0  0.00000000000E+00  0.00000000000E+00  0.43585386703E+03  0.43585386703E+03  0.00000000000E+00 0. -1.
         -1   -1    0    0    0  501 -0.00000000000E+00 -0.00000000000E+00 -0.43279919748E+02  0.43279919748E+02  0.00000000000E+00 0.  1.
         25    2    1    2    0    0  0.80439993006E+02  0.13699015297E+02  0.18320946018E+03  0.23637436567E+03  0.12509547934E+03 0.  0.
          5    1    3    3  502    0  0.76374741694E+02 -0.44586021568E+02  0.89705802802E+02  0.12603816067E+03  0.41800000000E+01 0. -1.
         -5    1    3    3    0  502  0.40652513122E+01  0.58285036865E+02  0.93503657380E+02  0.11033620500E+03  0.41800000000E+01 0. -1.
        -11    1    1    2    0    0 -0.37055736071E+02 -0.40368184849E+02  0.45692938760E+02  0.71348178507E+02  0.00000000000E+00 0.  1.
         11    1    1    2    0    0 -0.43384256935E+02  0.26669169552E+02  0.16367154834E+03  0.17141124260E+03  0.00000000000E+00 0. -1.
</event>
<event>
 7    1  0.2644565E-009  0.8179288E+02  0.7561462E-02  0.1324039E+00
         -1   -1    0    0    0  501 -0.00000000000E+00  0.00000000000E+00  0.15717320313E+03  0.15717320313E+03  0.00000000000E+00 0.  1.
          1   -1    0    0  501    0  0.00000000000E+00 -0.00000000000E+00 -0.92438820781E+02  0.92438820781E+02  0.00000000000E+00 0. -1.
         25    2    1    2    0    0  0.43245264703E+01 -0.42946423297E+02  0.34994116143E+01  0.13237303793E+03  0.12508908221E+03 0.  0.
          5    1    3    3  502    0 -0.41073100785E+02 -0.21799173198E+02  0.46749238946E+02  0.66069412758E+02  0.41800000000E+01 0.  1.
         -5    1    3    3    0  502  0.45397627255E+02 -0.21147250098E+02 -0.43249827332E+02  0.66303625175E+02  0.41800000000E+01 0.  1.
        -11    1    1    2    0    0 -0.18898833507E+02 -0.23643557102E+01 -0.17087649678E+02  0.25587963134E+02  0.00000000000E+00 0. -1.
         11    1    1    2    0    0  0.14574307037E+02  0.45310779007E+02  0.78322620410E+02  0.91651022841E+02  0.00000000000E+00 0.  1.
</event>
<event>
 7    1  0.2644565E-009  0.1549439E+03  0.7561462E-02  0.1194526E+00
          2   -1    0    0  501    0  0.00000000000E+00  0.00000000000E+00  0.27017952087E+03  0.27017952087E+03  0.00000000000E+00 0. -1.
         -2   -1    0    0    0  501 -0.00000000000E+00 -0.00000000000E+00 -0.12822300572E+03  0.12822300572E+03  0.00000000000E+00 0.  1.
         25    2    1    2    0    0  0.12367756825E+03 -0.30148169346E+02  0.16047048436E+03  0.24000713778E+03  0.12509035468E+03 0.  0.
          5    1    3    3  502    0  0.36833418174E+02 -0.71021627046E+02  0.54083039794E+02  0.96660332071E+02  0.41800000000E+01 0. -1.
         -5    1    3    3    0  502  0.86844150078E+02  0.40873457700E+02  0.10638744456E+03  0.14334680571E+03  0.41800000000E+01 0. -1.
        -11    1    1    2    0    0 -0.90299063646E+01  0.15746928147E+02 -0.37155619362E+02  0.41352690423E+02  0.00000000000E+00 0.  1.
         11    1    1    2    0    0 -0.11464766189E+03  0.14401241199E+02  0.18641650154E+02  0.11704269838E+03  0.00000000000E+00 0. -1.
</event>
<event>
 7    1  0.2644565E-009  0.1191629E+03  0.7561462E-02  0.1244484E+00
         -1   -1    0    0    0  501 -0.00000000000E+00  0.00000000000E+00  0.46864699710E+02  0.46864699710E+02  0.00000000000E+00 0.  1.
          1   -1    0    0  501    0  0.00000000000E+00 -0.00000000000E+00 -0.36776597637E+03  0.36776597637E+03  0.00000000000E+00 0. -1.
         25    2    1    2    0    0  0.13280006591E+02 -0.71693003817E+02 -0.16577175715E+03  0.22010127887E+03  0.12509217449E+03 0.  0.
          5    1    3    3  502    0  0.62901906931E+02 -0.26348039737E+02 -0.44978730965E+02  0.81801147503E+02  0.41800000000E+01 0. -1.
         -5    1    3    3    0  502 -0.49621900340E+02 -0.45344964080E+02 -0.12079302619E+03  0.13830013137E+03  0.41800000000E+01 0. -1.
        -11    1    1    2    0    0 -0.41530715430E+02  0.26214486527E+02 -0.27875769985E+02  0.56471746743E+02  0.00000000000E+00 0.  1.
         11    1    1    2    0    0  0.28250708839E+02  0.45478517290E+02 -0.12725374953E+03  0.13805765047E+03  0.00000000000E+00 0. -1.
</event>
<event>
 7    1  0.2644565E-009  0.1013267E+03  0.7561462E-02  0.1277531E+00
          1   -1    0    0  501    0  0.00000000000E+00  0.00000000000E+00  0.77553205466E+03  0.77553205466E+03  0.00000000000E+00 0. -1.
         -1   -1    0    0    0  501 -0.00000000000E+00 -0.00000000000E+00 -0.19545818228E+02  0.19545818228E+02  0.00000000000E+00 0.  1.
         25    2    1    2    0    0 -0.55428333929E+02  0.14962924761E+02  0.47909083281E+03  0.49846901388E+03  0.12508853824E+03 0.  0.
          5    1    3    3  502    0  0.27259917475E+02  0.27615362794E+00  0.26898482624E+02  0.38525058456E+02  0.41800000000E+01 0. -1.
         -5    1    3    3    0  502 -0.82688251403E+02  0.14686771133E+02  0.45219235018E+03  0.45994395542E+03  0.41800000000E+01 0. -1.
        -11    1    1    2    0    0  0.90824516465E+01  0.26987484731E+02  0.27821715794E+02  0.39810339483E+02  0.00000000000E+00 0.  1.
         11    1    1    2    0    0  0.46345882282E+02 -0.41950409492E+02  0.24907368783E+03  0.25679851953E+03  0.00000000000E+00 0. -1.
</event>
<event>
 7    1  0.2644565E-009  0.1049381E+03  0.7561462E-02  0.1270242E+00
          1   -1    0    0  501    0  0.00000000000E+00  0.00000000000E+00  0.12894429511E+03  0.12894429511E+03  0.00000000000E+00 0. -1.
         -1   -1    0    0    0  501 -0.00000000000E+00 -0.00000000000E+00 -0.11239311199E+03  0.11239311199E+03  0.00000000000E+00 0.  1.
         25    2    1    2    0    0  0.16692617490E+02  0.80425342908E+01 -0.38776906302E+02  0.13227774176E+03  0.12510166532E+03 0.  0.
          5    1    3    3  502    0 -0.53686704427E+02  0.12820783232E+02 -0.11534731727E+02  0.56543409438E+02  0.41800000000E+01 0.  1.
         -5    1    3    3    0  502  0.70379321916E+02 -0.47782489407E+01 -0.27242174575E+02  0.75734332320E+02  0.41800000000E+01 0.  1.
        -11    1    1    2    0    0  0.93582264790E+01  0.33521671553E+02 -0.41587481456E+00  0.34805916428E+02  0.00000000000E+00 0.  1.
         11    1    1    2    0    0 -0.26050843969E+02 -0.41564205844E+02  0.55743964241E+02  0.74253748917E+02  0.00000000000E+00 0. -1.
</event>
<event>
 7    1  0.2644565E-009  0.1895625E+03  0.7561462E-02  0.1158857E+00
          2   -1    0    0  501    0  0.00000000000E+00  0.00000000000E+00  0.28727163847E+03  0.28727163847E+03  0.00000000000E+00 0. -1.
         -2   -1    0    0    0  501 -0.00000000000E+00 -0.00000000000E+00 -0.16917380291E+03  0.16917380291E+03  0.00000000000E+00 0.  1.
         25    2    1    2    0    0 -0.96548987490E+01  0.18888886245E+03  0.19225867346E+02  0.22757266762E+03  0.12508983029E+03 0.  0.
          5    1    3    3  502    0 -0.72644787029E+01  0.10284159311E+03  0.72633851964E+02  0.12618365494E+03  0.41800000000E+01 0.  1.
         -5    1    3    3    0  502 -0.23904200460E+01  0.86047269344E+02 -0.53407984618E+02  0.10138901267E+03  0.41800000000E+01 0.  1.
        -11    1    1    2    0    0 -0.42369668674E+01 -0.39086840237E+02 -0.12981175190E+02  0.41403428327E+02  0.00000000000E+00 0.  1.
         11    1    1    2    0    0  0.13891865616E+02 -0.14980202222E+03  0.11185314340E+03  0.18746934544E+03  0.00000000000E+00 0. -1.
</event>
<event>
 7    1  0.2644565E-009  0.7525116E+02  0.7561462E-02  0.1343095E+00
          2   -1    0    0  501    0  0.00000000000E+00  0.00000000000E+00  0.14466614694E+03  0.14466614694E+03  0.00000000000E+00 0. -1.
         -2   -1    0    0    0  501 -0.00000000000E+00 -0.00000000000E+00 -0.87699342271E+02  0.87699342271E+02  0.00000000000E+00 0.  1.
         25    2    1    2    0    0  0.10965206679E+02  0.24048096549E+02  0.20656516510E+02  0.12950893019E+03  0.12508926660E+03 0.  0.
          5    1    3    3  502    0  0.53740221952E+01  0.47844622777E+02 -0.40794328483E+02  0.63242688744E+02  0.41800000000E+01 0.  1.
         -5    1    3    3    0  502  0.55911844838E+01 -0.23796526228E+02  0.61450844993E+02  0.66266241442E+02  0.41800000000E+01 0.  1.
        -11    1    1    2    0    0 -0.24673441526E+02  0.19673131196E+02 -0.14248573084E+02  0.34624162700E+02  0.00000000000E+00 0.  1.
         11    1    1    2    0    0  0.13708234847E+02 -0.43721227744E+02  0.50558861242E+02  0.68232396325E+02  0.00000000000E+00 0. -1.
</event>
<event>
 7    1  0.2644565E-009  0.1281659E+03  0.7561462E-02  0.1230203E+00
         -1   -1    0    0    0  501 -0.00000000000E+00  0.00000000000E+00  0.44146147871E+03  0.44146147871E+03  0.00000000000E+00 0.  1.
          1   -1    0    0  501    0  0.00000000000E+00 -0.00000000000E+00 -0.55929491430E+02  0.55929491430E+02  0.00000000000E+00 0. -1.
         25    2    1    2    0    0 -0.66268141131E+02  0.76054104935E+02  0.28812036822E+03  0.32990192073E+03  0.12508492041E+03 0.  0.
          5    1    3    3  502    0  0.28776723880E+02  0.98608496185E+01  0.17113101280E+02  0.35152052968E+02  0.41800000000E+01 0. -1.
         -5    1    3    3    0  502 -0.95044865011E+02  0.66193255316E+02  0.27100726694E+03  0.29474986777E+03  0.41800000000E+01 0. -1.
        -11    1    1    2    0    0  0.25161685588E+02 -0.60941067555E+02  0.60943682534E+01  0.66212275755E+02  0.00000000000E+00 0. -1.
         11    1    1    2    0    0  0.41106455543E+02 -0.15113037380E+02  0.91317250808E+02  0.10127677365E+03  0.00000000000E+00 0.  1.
</event>
<event>
 7    1  0.2644565E-009  0.2728139E+03  0.7561462E-02  0.1099680E+00
          1   -1    0    0  501    0  0.00000000000E+00  0.00000000000E+00  0.58799538693E+03  0.58799538693E+03  0.00000000000E+00 0. -1.
         -1   -1    0    0    0  501 -0.00000000000E+00 -0.00000000000E+00 -0.21328998033E+03  0.21328998033E+03  0.00000000000E+00 0.  1.
         25    2    1    2    0    0  0.24640219223E+03  0.11685500951E+03  0.41334025928E+03  0.51075141754E+03  0.12509079504E+03 0.  0.
          5    1    3    3  502    0  0.58791499853E+02  0.29134737891E+02  0.21167656839E+03  0.22165223981E+03  0.41800000000E+01 0. -1.
         -5    1    3    3    0  502  0.18761069237E+03  0.87720271617E+02  0.20166369088E+03  0.28909917773E+03  0.41800000000E+01 0. -1.
        -11    1    1    2    0    0 -0.19423228876E+03 -0.93794733691E+02 -0.68290656108E+02  0.22624598953E+03  0.00000000000E+00 0.  1.
         11    1    1    2    0    0 -0.52169903466E+02 -0.23060275818E+02  0.29655803434E+02  0.64287960192E+02  0.00000000000E+00 0. -1.
</event>
<event>
 7    1  0.2644565E-009  0.8279887E+02  0.7561462E-02  0.1321291E+00
          1   -1    0    0  501    0  0.00000000000E+00  0.00000000000E+00  0.66523989329E+03  0.66523989329E+03  0.00000000000E+00 0. -1.
         -1   -1    0    0    0  501 -0.00000000000E+00 -0.00000000000E+00 -0.40162325282E+02  0.40162325282E+02  0.00000000000E+00 0.  1.
         25    2    1    2    0    0  0.76470823274E+02 -0.16188899287E+02  0.53429262158E+03  0.55427950925E+03  0.12508917468E+03 0.  0.
          5    1    3    3  502    0  0.68777086594E+02 -0.14284333278E+02  0.11452619189E+03  0.13441744993E+03  0.41800000000E+01 0.  1.
         -5    1    3    3    0  502  0.76937366804E+01 -0.19045660091E+01  0.41976642970E+03  0.41986205932E+03  0.41800000000E+01 0.  1.
        -11    1    1    2    0    0 -0.34379345777E+02  0.25932964717E+02 -0.75452364046E+01  0.43719431234E+02  0.00000000000E+00 0.  1.
         11    1    1    2    0    0 -0.42091477497E+02 -0.97440654292E+01  0.98330182827E+02  0.10740327809E+03  0.00000000000E+00 0. -1.
</event>
<event>
 7    1  0.2644565E-009  0.1148078E+03  0.7561462E-02  0.1251917E+00
          2   -1    0    0  501    0  0.00000000000E+00  0.00000000000E+00  0.99690690167E+03  0.99690690167E+03  0.00000000000E+00 0. -1.
         -2   -1    0    0    0  501 -0.00000000000E+00 -0.00000000000E+00 -0.15810981057E+02  0.15810981057E+02  0.00000000000E+00 0.  1.
         25    2    1    2    0    0  0.28537180547E+02 -0.56133209810E+02  0.62554288196E+03  0.64102799912E+03  0.12509072932E+03 0.  0.
          5    1    3    3  502    0 -0.18011530189E+02 -0.70122806104E+02  0.20082771759E+03  0.21352018103E+03  0.41800000000E+01 0.  1.
         -5    1    3    3    0  502  0.46548710736E+02  0.13989596294E+02  0.42471516437E+03  0.42750781808E+03  0.41800000000E+01 0.  1.
        -11    1    1    2    0    0  0.22077152176E+01  0.73141784969E+02  0.24344553435E+03  0.25420527711E+03  0.00000000000E+00 0. -1.
         11    1    1    2    0    0 -0.30744895765E+02 -0.17008575159E+02  0.11210750430E+03  0.11748460650E+03  0.00000000000E+00 0.  1.
</event>
<event>
 7    1  0.2644565E-009  0.1243205E+03  0.7561462E-02  0.1236135E+00
         -1   -1    0    0    0  501 -0.00000000000E+00  0.00000000000E+00  0.61305752256E+02  0.61305752256E+02  0.00000000000E+00 0.  1.
          1   -1    0    0  501    0  0.00000000000E+00 -0.00000000000E+00 -0.26130589547E+03  0.26130589547E+03  0.00000000000E+00 0. -1.
         25    2    1    2    0    0 -0.55546373312E+02  0.35465615291E+02 -0.99985248814E+02  0.17316813272E+03  0.12508774022E+03 0.  0.
          5    1    3    3  502    0 -0.70432039329E+02 -0.25255860558E+02 -0.34387302487E+02  0.82452954034E+02  0.41800000000E+01 0. -1.
         -5    1    3    3    0  502  0.14885666017E+02  0.60721475849E+02 -0.65597946327E+02  0.90715178687E+02  0.41800000000E+01 0. -1.
        -11    1    1    2    0    0  0.21144246837E+01  0.27999559971E+02 -0.25132193585E+02  0.37683860003E+02  0.00000000000E+00 0. -1.
         11    1    1    2    0    0  0.53431948628E+02 -0.63465175262E+02 -0.74882700820E+02  0.11175965501E+03  0.00000000000E+00 0.  1.
</event>
<event>
 7    1  0.2644565E-009  0.1155024E+03  0.7561462E-02  0.1250707E+00
         -2   -1    0    0    0  501 -0.00000000000E+00  0.00000000000E+00  0.24091309257E+03  0.24091309257E+03  0.00000000000E+00 0.  1.
          2   -1    0    0  501    0  0.00000000000E+00 -0.00000000000E+00 -0.10635278661E+03  0.10635278661E+03  0.00000000000E+00 0. -1.
         25    2    1    2    0    0 -0.37192654405E+02  0.10211911179E+03  0.11573651062E+03  0.20212872595E+03  0.12509786340E+03 0.  0.
          5    1    3    3  502    0 -0.50506192637E+02  0.68578971070E+02  0.48132173832E+01  0.85408373298E+02  0.41800000000E+01 0.  1.
         -5    1    3    3    0  502  0.13313538232E+02  0.33540140717E+02  0.11092329324E+03  0.11672035265E+03  0.41800000000E+01 0.  1.
        -11    1    1    2    0    0  0.10112382283E+02 -0.45938602451E+02 -0.38226872455E+02  0.60612781229E+02  0.00000000000E+00 0.  1.
         11    1    1    2    0    0  0.27080272122E+02 -0.56180509336E+02  0.57050667789E+02  0.84524372003E+02  0.00000000000E+00 0. -1.
</event>
<event>
 7    1  0.2644565E-009  0.1933348E+03  0.7561462E-02  0.1155487E+00
          2   -1    0    0  501    0  0.00000000000E+00  0.00000000000E+00  0.85932097324E+02  0.85932097324E+02  0.00000000000E+00 0. -1.
         -2   -1    0    0    0  501 -0.00000000000E+00 -0.00000000000E+00 -0.57543249319E+03  0.57543249319E+03  0.00000000000E+00 0.  1.
         25    2    1    2    0    0  0.50620910081E+02  0.15314484503E+03 -0.41459105532E+03  0.46211473725E+03  0.12509383332E+03 0.  0.
          5    1    3    3  502    0 -0.36655641905E+02  0.84993083694E+02 -0.20728407465E+03  0.22704981912E+03  0.41800000000E+01 0. -1.
         -5    1    3    3    0  502  0.87276551986E+02  0.68151761339E+02 -0.20730698067E+03  0.23506491813E+03  0.41800000000E+01 0. -1.
        -11    1    1    2    0    0 -0.22094461210E+02  0.48771535438E+01 -0.17911309737E+02  0.28857700174E+02  0.00000000000E+00 0.  1.
         11    1    1    2    0    0 -0.28526448871E+02 -0.15802199858E+03 -0.56998030812E+02  0.17039215309E+03  0.00000000000E+00 0. -1.
</event>
<event>
 7    1  0.2644565E-009  0.1723116E+03  0.7561462E-02  0.1175458E+00
          2   -1    0    0  501    0  0.00000000000E+00  0.00000000000E+00  0.59957296605E+03  0.59957296605E+03  0.00000000000E+00 0.  1.
         -2   -1    0    0    0  501 -0.00000000000E+00 -0.00000000000E+00 -0.62449625259E+02  0.62449625259E+02  0.00000000000E+00 0. -1.
         25    2    1    2    0    0  0.13427878598E+03 -0.65827376105E+02  0.25426197974E+03  0.32042943131E+03  0.12514723448E+03 0.  0.
          5    1    3    3  502    0  0.43115521312E+02  0.17055734541E+02  0.15594602796E+03  0.16274668136E+03  0.41800000000E+01 0. -1.
         -5    1    3    3    0  502  0.91163264665E+02 -0.82883110646E+02  0.98315951784E+02  0.15768274994E+03  0.41800000000E+01 0. -1.
        -11    1    1    2    0    0 -0.11445509824E+03  0.92370443900E+01  0.24527936348E+03  0.27082699026E+03  0.00000000000E+00 0. -1.
         11    1    1    2    0    0 -0.19823687734E+02  0.56590331715E+02  0.37581997568E+02  0.70766169744E+02  0.00000000000E+00 0.  1.
</event>
<event>
 7    1  0.2644565E-009  0.1770600E+03  0.7561462E-02  0.1170679E+00
         -1   -1    0    0    0  501 -0.00000000000E+00  0.00000000000E+00  0.34795048136E+03  0.34795048136E+03  0.00000000000E+00 0.  1.
          1   -1    0    0  501    0  0.00000000000E+00 -0.00000000000E+00 -0.10262770890E+03  0.10262770890E+03  0.00000000000E+00 0. -1.
         25    2    1    2    0    0  0.33228926008E+02 -0.14962319796E+03  0.15489928717E+03  0.25126211686E+03  0.12509036458E+03 0.  0.
          5    1    3    3  502    0  0.49457796234E+02 -0.15490880801E+03  0.93988631373E+02  0.18786736714E+03  0.41800000000E+01 0. -1.
         -5    1    3    3    0  502 -0.16228870226E+02  0.52856100516E+01  0.60910655801E+02  0.63394749723E+02  0.41800000000E+01 0. -1.
        -11    1    1    2    0    0 -0.60266512437E+02  0.88799499764E+02  0.35559135588E+02  0.11305686978E+03  0.00000000000E+00 0. -1.
         11    1    1    2    0    0  0.27037586430E+02  0.60823698195E+02  0.54864349703E+02  0.86259203627E+02  0.00000000000E+00 0.  1.
</event>
<event>
 7    1  0.2644565E-009  0.1400024E+03  0.7561462E-02  0.1213326E+00
         -1   -1    0    0    0  501 -0.00000000000E+00  0.00000000000E+00  0.51613200977E+02  0.51613200977E+02  0.00000000000E+00 0.  1.
          1   -1    0    0  501    0  0.00000000000E+00 -0.00000000000E+00 -0.40505940678E+03  0.40505940678E+03  0.00000000000E+00 0. -1.
         25    2    1    2    0    0 -0.92672244748E+02  0.19546055396E+02 -0.19474469708E+03  0.25008514605E+03  0.12508752936E+03 0.  0.
          5    1    3    3  502    0 -0.25152400173E+02  0.62904562903E+02 -0.13092167873E+03  0.14747062633E+03  0.41800000000E+01 0.  1.
         -5    1    3    3    0  502 -0.67519844576E+02 -0.43358507507E+02 -0.63823018348E+02  0.10261451971E+03  0.41800000000E+01 0.  1.
        -11    1    1    2    0    0  0.47280034176E+02 -0.56193792971E+02 -0.97115709487E+02  0.12175633466E+03  0.00000000000E+00 0. -1.
         11    1    1    2    0    0  0.45392210572E+02  0.36647737575E+02 -0.61585799233E+02  0.84831127054E+02  0.00000000000E+00 0.  1.
</event>
<event>
 7    1  0.2644565E-009  0.1859521E+03  0.7561462E-02  0.1162164E+00
         -1   -1    0    0    0  501 -0.00000000000E+00  0.00000000000E+00  0.37204513058E+03  0.37204513058E+03  0.00000000000E+00 0.  1.
          1   -1    0    0  501    0  0.00000000000E+00 -0.00000000000E+00 -0.10462567263E+03  0.10462567263E+03  0.00000000000E+00 0. -1.
         25    2    1    2    0    0 -0.95609627657E+02 -0.13314537707E+03  0.15455777931E+03  0.25768810252E+03  0.12508460617E+03 0.  0.
          5    1    3    3  502    0 -0.36991383956E+02 -0.14005762883E+03  0.12576611497E+03  0.19188301112E+03  0.41800000000E+01 0. -1.
         -5    1    3    3    0  502 -0.58618243702E+02  0.69122517635E+01  0.28791664337E+02  0.65805091402E+02  0.41800000000E+01 0. -1.
        -11    1    1    2    0    0  0.48931619081E+02  0.97464549218E+02  0.22744399061E+02  0.11140444062E+03  0.00000000000E+00 0. -1.
         11    1    1    2    0    0  0.46678008576E+02  0.35680827850E+02  0.90117279587E+02  0.10757826008E+03  0.00000000000E+00 0.  1.
</event>
<event>
 7    1  0.2644565E-009  0.1242048E+03  0.7561462E-02  0.1236317E+00
         -2   -1    0    0    0  501 -0.00000000000E+00  0.00000000000E+00  0.36846414576E+03  0.36846414576E+03  0.00000000000E+00 0.  1.
          2   -1    0    0  501    0  0.00000000000E+00 -0.00000000000E+00 -0.61757917664E+02  0.61757917664E+02  0.00000000000E+00 0. -1.
         25    2    1    2    0    0  0.42945537188E+02 -0.10545166448E+03  0.17408978317E+03  0.24273508483E+03  0.12509474848E+03 0.  0.
          5    1    3    3  502    0  0.20838443715E+02 -0.18583189822E+02  0.14600291604E+03  0.14870742945E+03  0.41800000000E+01 0.  1.
         -5    1    3    3    0  502  0.22107093473E+02 -0.86868474656E+02  0.28086867128E+02  0.94027655378E+02  0.41800000000E+01 0.  1.
        -11    1    1    2    0    0  0.52864041806E+01  0.70936488724E+02  0.88637291990E+02  0.11365078545E+03  0.00000000000E+00 0.  1.
         11    1    1    2    0    0 -0.48231941369E+02  0.34515175753E+02  0.43979152931E+02  0.73836193144E+02  0.00000000000E+00 0. -1.
</event>
<event>
 7    1  0.2644565E-009  0.1387115E+03  0.7561462E-02  0.1215073E+00
          2   -1    0    0  501    0  0.00000000000E+00  0.00000000000E+00  0.77629364984E+03  0.77629364984E+03  0.00000000000E+00 0. -1.
         -2   -1    0    0    0  501 -0.00000000000E+00 -0.00000000000E+00 -0.35454117984E+02  0.35454117984E+02  0.00000000000E+00 0.  1.
         25    2    1    2    0    0  0.22427420501E+02 -0.12015788399E+03  0.46350709770E+03  0.49540448295E+03  0.12508343549E+03 0.  0.
          5    1    3    3  502    0 -0.29649676581E+01  0.36057154947E+00 -0.71931041845E+01  0.88393547765E+01  0.41800000000E+01 0. -1.
         -5    1    3    3    0  502  0.25392388159E+02 -0.12051845554E+03  0.47070020188E+03  0.48656512817E+03  0.41800000000E+01 0. -1.
        -11    1    1    2    0    0 -0.43416730755E+02  0.21998268226E+02  0.62491382804E+02  0.79209274957E+02  0.00000000000E+00 0.  1.
         11    1    1    2    0    0  0.20989310254E+02  0.98159615767E+02  0.21484105135E+03  0.23713400992E+03  0.00000000000E+00 0. -1.
</event>
<event>
 7    1  0.2644565E-009  0.1105731E+03  0.7561462E-02  0.1259512E+00
         -2   -1    0    0    0  501 -0.00000000000E+00  0.00000000000E+00  0.44109588497E+02  0.44109588497E+02  0.00000000000E+00 0.  1.
          2   -1    0    0  501    0  0.00000000000E+00 -0.00000000000E+00 -0.32638468872E+03  0.32638468872E+03  0.00000000000E+00 0. -1.
         25    2    1    2    0    0 -0.42354935816E+02 -0.21948134067E+02 -0.18784559691E+03  0.23065863682E+03  0.12506709113E+03 0.  0.
          5    1    3    3  502    0 -0.71297197856E+02 -0.47682991110E+02 -0.85630565231E+02  0.12127252024E+03  0.41800000000E+01 0.  1.
         -5    1    3    3    0  502  0.28942262040E+02  0.25734857043E+02 -0.10221503168E+03  0.10938611658E+03  0.41800000000E+01 0.  1.
        -11    1    1    2    0    0 -0.24763100359E+02 -0.24923534229E+01 -0.50072286093E+01  0.25386912048E+02  0.00000000000E+00 0.  1.
         11    1    1    2    0    0  0.67118036175E+02  0.24440487490E+02 -0.89422274708E+02  0.11444872836E+03  0.00000000000E+00 0. -1.
</event>
<event>
 7    1  0.2644565E-009  0.1302504E+03  0.7561462E-02  0.1227085E+00
         -1   -1    0    0    0  501 -0.00000000000E+00  0.00000000000E+00  0.29385005052E+02  0.29385005052E+02  0.00000000000E+00 0.  1.
          1   -1    0    0  501    0  0.00000000000E+00 -0.00000000000E+00 -0.76193587876E+03  0.76193587876E+03  0.00000000000E+00 0. -1.
         25    2    1    2    0    0  0.73748198620E+02 -0.62247956233E+02 -0.49187646224E+03  0.51661244145E+03  0.12502941935E+03 0.  0.
          5    1    3    3  502    0  0.95422124023E+02 -0.75715847329E+01 -0.35220541460E+03  0.36500525629E+03  0.41800000000E+01 0.  1.
         -5    1    3    3    0  502 -0.21673925403E+02 -0.54676371500E+02 -0.13967104763E+03  0.15160718515E+03  0.41800000000E+01 0.  1.
        -11    1    1    2    0    0 -0.36858739714E+02  0.57820549787E+02 -0.62756340952E+02  0.92952358769E+02  0.00000000000E+00 0.  1.
         11    1    1    2    0    0 -0.36889458907E+02  0.44274064459E+01 -0.17791807052E+03  0.18175608360E+03  0.00000000000E+00 0. -1.
</event>
<event>
 7    1  0.2644565E-009  0.1584558E+03  0.7561462E-02  0.1190451E+00
          2   -1    0    0  501    0  0.00000000000E+00  0.00000000000E+00  0.32853359723E+02  0.32853359723E+02  0.00000000000E+00 0. -1.
         -2   -1    0    0    0  501 -0.00000000000E+00 -0.00000000000E+00 -0.13135453211E+04  0.13135453211E+04  0.00000000000E+00 0.  1.
         25    2    1    2    0    0  0.67244652465E+02 -0.12349462296E+03 -0.10103534827E+04  0.10277321232E+04  0.12508553845E+03 0.  0.
          5    1    3    3  502    0 -0.17355921148E+02 -0.77034637672E+02 -0.64470039824E+03  0.64953186165E+03  0.41800000000E+01 0. -1.
         -5    1    3    3    0  502  0.84600573612E+02 -0.46459985285E+02 -0.36565308447E+03  0.37820026160E+03  0.41800000000E+01 0. -1.
        -11    1    1    2    0    0 -0.24831339503E+02  0.33122199950E+02 -0.17775980396E+03  0.18251636489E+03  0.00000000000E+00 0.  1.
         11    1    1    2    0    0 -0.42413312962E+02  0.90372423007E+02 -0.92578674687E+02  0.13615019267E+03  0.00000000000E+00 0. -1.
</event>
<event>
 7    1  0.2644565E-009  0.1249857E+03  0.7561462E-02  0.1235092E+00
          2   -1    0    0  501    0  0.00000000000E+00  0.00000000000E+00  0.36429924874E+03  0.36429924874E+03  0.00000000000E+00 0. -1.
         -2   -1    0    0    0  501 -0.00000000000E+00 -0.00000000000E+00 -0.57298189903E+02  0.57298189903E+02  0.00000000000E+00 0.  1.
         25    2    1    2    0    0  0.87922771575E+02 -0.14416454040E+02  0.12725301780E+03  0.19944653445E+03  0.12508933471E+03 0.  0.
          5    1    3    3  502    0  0.64004958322E+01  0.46891755460E+02  0.62675522478E+02  0.78647928103E+02  0.41800000000E+01 0.  1.
         -5    1    3    3    0  502  0.81522275742E+02 -0.61308209500E+02  0.64577495319E+02  0.12079860635E+03  0.41800000000E+01 0.  1.
        -11    1    1    2    0    0 -0.56970820189E+02 -0.13657473766E+02  0.16919654467E+03  0.17905214791E+03  0.00000000000E+00 0. -1.
         11    1    1    2    0    0 -0.30951951386E+02  0.28073927806E+02  0.10551496365E+02  0.43098756276E+02  0.00000000000E+00 0.  1.
</event>
<event>
 7    1  0.2644565E-009  0.7797609E+02  0.7561462E-02  0.1334895E+00
         -2   -1    0    0    0  501 -0.00000000000E+00  0.00000000000E+00  0.17706658829E+03  0.17706658829E+03  0.00000000000E+00 0.  1.
          2   -1    0    0  501    0  0.00000000000E+00 -0.00000000000E+00 -0.69483860239E+02  0.69483860239E+02  0.00000000000E+00 0. -1.
         25    2    1    2    0    0  0.13800145835E+02  0.57908482095E+00  0.87669513310E+02  0.15337726698E+03  0.12509141896E+03 0.  0.
          5    1    3    3  502    0  0.53724550504E+02 -0.12962993268E+02 -0.64389232265E+00  0.55427912811E+02  0.41800000000E+01 0.  1.
         -5    1    3    3    0  502 -0.39924404668E+02  0.13542078089E+02  0.88313405632E+02  0.97949354166E+02  0.41800000000E+01 0.  1.
        -11    1    1    2    0    0  0.13319594847E+02 -0.20545815516E+02 -0.26337128506E+02  0.35960902103E+02  0.00000000000E+00 0. -1.
         11    1    1    2    0    0 -0.27119740682E+02  0.19966730695E+02  0.46250343246E+02  0.57212279449E+02  0.00000000000E+00 0.  1.
</event>
<event>
 7    1  0.2644565E-009  0.1171444E+03  0.7561462E-02  0.1247884E+00
         -2   -1    0    0    0  501 -0.00000000000E+00  0.00000000000E+00  0.30294347213E+02  0.30294347213E+02  0.00000000000E+00 0.  1.
          2   -1    0    0  501    0  0.00000000000E+00 -0.00000000000E+00 -0.49713811736E+03  0.49713811736E+03  0.00000000000E+00 0. -1.
         25    2    1    2    0    0 -0.62921840093E+01 -0.53278304879E+02 -0.29555274131E+03  0.32538701012E+03  0.12508842515E+03 0.  0.
          5    1    3    3  502    0  0.36463437002E+02 -0.71772374461E+02 -0.12665281533E+03  0.15013082297E+03  0.41800000000E+01 0. -1.
         -5    1    3    3    0  502 -0.42755621011E+02  0.18494069582E+02 -0.16889992598E+03  0.17525618715E+03  0.41800000000E+01 0. -1.
        -11    1    1    2    0    0 -0.36174595974E+02  0.53326661809E+02 -0.10988321617E+03  0.12738389007E+03  0.00000000000E+00 0. -1.
         11    1    1    2    0    0  0.42466779983E+02 -0.48356929687E-01 -0.61407812669E+02  0.74661564391E+02  0.00000000000E+00 0.  1.
</event>
<event>
 7    1  0.2644565E-009  0.1092320E+03  0.7561462E-02  0.1261999E+00
         -1   -1    0    0    0  501 -0.00000000000E+00  0.00000000000E+00  0.20552334322E+02  0.20552334322E+02  0.00000000000E+00 0.  1.
          1   -1    0    0  501    0  0.00000000000E+00 -0.00000000000E+00 -0.66387351185E+03  0.66387351185E+03  0.00000000000E+00 0. -1.
         25    2    1    2    0    0  0.37168145194E+02 -0.21481398088E+02 -0.37050006825E+03  0.39339839196E+03  0.12509625392E+03 0.  0.
          5    1    3    3  502    0 -0.39493026171E+02  0.18983866938E+02 -0.98485323105E+02  0.10787454559E+03  0.41800000000E+01 0.  1.
         -5    1    3    3    0  502  0.76661171365E+02 -0.40465265026E+02 -0.27201474514E+03  0.28552384637E+03  0.41800000000E+01 0.  1.
        -11    1    1    2    0    0  0.15560373381E+02 -0.16497367790E+02 -0.20829765598E+02  0.30792328568E+02  0.00000000000E+00 0.  1.
         11    1    1    2    0    0 -0.52728518575E+02  0.37978765878E+02 -0.25199134368E+03  0.26023512565E+03  0.00000000000E+00 0. -1.
</event>
<event>
 7    1  0.2644565E-009  0.7615137E+02  0.7561462E-02  0.1340342E+00
         -2   -1    0    0    0  501 -0.00000000000E+00  0.00000000000E+00  0.70537289241E+02  0.70537289241E+02  0.00000000000E+00 0. -1.
          2   -1    0    0  501    0  0.00000000000E+00 -0.00000000000E+00 -0.17081124988E+03  0.17081124988E+03  0.00000000000E+00 0.  1.
         25    2    1    2    0    0 -0.34690050828E+02 -0.26997856114E+01 -0.53648828257E+02  0.14048673324E+03  0.12509051513E+03 0.  0.
          5    1    3    3  502    0  0.19603298384E+02 -0.25214636774E+02 -0.71911952812E+02  0.78796374107E+02  0.41800000000E+01 0. -1.
         -5    1    3    3    0  502 -0.54293349212E+02  0.22514851162E+02  0.18263124555E+02  0.61690359134E+02  0.41800000000E+01 0. -1.
        -11    1    1    2    0    0  0.10310750998E+01  0.22228824191E+02  0.15806611593E+02  0.27295287337E+02  0.00000000000E+00 0. -1.
         11    1    1    2    0    0  0.33658975728E+02 -0.19529038580E+02 -0.62431743977E+02  0.73566518546E+02  0.00000000000E+00 0.  1.
</event>
<event>
 7    1  0.2644565E-009  0.8605950E+02  0.7561462E-02  0.1312685E+00
          2   -1    0    0  501    0  0.00000000000E+00  0.00000000000E+00  0.64768760480E+03  0.64768760480E+03  0.00000000000E+00 0. -1.
         -2   -1    0    0    0  501 -0.00000000000E+00 -0.00000000000E+00 -0.25940908860E+02  0.25940908860E+02  0.00000000000E+00 0.  1.
         25    2    1    2    0    0 -0.23294361776E+02 -0.45291948192E+02  0.21193299136E+03  0.25130961476E+03  0.12508773633E+03 0.  0.
          5    1    3    3  502    0 -0.35901455564E+02 -0.19418354028E+02  0.21780776985E+03  0.22163863380E+03  0.41800000000E+01 0. -1.
         -5    1    3    3    0  502  0.12607093788E+02 -0.25873594164E+02 -0.58747784906E+01  0.29670980958E+02  0.41800000000E+01 0. -1.
        -11    1    1    2    0    0 -0.32080144656E+02  0.31455078115E+02  0.18241794554E+03  0.18786927496E+03  0.00000000000E+00 0.  1.
         11    1    1    2    0    0  0.55374506432E+02  0.13836870076E+02  0.22739575904E+03  0.23444962394E+03  0.00000000000E+00 0. -1.
</event>
<event>
 7    1  0.2644565E-009  0.1219859E+03  0.7561462E-02  0.1239856E+00
          2   -1    0    0  501    0  0.00000000000E+00  0.00000000000E+00  0.24948571350E+02  0.24948571350E+02  0.00000000000E+00 0. -1.
         -2   -1    0    0    0  501 -0.00000000000E+00 -0.00000000000E+00 -0.71961094375E+03  0.71961094375E+03  0.00000000000E+00 0.  1.
         25    2    1    2    0    0  0.14476455773E+02 -0.77001762454E+02 -0.40855035527E+03  0.43439703060E+03  0.12509415740E+03 0.  0.
          5    1    3    3  502    0  0.56626978433E+02 -0.87164326791E+02 -0.29110450239E+03  0.30913352821E+03  0.41800000000E+01 0.  1.
         -5    1    3    3    0  502 -0.42150522660E+02  0.10162564337E+02 -0.11744585288E+03  0.12526350240E+03  0.41800000000E+01 0.  1.
        -11    1    1    2    0    0  0.17760039133E+02  0.53831299631E+02 -0.68284493674E+02  0.88746830289E+02  0.00000000000E+00 0. -1.
         11    1    1    2    0    0 -0.32236494905E+02  0.23170462823E+02 -0.21782752346E+03  0.22141565420E+03  0.00000000000E+00 0.  1.
</event>
<event>
 7    1  0.2644565E-009  0.9380787E+02  0.7561462E-02  0.1293884E+00
         -3   -1    0    0    0  501 -0.00000000000E+00  0.00000000000E+00  0.49240821847E+03  0.49240821847E+03  0.00000000000E+00 0.  1.
          3   -1    0    0  501    0  0.00000000000E+00 -0.00000000000E+00 -0.34951614754E+02  0.34951614754E+02  0.00000000000E+00 0. -1.
         25    2    1    2    0    0  0.27129235148E+02 -0.55052585076E+02  0.17552259174E+03  0.22409966986E+03  0.12508276977E+03 0.  0.
          5    1    3    3  502    0  0.22817134564E+02  0.40858854387E+01 -0.12667912137E+02  0.26744429091E+02  0.41800000000E+01 0.  1.
         -5    1    3    3    0  502  0.43121005844E+01 -0.59138470515E+02  0.18819050388E+03  0.19735524077E+03  0.41800000000E+01 0.  1.
        -11    1    1    2    0    0 -0.57262618519E+02  0.26463974207E+02  0.11425137173E+03  0.13050948377E+03  0.00000000000E+00 0. -1.
         11    1    1    2    0    0  0.30133383371E+02  0.28588610870E+02  0.16768264024E+03  0.17275067960E+03  0.00000000000E+00 0.  1.
</event>
<event>
 7    1  0.2644565E-009  0.2079808E+03  0.7561462E-02  0.1143175E+00
          1   -1    0    0  501    0  0.00000000000E+00  0.00000000000E+00  0.90293048463E+02  0.90293048463E+02  0.00000000000E+00 0. -1.
         -1   -1    0    0    0  501 -0.00000000000E+00 -0.00000000000E+00 -0.49307001779E+03  0.49307001779E+03  0.00000000000E+00 0.  1.
         25    2    1    2    0    0 -0.41440733811E+02 -0.17520167658E+03 -0.19575478146E+03  0.29390602016E+03  0.12509137592E+03 0.  0.
          5    1    3    3  502    0 -0.13232950764E+02 -0.18469424664E+03 -0.18553971028E+03  0.26216317861E+03  0.41800000000E+01 0.  1.
         -5    1    3    3    0  502 -0.28207783047E+02  0.94925700607E+01 -0.10215071181E+02  0.31742841555E+02  0.41800000000E+01 0.  1.
        -11    1    1    2    0    0  0.21715119149E+02  0.17924601362E+03 -0.17382774161E+03  0.25063272642E+03  0.00000000000E+00 0.  1.
         11    1    1    2    0    0  0.19725614662E+02 -0.40443370441E+01 -0.33194446257E+02  0.38824319675E+02  0.00000000000E+00 0. -1.
</event>
<event>
 7    1  0.2644565E-009  0.1442078E+03  0.7561462E-02  0.1207777E+00
          2   -1    0    0  501    0  0.00000000000E+00  0.00000000000E+00  0.84537222459E+03  0.84537222459E+03  0.00000000000E+00 0. -1.
         -2   -1    0    0    0  501 -0.00000000000E+00 -0.00000000000E+00 -0.31034091094E+02  0.31034091094E+02  0.00000000000E+00 0.  1.
         25    2    1    2    0    0  0.10968069369E+03  0.40087401652E+02  0.48819133530E+03  0.51730608045E+03  0.12505177598E+03 0.  0.
          5    1    3    3  502    0  0.43318889337E+02  0.80748359011E+02  0.29685589979E+03  0.31070519998E+03  0.41800000000E+01 0. -1.
         -5    1    3    3    0  502  0.66361804356E+02 -0.40660957359E+02  0.19133543551E+03  0.20660088047E+03  0.41800000000E+01 0. -1.
        -11    1    1    2    0    0 -0.28310970464E+02 -0.20775365508E+02  0.17328924042E+02  0.39158887485E+02  0.00000000000E+00 0.  1.
         11    1    1    2    0    0 -0.81369723230E+02 -0.19312036144E+02  0.30881787416E+03  0.31994134775E+03  0.00000000000E+00 0. -1.
</event>
<event>
 7    1  0.2644565E-009  0.1284986E+03  0.7561462E-02  0.1229701E+00
          2   -1    0    0  501    0  0.00000000000E+00  0.00000000000E+00  0.38410237421E+03  0.38410237421E+03  0.00000000000E+00 0. -1.
         -2   -1    0    0    0  501 -0.00000000000E+00 -0.00000000000E+00 -0.57938564289E+02  0.57938564289E+02  0.00000000000E+00 0.  1.
         25    2    1    2    0    0 -0.45866582736E+01 -0.88612319290E+02  0.10188091923E+03  0.18411856835E+03  0.12508694953E+03 0.  0.
          5    1    3    3  502    0  0.55997349672E+02 -0.26756784894E+02  0.21248927078E+02  0.65731408095E+02  0.41800000000E+01 0.  1.
         -5    1    3    3    0  502 -0.60584007946E+02 -0.61855534396E+02  0.80631992151E+02  0.11838716025E+03  0.41800000000E+01 0.  1.
        -11    1    1    2    0    0  0.29100658694E+02  0.20157795996E+02  0.19073159198E+02  0.40211571440E+02  0.00000000000E+00 0.  1.
         11    1    1    2    0    0 -0.24514000421E+02  0.68454523294E+02  0.20520973149E+03  0.21771079871E+03  0.00000000000E+00 0. -1.
</event>
<event>
 7    1  0.2644565E-009  0.2271112E+03  0.7561462E-02  0.1128690E+00
         -1   -1    0    0    0  501 -0.00000000000E+00  0.00000000000E+00  0.11905225475E+03  0.11905225475E+03  0.00000000000E+00 0.  1.
          1   -1    0    0  501    0  0.00000000000E+00 -0.00000000000E+00 -0.68814598057E+03  0.68814598057E+03  0.00000000000E+00 0. -1.
         25    2    1    2    0    0 -0.15860673730E+03 -0.15320815281E+03 -0.87185838626E+02  0.26810035377E+03  0.12509034349E+03 0.  0.
          5    1    3    3  502    0 -0.56390510556E+02 -0.42445599569E+02 -0.93461002892E+02  0.11719193686E+03  0.41800000000E+01 0.  1.
         -5    1    3    3    0  502 -0.10221622674E+03 -0.11076255324E+03  0.62751642659E+01  0.15090841691E+03  0.41800000000E+01 0.  1.
        -11    1    1    2    0    0  0.14459083397E+03  0.16124938561E+03 -0.47393755838E+03  0.52108030366E+03  0.00000000000E+00 0. -1.
         11    1    1    2    0    0  0.14015903328E+02 -0.80412328024E+01 -0.79703288193E+01  0.18017577878E+02  0.00000000000E+00 0.  1.
</event>
<event>
 7    1  0.2644565E-009  0.1578080E+03  0.7561462E-02  0.1191194E+00
          2   -1    0    0  501    0  0.00000000000E+00  0.00000000000E+00  0.11083305924E+04  0.11083305924E+04  0.00000000000E+00 0. -1.
         -2   -1    0    0    0  501 -0.00000000000E+00 -0.00000000000E+00 -0.25779192783E+02  0.25779192783E+02  0.00000000000E+00 0.  1.
         25    2    1    2    0    0 -0.55579271323E+02  0.11112952532E+03  0.69756831228E+03  0.71950527662E+03  0.12508983168E+03 0.  0.
          5    1    3    3  502    0  0.27878957561E+02  0.80375622821E+02  0.28595070384E+03  0.29836681191E+03  0.41800000000E+01 0.  1.
         -5    1    3    3    0  502 -0.83458228884E+02  0.30753902495E+02  0.41161760844E+03  0.42113846472E+03  0.41800000000E+01 0.  1.
        -11    1    1    2    0    0  0.29070638926E+02 -0.20495142064E+01  0.16586350289E+03  0.16840428780E+03  0.00000000000E+00 0.  1.
         11    1    1    2    0    0  0.26508632397E+02 -0.10908001111E+03  0.21911958439E+03  0.24620022071E+03  0.00000000000E+00 0. -1.
</event>
<event>
 7    1  0.2644565E-009  0.1014680E+03  0.7561462E-02  0.1277239E+00
         -1   -1    0    0    0  501 -0.00000000000E+00  0.00000000000E+00  0.14336385360E+03  0.14336385360E+03  0.00000000000E+00 0.  1.
          1   -1    0    0  501    0  0.00000000000E+00 -0.00000000000E+00 -0.93528383563E+02  0.93528383563E+02  0.00000000000E+00 0. -1.
         25    2    1    2    0    0 -0.28779775502E+02 -0.48385481161E+01  0.55105958548E+02  0.13975688065E+03  0.12507450578E+03 0.  0.
          5    1    3    3  502    0 -0.60496975260E+02 -0.41806847360E+02  0.53148204552E+02  0.90828963162E+02  0.41800000000E+01 0. -1.
         -5    1    3    3    0  502  0.31717199759E+02  0.36968299244E+02  0.19577539954E+01  0.48927917493E+02  0.41800000000E+01 0. -1.
        -11    1    1    2    0    0  0.26981121219E+02  0.38317775043E+02 -0.29850089790E+02  0.55563123085E+02  0.00000000000E+00 0. -1.
         11    1    1    2    0    0  0.17986542823E+01 -0.33479226927E+02  0.24579601279E+02  0.41572233424E+02  0.00000000000E+00 0.  1.
</event>
<event>
 7    1  0.2644565E-009  0.1427329E+03  0.7561462E-02  0.1209698E+00
         -2   -1    0    0    0  501 -0.00000000000E+00  0.00000000000E+00  0.24489829934E+02  0.24489829934E+02  0.00000000000E+00 0.  1.
          2   -1    0    0  501    0  0.00000000000E+00 -0.00000000000E+00 -0.95553688828E+03  0.95553688828E+03  0.00000000000E+00 0. -1.
         25    2    1    2    0    0  0.64125275262E+02  0.68258693060E+02 -0.32936458395E+03  0.36455671883E+03  0.12509705024E+03 0.  0.
          5    1    3    3  502    0 -0.37740566802E+02  0.13897770877E+02 -0.95539479126E+02  0.10374373663E+03  0.41800000000E+01 0. -1.
         -5    1    3    3    0  502  0.10186584206E+03  0.54360922183E+02 -0.23382510482E+03  0.26081298220E+03  0.41800000000E+01 0. -1.
        -11    1    1    2    0    0 -0.83863216081E+02 -0.35118557586E+02 -0.43028032923E+03  0.43978121131E+03  0.00000000000E+00 0.  1.
         11    1    1    2    0    0  0.19737940819E+02 -0.33140135474E+02 -0.17140214517E+03  0.17568878807E+03  0.00000000000E+00 0. -1.
</event>
<event>
 7    1  0.2820023E-009  0.1079669E+03  0.7561462E-02  0.1264382E+00
         -1   -1    0    0    0  501 -0.00000000000E+00  0.00000000000E+00  0.17449978799E+03  0.17449978799E+03  0.00000000000E+00 0.  1.
          1   -1    0    0  501    0  0.00000000000E+00 -0.00000000000E+00 -0.11268616124E+03  0.11268616124E+03  0.00000000000E+00 0. -1.
         25    2    1    2    0    0 -0.32742492609E+02 -0.69417469994E+02  0.79284663366E+02  0.16679687186E+03  0.12507710683E+03 0.  0.
          5    1    3    3  502    0 -0.64825303906E+02 -0.72911434883E+02  0.89732271901E+02  0.13261881610E+03  0.41800000000E+01 0. -1.
         -5    1    3    3    0  502  0.32082811297E+02  0.34939648892E+01 -0.10447608534E+02  0.34178055759E+02  0.41800000000E+01 0. -1.
        -11    1    1    2    0    0 -0.87906754842E+01  0.12294838822E+02  0.31165074803E+02  0.34636699100E+02  0.00000000000E+00 0.  1.
         11    1    1    2    0    0  0.41533168093E+02  0.57122631172E+02 -0.48636111418E+02  0.85752378263E+02  0.00000000000E+00 0. -1.
</event>
<event>
 7    1  0.2644565E-009  0.9297052E+02  0.7561462E-02  0.1295814E+00
         -2   -1    0    0    0  501 -0.00000000000E+00  0.00000000000E+00  0.17095037248E+02  0.17095037248E+02  0.00000000000E+00 0.  1.
          2   -1    0    0  501    0  0.00000000000E+00 -0.00000000000E+00 -0.83121805735E+03  0.83121805735E+03  0.00000000000E+00 0. -1.
         25    2    1    2    0    0  0.48671732117E+02  0.19059854453E+02 -0.51754016288E+03  0.53500373218E+03  0.12509579406E+03 0.  0.
          5    1    3    3  502    0  0.58510459454E+02  0.37039982019E+02 -0.50673135600E+03  0.51145828147E+03  0.41800000000E+01 0.  1.
         -5    1    3    3    0  502 -0.98387273368E+01 -0.17980127566E+02 -0.10808806886E+02  0.23545450711E+02  0.41800000000E+01 0.  1.
        -11    1    1    2    0    0 -0.60901216032E+02  0.12173328553E+02 -0.23627746477E+03  0.24430347603E+03  0.00000000000E+00 0.  1.
         11    1    1    2    0    0  0.12229483915E+02 -0.31233183005E+02 -0.60305392447E+02  0.69005886384E+02  0.00000000000E+00 0. -1.
</event>
<event>
 7    1  0.2644565E-009  0.8794780E+02  0.7561462E-02  0.1307899E+00
         -1   -1    0    0    0  501 -0.00000000000E+00  0.00000000000E+00  0.13961804251E+02  0.13961804251E+02  0.00000000000E+00 0.  1.
          1   -1    0    0  501    0  0.00000000000E+00 -0.00000000000E+00 -0.10343980831E+04  0.10343980831E+04  0.00000000000E+00 0. -1.
         25    2    1    2    0    0  0.18219388628E+01  0.21080950487E+02 -0.78990867273E+03  0.80003322463E+03  0.12509885421E+03 0.  0.
          5    1    3    3  502    0  0.56101874227E+02  0.11047358344E+00 -0.56074974210E+03  0.56356470628E+03  0.41800000000E+01 0. -1.
         -5    1    3    3    0  502 -0.54279935364E+02  0.20970476904E+02 -0.22915893062E+03  0.23646851835E+03  0.41800000000E+01 0. -1.
        -11    1    1    2    0    0 -0.51620455751E+01 -0.40887467872E+02 -0.22315747537E+03  0.22693102599E+03  0.00000000000E+00 0. -1.
         11    1    1    2    0    0  0.33401067122E+01  0.19806517385E+02 -0.73701307488E+01  0.21395636729E+02  0.00000000000E+00 0.  1.
</event>
<event>
 7    1  0.2644565E-009  0.1175061E+03  0.7561462E-02  0.1247269E+00
          1   -1    0    0  501    0  0.00000000000E+00  0.00000000000E+00  0.10206153334E+04  0.10206153334E+04  0.00000000000E+00 0. -1.
         -1   -1    0    0    0  501 -0.00000000000E+00 -0.00000000000E+00 -0.19740228640E+02  0.19740228640E+02  0.00000000000E+00 0.  1.
         25    2    1    2    0    0 -0.24414824304E+02  0.70720577115E+02  0.74806647342E+03  0.76213477597E+03  0.12509390243E+03 0.  0.
          5    1    3    3  502    0  0.42705355730E+02  0.37589784641E+02  0.49270015691E+03  0.49599158898E+03  0.41800000000E+01 0.  1.
         -5    1    3    3    0  502 -0.67120180034E+02  0.33130792475E+02  0.25536631651E+03  0.26614318700E+03  0.41800000000E+01 0.  1.
        -11    1    1    2    0    0  0.23245284454E+02 -0.85280365588E+02  0.24727920907E+03  0.26260253472E+03  0.00000000000E+00 0. -1.
         11    1    1    2    0    0  0.11695398498E+01  0.14559788473E+02  0.55294222469E+01  0.15618251318E+02  0.00000000000E+00 0.  1.
</event>
<event>
 7    1  0.2644565E-009  0.1464256E+03  0.7561462E-02  0.1204935E+00
         -2   -1    0    0    0  501 -0.00000000000E+00  0.00000000000E+00  0.42322753211E+02  0.42322753211E+02  0.00000000000E+00 0.  1.
          2   -1    0    0  501    0  0.00000000000E+00 -0.00000000000E+00 -0.64981685874E+03  0.64981685874E+03  0.00000000000E+00 0. -1.
         25    2    1    2    0    0 -0.81837549399E+02 -0.89940179957E+02 -0.25942684582E+03  0.31262800144E+03  0.12508940199E+03 0.  0.
          5    1    3    3  502    0 -0.79852005724E+02 -0.28335528940E+02 -0.60147698777E+02  0.10399261073E+03  0.41800000000E+01 0. -1.
         -5    1    3    3    0  502 -0.19855436754E+01 -0.61604651017E+02 -0.19927914704E+03  0.20863539071E+03  0.41800000000E+01 0. -1.
        -11    1    1    2    0    0 -0.23202397350E+00  0.58271172657E+02 -0.18851783851E+03  0.19731841991E+03  0.00000000000E+00 0.  1.
         11    1    1    2    0    0  0.82069573373E+02  0.31669007300E+02 -0.15954942119E+03  0.18219319060E+03  0.00000000000E+00 0. -1.
</event>
<event>
 7    1  0.2644565E-009  0.1311364E+03  0.7561462E-02  0.1225779E+00
          3   -1    0    0  501    0  0.00000000000E+00  0.00000000000E+00  0.85227240160E+02  0.85227240160E+02  0.00000000000E+00 0. -1.
         -3   -1    0    0    0  501 -0.00000000000E+00 -0.00000000000E+00 -0.31266852271E+03  0.31266852271E+03  0.00000000000E+00 0.  1.
         25    2    1    2    0    0 -0.59510179603E+02 -0.47476319044E+02 -0.23643328611E+03  0.27810690153E+03  0.12508911844E+03 0.  0.
          5    1    3    3  502    0  0.27594465426E+02 -0.48649963460E+02 -0.65666775001E+02  0.86358967142E+02  0.41800000000E+01 0. -1.
         -5    1    3    3    0  502 -0.87104645029E+02  0.11736444162E+01 -0.17076651111E+03  0.19174793439E+03  0.41800000000E+01 0. -1.
        -11    1    1    2    0    0  0.73707234939E+02  0.46487139471E+01  0.37858396717E+00  0.73854656925E+02  0.00000000000E+00 0.  1.
         11    1    1    2    0    0 -0.14197055336E+02  0.42827605097E+02  0.86134195868E+01  0.45934204418E+02  0.00000000000E+00 0. -1.
</event>
<event>
 7    1  0.2644565E-009  0.1361160E+03  0.7561462E-02  0.1218653E+00
         -1   -1    0    0    0  501 -0.00000000000E+00  0.00000000000E+00  0.10776812883E+03  0.10776812883E+03  0.00000000000E+00 0.  1.
          1   -1    0    0  501    0  0.00000000000E+00 -0.00000000000E+00 -0.18621212739E+03  0.18621212739E+03  0.00000000000E+00 0. -1.
         25    2    1    2    0    0 -0.81270994952E+02  0.34309056984E+02 -0.65167623028E+02  0.16635990541E+03  0.12508682194E+03 0.  0.
          5    1    3    3  502    0 -0.10308364461E+02  0.67483040938E+02 -0.53961870568E+02  0.87118190220E+02  0.41800000000E+01 0.  1.
         -5    1    3    3    0  502 -0.70962630491E+02 -0.33173983954E+02 -0.11205752461E+02  0.79241715187E+02  0.41800000000E+01 0.  1.
        -11    1    1    2    0    0 -0.28156613101E+01  0.23296891561E+02 -0.10361532425E+02  0.25652182348E+02  0.00000000000E+00 0. -1.
         11    1    1    2    0    0  0.84086656262E+02 -0.57605948545E+02 -0.29148431057E+01  0.10196816846E+03  0.00000000000E+00 0.  1.
</event>
<event>
 7    1  0.2644565E-009  0.1324301E+03  0.7561462E-02  0.1223894E+00
          1   -1    0    0  501    0  0.00000000000E+00  0.00000000000E+00  0.56098932287E+03  0.56098932287E+03  0.00000000000E+00 0. -1.
         -1   -1    0    0    0  501 -0.00000000000E+00 -0.00000000000E+00 -0.34325482482E+02  0.34325482482E+02  0.00000000000E+00 0.  1.
         25    2    1    2    0    0 -0.57115982185E+02  0.53485814283E+02  0.20785934571E+03  0.25490261228E+03  0.12508743501E+03 0.  0.
          5    1    3    3  502    0  0.10070229328E+02 -0.34807807944E+02  0.54069522708E+02  0.65222532137E+02  0.41800000000E+01 0.  1.
         -5    1    3    3    0  502 -0.67186211513E+02  0.88293622227E+02  0.15378982301E+03  0.18968008014E+03  0.41800000000E+01 0.  1.
        -11    1    1    2    0    0 -0.12770182962E+02 -0.45213753354E+02  0.98313031003E+02  0.10896243908E+03  0.00000000000E+00 0. -1.
         11    1    1    2    0    0  0.69886165146E+02 -0.82720609293E+01  0.22049146367E+03  0.23144975399E+03  0.00000000000E+00 0.  1.
</event>
<event>
 6    1  0.2644565E-009  0.1155394E+03  0.7561462E-02  0.1250642E+00
          2   -1    0    0  501    0  0.00000000000E+00  0.00000000000E+00  0.73288287748E+03  0.73288287748E+03  0.00000000000E+00 0. -1.
         -2   -1    0    0    0  501 -0.00000000000E+00 -0.00000000000E+00 -0.28914798733E+02  0.28914798733E+02  0.00000000000E+00 0.  1.
          5    1    1    2  502    0  0.30062493853E+02  0.85572577171E+02  0.41268638307E+03  0.42255643726E+03  0.41800000000E+01 0.  1.
         -5    1    1    2    0  502  0.34706029511E+02 -0.29373366712E+02  0.71390090163E+02  0.84742672426E+02  0.41800000000E+01 0.  1.
        -11    1    1    2    0    0 -0.33130704039E+02 -0.37113442483E+01  0.17596814754E+03  0.17909831539E+03  0.00000000000E+00 0. -1.
         11    1    1    2    0    0 -0.31637819325E+02 -0.52487866211E+02  0.43923457975E+02  0.75400251137E+02  0.00000000000E+00 0.  1.
</event>
<event>
 6    1  0.2644565E-009  0.1137606E+03  0.7561462E-02  0.1253760E+00
          1   -1    0    0  501    0  0.00000000000E+00  0.00000000000E+00  0.47096415779E+03  0.47096415779E+03  0.00000000000E+00 0. -1.
         -1   -1    0    0    0  501 -0.00000000000E+00 -0.00000000000E+00 -0.36519117796E+02  0.36519117796E+02  0.00000000000E+00 0.  1.
          5    1    1    2  502    0  0.91878760400E+02  0.33350273573E+02  0.11333214875E+03  0.14971838798E+03  0.41800000000E+01 0.  1.
         -5    1    1    2    0  502 -0.23322289427E+02 -0.62338689911E+01  0.14171221535E+03  0.14381451487E+03  0.41800000000E+01 0.  1.
        -11    1    1    2    0    0 -0.25383399533E+02  0.26269093840E+02  0.11172600043E+03  0.11754608218E+03  0.00000000000E+00 0.  1.
         11    1    1    2    0    0 -0.43173071441E+02 -0.53385498421E+02  0.67674675469E+02  0.96404290564E+02  0.00000000000E+00 0. -1.
</event>
<event>
 7    1  0.2644565E-009  0.9733752E+02  0.7561462E-02  0.1285997E+00
         -1   -1    0    0    0  501 -0.00000000000E+00  0.00000000000E+00  0.66166480202E+02  0.66166480202E+02  0.00000000000E+00 0. -1.
          1   -1    0    0  501    0  0.00000000000E+00 -0.00000000000E+00 -0.20237995206E+03  0.20237995206E+03  0.00000000000E+00 0.  1.
         25    2    1    2    0    0 -0.37578878367E+02  0.14379751026E+02 -0.75117248390E+02  0.15135823247E+03  0.12509102363E+03 0.  0.
          5    1    3    3  502    0 -0.67570559997E+02  0.85921588699E+01  0.20362326057E+01  0.68273160287E+02  0.41800000000E+01 0.  1.
         -5    1    3    3    0  502  0.29991681630E+02  0.57875921560E+01 -0.77153480996E+02  0.83085072184E+02  0.41800000000E+01 0.  1.
        -11    1    1    2    0    0 -0.66092449670E+01  0.31333841822E+02 -0.37642034160E+02  0.49420790140E+02  0.00000000000E+00 0.  1.
         11    1    1    2    0    0  0.44188123334E+02 -0.45713592848E+02 -0.23454189308E+02  0.67767409652E+02  0.00000000000E+00 0. -1.
</event>
<event>
 7    1  0.2644565E-009  0.1014766E+03  0.7561462E-02  0.1277221E+00
         -2   -1    0    0    0  501 -0.00000000000E+00  0.00000000000E+00  0.64397789654E+03  0.64397789654E+03  0.00000000000E+00 0.  1.
          2   -1    0    0  501    0  0.00000000000E+00 -0.00000000000E+00 -0.42162128761E+02  0.42162128761E+02  0.00000000000E+00 0. -1.
         25    2    1    2    0    0 -0.71041498950E+02  0.36803294415E+02  0.51847193690E+03  0.53931201900E+03  0.12507168918E+03 0.  0.
          5    1    3    3  502    0 -0.86743044467E+02  0.26758696162E+02  0.51064590088E+03  0.51866857632E+03  0.41800000000E+01 0. -1.
         -5    1    3    3    0  502  0.15701545517E+02  0.10044598254E+02  0.78260360196E+01  0.20643442675E+02  0.41800000000E+01 0. -1.
        -11    1    1    2    0    0  0.49230452470E+02  0.11049579133E+01 -0.37339237992E+01  0.49384213767E+02  0.00000000000E+00 0. -1.
         11    1    1    2    0    0  0.21811046480E+02 -0.37908252329E+02  0.87077754679E+02  0.97443792533E+02  0.00000000000E+00 0.  1.
</event>
<event>
 7    1  0.3841146E-009  0.1231789E+03  0.7561462E-02  0.1237943E+00
          2   -1    0    0  501    0  0.00000000000E+00  0.00000000000E+00  0.14586111211E+03  0.14586111211E+03  0.00000000000E+00 0.  1.
         -2   -1    0    0    0  501 -0.00000000000E+00 -0.00000000000E+00 -0.13206886155E+03  0.13206886155E+03  0.00000000000E+00 0. -1.
         25    2    1    2    0    0 -0.51649906855E+02 -0.68257239205E+02 -0.33196346993E+01  0.15160649472E+03  0.12508695249E+03 0.  0.
          5    1    3    3  502    0  0.24371702053E+01 -0.89067733495E+02 -0.19472889990E+02  0.91299872908E+02  0.41800000000E+01 0.  1.
         -5    1    3    3    0  502 -0.54087077060E+02  0.20810494290E+02  0.16153255290E+02  0.60306621809E+02  0.41800000000E+01 0.  1.
        -11    1    1    2    0    0  0.75055133122E+01  0.51173494712E+02  0.47377061951E+02  0.70140183135E+02  0.00000000000E+00 0.  1.
         11    1    1    2    0    0  0.44144393543E+02  0.17083744493E+02 -0.30265176691E+02  0.56183295803E+02  0.00000000000E+00 0. -1.
</event>
<event>
 7    1  0.2644565E-009  0.1006919E+03  0.7561462E-02  0.1278848E+00
         -2   -1    0    0    0  501 -0.00000000000E+00  0.00000000000E+00  0.42508158940E+02  0.42508158940E+02  0.00000000000E+00 0.  1.
          2   -1    0    0  501    0  0.00000000000E+00 -0.00000000000E+00 -0.29945141979E+03  0.29945141979E+03  0.00000000000E+00 0. -1.
         25    2    1    2    0    0  0.25986173003E+01  0.24650469152E+02 -0.11982067807E+03  0.17498180447E+03  0.12508892261E+03 0.  0.
          5    1    3    3  502    0  0.44113811964E+02  0.52886401124E+02 -0.98532694833E+02  0.12028783887E+03  0.41800000000E+01 0.  1.
         -5    1    3    3    0  502 -0.41515194664E+02 -0.28235931971E+02 -0.21287983235E+02  0.54693965595E+02  0.41800000000E+01 0.  1.
        -11    1    1    2    0    0 -0.20926710270E+02  0.22914718053E+02 -0.14641888359E+02  0.34313210297E+02  0.00000000000E+00 0.  1.
         11    1    1    2    0    0  0.18328092970E+02 -0.47565187205E+02 -0.12248069443E+03  0.13266456397E+03  0.00000000000E+00 0. -1.
</event>
<event>
 7    1  0.2644565E-009  0.1091620E+03  0.7561462E-02  0.1262130E+00
          1   -1    0    0  501    0  0.00000000000E+00  0.00000000000E+00  0.28915616432E+03  0.28915616432E+03  0.00000000000E+00 0. -1.
         -1   -1    0    0    0  501 -0.00000000000E+00 -0.00000000000E+00 -0.65053546775E+02  0.65053546775E+02  0.00000000000E+00 0.  1.
         25    2    1    2    0    0 -0.25923634992E+02  0.15239769401E+02  0.20467308522E+02  0.13027197552E+03  0.12509033322E+03 0.  0.
          5    1    3    3  502    0  0.12034248827E+02  0.64147865092E+02  0.19380821710E+02  0.68211878664E+02  0.41800000000E+01 0.  1.
         -5    1    3    3    0  502 -0.37957883819E+02 -0.48908095691E+02  0.10864868112E+01  0.62060096855E+02  0.41800000000E+01 0.  1.
        -11    1    1    2    0    0  0.96837236791E+00  0.34874947598E+02  0.55260228888E+02  0.65352066622E+02  0.00000000000E+00 0.  1.
         11    1    1    2    0    0  0.24955262624E+02 -0.50114716999E+02  0.14837508014E+03  0.15858566896E+03  0.00000000000E+00 0. -1.
</event>
<event>
 7    1  0.2644565E-009  0.7711970E+02  0.7561462E-02  0.1337430E+00
          1   -1    0    0  501    0  0.00000000000E+00  0.00000000000E+00  0.86273724506E+02  0.86273724506E+02  0.00000000000E+00 0. -1.
         -1   -1    0    0    0  501 -0.00000000000E+00 -0.00000000000E+00 -0.16677712264E+03  0.16677712264E+03  0.00000000000E+00 0.  1.
         25    2    1    2    0    0 -0.23963818767E+02 -0.44316119491E+02 -0.42497591728E+02  0.14139120476E+03  0.12508894605E+03 0.  0.
          5    1    3    3  502    0  0.17082170781E+02 -0.47141816362E+02 -0.73943477888E+02  0.89438591954E+02  0.41800000000E+01 0. -1.
         -5    1    3    3    0  502 -0.41045989548E+02  0.28256968716E+01  0.31445886160E+02  0.51952612804E+02  0.41800000000E+01 0. -1.
        -11    1    1    2    0    0 -0.98125046989E+01  0.14543786586E+02 -0.59308922743E+02  0.61849456696E+02  0.00000000000E+00 0.  1.
         11    1    1    2    0    0  0.33776323465E+02  0.29772332905E+02  0.21303116334E+02  0.49810185695E+02  0.00000000000E+00 0. -1.
</event>
<event>
 7    1  0.2644565E-009  0.1296087E+03  0.7561462E-02  0.1228037E+00
          2   -1    0    0  501    0  0.00000000000E+00  0.00000000000E+00  0.87280575231E+03  0.87280575231E+03  0.00000000000E+00 0. -1.
         -2   -1    0    0    0  501 -0.00000000000E+00 -0.00000000000E+00 -0.38211425248E+02  0.38211425248E+02  0.00000000000E+00 0.  1.
         25    2    1    2    0    0  0.26073374376E+02  0.11700875164E+03  0.65851637664E+03  0.68092851226E+03  0.12509577008E+03 0.  0.
          5    1    3    3  502    0  0.35224145735E+02  0.99851568567E+02  0.24499384440E+03  0.26692795354E+03  0.41800000000E+01 0.  1.
         -5    1    3    3    0  502 -0.91507713581E+01  0.17157183075E+02  0.41352253224E+03  0.41400055872E+03  0.41800000000E+01 0.  1.
        -11    1    1    2    0    0 -0.39621995207E+02 -0.44429805173E+02  0.13019745065E+03  0.14316174854E+03  0.00000000000E+00 0. -1.
         11    1    1    2    0    0  0.13548620831E+02 -0.72578946468E+02  0.45880499779E+02  0.86926916757E+02  0.00000000000E+00 0.  1.
</event>
<event>
 7    1  0.2644565E-009  0.1092481E+03  0.7561462E-02  0.1261969E+00
          2   -1    0    0  501    0  0.00000000000E+00  0.00000000000E+00  0.39442716578E+02  0.39442716578E+02  0.00000000000E+00 0. -1.
         -2   -1    0    0    0  501 -0.00000000000E+00 -0.00000000000E+00 -0.38184158135E+03  0.38184158135E+03  0.00000000000E+00 0.  1.
         25    2    1    2    0    0 -0.23439368082E+02 -0.52943895871E+02 -0.18651151809E+03  0.23192069908E+03  0.12509278234E+03 0.  0.
          5    1    3    3  502    0 -0.73521578517E+02 -0.40980398070E+02 -0.96338307035E+02  0.12799748957E+03  0.41800000000E+01 0.  1.
         -5    1    3    3    0  502  0.50082210435E+02 -0.11963497801E+02 -0.90173211057E+02  0.10392320951E+03  0.41800000000E+01 0.  1.
        -11    1    1    2    0    0 -0.66009514988E+01  0.52091574803E+02 -0.31140349034E+02  0.61047735946E+02  0.00000000000E+00 0. -1.
         11    1    1    2    0    0  0.30040319581E+02  0.85232106793E+00 -0.12474699764E+03  0.12831586290E+03  0.00000000000E+00 0.  1.
</event>
<event>
 7    1  0.2644565E-009  0.1051361E+03  0.7561462E-02  0.1269852E+00
          1   -1    0    0  501    0  0.00000000000E+00  0.00000000000E+00  0.32958816036E+03  0.32958816036E+03  0.00000000000E+00 0. -1.
         -1   -1    0    0    0  501 -0.00000000000E+00 -0.00000000000E+00 -0.58856574116E+02  0.58856574116E+02  0.00000000000E+00 0.  1.
         25    2    1    2    0    0  0.87190205847E+02  0.41052241730E+01  0.14752494256E+03  0.21220215289E+03  0.12508860921E+03 0.  0.
          5    1    3    3  502    0  0.42462648615E+02  0.34724701526E+02  0.35739181547E-01  0.55012317719E+02  0.41800000000E+01 0. -1.
         -5    1    3    3    0  502  0.44727557231E+02 -0.30619477353E+02  0.14748920337E+03  0.15718983517E+03  0.41800000000E+01 0. -1.
        -11    1    1    2    0    0 -0.71758028817E+02 -0.24046066443E+02  0.12973598786E+03  0.15019605373E+03  0.00000000000E+00 0. -1.
         11    1    1    2    0    0 -0.15432177030E+02  0.19940842270E+02 -0.65293441650E+01  0.26046527859E+02  0.00000000000E+00 0.  1.
</event>
<event>
 7    1  0.2644565E-009  0.1143201E+03  0.7561462E-02  0.1252773E+00
          2   -1    0    0  501    0  0.00000000000E+00  0.00000000000E+00  0.82684671778E+03  0.82684671778E+03  0.00000000000E+00 0. -1.
         -2   -1    0    0    0  501 -0.00000000000E+00 -0.00000000000E+00 -0.23680462712E+02  0.23680462712E+02  0.00000000000E+00 0.  1.
         25    2    1    2    0    0  0.43502064905E+02  0.32530907175E+02  0.65089492450E+03  0.66502783440E+03  0.12508848152E+03 0.  0.
          5    1    3    3  502    0  0.37431681806E+02  0.79376111969E+02  0.46130958002E+03  0.46960163860E+03  0.41800000000E+01 0.  1.
         -5    1    3    3    0  502  0.60703830989E+01 -0.46845204794E+02  0.18958534448E+03  0.19542619580E+03  0.41800000000E+01 0.  1.
        -11    1    1    2    0    0  0.18164851124E+02  0.77007781839E+01  0.42588113256E+01  0.20184183780E+02  0.00000000000E+00 0.  1.
         11    1    1    2    0    0 -0.61666916028E+02 -0.40231685359E+02  0.14801251924E+03  0.16531516232E+03  0.00000000000E+00 0. -1.
</event>
<event>
 7    1  0.2644565E-009  0.1002518E+03  0.7561462E-02  0.1279767E+00
          1   -1    0    0  501    0  0.00000000000E+00  0.00000000000E+00  0.83087288045E+03  0.83087288045E+03  0.00000000000E+00 0. -1.
         -1   -1    0    0    0  501 -0.00000000000E+00 -0.00000000000E+00 -0.33159608899E+02  0.33159608899E+02  0.00000000000E+00 0.  1.
         25    2    1    2    0    0  0.31659433255E+02 -0.19972799262E+02  0.73476185577E+03  0.74627379617E+03  0.12509341200E+03 0.  0.
          5    1    3    3  502    0  0.68179327088E+02  0.20708225727E+02  0.50732562804E+03  0.51232218039E+03  0.41800000000E+01 0. -1.
         -5    1    3    3    0  502 -0.36519893832E+02 -0.40681024990E+02  0.22743622773E+03  0.23395161577E+03  0.41800000000E+01 0. -1.
        -11    1    1    2    0    0  0.14298177737E+02  0.24240049536E+02 -0.11303611577E+02  0.30328031964E+02  0.00000000000E+00 0.  1.
         11    1    1    2    0    0 -0.45957610993E+02 -0.42672502732E+01  0.74255027352E+02  0.87430661212E+02  0.00000000000E+00 0. -1.
</event>
<event>
 7    1  0.2644565E-009  0.1063564E+03  0.7561462E-02  0.1267470E+00
          1   -1    0    0  501    0  0.00000000000E+00  0.00000000000E+00  0.66450711291E+03  0.66450711291E+03  0.00000000000E+00 0. -1.
         -1   -1    0    0    0  501 -0.00000000000E+00 -0.00000000000E+00 -0.18049559863E+02  0.18049559863E+02  0.00000000000E+00 0.  1.
         25    2    1    2    0    0 -0.14686974516E+02  0.44338963355E+01  0.32984176109E+03  0.35309879555E+03  0.12509118834E+03 0.  0.
          5    1    3    3  502    0 -0.44746342111E+02  0.51866554573E+02  0.20395310038E+03  0.21518994904E+03  0.41800000000E+01 0.  1.
         -5    1    3    3    0  502  0.30059367595E+02 -0.47432658237E+02  0.12588866072E+03  0.13790884651E+03  0.41800000000E+01 0.  1.
        -11    1    1    2    0    0  0.35944206559E+02 -0.35245293456E+02  0.22350950754E+03  0.22910852594E+03  0.00000000000E+00 0.  1.
         11    1    1    2    0    0 -0.21257232043E+02  0.30811397120E+02  0.93106284414E+02  0.10034935129E+03  0.00000000000E+00 0. -1.
</event>
<event>
 7    1  0.2644565E-009  0.1008736E+03  0.7561462E-02  0.1278470E+00
         -2   -1    0    0    0  501 -0.00000000000E+00  0.00000000000E+00  0.30570049853E+02  0.30570049853E+02  0.00000000000E+00 0.  1.
          2   -1    0    0  501    0  0.00000000000E+00 -0.00000000000E+00 -0.49176692750E+03  0.49176692750E+03  0.00000000000E+00 0. -1.
         25    2    1    2    0    0  0.56564018401E+02 -0.16760449124E+02 -0.27125245557E+03  0.30447607305E+03  0.12508950225E+03 0.  0.
          5    1    3    3  502    0 -0.33000167343E+02 -0.33167366320E+02 -0.99693797925E+02  0.11020622023E+03  0.41800000000E+01 0.  1.
         -5    1    3    3    0  502  0.89564185744E+02  0.16406917195E+02 -0.17155865765E+03  0.19426985282E+03  0.41800000000E+01 0.  1.
        -11    1    1    2    0    0 -0.37419931421E+02 -0.11066994054E+01 -0.18790191676E+03  0.19159490174E+03  0.00000000000E+00 0. -1.
         11    1    1    2    0    0 -0.19144086979E+02  0.17867148530E+02 -0.20425053192E+01  0.26266002567E+02  0.00000000000E+00 0.  1.
</event>
<event>
 7    1  0.2856630E-009  0.1803560E+03  0.7561462E-02  0.1167459E+00
          2   -1    0    0  501    0  0.00000000000E+00  0.00000000000E+00  0.91001704055E+03  0.91001704055E+03  0.00000000000E+00 0. -1.
         -2   -1    0    0    0  501 -0.00000000000E+00 -0.00000000000E+00 -0.53472015621E+02  0.53472015621E+02  0.00000000000E+00 0.  1.
         25    2    1    2    0    0  0.12303632183E+03 -0.11720906040E+03  0.63986170451E+03  0.67375525956E+03  0.12508896258E+03 0.  0.
          5    1    3    3  502    0  0.82561607933E+02 -0.79545038124E+02  0.20124637545E+03  0.23164932166E+03  0.41800000000E+01 0. -1.
         -5    1    3    3    0  502  0.40474713896E+02 -0.37664022276E+02  0.43861532906E+03  0.44210593790E+03  0.41800000000E+01 0. -1.
        -11    1    1    2    0    0 -0.12112788576E+03  0.63430938304E+02  0.13679682817E+03  0.19341360045E+03  0.00000000000E+00 0.  1.
         11    1    1    2    0    0 -0.19084360740E+01  0.53778122097E+02  0.79886492250E+02  0.96320196161E+02  0.00000000000E+00 0. -1.
</event>
<event>
 7    1  0.3222901E-009  0.1478610E+03  0.7561462E-02  0.1203126E+00
          4   -1    0    0  501    0  0.00000000000E+00  0.00000000000E+00  0.20154507390E+03  0.20154507390E+03  0.00000000000E+00 0. -1.
         -4   -1    0    0    0  501 -0.00000000000E+00 -0.00000000000E+00 -0.15551472282E+03  0.15551472282E+03  0.00000000000E+00 0.  1.
         25    2    1    2    0    0 -0.11845136475E+03 -0.70124294400E+02  0.18333046375E+01  0.18601308439E+03  0.12509741837E+03 0.  0.
          5    1    3    3  502    0 -0.10284008392E+03 -0.32634949818E+02  0.53224237680E+02  0.12038029193E+03  0.41800000000E+01 0.  1.
         -5    1    3    3    0  502 -0.15611280834E+02 -0.37489344583E+02 -0.51390933042E+02  0.65632792455E+02  0.41800000000E+01 0.  1.
        -11    1    1    2    0    0  0.54837267823E+02  0.37181288250E+01 -0.20442928355E+02  0.58641825892E+02  0.00000000000E+00 0.  1.
         11    1    1    2    0    0  0.63614096926E+02  0.66406165575E+02  0.64639974799E+02  0.11240488644E+03  0.00000000000E+00 0. -1.
</event>
<event>
 7    1  0.2644565E-009  0.5140170E+02  0.7561462E-02  0.1437925E+00
          2   -1    0    0  501    0  0.00000000000E+00  0.00000000000E+00  0.61844083931E+03  0.61844083931E+03  0.00000000000E+00 0.  1.
         -2   -1    0    0    0  501 -0.00000000000E+00 -0.00000000000E+00 -0.20158141722E+02  0.20158141722E+02  0.00000000000E+00 0. -1.
         25    2    1    2    0    0 -0.86532990866E+00 -0.16071529271E+02  0.42019500264E+03  0.43872282775E+03  0.12511928905E+03 0.  0.
          5    1    3    3  502    0  0.80415007379E+00 -0.98050193280E+01  0.42777402167E+03  0.42790754968E+03  0.41800000000E+01 0.  1.
         -5    1    3    3    0  502 -0.16694799824E+01 -0.62665099433E+01 -0.75790190239E+01  0.10815278066E+02  0.41800000000E+01 0.  1.
        -11    1    1    2    0    0 -0.19536486909E+02 -0.28975873932E+02  0.39553880304E+02  0.52780536545E+02  0.00000000000E+00 0. -1.
         11    1    1    2    0    0  0.20401816817E+02  0.45047403203E+02  0.13853381464E+03  0.14709561674E+03  0.00000000000E+00 0.  1.
</event>
<event>
 7    1  0.2644565E-009  0.1193115E+03  0.7561462E-02  0.1244237E+00
         -2   -1    0    0    0  501 -0.00000000000E+00  0.00000000000E+00  0.75218127277E+02  0.75218127277E+02  0.00000000000E+00 0.  1.
          2   -1    0    0  501    0  0.00000000000E+00 -0.00000000000E+00 -0.24049547266E+03  0.24049547266E+03  0.00000000000E+00 0. -1.
         25    2    1    2    0    0  0.15295821958E+02  0.57987936783E+02 -0.29237658511E+02  0.14179510695E+03  0.12511773935E+03 0.  0.
          5    1    3    3  502    0 -0.34730906248E+02 -0.17931891115E+02  0.13070813439E+02  0.41425923426E+02  0.41800000000E+01 0. -1.
         -5    1    3    3    0  502  0.50026728206E+02  0.75919827898E+02 -0.42308471950E+02  0.10036918353E+03  0.41800000000E+01 0. -1.
        -11    1    1    2    0    0  0.25212720754E+02 -0.62638446277E+02 -0.82037593348E+02  0.10625169628E+03  0.00000000000E+00 0. -1.
         11    1    1    2    0    0 -0.40508542712E+02  0.46505094942E+01 -0.54002093522E+02  0.67666796702E+02  0.00000000000E+00 0.  1.
</event>
<event>
 7    1  0.2644565E-009  0.6871797E+02  0.7561462E-02  0.1364508E+00
          2   -1    0    0  501    0  0.00000000000E+00  0.00000000000E+00  0.18368283309E+03  0.18368283309E+03  0.00000000000E+00 0. -1.
         -2   -1    0    0    0  501 -0.00000000000E+00 -0.00000000000E+00 -0.64088346976E+02  0.64088346976E+02  0.00000000000E+00 0.  1.
         25    2    1    2    0    0 -0.67698633048E+01  0.46788585058E+01  0.68883967178E+02  0.14303871913E+03  0.12508937393E+03 0.  0.
          5    1    3    3  502    0  0.20665793911E+02  0.12242075953E+01 -0.32004986128E+02  0.38345342080E+02  0.41800000000E+01 0.  1.
         -5    1    3    3    0  502 -0.27435657216E+02  0.34546509105E+01  0.10088895331E+03  0.10469337705E+03  0.41800000000E+01 0.  1.
        -11    1    1    2    0    0  0.46477004189E+02  0.69054938892E+01  0.40729666507E+02  0.62182823175E+02  0.00000000000E+00 0. -1.
         11    1    1    2    0    0 -0.39707140885E+02 -0.11584352395E+02  0.99808524242E+01  0.42549637751E+02  0.00000000000E+00 0.  1.
</event>
<event>
 7    1  0.2644565E-009  0.3335620E+03  0.7561462E-02  0.1069572E+00
          2   -1    0    0  501    0  0.00000000000E+00  0.00000000000E+00  0.77234132783E+03  0.77234132783E+03  0.00000000000E+00 0. -1.
         -2   -1    0    0    0  501 -0.00000000000E+00 -0.00000000000E+00 -0.16542269721E+03  0.16542269721E+03  0.00000000000E+00 0.  1.
         25    2    1    2    0    0  0.26402130271E+03  0.18199805383E+03  0.46041968127E+03  0.57485883757E+03  0.12508341357E+03 0.  0.
          5    1    3    3  502    0  0.24630282288E+02 -0.16198341187E+02  0.20236902172E+02  0.36000578778E+02  0.41800000000E+01 0.  1.
         -5    1    3    3    0  502  0.23939102042E+03  0.19819639501E+03  0.44018277909E+03  0.53885825879E+03  0.41800000000E+01 0.  1.
        -11    1    1    2    0    0 -0.19604122433E+03 -0.16554951102E+03  0.86572268733E+02  0.27080169857E+03  0.00000000000E+00 0.  1.
         11    1    1    2    0    0 -0.67980078384E+02 -0.16448542811E+02  0.59926680623E+02  0.92103488903E+02  0.00000000000E+00 0. -1.
</event>
<event>
 7    1  0.2644565E-009  0.7111086E+02  0.7561462E-02  0.1356356E+00
          4   -1    0    0  501    0  0.00000000000E+00  0.00000000000E+00  0.44567810507E+03  0.44567810507E+03  0.00000000000E+00 0. -1.
         -4   -1    0    0    0  501 -0.00000000000E+00 -0.00000000000E+00 -0.38757113075E+02  0.38757113075E+02  0.00000000000E+00 0.  1.
         25    2    1    2    0    0  0.22209396552E+02 -0.16454145427E+02  0.35620188630E+03  0.37853809656E+03  0.12508921037E+03 0.  0.
          5    1    3    3  502    0 -0.11606392620E+02  0.73699042551E+01 -0.47996344977E+01  0.15150337610E+02  0.41800000000E+01 0. -1.
         -5    1    3    3    0  502  0.33815789172E+02 -0.23824049682E+02  0.36100152079E+03  0.36338775895E+03  0.41800000000E+01 0. -1.
        -11    1    1    2    0    0 -0.14383759551E+02 -0.33109062718E+02  0.23060135293E+01  0.36172092437E+02  0.00000000000E+00 0.  1.
         11    1    1    2    0    0 -0.78256370011E+01  0.49563208145E+02  0.48413092174E+02  0.69725029150E+02  0.00000000000E+00 0. -1.
</event>
<event>
 7    1  0.2644565E-009  0.9992535E+02  0.7561462E-02  0.1280453E+00
         -3   -1    0    0    0  501 -0.00000000000E+00  0.00000000000E+00  0.64559367789E+02  0.64559367789E+02  0.00000000000E+00 0.  1.
          3   -1    0    0  501    0  0.00000000000E+00 -0.00000000000E+00 -0.33947774301E+03  0.33947774301E+03  0.00000000000E+00 0. -1.
         25    2    1    2    0    0  0.18481867491E+02  0.26477942101E+02 -0.27872234384E+03  0.30720603733E+03  0.12508694406E+03 0.  0.
          5    1    3    3  502    0  0.58840435128E+02  0.18234181330E+02 -0.65548548583E+02  0.90048691252E+02  0.41800000000E+01 0. -1.
         -5    1    3    3    0  502 -0.40358567637E+02  0.82437607713E+01 -0.21317379525E+03  0.21715734608E+03  0.41800000000E+01 0. -1.
        -11    1    1    2    0    0 -0.40702131883E+02  0.19879083569E+02  0.33618276780E+01  0.45421838235E+02  0.00000000000E+00 0.  1.
         11    1    1    2    0    0  0.22220264392E+02 -0.46357025670E+02  0.44214093829E+00  0.51409235233E+02  0.00000000000E+00 0. -1.
</event>
<event>
 7    1  0.2644565E-009  0.1291405E+03  0.7561462E-02  0.1228737E+00
         -1   -1    0    0    0  501 -0.00000000000E+00  0.00000000000E+00  0.17847417045E+03  0.17847417045E+03  0.00000000000E+00 0.  1.
          1   -1    0    0  501    0  0.00000000000E+00 -0.00000000000E+00 -0.10157869253E+03  0.10157869253E+03  0.00000000000E+00 0. -1.
         25    2    1    2    0    0 -0.80365675428E-01  0.73214820935E+02  0.67300106939E+01  0.14509945682E+03  0.12509253719E+03 0.  0.
          5    1    3    3  502    0 -0.12987526471E+02  0.10710498544E+03  0.10086156015E+02  0.10844056756E+03  0.41800000000E+01 0.  1.
         -5    1    3    3    0  502  0.12907160796E+02 -0.33890164505E+02 -0.33561453210E+01  0.36658889254E+02  0.41800000000E+01 0.  1.
        -11    1    1    2    0    0  0.41791266213E+02 -0.20394919811E+02  0.39410125192E+02  0.60955891048E+02  0.00000000000E+00 0. -1.
         11    1    1    2    0    0 -0.41710900538E+02 -0.52819901124E+02  0.30755342035E+02  0.73997515107E+02  0.00000000000E+00 0.  1.
</event>
<event>
 7    1  0.2644565E-009  0.1042112E+03  0.7561462E-02  0.1271682E+00
         -1   -1    0    0    0  501 -0.00000000000E+00  0.00000000000E+00  0.49003686213E+02  0.49003686213E+02  0.00000000000E+00 0.  1.
          1   -1    0    0  501    0  0.00000000000E+00 -0.00000000000E+00 -0.29039621053E+03  0.29039621053E+03  0.00000000000E+00 0. -1.
         25    2    1    2    0    0  0.22805302415E+02  0.41254428142E+02 -0.17198316236E+03  0.21782400580E+03  0.12508828764E+03 0.  0.
          5    1    3    3  502    0  0.24621836894E+02 -0.29909524945E+02 -0.90979725226E+01  0.40013248287E+02  0.41800000000E+01 0. -1.
         -5    1    3    3    0  502 -0.18165344792E+01  0.71163953087E+02 -0.16288518984E+03  0.17781075751E+03  0.41800000000E+01 0. -1.
        -11    1    1    2    0    0  0.12528509147E+02 -0.57792455631E+02 -0.52421910709E+02  0.79025237688E+02  0.00000000000E+00 0.  1.
         11    1    1    2    0    0 -0.35333811561E+02  0.16538027489E+02 -0.16987451239E+02  0.42550653253E+02  0.00000000000E+00 0. -1.
</event>
<event>
 7    1  0.2956104E-009  0.9778313E+02  0.7561462E-02  0.1285028E+00
         -1   -1    0    0    0  501 -0.00000000000E+00  0.00000000000E+00  0.42917341116E+03  0.42917341116E+03  0.00000000000E+00 0.  1.
          1   -1    0    0  501    0  0.00000000000E+00 -0.00000000000E+00 -0.32161626789E+02  0.32161626789E+02  0.00000000000E+00 0. -1.
         25    2    1    2    0    0 -0.61341426527E+01 -0.22288038351E+02  0.30246830849E+03  0.32812856028E+03  0.12508752964E+03 0.  0.
          5    1    3    3  502    0 -0.32273066422E+02 -0.66555155177E+02  0.15259840189E+03  0.16963161308E+03  0.41800000000E+01 0. -1.
         -5    1    3    3    0  502  0.26138923769E+02  0.44267116827E+02  0.14986990660E+03  0.15849694720E+03  0.41800000000E+01 0. -1.
        -11    1    1    2    0    0  0.20550767123E+02  0.41248372461E+02  0.98791775884E+02  0.10901182157E+03  0.00000000000E+00 0.  1.
         11    1    1    2    0    0 -0.14416624470E+02 -0.18960334110E+02 -0.42483000018E+01  0.24194656096E+02  0.00000000000E+00 0. -1.
</event>
<event>
 7    1  0.2644565E-009  0.1153026E+03  0.7561462E-02  0.1251054E+00
          2   -1    0    0  501    0  0.00000000000E+00  0.00000000000E+00  0.27685405091E+03  0.27685405091E+03  0.00000000000E+00 0. -1.
         -2   -1    0    0    0  501 -0.00000000000E+00 -0.00000000000E+00 -0.55831132493E+02  0.55831132493E+02  0.00000000000E+00 0.  1.
         25    2    1    2    0    0 -0.42825103758E+02  0.26367509128E+02  0.77407926680E+02  0.15545781394E+03  0.12508361105E+03 0.  0.
          5    1    3    3  502    0 -0.84003300430E+02  0.17376904913E+02  0.73287593256E+02  0.11290285662E+03  0.41800000000E+01 0. -1.
         -5    1    3    3    0  502  0.41178196671E+02  0.89906042151E+01  0.41203334234E+01  0.42554957323E+02  0.41800000000E+01 0. -1.
        -11    1    1    2    0    0 -0.56865253660E+01 -0.48650839420E+02  0.53909663518E+02  0.72838812234E+02  0.00000000000E+00 0.  1.
         11    1    1    2    0    0  0.48511629124E+02  0.22283330292E+02  0.89705328221E+02  0.10438855723E+03  0.00000000000E+00 0. -1.
</event>
<event>
 7    1  0.2644565E-009  0.1209345E+03  0.7561462E-02  0.1241563E+00
          1   -1    0    0  501    0  0.00000000000E+00  0.00000000000E+00  0.70552378563E+03  0.70552378563E+03  0.00000000000E+00 0.  1.
         -1   -1    0    0    0  501 -0.00000000000E+00 -0.00000000000E+00 -0.38260055930E+02  0.38260055930E+02  0.00000000000E+00 0. -1.
         25    2    1    2    0    0  0.83631319670E+02 -0.65557427079E+01  0.56317125150E+03  0.58296433040E+03  0.12509347149E+03 0.  0.
          5    1    3    3  502    0 -0.30566696713E+02  0.10699986015E+02  0.17224014037E+03  0.17530816012E+03  0.41800000000E+01 0.  1.
         -5    1    3    3    0  502  0.11419801638E+03 -0.17255728723E+02  0.39093111113E+03  0.40765617028E+03  0.41800000000E+01 0.  1.
        -11    1    1    2    0    0 -0.78032715016E+02  0.18726435808E+02  0.30232185413E+02  0.85754119701E+02  0.00000000000E+00 0. -1.
         11    1    1    2    0    0 -0.55986046546E+01 -0.12170693100E+02  0.73860292782E+02  0.75065391456E+02  0.00000000000E+00 0.  1.
</event>
<event>
 7    1  0.2644565E-009  0.1180651E+03  0.7561462E-02  0.1246324E+00
          2   -1    0    0  501    0  0.00000000000E+00  0.00000000000E+00  0.41062616301E+02  0.41062616301E+02  0.00000000000E+00 0. -1.
         -2   -1    0    0    0  501 -0.00000000000E+00 -0.00000000000E+00 -0.39574437830E+03  0.39574437830E+03  0.00000000000E+00 0.  1.
         25    2    1    2    0    0 -0.40178520606E+02  0.34685145672E+02 -0.12828144882E+03  0.18686819176E+03  0.12508484374E+03 0.  0.
          5    1    3    3  502    0 -0.62900458528E+02  0.66873898674E+02 -0.10969108945E+03  0.14310203881E+03  0.41800000000E+01 0.  1.
         -5    1    3    3    0  502  0.22721937922E+02 -0.32188753002E+02 -0.18590359367E+02  0.43766152951E+02  0.41800000000E+01 0.  1.
        -11    1    1    2    0    0 -0.29247916178E+02 -0.94777972632E+01 -0.85372489443E+02  0.90739909607E+02  0.00000000000E+00 0.  1.
         11    1    1    2    0    0  0.69426436785E+02 -0.25207348409E+02 -0.14102782374E+03  0.15919889324E+03  0.00000000000E+00 0. -1.
</event>
<event>
 7    1  0.2644565E-009  0.1012194E+03  0.7561462E-02  0.1277752E+00
          1   -1    0    0  501    0  0.00000000000E+00  0.00000000000E+00  0.59453955846E+03  0.59453955846E+03  0.00000000000E+00 0. -1.
         -1   -1    0    0    0  501 -0.00000000000E+00 -0.00000000000E+00 -0.35420599540E+02  0.35420599540E+02  0.00000000000E+00 0.  1.
         25    2    1    2    0    0  0.65317386651E+02  0.40350750141E+02  0.42985295872E+03  0.45421980836E+03  0.12509006414E+03 0.  0.
          5    1    3    3  502    0  0.67686809264E+02  0.50429489751E+02  0.43411798033E+03  0.44226748787E+03  0.41800000000E+01 0.  1.
         -5    1    3    3    0  502 -0.23694226134E+01 -0.10078739610E+02 -0.42650216064E+01  0.11952320484E+02  0.41800000000E+01 0.  1.
        -11    1    1    2    0    0  0.10912698928E+02  0.10487336468E+02 -0.24059532800E+01  0.15325137366E+02  0.00000000000E+00 0.  1.
         11    1    1    2    0    0 -0.76230085579E+02 -0.50838086609E+02  0.13167195348E+03  0.16041521228E+03  0.00000000000E+00 0. -1.
</event>
<event>
 7    1  0.2644565E-009  0.1134647E+03  0.7561462E-02  0.1254285E+00
          1   -1    0    0  501    0  0.00000000000E+00  0.00000000000E+00  0.20097701002E+02  0.20097701002E+02  0.00000000000E+00 0. -1.
         -1   -1    0    0    0  501 -0.00000000000E+00 -0.00000000000E+00 -0.10419650191E+04  0.10419650191E+04  0.00000000000E+00 0.  1.
         25    2    1    2    0    0  0.56115577728E+02 -0.38063233445E+02 -0.80198340953E+03  0.81450750511E+03  0.12508924384E+03 0.  0.
          5    1    3    3  502    0  0.43044056089E+02  0.36952781067E+02 -0.20761571628E+03  0.21526740775E+03  0.41800000000E+01 0.  1.
         -5    1    3    3    0  502  0.13071521639E+02 -0.75016014512E+02 -0.59436769324E+03  0.59924009736E+03  0.41800000000E+01 0.  1.
        -11    1    1    2    0    0 -0.26308163813E+01  0.40172117630E+02 -0.16890659016E+03  0.17363800399E+03  0.00000000000E+00 0.  1.
         11    1    1    2    0    0 -0.53484761346E+02 -0.21088841846E+01 -0.50977318393E+02  0.73917210982E+02  0.00000000000E+00 0. -1.
</event>
<event>
 7    1  0.2644565E-009  0.9025502E+02  0.7561462E-02  0.1302235E+00
         -2   -1    0    0    0  501 -0.00000000000E+00  0.00000000000E+00  0.23379609195E+03  0.23379609195E+03  0.00000000000E+00 0.  1.
          2   -1    0    0  501    0  0.00000000000E+00 -0.00000000000E+00 -0.74360457505E+02  0.74360457505E+02  0.00000000000E+00 0. -1.
         25    2    1    2    0    0 -0.16947027476E+02 -0.34986063579E+02  0.72523192446E+02  0.14977763344E+03  0.12514990871E+03 0.  0.
          5    1    3    3  502    0 -0.43493420364E+02 -0.46899094386E+02 -0.74904454492E+01  0.64535120997E+02  0.41800000000E+01 0.  1.
         -5    1    3    3    0  502  0.26546392887E+02  0.11913030807E+02  0.80013637895E+02  0.85242512443E+02  0.41800000000E+01 0.  1.
        -11    1    1    2    0    0  0.34539903952E+02 -0.12219832227E+02  0.99855901901E+02  0.10636508078E+03  0.00000000000E+00 0.  1.
         11    1    1    2    0    0 -0.17592876475E+02  0.47205895806E+02 -0.12943459903E+02  0.52013835234E+02  0.00000000000E+00 0. -1.
</event>
<event>
 7    1  0.2644565E-009  0.3413127E+03  0.7561462E-02  0.1066238E+00
         -2   -1    0    0    0  501 -0.00000000000E+00  0.00000000000E+00  0.13227063727E+03  0.13227063727E+03  0.00000000000E+00 0.  1.
          2   -1    0    0  501    0  0.00000000000E+00 -0.00000000000E+00 -0.11647518299E+04  0.11647518299E+04  0.00000000000E+00 0. -1.
         25    2    1    2    0    0  0.22438979130E+03 -0.23717573075E+03 -0.83328931332E+03  0.90367575568E+03  0.12512268383E+03 0.  0.
          5    1    3    3  502    0  0.11502051154E+02 -0.83776736141E+02 -0.15938874646E+03  0.18048014738E+03  0.41800000000E+01 0.  1.
         -5    1    3    3    0  502  0.21288774015E+03 -0.15339899461E+03 -0.67390056686E+03  0.72319560830E+03  0.41800000000E+01 0.  1.
        -11    1    1    2    0    0 -0.76651348980E+02  0.32867577194E+02 -0.75557498160E+02  0.11253729364E+03  0.00000000000E+00 0.  1.
         11    1    1    2    0    0 -0.14773844232E+03  0.20430815356E+03 -0.12363438113E+03  0.28080941784E+03  0.00000000000E+00 0. -1.
</event>
<event>
 7    1  0.2644565E-009  0.1802253E+03  0.7561462E-02  0.1167585E+00
          1   -1    0    0  501    0  0.00000000000E+00  0.00000000000E+00  0.30174499413E+03  0.30174499413E+03  0.00000000000E+00 0. -1.
         -1   -1    0    0    0  501 -0.00000000000E+00 -0.00000000000E+00 -0.31035990027E+03  0.31035990027E+03  0.00000000000E+00 0.  1.
         25    2    1    2    0    0 -0.86411302576E+02 -0.15728839367E+03 -0.22732758919E+03  0.31548685088E+03  0.12509024055E+03 0.  0.
          5    1    3    3  502    0 -0.60618946746E+02 -0.12742791623E+03 -0.78646163299E+02  0.16160204807E+03  0.41800000000E+01 0.  1.
         -5    1    3    3    0  502 -0.25792355831E+02 -0.29860477432E+02 -0.14868142589E+03  0.15388480281E+03  0.41800000000E+01 0.  1.
        -11    1    1    2    0    0  0.36599956728E+02  0.73875966032E+02  0.16773656500E+03  0.18690310438E+03  0.00000000000E+00 0. -1.
         11    1    1    2    0    0  0.49811345849E+02  0.83412427634E+02  0.50976118045E+02  0.10971493914E+03  0.00000000000E+00 0.  1.
</event>
<event>
 7    1  0.2644565E-009  0.1614864E+03  0.7561462E-02  0.1187029E+00
         -1   -1    0    0    0  501 -0.00000000000E+00  0.00000000000E+00  0.33335113854E+03  0.33335113854E+03  0.00000000000E+00 0.  1.
          1   -1    0    0  501    0  0.00000000000E+00 -0.00000000000E+00 -0.11355010345E+03  0.11355010345E+03  0.00000000000E+00 0. -1.
         25    2    1    2    0    0 -0.11465043804E+03  0.69270392531E+02  0.21663286149E+03  0.28376065751E+03  0.12508878387E+03 0.  0.
          5    1    3    3  502    0  0.24949174358E+02  0.80314598479E+01  0.57630053003E+02  0.63448097352E+02  0.41800000000E+01 0. -1.
         -5    1    3    3    0  502 -0.13959961240E+03  0.61238932683E+02  0.15900280849E+03  0.22031256016E+03  0.41800000000E+01 0. -1.
        -11    1    1    2    0    0  0.41763101349E+02  0.22410442654E+01  0.36724134178E+02  0.55658251363E+02  0.00000000000E+00 0.  1.
         11    1    1    2    0    0  0.72887336690E+02 -0.71511436796E+02 -0.33555960579E+02  0.10748233312E+03  0.00000000000E+00 0. -1.
</event>
<event>
 7    1  0.2644565E-009  0.1217008E+03  0.7561462E-02  0.1240317E+00
          1   -1    0    0  501    0  0.00000000000E+00  0.00000000000E+00  0.94173452830E+02  0.94173452830E+02  0.00000000000E+00 0. -1.
         -1   -1    0    0    0  501 -0.00000000000E+00 -0.00000000000E+00 -0.21539718026E+03  0.21539718026E+03  0.00000000000E+00 0.  1.
         25    2    1    2    0    0 -0.77980429350E+02 -0.13280705172E+01 -0.12462497206E+02  0.14794264543E+03  0.12509596863E+03 0.  0.
          5    1    3    3  502    0 -0.86810913715E+02 -0.34139956588E+02 -0.42317694471E+02  0.10251795473E+03  0.41800000000E+01 0.  1.
         -5    1    3    3    0  502  0.88304843646E+01  0.32811886071E+02  0.29855197265E+02  0.45424690702E+02  0.41800000000E+01 0.  1.
        -11    1    1    2    0    0 -0.16794259070E+02  0.11672289781E+02 -0.37090051096E+02  0.42355181226E+02  0.00000000000E+00 0.  1.
         11    1    1    2    0    0  0.94774688421E+02 -0.10344219263E+02 -0.71671179128E+02  0.11927280644E+03  0.00000000000E+00 0. -1.
</event>
<event>
 7    1  0.2644565E-009  0.1634110E+03  0.7561462E-02  0.1184899E+00
         -2   -1    0    0    0  501 -0.00000000000E+00  0.00000000000E+00  0.26896399470E+02  0.26896399470E+02  0.00000000000E+00 0.  1.
          2   -1    0    0  501    0  0.00000000000E+00 -0.00000000000E+00 -0.12708450744E+04  0.12708450744E+04  0.00000000000E+00 0. -1.
         25    2    1    2    0    0  0.13170292177E+03 -0.66643377814E+02 -0.73658370278E+03  0.76157124593E+03  0.12509281364E+03 0.  0.
          5    1    3    3  502    0  0.31777232154E+02  0.19166150196E+02 -0.49732767186E+02  0.62192880048E+02  0.41800000000E+01 0. -1.
         -5    1    3    3    0  502  0.99925689614E+02 -0.85809528011E+02 -0.68685093559E+03  0.69937836589E+03  0.41800000000E+01 0. -1.
        -11    1    1    2    0    0 -0.55842200182E+02  0.59344395518E+02 -0.37205482645E+03  0.38087386690E+03  0.00000000000E+00 0. -1.
         11    1    1    2    0    0 -0.75860721586E+02  0.72989822962E+01 -0.13531014568E+03  0.15529636102E+03  0.00000000000E+00 0.  1.
</event>
<event>
 7    1  0.2644565E-009  0.9020799E+02  0.7561462E-02  0.1302349E+00
          1   -1    0    0  501    0  0.00000000000E+00  0.00000000000E+00  0.32393454848E+02  0.32393454848E+02  0.00000000000E+00 0. -1.
         -1   -1    0    0    0  501 -0.00000000000E+00 -0.00000000000E+00 -0.38207834277E+03  0.38207834277E+03  0.00000000000E+00 0.  1.
         25    2    1    2    0    0 -0.73828917622E+01  0.15740230312E+02 -0.15095275706E+03  0.19681625349E+03  0.12509053055E+03 0.  0.
          5    1    3    3  502    0 -0.64302448188E+02  0.18493326006E+01 -0.10042506487E+03  0.11933520406E+03  0.41800000000E+01 0.  1.
         -5    1    3    3    0  502  0.56919556426E+02  0.13890897712E+02 -0.50527692196E+02  0.77481049435E+02  0.41800000000E+01 0.  1.
        -11    1    1    2    0    0  0.26828148127E+02 -0.24083952983E+02 -0.19213935733E+03  0.19549250359E+03  0.00000000000E+00 0.  1.
         11    1    1    2    0    0 -0.19445256365E+02  0.83437226702E+01 -0.65927735290E+01  0.22163040538E+02  0.00000000000E+00 0. -1.
</event>
<event>
 7    1  0.2644565E-009  0.9245845E+02  0.7561462E-02  0.1297005E+00
          2   -1    0    0  501    0  0.00000000000E+00  0.00000000000E+00  0.39230683166E+03  0.39230683166E+03  0.00000000000E+00 0. -1.
         -2   -1    0    0    0  501 -0.00000000000E+00 -0.00000000000E+00 -0.36785828611E+02  0.36785828611E+02  0.00000000000E+00 0.  1.
         25    2    1    2    0    0 -0.16802656337E+02  0.22614595011E+02  0.11637153391E+03  0.17315646010E+03  0.12508827524E+03 0.  0.
          5    1    3    3  502    0  0.18786417352E+00  0.64808894874E+02  0.22447256337E+02  0.68713753098E+02  0.41800000000E+01 0.  1.
         -5    1    3    3    0  502 -0.16990520510E+02 -0.42194299863E+02  0.93924277576E+02  0.10444270700E+03  0.41800000000E+01 0.  1.
        -11    1    1    2    0    0 -0.21865460351E+02 -0.27703937060E+02  0.18970945870E+03  0.19296446617E+03  0.00000000000E+00 0. -1.
         11    1    1    2    0    0  0.38668116687E+02  0.50893420489E+01  0.49440010437E+02  0.62971733997E+02  0.00000000000E+00 0.  1.
</event>
<event>
 7    1  0.2644565E-009  0.1240069E+03  0.7561462E-02  0.1236630E+00
         -1   -1    0    0    0  501 -0.00000000000E+00  0.00000000000E+00  0.59973610418E+02  0.59973610418E+02  0.00000000000E+00 0.  1.
          1   -1    0    0  501    0  0.00000000000E+00 -0.00000000000E+00 -0.32926044343E+03  0.32926044343E+03  0.00000000000E+00 0. -1.
         25    2    1    2    0    0 -0.19871618726E+01  0.74432659661E+02 -0.10926857138E+03  0.18201761308E+03  0.12508645467E+03 0.  0.
          5    1    3    3  502    0 -0.36191624894E+02  0.88024553627E+02 -0.10927997890E+03  0.14497497005E+03  0.41800000000E+01 0.  1.
         -5    1    3    3    0  502  0.34204463021E+02 -0.13591893965E+02  0.11407518659E-01  0.37042643025E+02  0.41800000000E+01 0.  1.
        -11    1    1    2    0    0 -0.41730635464E+02 -0.21154850705E+02 -0.11691500687E+03  0.12592891834E+03  0.00000000000E+00 0. -1.
         11    1    1    2    0    0  0.43717797337E+02 -0.53277808956E+02 -0.43103254769E+02  0.81287522430E+02  0.00000000000E+00 0.  1.
</event>
<event>
 7    1  0.2644565E-009  0.8196071E+02  0.7561462E-02  0.1323578E+00
         -2   -1    0    0    0  501 -0.00000000000E+00  0.00000000000E+00  0.63864063106E+03  0.63864063106E+03  0.00000000000E+00 0.  1.
          2   -1    0    0  501    0  0.00000000000E+00 -0.00000000000E+00 -0.44802064361E+02  0.44802064361E+02  0.00000000000E+00 0. -1.
         25    2    1    2    0    0  0.30202796572E+02 -0.63328740545E+02  0.53823669124E+03  0.55701858568E+03  0.12509288823E+03 0.  0.
          5    1    3    3  502    0  0.26763607318E+02 -0.43024062854E+02  0.53292393299E+03  0.53534358258E+03  0.41800000000E+01 0. -1.
         -5    1    3    3    0  502  0.34391892536E+01 -0.20304677691E+02  0.53127582583E+01  0.21675003095E+02  0.41800000000E+01 0. -1.
        -11    1    1    2    0    0  0.16547595682E+02  0.49431838187E+01 -0.15514548531E+02  0.23215494938E+02  0.00000000000E+00 0. -1.
         11    1    1    2    0    0 -0.46750392254E+02  0.58385556727E+02  0.71116423985E+02  0.10320861481E+03  0.00000000000E+00 0.  1.
</event>
<event>
 7    1  0.2644565E-009  0.1867892E+03  0.7561462E-02  0.1161390E+00
         -2   -1    0    0    0  501 -0.00000000000E+00  0.00000000000E+00  0.56140219817E+03  0.56140219817E+03  0.00000000000E+00 0.  1.
          2   -1    0    0  501    0  0.00000000000E+00 -0.00000000000E+00 -0.68866503095E+02  0.68866503095E+02  0.00000000000E+00 0. -1.
         25    2    1    2    0    0  0.15852257442E+03 -0.22352636181E+02  0.20496167262E+03  0.28859266561E+03  0.12508953777E+03 0.  0.
          5    1    3    3  502    0  0.17917111393E+03 -0.15794885929E+02  0.19144413707E+03  0.26271676100E+03  0.41800000000E+01 0.  1.
         -5    1    3    3    0  502 -0.20648539516E+02 -0.65577502520E+01  0.13517535546E+02  0.25875904617E+02  0.41800000000E+01 0.  1.
        -11    1    1    2    0    0 -0.81562327466E+02 -0.19688243788E+02  0.20380703323E+03  0.22040269281E+03  0.00000000000E+00 0.  1.
         11    1    1    2    0    0 -0.76960246950E+02  0.42040879969E+02  0.83766989232E+02  0.12127334284E+03  0.00000000000E+00 0. -1.
</event>
<event>
 7    1  0.2644565E-009  0.1854049E+03  0.7561462E-02  0.1162672E+00
          1   -1    0    0  501    0  0.00000000000E+00  0.00000000000E+00  0.13023153512E+04  0.13023153512E+04  0.00000000000E+00 0. -1.
         -1   -1    0    0    0  501 -0.00000000000E+00 -0.00000000000E+00 -0.31559636655E+02  0.31559636655E+02  0.00000000000E+00 0.  1.
         25    2    1    2    0    0  0.12569420446E+03  0.10172432679E+03  0.85137418721E+03  0.87557518341E+03  0.12508806280E+03 0.  0.
          5    1    3    3  502    0 -0.80454100488E+01 -0.20723329213E+02  0.77743093777E+02  0.80966944036E+02  0.41800000000E+01 0. -1.
         -5    1    3    3    0  502  0.13373961451E+03  0.12244765600E+03  0.77363109344E+03  0.79460823937E+03  0.41800000000E+01 0. -1.
        -11    1    1    2    0    0 -0.24201859168E+02 -0.43572547551E+02  0.49032798060E+02  0.69917895942E+02  0.00000000000E+00 0.  1.
         11    1    1    2    0    0 -0.10149234529E+03 -0.58151779239E+02  0.37034872928E+03  0.38838190851E+03  0.00000000000E+00 0. -1.
</event>
<event>
 7    1  0.2644565E-009  0.1093221E+03  0.7561462E-02  0.1261830E+00
          2   -1    0    0  501    0  0.00000000000E+00  0.00000000000E+00  0.15442570777E+04  0.15442570777E+04  0.00000000000E+00 0.  1.
         -2   -1    0    0    0  501 -0.00000000000E+00 -0.00000000000E+00 -0.12339406422E+02  0.12339406422E+02  0.00000000000E+00 0. -1.
         25    2    1    2    0    0 -0.22345525644E+02 -0.47071209691E+02  0.12099574937E+04  0.12175223630E+04  0.12509415086E+03 0.  0.
          5    1    3    3  502    0  0.18205427892E+02 -0.79253049340E+02  0.83995285431E+03  0.84389024955E+03  0.41800000000E+01 0. -1.
         -5    1    3    3    0  502 -0.40550953536E+02  0.32181839649E+02  0.37000463939E+03  0.37363211346E+03  0.41800000000E+01 0. -1.
        -11    1    1    2    0    0  0.28868448102E+02 -0.78961459711E+01  0.31751199961E+02  0.43633417422E+02  0.00000000000E+00 0. -1.
         11    1    1    2    0    0 -0.65229224580E+01  0.54967355662E+02  0.29020897766E+03  0.29544070373E+03  0.00000000000E+00 0.  1.
</event>
<event>
 7    1  0.2644565E-009  0.9284651E+02  0.7561462E-02  0.1296101E+00
          1   -1    0    0  501    0  0.00000000000E+00  0.00000000000E+00  0.17436978699E+03  0.17436978699E+03  0.00000000000E+00 0. -1.
         -1   -1    0    0    0  501 -0.00000000000E+00 -0.00000000000E+00 -0.87889016156E+02  0.87889016156E+02  0.00000000000E+00 0.  1.
         25    2    1    2    0    0 -0.50142368075E+02  0.21641002421E+02  0.25264124682E+02  0.13881790562E+03  0.12509814093E+03 0.  0.
          5    1    3    3  502    0 -0.66556008375E+02  0.42798112841E+02 -0.23825732454E+02  0.82743692452E+02  0.41800000000E+01 0. -1.
         -5    1    3    3    0  502  0.16413640300E+02 -0.21157110420E+02  0.49089857135E+02  0.56074213172E+02  0.41800000000E+01 0. -1.
        -11    1    1    2    0    0  0.31827843757E+02  0.17367628417E+02  0.70573548024E+02  0.79342749106E+02  0.00000000000E+00 0. -1.
         11    1    1    2    0    0  0.18314524318E+02 -0.39008630837E+02 -0.93569018754E+01  0.44098148413E+02  0.00000000000E+00 0.  1.
</event>
<event>
 7    1  0.2644565E-009  0.1622332E+03  0.7561462E-02  0.1186198E+00
         -1   -1    0    0    0  501 -0.00000000000E+00  0.00000000000E+00  0.16879974159E+03  0.16879974159E+03  0.00000000000E+00 0. -1.
          1   -1    0    0  501    0  0.00000000000E+00 -0.00000000000E+00 -0.18438230507E+03  0.18438230507E+03  0.00000000000E+00 0.  1.
         25    2    1    2    0    0  0.13871831550E+03 -0.20649669692E+02 -0.74593673430E-01  0.18792480402E+03  0.12508615627E+03 0.  0.
          5    1    3    3  502    0  0.52958378866E+02 -0.67864239268E+02 -0.18685683869E+02  0.88186008216E+02  0.41800000000E+01 0.  1.
         -5    1    3    3    0  502  0.85759936630E+02  0.47214569576E+02  0.18611090195E+02  0.99738795808E+02  0.41800000000E+01 0.  1.
        -11    1    1    2    0    0 -0.44637785947E+02  0.83979295617E+01 -0.46933509273E+02  0.65313179741E+02  0.00000000000E+00 0.  1.
         11    1    1    2    0    0 -0.94080529549E+02  0.12251740130E+02  0.31425539462E+02  0.99944062890E+02  0.00000000000E+00 0. -1.
</event>
<event>
 7    1  0.2644565E-009  0.1343835E+03  0.7561462E-02  0.1221093E+00
         -3   -1    0    0    0  501 -0.00000000000E+00  0.00000000000E+00  0.12732380166E+03  0.12732380166E+03  0.00000000000E+00 0.  1.
          3   -1    0    0  501    0  0.00000000000E+00 -0.00000000000E+00 -0.19031236076E+03  0.19031236076E+03  0.00000000000E+00 0. -1.
         25    2    1    2    0    0  0.53912599369E+02  0.10017200921E+03 -0.37799861899E+02  0.17325386164E+03  0.12508825370E+03 0.  0.
          5    1    3    3  502    0  0.21916769509E+02  0.90711823355E+02  0.29548760992E+02  0.97977453316E+02  0.41800000000E+01 0.  1.
         -5    1    3    3    0  502  0.31995829860E+02  0.94601858598E+01 -0.67348622891E+02  0.75276408325E+02  0.41800000000E+01 0.  1.
        -11    1    1    2    0    0 -0.68455350858E+02 -0.38867450260E+02 -0.19638017273E+02  0.81132394721E+02  0.00000000000E+00 0. -1.
         11    1    1    2    0    0  0.14542751489E+02 -0.61304558954E+02 -0.55506799308E+01  0.63249906064E+02  0.00000000000E+00 0.  1.
</event>
<event>
 7    1  0.2644565E-009  0.2404761E+03  0.7561462E-02  0.1119476E+00
         -2   -1    0    0    0  501 -0.00000000000E+00  0.00000000000E+00  0.57159509559E+03  0.57159509559E+03  0.00000000000E+00 0. -1.
          2   -1    0    0  501    0  0.00000000000E+00 -0.00000000000E+00 -0.14121290830E+03  0.14121290830E+03  0.00000000000E+00 0.  1.
         25    2    1    2    0    0 -0.18304521011E+03  0.12357917573E+03  0.41863483380E+02  0.25724963484E+03  0.12508981478E+03 0.  0.
          5    1    3    3  502    0 -0.19896195151E+03  0.10403837975E+03  0.50708911809E+02  0.23021448423E+03  0.41800000000E+01 0. -1.
         -5    1    3    3    0  502  0.15916741400E+02  0.19540795978E+02 -0.88454284297E+01  0.27035150608E+02  0.41800000000E+01 0. -1.
        -11    1    1    2    0    0  0.18163185927E+03 -0.10022763536E+03  0.37495304384E+03  0.42851545628E+03  0.00000000000E+00 0. -1.
         11    1    1    2    0    0  0.14133508469E+01 -0.23351540373E+02  0.13565660073E+02  0.27042912780E+02  0.00000000000E+00 0.  1.
</event>
<event>
 7    1  0.2644565E-009  0.4101129E+03  0.7561462E-02  0.1040333E+00
         -3   -1    0    0    0  501 -0.00000000000E+00  0.00000000000E+00  0.13495351145E+03  0.13495351145E+03  0.00000000000E+00 0.  1.
          3   -1    0    0  501    0  0.00000000000E+00 -0.00000000000E+00 -0.16532114699E+04  0.16532114699E+04  0.00000000000E+00 0. -1.
         25    2    1    2    0    0 -0.17150136193E+03 -0.36204587360E+03 -0.33709127825E+03  0.53830011550E+03  0.12508618125E+03 0.  0.
          5    1    3    3  502    0 -0.18538193203E+03 -0.35980431656E+03 -0.32174988502E+03  0.51707452833E+03  0.41800000000E+01 0. -1.
         -5    1    3    3    0  502  0.13880570101E+02 -0.22415570354E+01 -0.15341393233E+02  0.21225587167E+02  0.41800000000E+01 0. -1.
        -11    1    1    2    0    0  0.12421237354E+03  0.24968065547E+03 -0.92582817928E+03  0.96691621199E+03  0.00000000000E+00 0.  1.
         11    1    1    2    0    0  0.47288988391E+02  0.11236521813E+03 -0.25533850089E+03  0.28294865383E+03  0.00000000000E+00 0. -1.
</event>
<event>
 7    1  0.2644565E-009  0.1009780E+03  0.7561462E-02  0.1278253E+00
         -1   -1    0    0    0  501 -0.00000000000E+00  0.00000000000E+00  0.31812851770E+02  0.31812851770E+02  0.00000000000E+00 0.  1.
          1   -1    0    0  501    0  0.00000000000E+00 -0.00000000000E+00 -0.60674561912E+03  0.60674561912E+03  0.00000000000E+00 0. -1.
         25    2    1    2    0    0 -0.15636266989E+02 -0.25681559308E+02 -0.50391733969E+03  0.52008082295E+03  0.12508933536E+03 0.  0.
          5    1    3    3  502    0  0.50347797555E+02  0.57201961705E+00 -0.29723629124E+03  0.30149977306E+03  0.41800000000E+01 0. -1.
         -5    1    3    3    0  502 -0.65984064543E+02 -0.26253578925E+02 -0.20668104845E+03  0.21858104989E+03  0.41800000000E+01 0. -1.
        -11    1    1    2    0    0 -0.14195786535E+02 -0.20727962014E+02  0.39160754717E+01  0.25426451024E+02  0.00000000000E+00 0.  1.
         11    1    1    2    0    0  0.29832053524E+02  0.46409521322E+02 -0.74931503130E+02  0.93051196920E+02  0.00000000000E+00 0. -1.
</event>
<event>
 7    1  0.2644565E-009  0.1022748E+03  0.7561462E-02  0.1275584E+00
          2   -1    0    0  501    0  0.00000000000E+00  0.00000000000E+00  0.22552266349E+03  0.22552266349E+03  0.00000000000E+00 0. -1.
         -2   -1    0    0    0  501 -0.00000000000E+00 -0.00000000000E+00 -0.10142737703E+03  0.10142737703E+03  0.00000000000E+00 0.  1.
         25    2    1    2    0    0  0.17818771981E+02  0.60041218088E+02  0.15736578029E+03  0.21055962276E+03  0.12509560116E+03 0.  0.
          5    1    3    3  502    0 -0.38078165642E+02  0.21012895000E+02  0.54939178411E+01  0.44035712645E+02  0.41800000000E+01 0. -1.
         -5    1    3    3    0  502  0.55896937623E+02  0.39028323089E+02  0.15187186244E+03  0.16652391012E+03  0.41800000000E+01 0. -1.
        -11    1    1    2    0    0  0.11724410955E+02 -0.61855864003E+02 -0.51750047632E+02  0.81496485530E+02  0.00000000000E+00 0. -1.
         11    1    1    2    0    0 -0.29543182936E+02  0.18146459147E+01  0.18479553804E+02  0.34893932232E+02  0.00000000000E+00 0.  1.
</event>
<event>
 7    1  0.2644565E-009  0.1128960E+03  0.7561462E-02  0.1255299E+00
         -1   -1    0    0    0  501 -0.00000000000E+00  0.00000000000E+00  0.22399467633E+02  0.22399467633E+02  0.00000000000E+00 0.  1.
          1   -1    0    0  501    0  0.00000000000E+00 -0.00000000000E+00 -0.79693621693E+03  0.79693621693E+03  0.00000000000E+00 0. -1.
         25    2    1    2    0    0  0.32940785910E+02  0.44927114519E+02 -0.60011748787E+03  0.61554274375E+03  0.12509328174E+03 0.  0.
          5    1    3    3  502    0  0.70979979633E+02  0.42304541418E+02 -0.52199733959E+03  0.52851350661E+03  0.41800000000E+01 0.  1.
         -5    1    3    3    0  502 -0.38039193723E+02  0.26225731014E+01 -0.78120148287E+02  0.87029237140E+02  0.41800000000E+01 0.  1.
        -11    1    1    2    0    0 -0.23213336170E+02  0.24989493464E+02 -0.46196421285E+02  0.57423367189E+02  0.00000000000E+00 0. -1.
         11    1    1    2    0    0 -0.97274497392E+01 -0.69916607983E+02 -0.12822284014E+03  0.14636957363E+03  0.00000000000E+00 0.  1.
</event>
<event>
 7    1  0.2644565E-009  0.1479959E+03  0.7561462E-02  0.1202958E+00
          1   -1    0    0  501    0  0.00000000000E+00  0.00000000000E+00  0.39845423161E+03  0.39845423161E+03  0.00000000000E+00 0. -1.
         -1   -1    0    0    0  501 -0.00000000000E+00 -0.00000000000E+00 -0.81836142472E+02  0.81836142472E+02  0.00000000000E+00 0.  1.
         25    2    1    2    0    0  0.69611790658E+02  0.84917755269E+02  0.28955057800E+03  0.33398331128E+03  0.12509391845E+03 0.  0.
          5    1    3    3  502    0  0.75427764336E+01 -0.30392827542E+02  0.88869884925E+02  0.94318324248E+02  0.41800000000E+01 0. -1.
         -5    1    3    3    0  502  0.62069014224E+02  0.11531058281E+03  0.20068069308E+03  0.23966498703E+03  0.41800000000E+01 0. -1.
        -11    1    1    2    0    0 -0.33428037298E+02  0.73869262077E+01 -0.16511919809E+02  0.38008470795E+02  0.00000000000E+00 0.  1.
         11    1    1    2    0    0 -0.36183753359E+02 -0.92304681477E+02  0.43579430946E+02  0.10829859201E+03  0.00000000000E+00 0. -1.
</event>
<event>
 7    1  0.2644565E-009  0.1532315E+03  0.7561462E-02  0.1196557E+00
          1   -1    0    0  501    0  0.00000000000E+00  0.00000000000E+00  0.40943413199E+03  0.40943413199E+03  0.00000000000E+00 0. -1.
         -1   -1    0    0    0  501 -0.00000000000E+00 -0.00000000000E+00 -0.79440058966E+02  0.79440058966E+02  0.00000000000E+00 0.  1.
         25    2    1    2    0    0 -0.11516257634E+03 -0.63697176828E+02  0.25458033094E+03  0.31268889379E+03  0.12507377853E+03 0.  0.
          5    1    3    3  502    0 -0.79371672980E+02  0.18836481065E+02  0.17239798334E+03  0.19077005150E+03  0.41800000000E+01 0. -1.
         -5    1    3    3    0  502 -0.35790903360E+02 -0.82533657893E+02  0.82182347597E+02  0.12191884229E+03  0.41800000000E+01 0. -1.
        -11    1    1    2    0    0  0.66859236904E+02  0.52828915168E+02 -0.90124538416E+00  0.85216571631E+02  0.00000000000E+00 0.  1.
         11    1    1    2    0    0  0.48303339437E+02  0.10868261660E+02  0.76314987467E+02  0.90968725529E+02  0.00000000000E+00 0. -1.
</event>
<event>
 7    1  0.2644565E-009  0.1070809E+03  0.7561462E-02  0.1266073E+00
         -2   -1    0    0    0  501 -0.00000000000E+00  0.00000000000E+00  0.60958631800E+02  0.60958631800E+02  0.00000000000E+00 0.  1.
          2   -1    0    0  501    0  0.00000000000E+00 -0.00000000000E+00 -0.28970316613E+03  0.28970316613E+03  0.00000000000E+00 0. -1.
         25    2    1    2    0    0 -0.34343949460E+02  0.48270577708E+02 -0.62533627138E+02  0.15188056844E+03  0.12509075510E+03 0.  0.
          5    1    3    3  502    0 -0.73349226273E+02  0.24594891772E+02 -0.40445843789E+01  0.77581239735E+02  0.41800000000E+01 0.  1.
         -5    1    3    3    0  502  0.39005276813E+02  0.23675685936E+02 -0.58489042759E+02  0.74299328709E+02  0.41800000000E+01 0.  1.
        -11    1    1    2    0    0  0.16787370037E+02  0.16632011298E+02 -0.10575398162E+03  0.10836209771E+03  0.00000000000E+00 0. -1.
         11    1    1    2    0    0  0.17556579423E+02 -0.64902589006E+02 -0.60456925577E+02  0.90419131775E+02  0.00000000000E+00 0.  1.
</event>
<event>
 7    1  0.2644565E-009  0.1492224E+03  0.7561462E-02  0.1201432E+00
          2   -1    0    0  501    0  0.00000000000E+00  0.00000000000E+00  0.31993993831E+03  0.31993993831E+03  0.00000000000E+00 0. -1.
         -2   -1    0    0    0  501 -0.00000000000E+00 -0.00000000000E+00 -0.82365529914E+02  0.82365529914E+02  0.00000000000E+00 0.  1.
         25    2    1    2    0    0 -0.10565397016E+03  0.56513337103E+02  0.11536158145E+03  0.20811673836E+03  0.12509102138E+03 0.  0.
          5    1    3    3  502    0  0.12704755239E+02  0.27387483429E+02 -0.11089861459E+02  0.32433662782E+02  0.41800000000E+01 0.  1.
         -5    1    3    3    0  502 -0.11835872540E+03  0.29125853674E+02  0.12645144291E+03  0.17568307558E+03  0.41800000000E+01 0.  1.
        -11    1    1    2    0    0 -0.14427684365E+02 -0.79648573968E+01  0.55579863835E+00  0.16489570692E+02  0.00000000000E+00 0.  1.
         11    1    1    2    0    0  0.12008165452E+03 -0.48548479707E+02  0.12165702830E+03  0.17769915917E+03  0.00000000000E+00 0. -1.
</event>
<event>
 7    1  0.2644565E-009  0.1260847E+03  0.7561462E-02  0.1233384E+00
         -1   -1    0    0    0  501 -0.00000000000E+00  0.00000000000E+00  0.13395915862E+03  0.13395915862E+03  0.00000000000E+00 0.  1.
          1   -1    0    0  501    0  0.00000000000E+00 -0.00000000000E+00 -0.14375217429E+03  0.14375217429E+03  0.00000000000E+00 0. -1.
         25    2    1    2    0    0  0.29667277444E+02  0.78868512492E+02 -0.24912745898E+02  0.15286774535E+03  0.12509001977E+03 0.  0.
          5    1    3    3  502    0  0.59586350371E+02  0.91807758304E+02  0.32645312130E+01  0.10957795033E+03  0.41800000000E+01 0. -1.
         -5    1    3    3    0  502 -0.29919072928E+02 -0.12939245812E+02 -0.28177277111E+02  0.43289795015E+02  0.41800000000E+01 0. -1.
        -11    1    1    2    0    0 -0.52466149793E+02 -0.63062979481E+02  0.36530496603E+02  0.89800408892E+02  0.00000000000E+00 0. -1.
         11    1    1    2    0    0  0.22798872349E+02 -0.15805533011E+02 -0.21410766373E+02  0.35043178663E+02  0.00000000000E+00 0.  1.
</event>
<event>
 7    1  0.2644565E-009  0.1189822E+03  0.7561462E-02  0.1244786E+00
         -1   -1    0    0    0  501 -0.00000000000E+00  0.00000000000E+00  0.41239830688E+03  0.41239830688E+03  0.00000000000E+00 0.  1.
          1   -1    0    0  501    0  0.00000000000E+00 -0.00000000000E+00 -0.38879798113E+02  0.38879798113E+02  0.00000000000E+00 0. -1.
         25    2    1    2    0    0 -0.71407461753E+01  0.54915048228E+02  0.26829233009E+03  0.30115553004E+03  0.12508887283E+03 0.  0.
          5    1    3    3  502    0  0.22584861527E+02 -0.31750235200E+02  0.44480614530E+02  0.59280273906E+02  0.41800000000E+01 0.  1.
         -5    1    3    3    0  502 -0.29725607702E+02  0.86665283428E+02  0.22381171556E+03  0.24187525613E+03  0.41800000000E+01 0.  1.
        -11    1    1    2    0    0  0.33118767620E+02  0.12042423685E+02  0.33645707647E+02  0.48722750127E+02  0.00000000000E+00 0. -1.
         11    1    1    2    0    0 -0.25978021444E+02 -0.66957471913E+02  0.71580471032E+02  0.10139982483E+03  0.00000000000E+00 0.  1.
</event>
<event>
 7    1  0.2644565E-009  0.1052048E+03  0.7561462E-02  0.1269717E+00
          1   -1    0    0  501    0  0.00000000000E+00  0.00000000000E+00  0.24404640733E+02  0.24404640733E+02  0.00000000000E+00 0. -1.
         -1   -1    0    0    0  501 -0.00000000000E+00 -0.00000000000E+00 -0.72204397930E+03  0.72204397930E+03  0.00000000000E+00 0.  1.
         25    2    1    2    0    0 -0.23902336165E+02 -0.29530532178E+02 -0.56818084744E+03  0.58302688215E+03  0.12508995128E+03 0.  0.
          5    1    3    3  502    0 -0.59744190591E+02  0.98967834167E+01 -0.15598130879E+03  0.16737668811E+03  0.41800000000E+01 0. -1.
         -5    1    3    3    0  502  0.35841854426E+02 -0.39427315595E+02 -0.41219953865E+03  0.41565019405E+03  0.41800000000E+01 0. -1.
        -11    1    1    2    0    0 -0.16394606519E+02  0.48881351157E+02 -0.90355944018E+02  0.10403060239E+03  0.00000000000E+00 0.  1.
         11    1    1    2    0    0  0.40296942684E+02 -0.19350818978E+02 -0.39102547112E+02  0.59391135495E+02  0.00000000000E+00 0. -1.
</event>
<event>
 7    1  0.3055410E-009  0.1818567E+03  0.7561462E-02  0.1166018E+00
          1   -1    0    0  501    0  0.00000000000E+00  0.00000000000E+00  0.73989955277E+03  0.73989955277E+03  0.00000000000E+00 0. -1.
         -1   -1    0    0    0  501 -0.00000000000E+00 -0.00000000000E+00 -0.75607054846E+02  0.75607054846E+02  0.00000000000E+00 0.  1.
         25    2    1    2    0    0 -0.45781080051E+02  0.16908916886E+03  0.54255371124E+03  0.58369434573E+03  0.12508998900E+03 0.  0.
          5    1    3    3  502    0  0.49684454578E+01  0.10464186046E+03  0.43991862424E+03  0.45223939762E+03  0.41800000000E+01 0.  1.
         -5    1    3    3    0  502 -0.50749525509E+02  0.64447308401E+02  0.10263508700E+03  0.13145494811E+03  0.41800000000E+01 0.  1.
        -11    1    1    2    0    0  0.15653414419E+02 -0.24757039130E+02 -0.13029218751E+02  0.32057774575E+02  0.00000000000E+00 0.  1.
         11    1    1    2    0    0  0.30127665632E+02 -0.14433212973E+03  0.13476800544E+03  0.19975448731E+03  0.00000000000E+00 0. -1.
</event>
<event>
 7    1  0.2644565E-009  0.1058982E+03  0.7561462E-02  0.1268360E+00
          2   -1    0    0  501    0  0.00000000000E+00  0.00000000000E+00  0.65884526647E+03  0.65884526647E+03  0.00000000000E+00 0. -1.
         -2   -1    0    0    0  501 -0.00000000000E+00 -0.00000000000E+00 -0.22226433279E+02  0.22226433279E+02  0.00000000000E+00 0.  1.
         25    2    1    2    0    0 -0.42432904968E+02  0.34328894825E+02  0.28305346349E+03  0.31423868596E+03  0.12509062362E+03 0.  0.
          5    1    3    3  502    0 -0.70828185330E+02 -0.49945644725E+01  0.87736122127E+02  0.11294546045E+03  0.41800000000E+01 0. -1.
         -5    1    3    3    0  502  0.28395280362E+02  0.39323459297E+02  0.19531734136E+03  0.20129322550E+03  0.41800000000E+01 0. -1.
        -11    1    1    2    0    0  0.31592138159E+02  0.19467076405E+02  0.20764367827E+03  0.21093346672E+03  0.00000000000E+00 0. -1.
         11    1    1    2    0    0  0.10840766808E+02 -0.53795971230E+02  0.14592169143E+03  0.15589954707E+03  0.00000000000E+00 0.  1.
</event>
<event>
 7    1  0.2644565E-009  0.2481436E+03  0.7561462E-02  0.1114484E+00
          2   -1    0    0  501    0  0.00000000000E+00  0.00000000000E+00  0.97755101650E+03  0.97755101650E+03  0.00000000000E+00 0. -1.
         -2   -1    0    0    0  501 -0.00000000000E+00 -0.00000000000E+00 -0.74116098541E+02  0.74116098541E+02  0.00000000000E+00 0.  1.
         25    2    1    2    0    0  0.22934874605E+03  0.98604060151E+01  0.63191853172E+03  0.68386097201E+03  0.12508686338E+03 0.  0.
          5    1    3    3  502    0  0.58938933953E+02 -0.53267228844E+02  0.18373014702E+03  0.20021347339E+03  0.41800000000E+01 0. -1.
         -5    1    3    3    0  502  0.17040981210E+03  0.63127634859E+02  0.44818838470E+03  0.48364749862E+03  0.41800000000E+01 0. -1.
        -11    1    1    2    0    0 -0.21056664227E+03 -0.23317887376E+02  0.27190826017E+03  0.34469716660E+03  0.00000000000E+00 0. -1.
         11    1    1    2    0    0 -0.18782103776E+02  0.13457481361E+02 -0.39187392553E+00  0.23108976438E+02  0.00000000000E+00 0.  1.
</event>
<event>
 7    1  0.2644565E-009  0.1328448E+03  0.7561462E-02  0.1223295E+00
          1   -1    0    0  501    0  0.00000000000E+00  0.00000000000E+00  0.17353930577E+03  0.17353930577E+03  0.00000000000E+00 0. -1.
         -1   -1    0    0    0  501 -0.00000000000E+00 -0.00000000000E+00 -0.22986581175E+03  0.22986581175E+03  0.00000000000E+00 0.  1.
         25    2    1    2    0    0 -0.27928510889E+02  0.84248105437E+02  0.11375367774E+03  0.19095589243E+03  0.12508600506E+03 0.  0.
          5    1    3    3  502    0 -0.47106562223E+02  0.10258906504E+03  0.11845433506E+03  0.16368398323E+03  0.41800000000E+01 0. -1.
         -5    1    3    3    0  502  0.19178051334E+02 -0.18340959602E+02 -0.47006573204E+01  0.27271909199E+02  0.41800000000E+01 0. -1.
        -11    1    1    2    0    0 -0.30263946404E+02 -0.49690158321E+02 -0.94693313309E+02  0.11113884052E+03  0.00000000000E+00 0.  1.
         11    1    1    2    0    0  0.58192457293E+02 -0.34557947115E+02 -0.75386870406E+02  0.10131038458E+03  0.00000000000E+00 0. -1.
</event>
<event>
 7    1  0.2644565E-009  0.1249803E+03  0.7561462E-02  0.1235100E+00
         -1   -1    0    0    0  501 -0.00000000000E+00  0.00000000000E+00  0.11187535833E+03  0.11187535833E+03  0.00000000000E+00 0.  1.
          1   -1    0    0  501    0  0.00000000000E+00 -0.00000000000E+00 -0.18150578443E+03  0.18150578443E+03  0.00000000000E+00 0. -1.
         25    2    1    2    0    0 -0.22871377487E+02 -0.89593524296E+02 -0.28436893506E+02  0.15813349948E+03  0.12508975674E+03 0.  0.
          5    1    3    3  502    0  0.23703608396E+02 -0.96739721848E+02 -0.43101177728E+02  0.10860763673E+03  0.41800000000E+01 0.  1.
         -5    1    3    3    0  502 -0.46574985884E+02  0.71461975520E+01  0.14664284221E+02  0.49525862751E+02  0.41800000000E+01 0.  1.
        -11    1    1    2    0    0  0.35450021283E+02  0.78741775136E+02 -0.63676842851E+02  0.10729264409E+03  0.00000000000E+00 0. -1.
         11    1    1    2    0    0 -0.12578643795E+02  0.10851749159E+02  0.22483310255E+02  0.27954999187E+02  0.00000000000E+00 0.  1.
</event>
<event>
 7    1  0.2644565E-009  0.1023441E+03  0.7561462E-02  0.1275442E+00
          2   -1    0    0  501    0  0.00000000000E+00  0.00000000000E+00  0.25632370706E+03  0.25632370706E+03  0.00000000000E+00 0.  1.
         -2   -1    0    0    0  501 -0.00000000000E+00 -0.00000000000E+00 -0.84603129504E+02  0.84603129504E+02  0.00000000000E+00 0. -1.
         25    2    1    2    0    0 -0.21436041416E+02  0.59854120447E+02  0.19461315528E+03  0.23992361641E+03  0.12508813653E+03 0.  0.
          5    1    3    3  502    0 -0.69570693799E+02  0.54275438581E+02  0.99210829617E+02  0.13283887150E+03  0.41800000000E+01 0. -1.
         -5    1    3    3    0  502  0.48134652382E+02  0.55786818664E+01  0.95402325660E+02  0.10708474491E+03  0.41800000000E+01 0. -1.
        -11    1    1    2    0    0  0.22437252629E+02 -0.28164505359E+02  0.24807456297E+02  0.43727331906E+02  0.00000000000E+00 0.  1.
         11    1    1    2    0    0 -0.10012112132E+01 -0.31689615088E+02 -0.47700034021E+02  0.57275888242E+02  0.00000000000E+00 0. -1.
</event>
<event>
 7    1  0.2644565E-009  0.1035903E+03  0.7561462E-02  0.1272922E+00
          1   -1    0    0  501    0  0.00000000000E+00  0.00000000000E+00  0.14787387747E+03  0.14787387747E+03  0.00000000000E+00 0.  1.
         -1   -1    0    0    0  501 -0.00000000000E+00 -0.00000000000E+00 -0.96167012448E+02  0.96167012448E+02  0.00000000000E+00 0. -1.
         25    2    1    2    0    0  0.20157998395E+02  0.33646008156E+02 -0.30528822600E+01  0.13112962699E+03  0.12508900919E+03 0.  0.
          5    1    3    3  502    0 -0.49435591800E+02  0.10026337353E+02 -0.21890909336E+02  0.55146074103E+02  0.41800000000E+01 0.  1.
         -5    1    3    3    0  502  0.69593590195E+02  0.23619670803E+02  0.18838027076E+02  0.75983552886E+02  0.41800000000E+01 0.  1.
        -11    1    1    2    0    0 -0.22945389540E+02  0.19270730706E+02  0.51795483779E+02  0.59838316345E+02  0.00000000000E+00 0.  1.
         11    1    1    2    0    0  0.27873911457E+01 -0.52916738862E+02  0.29642635045E+01  0.53072946586E+02  0.00000000000E+00 0. -1.
</event>
<event>
 7    1  0.2644565E-009  0.1054376E+03  0.7561462E-02  0.1269260E+00
          1   -1    0    0  501    0  0.00000000000E+00  0.00000000000E+00  0.73439795467E+02  0.73439795467E+02  0.00000000000E+00 0. -1.
         -1   -1    0    0    0  501 -0.00000000000E+00 -0.00000000000E+00 -0.16243254963E+03  0.16243254963E+03  0.00000000000E+00 0.  1.
         25    2    1    2    0    0  0.47473264877E+01 -0.70904374984E+01 -0.62189115257E+02  0.13995808656E+03  0.12509184036E+03 0.  0.
          5    1    3    3  502    0  0.38020987660E+02  0.47531708242E+02 -0.25688092680E+02  0.66198257504E+02  0.41800000000E+01 0.  1.
         -5    1    3    3    0  502 -0.33273661172E+02 -0.54622145741E+02 -0.36501022576E+02  0.73759829055E+02  0.41800000000E+01 0.  1.
        -11    1    1    2    0    0  0.37436512833E+02 -0.12213241476E+02  0.49623850785E+01  0.39689810104E+02  0.00000000000E+00 0.  1.
         11    1    1    2    0    0 -0.42183839321E+02  0.19303678974E+02 -0.31766023983E+02  0.56224448432E+02  0.00000000000E+00 0. -1.
</event>
<event>
 7    1  0.2644565E-009  0.1351248E+03  0.7561462E-02  0.1220044E+00
         -1   -1    0    0    0  501 -0.00000000000E+00  0.00000000000E+00  0.96884941081E+02  0.96884941081E+02  0.00000000000E+00 0.  1.
          1   -1    0    0  501    0  0.00000000000E+00 -0.00000000000E+00 -0.28152304554E+03  0.28152304554E+03  0.00000000000E+00 0. -1.
         25    2    1    2    0    0  0.65821118111E+01  0.12350656448E+03 -0.97730966301E+02  0.20123722956E+03  0.12509150698E+03 0.  0.
          5    1    3    3  502    0 -0.83293302758E+01  0.12614368119E+03 -0.27725002978E+02  0.12949036349E+03  0.41800000000E+01 0.  1.
         -5    1    3    3    0  502  0.14911442087E+02 -0.26371167045E+01 -0.70005963324E+02  0.71746866068E+02  0.41800000000E+01 0.  1.
        -11    1    1    2    0    0  0.13616273542E+02 -0.50656630626E+02 -0.86979770122E+02  0.10157252356E+03  0.00000000000E+00 0. -1.
         11    1    1    2    0    0 -0.20198385353E+02 -0.72849933858E+02  0.72631964082E-01  0.75598233507E+02  0.00000000000E+00 0.  1.
</event>
<event>
 7    1  0.2644565E-009  0.1548812E+03  0.7561462E-02  0.1194600E+00
         -2   -1    0    0    0  501 -0.00000000000E+00  0.00000000000E+00  0.53622622353E+02  0.53622622353E+02  0.00000000000E+00 0.  1.
          2   -1    0    0  501    0  0.00000000000E+00 -0.00000000000E+00 -0.70868848020E+03  0.70868848020E+03  0.00000000000E+00 0. -1.
         25    2    1    2    0    0  0.11951021047E+03  0.53144042055E+02 -0.15685077752E+03  0.23949161262E+03  0.12508831478E+03 0.  0.
          5    1    3    3  502    0  0.16572405287E+02 -0.36395397251E+02 -0.15775080049E+02  0.43192535334E+02  0.41800000000E+01 0.  1.
         -5    1    3    3    0  502  0.10293780518E+03  0.89539439306E+02 -0.14107569747E+03  0.19629907728E+03  0.41800000000E+01 0.  1.
        -11    1    1    2    0    0 -0.33988334538E+02 -0.34905692510E+01 -0.34049984269E+02  0.48236836412E+02  0.00000000000E+00 0.  1.
         11    1    1    2    0    0 -0.85521875930E+02 -0.49653472804E+02 -0.46416509606E+03  0.47458265352E+03  0.00000000000E+00 0. -1.
</event>
<event>
 7    1  0.2644565E-009  0.1041993E+03  0.7561462E-02  0.1271705E+00
         -3   -1    0    0    0  501 -0.00000000000E+00  0.00000000000E+00  0.19835590287E+03  0.19835590287E+03  0.00000000000E+00 0.  1.
          3   -1    0    0  501    0  0.00000000000E+00 -0.00000000000E+00 -0.96840985897E+02  0.96840985897E+02  0.00000000000E+00 0. -1.
         25    2    1    2    0    0 -0.44507030299E+02 -0.29817437597E+02 -0.15886617665E+02  0.13700423630E+03  0.12509124994E+03 0.  0.
          5    1    3    3  502    0 -0.53043137766E+02 -0.73844127887E+02 -0.94517060612E+01  0.91505938796E+02  0.41800000000E+01 0.  1.
         -5    1    3    3    0  502  0.85361074662E+01  0.44026690290E+02 -0.64349116039E+01  0.45498297505E+02  0.41800000000E+01 0.  1.
        -11    1    1    2    0    0  0.50846743268E+02  0.10379204303E+02  0.15356812200E+02  0.54119782555E+02  0.00000000000E+00 0. -1.
         11    1    1    2    0    0 -0.63397129683E+01  0.19438233294E+02  0.10204472243E+03  0.10407286991E+03  0.00000000000E+00 0.  1.
</event>
<event>
 7    1  0.2644565E-009  0.1041561E+03  0.7561462E-02  0.1271791E+00
          1   -1    0    0  501    0  0.00000000000E+00  0.00000000000E+00  0.49999226139E+02  0.49999226139E+02  0.00000000000E+00 0. -1.
         -1   -1    0    0    0  501 -0.00000000000E+00 -0.00000000000E+00 -0.22784639579E+03  0.22784639579E+03  0.00000000000E+00 0.  1.
         25    2    1    2    0    0 -0.80453303184E+01 -0.16779751641E+02 -0.11249764887E+03  0.16926116570E+03  0.12508930333E+03 0.  0.
          5    1    3    3  502    0 -0.61166810453E+02 -0.34445146055E+02 -0.61786097837E+02  0.93610047931E+02  0.41800000000E+01 0.  1.
         -5    1    3    3    0  502  0.53121480134E+02  0.17665394414E+02 -0.50711551031E+02  0.75651117767E+02  0.41800000000E+01 0.  1.
        -11    1    1    2    0    0 -0.16863302403E+02  0.42696212803E+02 -0.54030195999E+02  0.70898516453E+02  0.00000000000E+00 0.  1.
         11    1    1    2    0    0  0.24908632721E+02 -0.25916461162E+02 -0.11319324782E+02  0.37685939775E+02  0.00000000000E+00 0. -1.
</event>
<event>
 7    1  0.2644565E-009  0.1644722E+03  0.7561462E-02  0.1183738E+00
          2   -1    0    0  501    0  0.00000000000E+00  0.00000000000E+00  0.69476987310E+03  0.69476987310E+03  0.00000000000E+00 0. -1.
         -2   -1    0    0    0  501 -0.00000000000E+00 -0.00000000000E+00 -0.53185223044E+02  0.53185223044E+02  0.00000000000E+00 0.  1.
         25    2    1    2    0    0  0.14820439252E+03 -0.53589068937E+02  0.30116884547E+03  0.36219847478E+03  0.12509488951E+03 0.  0.
          5    1    3    3  502    0  0.11999593509E+02 -0.29351305020E+02  0.13939126285E+01  0.32014133491E+02  0.41800000000E+01 0.  1.
         -5    1    3    3    0  502  0.13620479901E+03 -0.24237763916E+02  0.29977493285E+03  0.33018434129E+03  0.41800000000E+01 0.  1.
        -11    1    1    2    0    0 -0.47635486775E+02  0.87125108350E+01  0.31428334862E+02  0.57730301208E+02  0.00000000000E+00 0.  1.
         11    1    1    2    0    0 -0.10056890574E+03  0.44876558102E+02  0.30898746972E+03  0.32802632015E+03  0.00000000000E+00 0. -1.
</event>
<event>
 7    1  0.2644565E-009  0.1094549E+03  0.7561462E-02  0.1261583E+00
         -1   -1    0    0    0  501 -0.00000000000E+00  0.00000000000E+00  0.18411478652E+03  0.18411478652E+03  0.00000000000E+00 0.  1.
          1   -1    0    0  501    0  0.00000000000E+00 -0.00000000000E+00 -0.71777728942E+02  0.71777728942E+02  0.00000000000E+00 0. -1.
         25    2    1    2    0    0  0.24625478892E+02  0.25900835712E+02  0.48830225909E+02  0.13895755335E+03  0.12509014017E+03 0.  0.
          5    1    3    3  502    0 -0.43534813459E+02  0.29045331553E+02 -0.38664383591E+01  0.52643451763E+02  0.41800000000E+01 0.  1.
         -5    1    3    3    0  502  0.68160292350E+02 -0.31444958415E+01  0.52696664268E+02  0.86314101585E+02  0.41800000000E+01 0.  1.
        -11    1    1    2    0    0 -0.56606343472E+02 -0.32671351492E+02  0.45236249564E+02  0.79485933373E+02  0.00000000000E+00 0.  1.
         11    1    1    2    0    0  0.31980864580E+02  0.67705157800E+01  0.18270582104E+02  0.37449028741E+02  0.00000000000E+00 0. -1.
</event>
<event>
 7    1  0.2644565E-009  0.1762449E+03  0.7561462E-02  0.1171487E+00
         -2   -1    0    0    0  501 -0.00000000000E+00  0.00000000000E+00  0.74423890411E+02  0.74423890411E+02  0.00000000000E+00 0.  1.
          2   -1    0    0  501    0  0.00000000000E+00 -0.00000000000E+00 -0.42337189791E+03  0.42337189791E+03  0.00000000000E+00 0. -1.
         25    2    1    2    0    0 -0.49939434206E+02  0.12932515007E+03 -0.16877008133E+03  0.25169508503E+03  0.12509250157E+03 0.  0.
          5    1    3    3  502    0 -0.89613034310E+02  0.10567928101E+03 -0.11082392566E+03  0.17747681892E+03  0.41800000000E+01 0.  1.
         -5    1    3    3    0  502  0.39673600104E+02  0.23645869056E+02 -0.57946155664E+02  0.74218266113E+02  0.41800000000E+01 0.  1.
        -11    1    1    2    0    0 -0.21414344729E+02 -0.74478673153E+02 -0.88419151926E+02  0.11757377829E+03  0.00000000000E+00 0.  1.
         11    1    1    2    0    0  0.71353778935E+02 -0.54846476914E+02 -0.91758774242E+02  0.12852692499E+03  0.00000000000E+00 0. -1.
</event>
<event>
 7    1  0.2644565E-009  0.1440704E+03  0.7561462E-02  0.1207955E+00
          2   -1    0    0  501    0  0.00000000000E+00  0.00000000000E+00  0.50956627000E+03  0.50956627000E+03  0.00000000000E+00 0. -1.
         -2   -1    0    0    0  501 -0.00000000000E+00 -0.00000000000E+00 -0.57763075419E+02  0.57763075419E+02  0.00000000000E+00 0.  1.
         25    2    1    2    0    0  0.12124527388E+03  0.43549951572E+02  0.28872501460E+03  0.34001010609E+03  0.12509086087E+03 0.  0.
          5    1    3    3  502    0  0.13447782709E+03  0.29359795985E+02  0.28903056776E+03  0.32015999922E+03  0.41800000000E+01 0. -1.
         -5    1    3    3    0  502 -0.13232553212E+02  0.14190155587E+02 -0.30555316852E+00  0.19850106872E+02  0.41800000000E+01 0. -1.
        -11    1    1    2    0    0 -0.10005692046E+03 -0.26825608960E+02  0.57777659087E+02  0.11861390525E+03  0.00000000000E+00 0.  1.
         11    1    1    2    0    0 -0.21188353415E+02 -0.16724342612E+02  0.10530052090E+03  0.10870533408E+03  0.00000000000E+00 0. -1.
</event>
<event>
 7    1  0.2644565E-009  0.1114819E+03  0.7561462E-02  0.1257850E+00
         -2   -1    0    0    0  501 -0.00000000000E+00  0.00000000000E+00  0.31598722173E+02  0.31598722173E+02  0.00000000000E+00 0.  1.
          2   -1    0    0  501    0  0.00000000000E+00 -0.00000000000E+00 -0.54356029512E+03  0.54356029512E+03  0.00000000000E+00 0. -1.
         25    2    1    2    0    0  0.56967581021E+02  0.42722309436E+02 -0.25518045204E+03  0.29297598471E+03  0.12508942203E+03 0.  0.
          5    1    3    3  502    0  0.86865914632E+02  0.36963871599E+02 -0.24151120401E+03  0.25933983302E+03  0.41800000000E+01 0. -1.
         -5    1    3    3    0  502 -0.29898333611E+02  0.57584378377E+01 -0.13669248029E+02  0.33636151693E+02  0.41800000000E+01 0. -1.
        -11    1    1    2    0    0 -0.46030512676E+01 -0.45082412765E+02 -0.44450702215E+02  0.63478161198E+02  0.00000000000E+00 0.  1.
         11    1    1    2    0    0 -0.52364529754E+02  0.23601033283E+01 -0.21233041870E+03  0.21870487139E+03  0.00000000000E+00 0. -1.
</event>
<event>
 7    1  0.2644565E-009  0.8130906E+02  0.7561462E-02  0.1325377E+00
         -1   -1    0    0    0  501 -0.00000000000E+00  0.00000000000E+00  0.13639218661E+03  0.13639218661E+03  0.00000000000E+00 0.  1.
          1   -1    0    0  501    0  0.00000000000E+00 -0.00000000000E+00 -0.88325285977E+02  0.88325285977E+02  0.00000000000E+00 0. -1.
         25    2    1    2    0    0  0.27738395960E+01  0.12900383813E+02  0.33902997436E+02  0.13027310962E+03  0.12509019053E+03 0.  0.
          5    1    3    3  502    0 -0.92440518749E+01  0.39608339609E+02  0.71540622408E+02  0.82400279831E+02  0.41800000000E+01 0.  1.
         -5    1    3    3    0  502  0.12017891471E+02 -0.26707955796E+02 -0.37637624972E+02  0.47872829787E+02  0.41800000000E+01 0.  1.
        -11    1    1    2    0    0  0.13096373940E+02  0.37281817473E+02  0.13661347579E+02  0.41810062690E+02  0.00000000000E+00 0. -1.
         11    1    1    2    0    0 -0.15870213536E+02 -0.50182201286E+02  0.50255561819E+00  0.52634300278E+02  0.00000000000E+00 0.  1.
</event>
<event>
 7    1  0.2644565E-009  0.1457630E+03  0.7561462E-02  0.1205778E+00
          2   -1    0    0  501    0  0.00000000000E+00  0.00000000000E+00  0.38747365593E+03  0.38747365593E+03  0.00000000000E+00 0. -1.
         -2   -1    0    0    0  501 -0.00000000000E+00 -0.00000000000E+00 -0.58730607108E+02  0.58730607108E+02  0.00000000000E+00 0.  1.
         25    2    1    2    0    0  0.64930730486E+02  0.72228727867E+02  0.13414686902E+03  0.20754776545E+03  0.12509078137E+03 0.  0.
          5    1    3    3  502    0 -0.33616608475E+02 -0.18664690657E+01  0.39417434188E+02  0.52007370537E+02  0.41800000000E+01 0. -1.
         -5    1    3    3    0  502  0.98547338962E+02  0.74095196932E+02  0.94729434833E+02  0.15554039491E+03  0.41800000000E+01 0. -1.
        -11    1    1    2    0    0 -0.85621229536E+02 -0.74398812321E+02  0.13970163085E+03  0.17995200439E+03  0.00000000000E+00 0. -1.
         11    1    1    2    0    0  0.20690499049E+02  0.21700844545E+01  0.54894548950E+02  0.58704493200E+02  0.00000000000E+00 0.  1.
</event>
<event>
 7    1  0.2644565E-009  0.1124756E+03  0.7561462E-02  0.1256053E+00
          1   -1    0    0  501    0  0.00000000000E+00  0.00000000000E+00  0.38323236149E+03  0.38323236149E+03  0.00000000000E+00 0. -1.
         -1   -1    0    0    0  501 -0.00000000000E+00 -0.00000000000E+00 -0.43933528134E+02  0.43933528134E+02  0.00000000000E+00 0.  1.
         25    2    1    2    0    0  0.11134042388E+01 -0.46593419909E+02  0.27236904396E+03  0.30332743197E+03  0.12510175232E+03 0.  0.
          5    1    3    3  502    0  0.56675651491E+02  0.55554447381E+01  0.12194722754E+03  0.13465359684E+03  0.41800000000E+01 0. -1.
         -5    1    3    3    0  502 -0.55562247252E+02 -0.52148864647E+02  0.15042181642E+03  0.16867383513E+03  0.41800000000E+01 0. -1.
        -11    1    1    2    0    0  0.24136567123E+02  0.58746987331E+02  0.15666278080E+02  0.65415706537E+02  0.00000000000E+00 0.  1.
         11    1    1    2    0    0 -0.25249971362E+02 -0.12153567421E+02  0.51263511317E+02  0.58422751111E+02  0.00000000000E+00 0. -1.
</event>
<event>
 7    1  0.2644565E-009  0.6754313E+02  0.7561462E-02  0.1368653E+00
         -1   -1    0    0    0  501 -0.00000000000E+00  0.00000000000E+00  0.46789484291E+02  0.46789484291E+02  0.00000000000E+00 0.  1.
          1   -1    0    0  501    0  0.00000000000E+00 -0.00000000000E+00 -0.26827934946E+03  0.26827934946E+03  0.00000000000E+00 0. -1.
         25    2    1    2    0    0 -0.18341966444E+02 -0.13384355845E+02 -0.15114433434E+03  0.19750463534E+03  0.12509157630E+03 0.  0.
          5    1    3    3  502    0  0.11556757526E+02 -0.30117902928E+01 -0.16297178204E+03  0.16346223927E+03  0.41800000000E+01 0.  1.
         -5    1    3    3    0  502 -0.29898723970E+02 -0.10372565552E+02  0.11827447695E+02  0.34042396069E+02  0.41800000000E+01 0.  1.
        -11    1    1    2    0    0 -0.19100814188E+02  0.40166035898E+02 -0.18336396481E+02  0.48107951301E+02  0.00000000000E+00 0.  1.
         11    1    1    2    0    0  0.37442780632E+02 -0.26781680053E+02 -0.52009134343E+02  0.69456247113E+02  0.00000000000E+00 0. -1.
</event>
<event>
 7    1  0.2644565E-009  0.1592343E+03  0.7561462E-02  0.1189564E+00
          2   -1    0    0  501    0  0.00000000000E+00  0.00000000000E+00  0.39188376917E+02  0.39188376917E+02  0.00000000000E+00 0. -1.
         -2   -1    0    0    0  501 -0.00000000000E+00 -0.00000000000E+00 -0.81456119062E+03  0.81456119062E+03  0.00000000000E+00 0.  1.
         25    2    1    2    0    0  0.60014013263E+01 -0.12455048253E+03 -0.56858613955E+03  0.59538724707E+03  0.12508771470E+03 0.  0.
          5    1    3    3  502    0  0.48874730404E+02 -0.10800269420E+03 -0.49090864669E+03  0.50503672442E+03  0.41800000000E+01 0. -1.
         -5    1    3    3    0  502 -0.42873329077E+02 -0.16547788325E+02 -0.77677492866E+02  0.90350522647E+02  0.41800000000E+01 0. -1.
        -11    1    1    2    0    0  0.28111140094E+02  0.11484610887E+03 -0.17170715406E+03  0.20847832423E+03  0.00000000000E+00 0.  1.
         11    1    1    2    0    0 -0.34112541420E+02  0.97043736609E+01 -0.35079520083E+02  0.49883996227E+02  0.00000000000E+00 0. -1.
</event>
<event>
 7    1  0.2644565E-009  0.9443862E+02  0.7561462E-02  0.1292445E+00
         -1   -1    0    0    0  501 -0.00000000000E+00  0.00000000000E+00  0.13140740394E+03  0.13140740394E+03  0.00000000000E+00 0.  1.
          1   -1    0    0  501    0  0.00000000000E+00 -0.00000000000E+00 -0.10264060736E+03  0.10264060736E+03  0.00000000000E+00 0. -1.
         25    2    1    2    0    0 -0.39772066610E+02  0.96972204141E+01  0.10126772347E+02  0.13200798893E+03  0.12509078406E+03 0.  0.
          5    1    3    3  502    0  0.22557602007E+02 -0.42831324137E+02  0.13137372240E+02  0.50333196650E+02  0.41800000000E+01 0.  1.
         -5    1    3    3    0  502 -0.62329668617E+02  0.52528544551E+02 -0.30105998932E+01  0.81674792282E+02  0.41800000000E+01 0.  1.
        -11    1    1    2    0    0  0.47500451803E+02 -0.16747123050E+01  0.49864460188E+02  0.68888039402E+02  0.00000000000E+00 0.  1.
         11    1    1    2    0    0 -0.77283851930E+01 -0.80225081091E+01 -0.31224435954E+02  0.33151982967E+02  0.00000000000E+00 0. -1.
</event>
<event>
 7    1  0.2644565E-009  0.1321617E+03  0.7561462E-02  0.1224283E+00
         -2   -1    0    0    0  501 -0.00000000000E+00  0.00000000000E+00  0.97393082078E+03  0.97393082078E+03  0.00000000000E+00 0.  1.
          2   -1    0    0  501    0  0.00000000000E+00 -0.00000000000E+00 -0.20721799395E+02  0.20721799395E+02  0.00000000000E+00 0. -1.
         25    2    1    2    0    0 -0.49907447493E+02 -0.68847790645E+02  0.64945422396E+03  0.66683602038E+03  0.12509483384E+03 0.  0.
          5    1    3    3  502    0 -0.13156778369E+02  0.34651053600E+02  0.10578686360E+03  0.11217009068E+03  0.41800000000E+01 0. -1.
         -5    1    3    3    0  502 -0.36750669123E+02 -0.10349884424E+03  0.54366736037E+03  0.55466592970E+03  0.41800000000E+01 0. -1.
        -11    1    1    2    0    0 -0.19086988804E+02  0.35895358906E+02  0.61006648191E+02  0.73311670668E+02  0.00000000000E+00 0.  1.
         11    1    1    2    0    0  0.68994436296E+02  0.32952431739E+02  0.24274814923E+03  0.25450492914E+03  0.00000000000E+00 0. -1.
</event>
<event>
 7    1  0.2644565E-009  0.1372647E+03  0.7561462E-02  0.1217058E+00
          2   -1    0    0  501    0  0.00000000000E+00  0.00000000000E+00  0.15284502352E+03  0.15284502352E+03  0.00000000000E+00 0.  1.
         -2   -1    0    0    0  501 -0.00000000000E+00 -0.00000000000E+00 -0.17769856723E+03  0.17769856723E+03  0.00000000000E+00 0. -1.
         25    2    1    2    0    0 -0.39730101790E+02 -0.10928700007E+03  0.48929989951E+02  0.17766171762E+03  0.12508961835E+03 0.  0.
          5    1    3    3  502    0 -0.68904425403E+02 -0.76670350364E+02  0.74085828202E+02  0.12701316784E+03  0.41800000000E+01 0. -1.
         -5    1    3    3    0  502  0.29174323612E+02 -0.32616649708E+02 -0.25155838251E+02  0.50648549777E+02  0.41800000000E+01 0. -1.
        -11    1    1    2    0    0  0.14427394515E+02  0.99068544890E+02 -0.36244306141E+02  0.10647241909E+03  0.00000000000E+00 0.  1.
         11    1    1    2    0    0  0.25302707276E+02  0.10218455182E+02 -0.37539227522E+02  0.46409454045E+02  0.00000000000E+00 0. -1.
</event>
<event>
 7    1  0.2644565E-009  0.1124926E+03  0.7561462E-02  0.1256022E+00
          2   -1    0    0  501    0  0.00000000000E+00  0.00000000000E+00  0.84554986622E+03  0.84554986622E+03  0.00000000000E+00 0. -1.
         -2   -1    0    0    0  501 -0.00000000000E+00 -0.00000000000E+00 -0.20497520630E+02  0.20497520630E+02  0.00000000000E+00 0.  1.
         25    2    1    2    0    0 -0.78221493489E+01 -0.71935954073E+02  0.51619777378E+03  0.53604399443E+03  0.12508818808E+03 0.  0.
          5    1    3    3  502    0 -0.22321719756E+02  0.28497881984E+02  0.76030745365E+02  0.84312128969E+02  0.41800000000E+01 0.  1.
         -5    1    3    3    0  502  0.14499570407E+02 -0.10043383606E+03  0.44016702841E+03  0.45173186546E+03  0.41800000000E+01 0.  1.
        -11    1    1    2    0    0 -0.16356698759E+02  0.71830751945E+01  0.52351999348E+01  0.18615732108E+02  0.00000000000E+00 0.  1.
         11    1    1    2    0    0  0.24178848108E+02  0.64752878879E+02  0.30361937188E+03  0.31138766032E+03  0.00000000000E+00 0. -1.
</event>
<event>
 7    1  0.2644565E-009  0.1376832E+03  0.7561462E-02  0.1216481E+00
         -1   -1    0    0    0  501 -0.00000000000E+00  0.00000000000E+00  0.28684801865E+03  0.28684801865E+03  0.00000000000E+00 0.  1.
          1   -1    0    0  501    0  0.00000000000E+00 -0.00000000000E+00 -0.90823350431E+02  0.90823350431E+02  0.00000000000E+00 0. -1.
         25    2    1    2    0    0 -0.68180692758E+02  0.59874846743E+02  0.14221623705E+02  0.15520728736E+03  0.12511372159E+03 0.  0.
          5    1    3    3  502    0 -0.25573413231E+02 -0.34788094079E+02 -0.17202902337E+02  0.46665010476E+02  0.41800000000E+01 0. -1.
         -5    1    3    3    0  502 -0.42607279526E+02  0.94662940822E+02  0.31424526041E+02  0.10854227688E+03  0.41800000000E+01 0. -1.
        -11    1    1    2    0    0  0.10174588785E+02  0.24027353737E+02  0.33315127063E+02  0.42317061285E+02  0.00000000000E+00 0. -1.
         11    1    1    2    0    0  0.58006103973E+02 -0.83902200480E+02  0.14848791745E+03  0.18014702044E+03  0.00000000000E+00 0.  1.
</event>
<event>
 7    1  0.2644565E-009  0.1524829E+03  0.7561462E-02  0.1197455E+00
         -1   -1    0    0    0  501 -0.00000000000E+00  0.00000000000E+00  0.14401418680E+03  0.14401418680E+03  0.00000000000E+00 0.  1.
          1   -1    0    0  501    0  0.00000000000E+00 -0.00000000000E+00 -0.22121138874E+03  0.22121138874E+03  0.00000000000E+00 0. -1.
         25    2    1    2    0    0  0.68449949363E+02  0.12192018833E+03 -0.17824694382E+02  0.18845414180E+03  0.12508923193E+03 0.  0.
          5    1    3    3  502    0  0.53946111403E+02  0.10573578150E+03  0.40961236167E+02  0.12564049384E+03  0.41800000000E+01 0.  1.
         -5    1    3    3    0  502  0.14503837960E+02  0.16184406830E+02 -0.58785930549E+02  0.62813647964E+02  0.41800000000E+01 0.  1.
        -11    1    1    2    0    0 -0.23125749238E+02  0.95316095884E+01 -0.20645432484E+02  0.32432788064E+02  0.00000000000E+00 0. -1.
         11    1    1    2    0    0 -0.45324200124E+02 -0.13145179791E+03 -0.38727075076E+02  0.14433864568E+03  0.00000000000E+00 0.  1.
</event>
<event>
 7    1  0.2644565E-009  0.1358601E+03  0.7561462E-02  0.1219011E+00
         -1   -1    0    0    0  501 -0.00000000000E+00  0.00000000000E+00  0.71421432588E+03  0.71421432588E+03  0.00000000000E+00 0.  1.
          1   -1    0    0  501    0  0.00000000000E+00 -0.00000000000E+00 -0.32921480998E+02  0.32921480998E+02  0.00000000000E+00 0. -1.
         25    2    1    2    0    0  0.10348033821E+03  0.30430602287E+02  0.36098651033E+03  0.39698123491E+03  0.12509451739E+03 0.  0.
          5    1    3    3  502    0 -0.18992242445E+02 -0.44334450699E+01  0.14384713192E+03  0.14522338127E+03  0.41800000000E+01 0. -1.
         -5    1    3    3    0  502  0.12247258066E+03  0.34864047357E+02  0.21713937841E+03  0.25175785364E+03  0.41800000000E+01 0. -1.
        -11    1    1    2    0    0 -0.29272030956E+02 -0.39976745752E+02  0.21709130563E+03  0.22267381295E+03  0.00000000000E+00 0.  1.
         11    1    1    2    0    0 -0.74208307259E+02  0.95461434656E+01  0.10321502892E+03  0.12748075901E+03  0.00000000000E+00 0. -1.
</event>
<event>
 7    1  0.2708881E-009  0.1117791E+03  0.7561462E-02  0.1257310E+00
          2   -1    0    0  501    0  0.00000000000E+00  0.00000000000E+00  0.11667726961E+04  0.11667726961E+04  0.00000000000E+00 0. -1.
         -2   -1    0    0    0  501 -0.00000000000E+00 -0.00000000000E+00 -0.29585496525E+02  0.29585496525E+02  0.00000000000E+00 0.  1.
         25    2    1    2    0    0 -0.86079987397E+01 -0.11016750334E+03  0.92688849745E+03  0.94179670110E+03  0.12509101909E+03 0.  0.
          5    1    3    3  502    0 -0.11377917224E+02 -0.42350340261E+02  0.73403960414E+02  0.85607371908E+02  0.41800000000E+01 0.  1.
         -5    1    3    3    0  502  0.27699184842E+01 -0.67817163075E+02  0.85348453704E+03  0.85618932919E+03  0.41800000000E+01 0.  1.
        -11    1    1    2    0    0 -0.37864365900E+01  0.45720821873E+02  0.14588713429E+02  0.48141055393E+02  0.00000000000E+00 0.  1.
         11    1    1    2    0    0  0.12394435330E+02  0.64446681463E+02  0.19570998868E+03  0.20642043612E+03  0.00000000000E+00 0. -1.
</event>
<event>
 7    1  0.2644565E-009  0.1224203E+03  0.7561462E-02  0.1239157E+00
          4   -1    0    0  501    0  0.00000000000E+00  0.00000000000E+00  0.60893090720E+02  0.60893090720E+02  0.00000000000E+00 0. -1.
         -4   -1    0    0    0  501 -0.00000000000E+00 -0.00000000000E+00 -0.31277187724E+03  0.31277187724E+03  0.00000000000E+00 0.  1.
         25    2    1    2    0    0  0.35994756167E+02 -0.68492531010E+02 -0.18082365832E+03  0.23309371426E+03  0.12509450405E+03 0.  0.
          5    1    3    3  502    0 -0.23386380805E+02 -0.80072681434E+02 -0.12703456326E+03  0.15203226560E+03  0.41800000000E+01 0.  1.
         -5    1    3    3    0  502  0.59381136972E+02  0.11580150424E+02 -0.53789095051E+02  0.81061448657E+02  0.41800000000E+01 0.  1.
        -11    1    1    2    0    0 -0.44468914895E+02  0.76839434238E+02 -0.84538651568E+02  0.12259105455E+03  0.00000000000E+00 0.  1.
         11    1    1    2    0    0  0.84741587277E+01 -0.83469032275E+01  0.13483523361E+02  0.17980199161E+02  0.00000000000E+00 0. -1.
</event>
<event>
 7    1  0.2644565E-009  0.1494635E+03  0.7561462E-02  0.1201134E+00
         -1   -1    0    0    0  501 -0.00000000000E+00  0.00000000000E+00  0.12698970795E+03  0.12698970795E+03  0.00000000000E+00 0. -1.
          1   -1    0    0  501    0  0.00000000000E+00 -0.00000000000E+00 -0.26389276996E+03  0.26389276996E+03  0.00000000000E+00 0.  1.
         25    2    1    2    0    0 -0.59284765929E+02 -0.13293654697E+03 -0.96140322133E+02  0.21465807742E+03  0.12509324389E+03 0.  0.
          5    1    3    3  502    0 -0.28886326250E+02 -0.29304528284E+02  0.28087644090E+02  0.49995633536E+02  0.41800000000E+01 0. -1.
         -5    1    3    3    0  502 -0.30398439679E+02 -0.10363201869E+03 -0.12422796622E+03  0.16466244388E+03  0.41800000000E+01 0. -1.
        -11    1    1    2    0    0  0.25832001396E+02  0.23045748417E+02 -0.50187367311E+02  0.60968603837E+02  0.00000000000E+00 0.  1.
         11    1    1    2    0    0  0.33452764533E+02  0.10989079856E+03  0.94246274316E+01  0.11525579666E+03  0.00000000000E+00 0. -1.
</event>
<event>
 7    1  0.2644565E-009  0.9918857E+02  0.7561462E-02  0.1282012E+00
         -1   -1    0    0    0  501 -0.00000000000E+00  0.00000000000E+00  0.60740959204E+02  0.60740959204E+02  0.00000000000E+00 0.  1.
          1   -1    0    0  501    0  0.00000000000E+00 -0.00000000000E+00 -0.24844511129E+03  0.24844511129E+03  0.00000000000E+00 0. -1.
         25    2    1    2    0    0 -0.54102275796E+01 -0.45196803477E+02 -0.62538303077E+02  0.14706964678E+03  0.12508565083E+03 0.  0.
          5    1    3    3  502    0  0.53342908194E+01 -0.86244838532E+02 -0.24453099861E+02  0.89900240960E+02  0.41800000000E+01 0.  1.
         -5    1    3    3    0  502 -0.10744518399E+02  0.41048035055E+02 -0.38085203216E+02  0.57169405817E+02  0.41800000000E+01 0.  1.
        -11    1    1    2    0    0 -0.23365552298E+02  0.16604933681E+02  0.19046773344E+01  0.28728046444E+02  0.00000000000E+00 0.  1.
         11    1    1    2    0    0  0.28775779878E+02  0.28591869797E+02 -0.12707052634E+03  0.13338837727E+03  0.00000000000E+00 0. -1.
</event>
<event>
 7    1  0.2644565E-009  0.1120263E+03  0.7561462E-02  0.1256863E+00
          1   -1    0    0  501    0  0.00000000000E+00  0.00000000000E+00  0.32461342612E+03  0.32461342612E+03  0.00000000000E+00 0. -1.
         -1   -1    0    0    0  501 -0.00000000000E+00 -0.00000000000E+00 -0.45054426358E+02  0.45054426358E+02  0.00000000000E+00 0.  1.
         25    2    1    2    0    0 -0.13026313686E+02  0.35145754916E+02  0.95217774603E+02  0.16161289460E+03  0.12508954458E+03 0.  0.
          5    1    3    3  502    0  0.24250659582E+02  0.72156074004E+02  0.68686422051E+02  0.10261525462E+03  0.41800000000E+01 0.  1.
         -5    1    3    3    0  502 -0.37276973268E+02 -0.37010319088E+02  0.26531352552E+02  0.58997639980E+02  0.41800000000E+01 0.  1.
        -11    1    1    2    0    0  0.31810669329E+02  0.19516494971E+02  0.89780147714E+02  0.97228016450E+02  0.00000000000E+00 0.  1.
         11    1    1    2    0    0 -0.18784355644E+02 -0.54662249887E+02  0.94561077440E+02  0.11082694143E+03  0.00000000000E+00 0. -1.
</event>
<event>
 7    1  0.2644565E-009  0.1115786E+03  0.7561462E-02  0.1257674E+00
         -1   -1    0    0    0  501 -0.00000000000E+00  0.00000000000E+00  0.59854295262E+02  0.59854295262E+02  0.00000000000E+00 0.  1.
          1   -1    0    0  501    0  0.00000000000E+00 -0.00000000000E+00 -0.29177707048E+03  0.29177707048E+03  0.00000000000E+00 0. -1.
         25    2    1    2    0    0  0.43076704519E+02 -0.28505035726E+02 -0.20290204991E+03  0.24388961395E+03  0.12507902462E+03 0.  0.
          5    1    3    3  502    0 -0.36395902666E+02 -0.36624015586E+02 -0.53811097050E+02  0.74693284934E+02  0.41800000000E+01 0. -1.
         -5    1    3    3    0  502  0.79472607185E+02  0.81189798604E+01 -0.14909095286E+03  0.16919632901E+03  0.41800000000E+01 0. -1.
        -11    1    1    2    0    0  0.35218391369E+01 -0.22209734404E+02  0.14045266032E+02  0.26513112815E+02  0.00000000000E+00 0.  1.
         11    1    1    2    0    0 -0.46598543656E+02  0.50714770130E+02 -0.43065991338E+02  0.81228638977E+02  0.00000000000E+00 0. -1.
</event>
<event>
 7    1  0.2644565E-009  0.9332563E+02  0.7561462E-02  0.1294992E+00
         -1   -1    0    0    0  501 -0.00000000000E+00  0.00000000000E+00  0.12966342643E+03  0.12966342643E+03  0.00000000000E+00 0.  1.
          1   -1    0    0  501    0  0.00000000000E+00 -0.00000000000E+00 -0.10484675890E+03  0.10484675890E+03  0.00000000000E+00 0. -1.
         25    2    1    2    0    0 -0.37517472373E+02 -0.15236988014E+02 -0.20794273486E+01  0.13149626961E+03  0.12508884190E+03 0.  0.
          5    1    3    3  502    0  0.17958007881E+01 -0.40854418960E+02 -0.49709654298E+02  0.64504500459E+02  0.41800000000E+01 0.  1.
         -5    1    3    3    0  502 -0.39313273161E+02  0.25617430946E+02  0.47630226950E+02  0.66991769153E+02  0.41800000000E+01 0.  1.
        -11    1    1    2    0    0 -0.20425440246E+02 -0.21636520630E+02  0.15140499005E+01  0.29793119697E+02  0.00000000000E+00 0.  1.
         11    1    1    2    0    0  0.57942912619E+02  0.36873508644E+02  0.25382044983E+02  0.73220796021E+02  0.00000000000E+00 0. -1.
</event>
<event>
 7    1  0.3094342E-009  0.2169353E+03  0.7561462E-02  0.1136189E+00
         -1   -1    0    0    0  501 -0.00000000000E+00  0.00000000000E+00  0.34458412960E+03  0.34458412960E+03  0.00000000000E+00 0.  1.
          1   -1    0    0  501    0  0.00000000000E+00 -0.00000000000E+00 -0.16984840510E+03  0.16984840510E+03  0.00000000000E+00 0. -1.
         25    2    1    2    0    0  0.14856509542E+03  0.15433844346E+03  0.61005532049E+02  0.25546619934E+03  0.12509740748E+03 0.  0.
          5    1    3    3  502    0  0.11794247306E+03  0.11737649074E+03 -0.13221556036E+02  0.16697290041E+03  0.41800000000E+01 0.  1.
         -5    1    3    3    0  502  0.30622622360E+02  0.36961952725E+02  0.74227088085E+02  0.88493298927E+02  0.41800000000E+01 0.  1.
        -11    1    1    2    0    0 -0.83294699134E+02 -0.53082915787E+02  0.87232389764E+01  0.99155926451E+02  0.00000000000E+00 0. -1.
         11    1    1    2    0    0 -0.65270396284E+02 -0.10125552768E+03  0.10500695348E+03  0.15981040890E+03  0.00000000000E+00 0.  1.
</event>
<event>
 7    1  0.2644565E-009  0.1315587E+03  0.7561462E-02  0.1225161E+00
          1   -1    0    0  501    0  0.00000000000E+00  0.00000000000E+00  0.49720677384E+03  0.49720677384E+03  0.00000000000E+00 0. -1.
         -1   -1    0    0    0  501 -0.00000000000E+00 -0.00000000000E+00 -0.46175565323E+02  0.46175565323E+02  0.00000000000E+00 0.  1.
         25    2    1    2    0    0  0.73642261077E+02  0.75399712191E+02  0.18208879102E+03  0.24476772158E+03  0.12508641212E+03 0.  0.
          5    1    3    3  502    0 -0.99388124916E+01  0.53467610139E+02  0.14932424680E+02  0.56550994992E+02  0.41800000000E+01 0.  1.
         -5    1    3    3    0  502  0.83581073569E+02  0.21932102052E+02  0.16715636634E+03  0.18821672659E+03  0.41800000000E+01 0.  1.
        -11    1    1    2    0    0 -0.54228548432E+02 -0.11709307372E+02  0.73136815287E+02  0.91797805500E+02  0.00000000000E+00 0.  1.
         11    1    1    2    0    0 -0.19413712645E+02 -0.63690404819E+02  0.19580560221E+03  0.20681681208E+03  0.00000000000E+00 0. -1.
</event>
<event>
 7    1  0.2644565E-009  0.1539173E+03  0.7561462E-02  0.1195740E+00
          1   -1    0    0  501    0  0.00000000000E+00  0.00000000000E+00  0.92659280360E+02  0.92659280360E+02  0.00000000000E+00 0. -1.
         -1   -1    0    0    0  501 -0.00000000000E+00 -0.00000000000E+00 -0.35556218617E+03  0.35556218617E+03  0.00000000000E+00 0.  1.
         25    2    1    2    0    0  0.11711351061E+03  0.70959718950E+02 -0.19675826671E+03  0.27039073187E+03  0.12508587561E+03 0.  0.
          5    1    3    3  502    0  0.57847867725E+02 -0.15163111840E+02 -0.16850957324E+02  0.62271365199E+02  0.41800000000E+01 0.  1.
         -5    1    3    3    0  502  0.59265642886E+02  0.86122830790E+02 -0.17990730939E+03  0.20811936667E+03  0.41800000000E+01 0.  1.
        -11    1    1    2    0    0 -0.33991417346E+02 -0.44560031673E+02 -0.71032739585E+02  0.90480179978E+02  0.00000000000E+00 0. -1.
         11    1    1    2    0    0 -0.83122093265E+02 -0.26399687276E+02  0.48881004916E+01  0.87350554683E+02  0.00000000000E+00 0.  1.
</event>
<event>
 7    1  0.2644565E-009  0.1483435E+03  0.7561462E-02  0.1202523E+00
          2   -1    0    0  501    0  0.00000000000E+00  0.00000000000E+00  0.97092264612E+02  0.97092264612E+02  0.00000000000E+00 0. -1.
         -2   -1    0    0    0  501 -0.00000000000E+00 -0.00000000000E+00 -0.26770060229E+03  0.26770060229E+03  0.00000000000E+00 0.  1.
         25    2    1    2    0    0  0.11734107806E+03  0.21232025251E+02 -0.10159656109E+03  0.20047351090E+03  0.12509212545E+03 0.  0.
          5    1    3    3  502    0  0.10712624907E+03 -0.19149526947E+02 -0.22827644788E+02  0.11127134128E+03  0.41800000000E+01 0. -1.
         -5    1    3    3    0  502  0.10214828981E+02  0.40381552198E+02 -0.78768916305E+02  0.89202169620E+02  0.41800000000E+01 0. -1.
        -11    1    1    2    0    0 -0.94455158103E+02  0.22018285275E+02 -0.61425154661E+02  0.11480257577E+03  0.00000000000E+00 0. -1.
         11    1    1    2    0    0 -0.22885919953E+02 -0.43250310526E+02 -0.75866219253E+01  0.49516780236E+02  0.00000000000E+00 0.  1.
</event>
<event>
 7    1  0.2644565E-009  0.8740609E+02  0.7561462E-02  0.1309258E+00
         -2   -1    0    0    0  501 -0.00000000000E+00  0.00000000000E+00  0.26067484860E+03  0.26067484860E+03  0.00000000000E+00 0.  1.
          2   -1    0    0  501    0  0.00000000000E+00 -0.00000000000E+00 -0.78780466335E+02  0.78780466335E+02  0.00000000000E+00 0. -1.
         25    2    1    2    0    0  0.32026481105E+02 -0.37053666478E+02  0.19339256862E+03  0.23547121450E+03  0.12508931836E+03 0.  0.
          5    1    3    3  502    0  0.63334918326E+02 -0.25302362674E+02  0.18962425929E+03  0.20155980141E+03  0.41800000000E+01 0.  1.
         -5    1    3    3    0  502 -0.31308437221E+02 -0.11751303804E+02  0.37683093385E+01  0.33911413087E+02  0.41800000000E+01 0.  1.
        -11    1    1    2    0    0 -0.38364217625E+02  0.33766121133E+01  0.30965839411E+02  0.49417587090E+02  0.00000000000E+00 0.  1.
         11    1    1    2    0    0  0.63377365200E+01  0.33677054364E+02 -0.42464025765E+02  0.54566513349E+02  0.00000000000E+00 0. -1.
</event>
<event>
 7    1  0.2644565E-009  0.1029286E+03  0.7561462E-02  0.1274255E+00
         -3   -1    0    0    0  501 -0.00000000000E+00  0.00000000000E+00  0.16064366014E+03  0.16064366014E+03  0.00000000000E+00 0.  1.
          3   -1    0    0  501    0  0.00000000000E+00 -0.00000000000E+00 -0.99426432112E+02  0.99426432112E+02  0.00000000000E+00 0. -1.
         25    2    1    2    0    0  0.51157370498E+02 -0.52846568580E+01 -0.91150071186E+01  0.13559837535E+03  0.12513525437E+03 0.  0.
          5    1    3    3  502    0  0.89184110316E+02 -0.14588619701E+02  0.11436871158E+02  0.91186116155E+02  0.41800000000E+01 0.  1.
         -5    1    3    3    0  502 -0.38026739818E+02  0.93039628426E+01 -0.20551878277E+02  0.44412259191E+02  0.41800000000E+01 0.  1.
        -11    1    1    2    0    0 -0.31703909399E+02  0.30620983005E+02  0.79792465783E+02  0.91157117479E+02  0.00000000000E+00 0.  1.
         11    1    1    2    0    0 -0.19453461099E+02 -0.25336326147E+02 -0.94602306354E+01  0.33314599428E+02  0.00000000000E+00 0. -1.
</event>
<event>
 7    1  0.2644565E-009  0.8800644E+02  0.7561462E-02  0.1307752E+00
         -1   -1    0    0    0  501 -0.00000000000E+00  0.00000000000E+00  0.10099066965E+03  0.10099066965E+03  0.00000000000E+00 0.  1.
          1   -1    0    0  501    0  0.00000000000E+00 -0.00000000000E+00 -0.12017532281E+03  0.12017532281E+03  0.00000000000E+00 0. -1.
         25    2    1    2    0    0  0.14311245112E+02 -0.15910833895E+01  0.13748242113E+01  0.12592085792E+03  0.12508728566E+03 0.  0.
          5    1    3    3  502    0  0.67065637162E+02  0.45616951162E+01  0.18700174416E+02  0.69898338131E+02  0.41800000000E+01 0. -1.
         -5    1    3    3    0  502 -0.52754392050E+02 -0.61527785057E+01 -0.17325350205E+02  0.56022519790E+02  0.41800000000E+01 0. -1.
        -11    1    1    2    0    0 -0.25798135814E+02  0.20709664590E+02  0.27008919931E+02  0.42707326945E+02  0.00000000000E+00 0.  1.
         11    1    1    2    0    0  0.11486890702E+02 -0.19118581201E+02 -0.47568397297E+02  0.52537807592E+02  0.00000000000E+00 0. -1.
</event>
<event>
 7    1  0.2644565E-009  0.1102540E+03  0.7561462E-02  0.1260100E+00
          2   -1    0    0  501    0  0.00000000000E+00  0.00000000000E+00  0.60398271999E+03  0.60398271999E+03  0.00000000000E+00 0.  1.
         -2   -1    0    0    0  501 -0.00000000000E+00 -0.00000000000E+00 -0.23876230835E+02  0.23876230835E+02  0.00000000000E+00 0. -1.
         25    2    1    2    0    0 -0.22420965641E+02  0.25471502810E+02  0.43954238107E+03  0.45825281034E+03  0.12508651517E+03 0.  0.
          5    1    3    3  502    0  0.36583464261E+01  0.73642482604E+02  0.27708691417E+03  0.28675988064E+03  0.41800000000E+01 0.  1.
         -5    1    3    3    0  502 -0.26079312067E+02 -0.48170979794E+02  0.16245546690E+03  0.17149292971E+03  0.41800000000E+01 0.  1.
        -11    1    1    2    0    0  0.29701893139E+02  0.26158570065E+02  0.39680304232E+02  0.56044623184E+02  0.00000000000E+00 0. -1.
         11    1    1    2    0    0 -0.72809274981E+01 -0.51630072874E+02  0.10088380385E+03  0.11356151729E+03  0.00000000000E+00 0.  1.
</event>
<event>
 7    1  0.2644565E-009  0.1498257E+03  0.7561462E-02  0.1200687E+00
          3   -1    0    0  501    0  0.00000000000E+00  0.00000000000E+00  0.45472670403E+03  0.45472670403E+03  0.00000000000E+00 0. -1.
         -3   -1    0    0    0  501 -0.00000000000E+00 -0.00000000000E+00 -0.59436565563E+02  0.59436565563E+02  0.00000000000E+00 0.  1.
         25    2    1    2    0    0  0.67897297596E+02 -0.99336155976E+02  0.25189278622E+03  0.30590052259E+03  0.12508972405E+03 0.  0.
          5    1    3    3  502    0  0.31667455425E+02  0.10192749837E+02  0.57326818620E+01  0.34015524745E+02  0.41800000000E+01 0.  1.
         -5    1    3    3    0  502  0.36229842171E+02 -0.10952890581E+03  0.24616010436E+03  0.27188499784E+03  0.41800000000E+01 0.  1.
        -11    1    1    2    0    0 -0.54174109146E+02  0.39553559804E+01  0.44976364717E+02  0.70521998879E+02  0.00000000000E+00 0.  1.
         11    1    1    2    0    0 -0.13723188450E+02  0.95380799995E+02  0.98420987527E+02  0.13774074813E+03  0.00000000000E+00 0. -1.
</event>
<event>
 7    1  0.2644565E-009  0.1032604E+03  0.7561462E-02  0.1273585E+00
          1   -1    0    0  501    0  0.00000000000E+00  0.00000000000E+00  0.25301023458E+03  0.25301023458E+03  0.00000000000E+00 0. -1.
         -1   -1    0    0    0  501 -0.00000000000E+00 -0.00000000000E+00 -0.52295052722E+02  0.52295052722E+02  0.00000000000E+00 0.  1.
         25    2    1    2    0    0 -0.16242467392E+02 -0.23077679799E+02  0.71293506893E+02  0.14671908270E+03  0.12508928033E+03 0.  0.
          5    1    3    3  502    0 -0.68792237423E+02 -0.27984999047E+01  0.23937073546E+02  0.73011365015E+02  0.41800000000E+01 0.  1.
         -5    1    3    3    0  502  0.52549770032E+02 -0.20279179894E+02  0.47356433348E+02  0.73707717689E+02  0.41800000000E+01 0.  1.
        -11    1    1    2    0    0  0.45884498866E+02  0.23210181480E+02  0.42376765568E+02  0.66632499732E+02  0.00000000000E+00 0.  1.
         11    1    1    2    0    0 -0.29642031474E+02 -0.13250168079E+00  0.87044909395E+02  0.91953704864E+02  0.00000000000E+00 0. -1.
</event>
<event>
 7    1  0.2644565E-009  0.9763334E+02  0.7561462E-02  0.1285353E+00
         -2   -1    0    0    0  501 -0.00000000000E+00  0.00000000000E+00  0.29709800863E+02  0.29709800863E+02  0.00000000000E+00 0.  1.
          2   -1    0    0  501    0  0.00000000000E+00 -0.00000000000E+00 -0.50051742528E+03  0.50051742528E+03  0.00000000000E+00 0. -1.
         25    2    1    2    0    0  0.12280220377E+02  0.41971225976E+02 -0.33114702212E+03  0.35667690986E+03  0.12509068770E+03 0.  0.
          5    1    3    3  502    0  0.49603841336E+02 -0.23217927115E+02 -0.10759301244E+03  0.12080290535E+03  0.41800000000E+01 0. -1.
         -5    1    3    3    0  502 -0.37323620959E+02  0.65189153091E+02 -0.22355400968E+03  0.23587400451E+03  0.41800000000E+01 0. -1.
        -11    1    1    2    0    0  0.18256187478E+01 -0.49214158227E+02 -0.14775558791E+03  0.15574684592E+03  0.00000000000E+00 0. -1.
         11    1    1    2    0    0 -0.14105839125E+02  0.72429322513E+01  0.80949856116E+01  0.17803470366E+02  0.00000000000E+00 0.  1.
</event>
<event>
 7    1  0.2644565E-009  0.1021517E+03  0.7561462E-02  0.1275835E+00
         -2   -1    0    0    0  501 -0.00000000000E+00  0.00000000000E+00  0.16941938886E+02  0.16941938886E+02  0.00000000000E+00 0. -1.
          2   -1    0    0  501    0  0.00000000000E+00 -0.00000000000E+00 -0.74537871420E+03  0.74537871420E+03  0.00000000000E+00 0.  1.
         25    2    1    2    0    0  0.21678018247E+02 -0.14873701460E+02 -0.43697896509E+03  0.45529001990E+03  0.12508885971E+03 0.  0.
          5    1    3    3  502    0 -0.24467789218E+02 -0.56656239338E+02 -0.16413635806E+03  0.17540472800E+03  0.41800000000E+01 0. -1.
         -5    1    3    3    0  502  0.46145807464E+02  0.41782537878E+02 -0.27284260702E+03  0.27988529191E+03  0.41800000000E+01 0. -1.
        -11    1    1    2    0    0 -0.16509244672E+02 -0.30344089430E+02 -0.46759315160E+02  0.58135638615E+02  0.00000000000E+00 0. -1.
         11    1    1    2    0    0 -0.51687735749E+01  0.45217790890E+02 -0.24469849507E+03  0.24889499457E+03  0.00000000000E+00 0.  1.
</event>
<event>
 7    1  0.2644565E-009  0.6462868E+02  0.7561462E-02  0.1379374E+00
          1   -1    0    0  501    0  0.00000000000E+00  0.00000000000E+00  0.23334202085E+03  0.23334202085E+03  0.00000000000E+00 0. -1.
         -1   -1    0    0    0  501 -0.00000000000E+00 -0.00000000000E+00 -0.44893004866E+02  0.44893004866E+02  0.00000000000E+00 0.  1.
         25    2    1    2    0    0 -0.26206933852E+02 -0.72872132849E+01  0.67048696453E+02  0.14451250546E+03  0.12509368361E+03 0.  0.
          5    1    3    3  502    0  0.63322990660E+01  0.27322039373E+02  0.87977836449E+02  0.92434646931E+02  0.41800000000E+01 0. -1.
         -5    1    3    3    0  502 -0.32539232918E+02 -0.34609252658E+02 -0.20929139995E+02  0.52077858533E+02  0.41800000000E+01 0. -1.
        -11    1    1    2    0    0  0.67153756751E+01  0.25601967014E+02  0.39353301634E+02  0.47426146111E+02  0.00000000000E+00 0.  1.
         11    1    1    2    0    0  0.19491558177E+02 -0.18314753729E+02  0.82047017900E+02  0.86296374145E+02  0.00000000000E+00 0. -1.
</event>
<event>
 6    1  0.2644565E-009  0.3819990E+03  0.7561462E-02  0.1050197E+00
         -1   -1    0    0    0  501 -0.00000000000E+00  0.00000000000E+00  0.25701360066E+03  0.25701360066E+03  0.00000000000E+00 0.  1.
          1   -1    0    0  501    0  0.00000000000E+00 -0.00000000000E+00 -0.61762681377E+03  0.61762681377E+03  0.00000000000E+00 0. -1.
          5    1    1    2  502    0 -0.20324371525E+03  0.24623102199E+03 -0.25125191649E+03  0.40630373112E+03  0.41800000000E+01 0.  1.
         -5    1    1    2    0  502  0.39966301042E+01  0.70157763258E+02 -0.20473378120E+02  0.73312457394E+02  0.41800000000E+01 0.  1.
        -11    1    1    2    0    0  0.13640271051E+03 -0.23117729458E+03 -0.20976424876E+02  0.26923716564E+03  0.00000000000E+00 0.  1.
         11    1    1    2    0    0  0.62844374631E+02 -0.85211490675E+02 -0.67911493627E+02  0.12578706027E+03  0.00000000000E+00 0. -1.
</event>
<event>
 7    1  0.2644565E-009  0.1048950E+03  0.7561462E-02  0.1270327E+00
          3   -1    0    0  501    0  0.00000000000E+00  0.00000000000E+00  0.14656364074E+03  0.14656364074E+03  0.00000000000E+00 0. -1.
         -3   -1    0    0    0  501 -0.00000000000E+00 -0.00000000000E+00 -0.14082637839E+03  0.14082637839E+03  0.00000000000E+00 0.  1.
         25    2    1    2    0    0  0.87770474676E+02  0.82114281099E+01 -0.26769039025E+02  0.15535402826E+03  0.12508880394E+03 0.  0.
          5    1    3    3  502    0  0.52257549988E+01  0.32386404156E+02  0.35930382223E+02  0.48832903417E+02  0.41800000000E+01 0.  1.
         -5    1    3    3    0  502  0.82544719677E+02 -0.24174976046E+02 -0.62699421248E+02  0.10652112485E+03  0.41800000000E+01 0.  1.
        -11    1    1    2    0    0 -0.94081257341E+01 -0.78340869349E+01  0.50224080980E+02  0.51694719829E+02  0.00000000000E+00 0. -1.
         11    1    1    2    0    0 -0.78362348942E+02 -0.37734117491E+00 -0.17717779610E+02  0.80341271040E+02  0.00000000000E+00 0.  1.
</event>
<event>
 7    1  0.2644565E-009  0.1001456E+03  0.7561462E-02  0.1279990E+00
         -3   -1    0    0    0  501 -0.00000000000E+00  0.00000000000E+00  0.20153457271E+03  0.20153457271E+03  0.00000000000E+00 0.  1.
          3   -1    0    0  501    0  0.00000000000E+00 -0.00000000000E+00 -0.99090739890E+02  0.99090739890E+02  0.00000000000E+00 0. -1.
         25    2    1    2    0    0  0.34721085150E+02 -0.14714377884E+02  0.14481617763E+03  0.19504054191E+03  0.12508805305E+03 0.  0.
          5    1    3    3  502    0 -0.32357196360E+02 -0.19276335317E+02  0.29697433101E+01  0.38011275102E+02  0.41800000000E+01 0. -1.
         -5    1    3    3    0  502  0.67078281510E+02  0.45619574329E+01  0.14184643432E+03  0.15702926681E+03  0.41800000000E+01 0. -1.
        -11    1    1    2    0    0 -0.20861161680E+01 -0.35273591062E+02 -0.64702110146E+01  0.35922718963E+02  0.00000000000E+00 0. -1.
         11    1    1    2    0    0 -0.32634968982E+02  0.49987968946E+02 -0.35902133793E+02  0.69662051726E+02  0.00000000000E+00 0.  1.
</event>
<event>
 7    1  0.2644565E-009  0.1109238E+03  0.7561462E-02  0.1258869E+00
         -1   -1    0    0    0  501 -0.00000000000E+00  0.00000000000E+00  0.31661748673E+02  0.31661748673E+02  0.00000000000E+00 0.  1.
          1   -1    0    0  501    0  0.00000000000E+00 -0.00000000000E+00 -0.54040034066E+03  0.54040034066E+03  0.00000000000E+00 0. -1.
         25    2    1    2    0    0  0.29937786828E+01 -0.32368161189E+02 -0.42211228635E+03  0.44145562528E+03  0.12509047222E+03 0.  0.
          5    1    3    3  502    0 -0.35637688336E+01  0.45552891849E+02 -0.21934363827E+03  0.22409121012E+03  0.41800000000E+01 0.  1.
         -5    1    3    3    0  502  0.65575475164E+01 -0.77921053038E+02 -0.20276864808E+03  0.21736441517E+03  0.41800000000E+01 0.  1.
        -11    1    1    2    0    0  0.31235653523E+02 -0.18530530066E+02 -0.34909881348E+02  0.50376049977E+02  0.00000000000E+00 0.  1.
         11    1    1    2    0    0 -0.34229432206E+02  0.50898691255E+02 -0.51716424292E+02  0.80230414072E+02  0.00000000000E+00 0. -1.
</event>
<event>
 7    1  0.2644565E-009  0.1096311E+03  0.7561462E-02  0.1261255E+00
         -1   -1    0    0    0  501 -0.00000000000E+00  0.00000000000E+00  0.41883822376E+02  0.41883822376E+02  0.00000000000E+00 0.  1.
          1   -1    0    0  501    0  0.00000000000E+00 -0.00000000000E+00 -0.35409976321E+03  0.35409976321E+03  0.00000000000E+00 0. -1.
         25    2    1    2    0    0  0.53466686162E+01  0.35359306956E+02 -0.23647657348E+03  0.26990134725E+03  0.12508676984E+03 0.  0.
          5    1    3    3  502    0  0.58476498688E+02  0.29725228384E+02 -0.18190101813E+03  0.19341288193E+03  0.41800000000E+01 0.  1.
         -5    1    3    3    0  502 -0.53129830072E+02  0.56340785716E+01 -0.54575555352E+02  0.76488465318E+02  0.41800000000E+01 0.  1.
        -11    1    1    2    0    0  0.44030739655E+02 -0.14767465149E+02 -0.43428009310E+02  0.63582828296E+02  0.00000000000E+00 0.  1.
         11    1    1    2    0    0 -0.49377408271E+02 -0.20591841807E+02 -0.32311358040E+02  0.62499410036E+02  0.00000000000E+00 0. -1.
</event>
<event>
 7    1  0.2644565E-009  0.1251086E+03  0.7561462E-02  0.1234900E+00
          1   -1    0    0  501    0  0.00000000000E+00  0.00000000000E+00  0.38118738523E+03  0.38118738523E+03  0.00000000000E+00 0. -1.
         -1   -1    0    0    0  501 -0.00000000000E+00 -0.00000000000E+00 -0.47841706343E+02  0.47841706343E+02  0.00000000000E+00 0.  1.
         25    2    1    2    0    0 -0.38791169394E+02  0.68896464787E+02  0.16253835673E+03  0.21981240935E+03  0.12508916904E+03 0.  0.
          5    1    3    3  502    0  0.43745717617E+02  0.20456699280E+02  0.79127225278E+02  0.92794151408E+02  0.41800000000E+01 0. -1.
         -5    1    3    3    0  502 -0.82536887012E+02  0.48439765507E+02  0.83411131451E+02  0.12701825794E+03  0.41800000000E+01 0. -1.
        -11    1    1    2    0    0 -0.24222203073E+01  0.13557069951E+02  0.75041785756E+02  0.76295025436E+02  0.00000000000E+00 0. -1.
         11    1    1    2    0    0  0.41213389702E+02 -0.82453534738E+02  0.95765536404E+02  0.13292165679E+03  0.00000000000E+00 0.  1.
</event>
<event>
 7    1  0.2644565E-009  0.9571983E+02  0.7561462E-02  0.1289563E+00
          2   -1    0    0  501    0  0.00000000000E+00  0.00000000000E+00  0.64436318574E+03  0.64436318574E+03  0.00000000000E+00 0. -1.
         -2   -1    0    0    0  501 -0.00000000000E+00 -0.00000000000E+00 -0.20775438089E+02  0.20775438089E+02  0.00000000000E+00 0.  1.
         25    2    1    2    0    0  0.59453178234E+01  0.23444697618E+02  0.26741833403E+03  0.29621824221E+03  0.12509069107E+03 0.  0.
          5    1    3    3  502    0  0.47186406115E+02 -0.16721475085E+01  0.35319006739E+02  0.59112246077E+02  0.41800000000E+01 0.  1.
         -5    1    3    3    0  502 -0.41241088291E+02  0.25116845127E+02  0.23209932730E+03  0.23710599614E+03  0.41800000000E+01 0.  1.
        -11    1    1    2    0    0  0.10631438140E+02  0.34082916705E+02  0.15323276710E+03  0.15733707001E+03  0.00000000000E+00 0.  1.
         11    1    1    2    0    0 -0.16576755964E+02 -0.57527614324E+02  0.20293664652E+03  0.21158331161E+03  0.00000000000E+00 0. -1.
</event>
<event>
 7    1  0.2644565E-009  0.4894126E+02  0.7561462E-02  0.1451137E+00
          1   -1    0    0  501    0  0.00000000000E+00  0.00000000000E+00  0.44249615367E+03  0.44249615367E+03  0.00000000000E+00 0. -1.
         -1   -1    0    0    0  501 -0.00000000000E+00 -0.00000000000E+00 -0.27811196778E+02  0.27811196778E+02  0.00000000000E+00 0.  1.
         25    2    1    2    0    0  0.11606172321E+02  0.13022228934E+02  0.27877376457E+03  0.30605295663E+03  0.12509723724E+03 0.  0.
          5    1    3    3  502    0  0.57635585504E+00  0.21471616905E+02 -0.45563045957E+01  0.22351618066E+02  0.41800000000E+01 0. -1.
         -5    1    3    3    0  502  0.11029816466E+02 -0.84493879711E+01  0.28333006917E+03  0.28370133857E+03  0.41800000000E+01 0. -1.
        -11    1    1    2    0    0  0.14314945378E+02 -0.28076563123E+02  0.12991762442E+03  0.13368545244E+03  0.00000000000E+00 0. -1.
         11    1    1    2    0    0 -0.25921117699E+02  0.15054334189E+02  0.59935678900E+01  0.30568941373E+02  0.00000000000E+00 0.  1.
</event>
<event>
 7    1  0.2644565E-009  0.9357281E+02  0.7561462E-02  0.1294423E+00
         -1   -1    0    0    0  501 -0.00000000000E+00  0.00000000000E+00  0.29581483360E+02  0.29581483360E+02  0.00000000000E+00 0.  1.
          1   -1    0    0  501    0  0.00000000000E+00 -0.00000000000E+00 -0.53602558740E+03  0.53602558740E+03  0.00000000000E+00 0. -1.
         25    2    1    2    0    0  0.17025859054E+02  0.45965828637E+02 -0.19078276678E+03  0.23334177128E+03  0.12509029077E+03 0.  0.
          5    1    3    3  502    0 -0.26298239536E+02  0.57275556418E+02 -0.37184590856E+02  0.73295654461E+02  0.41800000000E+01 0.  1.
         -5    1    3    3    0  502  0.43324098590E+02 -0.11309727781E+02 -0.15359817593E+03  0.16004611682E+03  0.41800000000E+01 0.  1.
        -11    1    1    2    0    0 -0.36683228744E+02 -0.46646695912E+02 -0.30326303223E+03  0.30901462786E+03  0.00000000000E+00 0. -1.
         11    1    1    2    0    0  0.19657369690E+02  0.68086727446E+00 -0.12398305024E+02  0.23250671621E+02  0.00000000000E+00 0.  1.
</event>
<event>
 7    1  0.2644565E-009  0.7068745E+02  0.7561462E-02  0.1357771E+00
          2   -1    0    0  501    0  0.00000000000E+00  0.00000000000E+00  0.76570239611E+02  0.76570239611E+02  0.00000000000E+00 0.  1.
         -2   -1    0    0    0  501 -0.00000000000E+00 -0.00000000000E+00 -0.15971589808E+03  0.15971589808E+03  0.00000000000E+00 0. -1.
         25    2    1    2    0    0 -0.16885367718E+02  0.27457039803E+02 -0.63908500185E+02  0.14411777469E+03  0.12508649771E+03 0.  0.
          5    1    3    3  502    0  0.14269777169E+02 -0.13114984227E+02  0.30664228373E+02  0.36515704203E+02  0.41800000000E+01 0. -1.
         -5    1    3    3    0  502 -0.31155144887E+02  0.40572024030E+02 -0.94572728558E+02  0.10760207049E+03  0.41800000000E+01 0. -1.
        -11    1    1    2    0    0 -0.19725387433E+00 -0.45428342957E+02  0.16791100836E+02  0.48432574990E+02  0.00000000000E+00 0.  1.
         11    1    1    2    0    0  0.17082621592E+02  0.17971303154E+02 -0.36028259116E+02  0.43735788005E+02  0.00000000000E+00 0. -1.
</event>
<event>
 7    1  0.2644565E-009  0.1870016E+03  0.7561462E-02  0.1161194E+00
          2   -1    0    0  501    0  0.00000000000E+00  0.00000000000E+00  0.53713463467E+03  0.53713463467E+03  0.00000000000E+00 0.  1.
         -2   -1    0    0    0  501 -0.00000000000E+00 -0.00000000000E+00 -0.16193891621E+03  0.16193891621E+03  0.00000000000E+00 0. -1.
         25    2    1    2    0    0  0.16278605264E+03  0.18752113913E+02 -0.68586430677E+02  0.21726042273E+03  0.12508817731E+03 0.  0.
          5    1    3    3  502    0  0.60534423780E+02 -0.36668244238E+02  0.16867936361E+02  0.72876445269E+02  0.41800000000E+01 0.  1.
         -5    1    3    3    0  502  0.10225162886E+03  0.55420358151E+02 -0.85454367038E+02  0.14438397746E+03  0.41800000000E+01 0.  1.
        -11    1    1    2    0    0 -0.14700958912E+03  0.16667541498E+02  0.36950159011E+03  0.39802142069E+03  0.00000000000E+00 0.  1.
         11    1    1    2    0    0 -0.15776463516E+02 -0.35419655411E+02  0.74280559029E+02  0.83791707467E+02  0.00000000000E+00 0. -1.
</event>
<event>
 7    1  0.2644565E-009  0.1101862E+03  0.7561462E-02  0.1260225E+00
          2   -1    0    0  501    0  0.00000000000E+00  0.00000000000E+00  0.46365570357E+02  0.46365570357E+02  0.00000000000E+00 0.  1.
         -2   -1    0    0    0  501 -0.00000000000E+00 -0.00000000000E+00 -0.39371111456E+03  0.39371111456E+03  0.00000000000E+00 0. -1.
         25    2    1    2    0    0  0.58594828002E+02 -0.29787727160E+02 -0.11182657152E+03  0.18020376905E+03  0.12509018237E+03 0.  0.
          5    1    3    3  502    0  0.82754438817E+02 -0.17078077849E+02 -0.12392793101E+03  0.15005186560E+03  0.41800000000E+01 0.  1.
         -5    1    3    3    0  502 -0.24159610816E+02 -0.12709649312E+02  0.12101359485E+02  0.30151903452E+02  0.41800000000E+01 0.  1.
        -11    1    1    2    0    0 -0.80497057477E+01  0.52232791227E+02 -0.92496624875E+02  0.10653022039E+03  0.00000000000E+00 0.  1.
         11    1    1    2    0    0 -0.50545122254E+02 -0.22445064067E+02 -0.14302234781E+03  0.15334269548E+03  0.00000000000E+00 0. -1.
</event>
<event>
 7    1  0.2644565E-009  0.1257307E+03  0.7561462E-02  0.1233932E+00
         -4   -1    0    0    0  501 -0.00000000000E+00  0.00000000000E+00  0.13191695337E+03  0.13191695337E+03  0.00000000000E+00 0.  1.
          4   -1    0    0  501    0  0.00000000000E+00 -0.00000000000E+00 -0.17901419889E+03  0.17901419889E+03  0.00000000000E+00 0. -1.
         25    2    1    2    0    0 -0.73745429440E+02  0.80240175220E+02 -0.19841670279E+02  0.16708709027E+03  0.12509008663E+03 0.  0.
          5    1    3    3  502    0 -0.62225894375E+02  0.42312261128E+02 -0.70110527215E+02  0.10293370584E+03  0.41800000000E+01 0.  1.
         -5    1    3    3    0  502 -0.11519535065E+02  0.37927914092E+02  0.50268856936E+02  0.64153384424E+02  0.41800000000E+01 0.  1.
        -11    1    1    2    0    0  0.14879267539E+02  0.16985179014E+02  0.93462204624E+01  0.24438509479E+02  0.00000000000E+00 0.  1.
         11    1    1    2    0    0  0.58866161901E+02 -0.97225354234E+02 -0.36601795698E+02  0.11940555251E+03  0.00000000000E+00 0. -1.
</event>
<event>
 7    1  0.2644565E-009  0.2121655E+03  0.7561462E-02  0.1139863E+00
         -2   -1    0    0    0  501 -0.00000000000E+00  0.00000000000E+00  0.17109623423E+03  0.17109623423E+03  0.00000000000E+00 0. -1.
          2   -1    0    0  501    0  0.00000000000E+00 -0.00000000000E+00 -0.32228498004E+03  0.32228498004E+03  0.00000000000E+00 0.  1.
         25    2    1    2    0    0  0.19973390938E+03  0.11180406024E+02 -0.13708268210E+03  0.27287706467E+03  0.12510633341E+03 0.  0.
          5    1    3    3  502    0  0.18656164107E+03  0.41231741856E+02 -0.80575724880E+02  0.20740111449E+03  0.41800000000E+01 0. -1.
         -5    1    3    3    0  502  0.13172268312E+02 -0.30051335831E+02 -0.56506957219E+02  0.65475950179E+02  0.41800000000E+01 0. -1.
        -11    1    1    2    0    0 -0.14523564476E+03 -0.10928110201E+02  0.31998235533E+02  0.14911976119E+03  0.00000000000E+00 0. -1.
         11    1    1    2    0    0 -0.54498264618E+02 -0.25229582324E+00 -0.46104299242E+02  0.71384388406E+02  0.00000000000E+00 0.  1.
</event>
<event>
 7    1  0.2644565E-009  0.9764456E+02  0.7561462E-02  0.1285329E+00
          2   -1    0    0  501    0  0.00000000000E+00  0.00000000000E+00  0.40003802795E+02  0.40003802795E+02  0.00000000000E+00 0. -1.
         -2   -1    0    0    0  501 -0.00000000000E+00 -0.00000000000E+00 -0.47450113928E+03  0.47450113928E+03  0.00000000000E+00 0.  1.
         25    2    1    2    0    0 -0.53999152461E+02 -0.57631900894E+02 -0.29868181384E+03  0.33330982049E+03  0.12508903250E+03 0.  0.
          5    1    3    3  502    0 -0.21754258336E+02  0.12361118831E+02 -0.22559958305E+03  0.22702134104E+03  0.41800000000E+01 0.  1.
         -5    1    3    3    0  502 -0.32244894125E+02 -0.69993019726E+02 -0.73082230790E+02  0.10628847945E+03  0.41800000000E+01 0.  1.
        -11    1    1    2    0    0 -0.43643400163E+00  0.32987749469E+02 -0.19164137201E+00  0.32991193008E+02  0.00000000000E+00 0. -1.
         11    1    1    2    0    0  0.54435586463E+02  0.24644151426E+02 -0.13562388127E+03  0.14820392857E+03  0.00000000000E+00 0.  1.
</event>
<event>
 7    1  0.2644565E-009  0.1118830E+03  0.7561462E-02  0.1257122E+00
         -2   -1    0    0    0  501 -0.00000000000E+00  0.00000000000E+00  0.23628757895E+02  0.23628757895E+02  0.00000000000E+00 0.  1.
          2   -1    0    0  501    0  0.00000000000E+00 -0.00000000000E+00 -0.11464438094E+04  0.11464438094E+04  0.00000000000E+00 0. -1.
         25    2    1    2    0    0  0.24328521925E+02 -0.31310443648E+02 -0.10155157843E+04  0.10239589732E+04  0.12508976660E+03 0.  0.
          5    1    3    3  502    0 -0.23805402688E+02 -0.64937358123E+02 -0.43741804563E+03  0.44287196425E+03  0.41800000000E+01 0. -1.
         -5    1    3    3    0  502  0.48133924613E+02  0.33626914475E+02 -0.57809773871E+03  0.58108700896E+03  0.41800000000E+01 0. -1.
        -11    1    1    2    0    0 -0.56130434232E+02  0.92023747598E+01 -0.44028572710E+02  0.71929302535E+02  0.00000000000E+00 0.  1.
         11    1    1    2    0    0  0.31801912307E+02  0.22108068888E+02 -0.63270694464E+02  0.74184291561E+02  0.00000000000E+00 0. -1.
</event>
<event>
 7    1  0.2644565E-009  0.1552898E+03  0.7561462E-02  0.1194120E+00
          2   -1    0    0  501    0  0.00000000000E+00  0.00000000000E+00  0.26750462742E+03  0.26750462742E+03  0.00000000000E+00 0. -1.
         -2   -1    0    0    0  501 -0.00000000000E+00 -0.00000000000E+00 -0.10620966077E+03  0.10620966077E+03  0.00000000000E+00 0.  1.
         25    2    1    2    0    0  0.41685217210E+02  0.10549528613E+03  0.15415697569E+03  0.22863277058E+03  0.12506661385E+03 0.  0.
          5    1    3    3  502    0 -0.16546910484E+02  0.10867248187E+03  0.93330774661E+02  0.14426231130E+03  0.41800000000E+01 0. -1.
         -5    1    3    3    0  502  0.58232127694E+02 -0.31771957386E+01  0.60826201027E+02  0.84370459285E+02  0.41800000000E+01 0. -1.
        -11    1    1    2    0    0 -0.24863089261E+02  0.89551964528E+01 -0.97647243360E+01  0.28173011775E+02  0.00000000000E+00 0.  1.
         11    1    1    2    0    0 -0.16822127949E+02 -0.11445048258E+03  0.16902715295E+02  0.11690850583E+03  0.00000000000E+00 0. -1.
</event>
<event>
 7    1  0.2644565E-009  0.1272093E+03  0.7561462E-02  0.1231656E+00
          1   -1    0    0  501    0  0.00000000000E+00  0.00000000000E+00  0.24570036790E+03  0.24570036790E+03  0.00000000000E+00 0. -1.
         -1   -1    0    0    0  501 -0.00000000000E+00 -0.00000000000E+00 -0.86241069129E+02  0.86241069129E+02  0.00000000000E+00 0.  1.
         25    2    1    2    0    0  0.21249246831E+02  0.60561497643E+02  0.39819530506E+02  0.14612348902E+03  0.12508898251E+03 0.  0.
          5    1    3    3  502    0 -0.36340711561E+02  0.10985714891E+01  0.50698842598E+02  0.62527587646E+02  0.41800000000E+01 0.  1.
         -5    1    3    3    0  502  0.57589958393E+02  0.59462926154E+02 -0.10879312091E+02  0.83595901371E+02  0.41800000000E+01 0.  1.
        -11    1    1    2    0    0  0.49304282119E+02 -0.17703892545E+02  0.76381436490E+02  0.92619997230E+02  0.00000000000E+00 0. -1.
         11    1    1    2    0    0 -0.70553528951E+02 -0.42857605098E+02  0.43258331777E+02  0.93197950783E+02  0.00000000000E+00 0.  1.
</event>
<event>
 7    1  0.2644565E-009  0.1183458E+03  0.7561462E-02  0.1245851E+00
         -2   -1    0    0    0  501 -0.00000000000E+00  0.00000000000E+00  0.19297983481E+02  0.19297983481E+02  0.00000000000E+00 0.  1.
          2   -1    0    0  501    0  0.00000000000E+00 -0.00000000000E+00 -0.94100903916E+03  0.94100903916E+03  0.00000000000E+00 0. -1.
         25    2    1    2    0    0  0.69236843033E+02  0.20895256110E+02 -0.61003293189E+03  0.62691129534E+03  0.12508893662E+03 0.  0.
          5    1    3    3  502    0  0.92803061423E+02  0.34334546743E+02 -0.56892701438E+03  0.57748306417E+03  0.41800000000E+01 0. -1.
         -5    1    3    3    0  502 -0.23566218389E+02 -0.13439290633E+02 -0.41105917517E+02  0.49428231172E+02  0.41800000000E+01 0. -1.
        -11    1    1    2    0    0 -0.88681021043E+02 -0.15508794702E+02 -0.19237082490E+03  0.21239439842E+03  0.00000000000E+00 0.  1.
         11    1    1    2    0    0  0.19444178010E+02 -0.53864614080E+01 -0.11930729888E+03  0.12100132888E+03  0.00000000000E+00 0. -1.
</event>
<event>
 7    1  0.2644565E-009  0.1095350E+03  0.7561462E-02  0.1261433E+00
          2   -1    0    0  501    0  0.00000000000E+00  0.00000000000E+00  0.44053696949E+03  0.44053696949E+03  0.00000000000E+00 0. -1.
         -2   -1    0    0    0  501 -0.00000000000E+00 -0.00000000000E+00 -0.38432509005E+02  0.38432509005E+02  0.00000000000E+00 0.  1.
         25    2    1    2    0    0 -0.71692792228E+02 -0.47188862861E+01  0.20779989180E+03  0.25296268436E+03  0.12508876969E+03 0.  0.
          5    1    3    3  502    0 -0.50279307978E+02  0.51505186134E+02  0.61666538978E+02  0.94873744729E+02  0.41800000000E+01 0.  1.
         -5    1    3    3    0  502 -0.21413484251E+02 -0.56224072420E+02  0.14613335282E+03  0.15808893963E+03  0.41800000000E+01 0.  1.
        -11    1    1    2    0    0  0.16690402302E+02 -0.20263359899E+02  0.14687380853E+03  0.14920150440E+03  0.00000000000E+00 0. -1.
         11    1    1    2    0    0  0.55002389927E+02  0.24982246185E+02  0.47430760158E+02  0.76805289735E+02  0.00000000000E+00 0.  1.
</event>
<event>
 7    1  0.2644565E-009  0.1435063E+03  0.7561462E-02  0.1208687E+00
          1   -1    0    0  501    0  0.00000000000E+00  0.00000000000E+00  0.16574180262E+03  0.16574180262E+03  0.00000000000E+00 0. -1.
         -1   -1    0    0    0  501 -0.00000000000E+00 -0.00000000000E+00 -0.15001169255E+03  0.15001169255E+03  0.00000000000E+00 0.  1.
         25    2    1    2    0    0 -0.10404916998E+03  0.43607918421E+02  0.25673511336E+02  0.17039130928E+03  0.12508472638E+03 0.  0.
          5    1    3    3  502    0  0.13583594849E+02  0.28016068846E+02  0.39926557358E+02  0.50803706017E+02  0.41800000000E+01 0. -1.
         -5    1    3    3    0  502 -0.11763276483E+03  0.15591849576E+02 -0.14253046022E+02  0.11958760327E+03  0.41800000000E+01 0. -1.
        -11    1    1    2    0    0  0.63609553875E+02 -0.65141501657E+02  0.16400891101E+02  0.92512592717E+02  0.00000000000E+00 0. -1.
         11    1    1    2    0    0  0.40439616102E+02  0.21533583236E+02 -0.26344292367E+02  0.52849593166E+02  0.00000000000E+00 0.  1.
</event>
<event>
 7    1  0.2644565E-009  0.1231554E+03  0.7561462E-02  0.1237981E+00
         -1   -1    0    0    0  501 -0.00000000000E+00  0.00000000000E+00  0.13279655447E+03  0.13279655447E+03  0.00000000000E+00 0.  1.
          1   -1    0    0  501    0  0.00000000000E+00 -0.00000000000E+00 -0.13353874761E+03  0.13353874761E+03  0.00000000000E+00 0. -1.
         25    2    1    2    0    0 -0.52441722825E+02  0.50789004908E+02  0.26066380792E+02  0.14715835399E+03  0.12508584104E+03 0.  0.
          5    1    3    3  502    0 -0.20793913771E+02  0.83067073514E+02 -0.13684159997E+02  0.86817361091E+02  0.41800000000E+01 0. -1.
         -5    1    3    3    0  502 -0.31647809054E+02 -0.32278068606E+02  0.39750540789E+02  0.60340992897E+02  0.41800000000E+01 0. -1.
        -11    1    1    2    0    0 -0.24998953002E+02 -0.59544679782E+01 -0.12428466028E+02  0.28545929795E+02  0.00000000000E+00 0. -1.
         11    1    1    2    0    0  0.77440675827E+02 -0.44834536929E+02 -0.14380107907E+02  0.90631018297E+02  0.00000000000E+00 0.  1.
</event>
<event>
 7    1  0.2644565E-009  0.1166719E+03  0.7561462E-02  0.1248691E+00
          1   -1    0    0  501    0  0.00000000000E+00  0.00000000000E+00  0.97941027509E+03  0.97941027509E+03  0.00000000000E+00 0. -1.
         -1   -1    0    0    0  501 -0.00000000000E+00 -0.00000000000E+00 -0.23441470341E+02  0.23441470341E+02  0.00000000000E+00 0.  1.
         25    2    1    2    0    0  0.22625017363E+02  0.10220416117E+03  0.55236501024E+03  0.57594331653E+03  0.12508404112E+03 0.  0.
          5    1    3    3  502    0  0.40353087844E+02  0.10200761350E+03  0.54556483057E+03  0.55650011829E+03  0.41800000000E+01 0.  1.
         -5    1    3    3    0  502 -0.17728070482E+02  0.19654766378E+00  0.68001796788E+01  0.19443198236E+02  0.41800000000E+01 0.  1.
        -11    1    1    2    0    0 -0.22061488136E+02 -0.75946497956E+02  0.38879583813E+03  0.39675783994E+03  0.00000000000E+00 0. -1.
         11    1    1    2    0    0 -0.56352922681E+00 -0.26257663211E+02  0.14807956375E+02  0.30150588957E+02  0.00000000000E+00 0.  1.
</event>
<event>
 7    1  0.2644565E-009  0.2445364E+03  0.7561462E-02  0.1116807E+00
         -2   -1    0    0    0  501 -0.00000000000E+00  0.00000000000E+00  0.11686193570E+03  0.11686193570E+03  0.00000000000E+00 0.  1.
          2   -1    0    0  501    0  0.00000000000E+00 -0.00000000000E+00 -0.57281485199E+03  0.57281485199E+03  0.00000000000E+00 0. -1.
         25    2    1    2    0    0 -0.17209169532E+03  0.11992594489E+03 -0.26328238689E+03  0.35911339249E+03  0.12508808721E+03 0.  0.
          5    1    3    3  502    0 -0.41861852555E+02 -0.20691313223E+02 -0.86261535165E+02  0.98178765481E+02  0.41800000000E+01 0. -1.
         -5    1    3    3    0  502 -0.13022984277E+03  0.14061725812E+03 -0.17702085173E+03  0.26093462701E+03  0.41800000000E+01 0. -1.
        -11    1    1    2    0    0  0.16254981363E+03 -0.36605407949E+02 -0.18079061044E+03  0.24586102299E+03  0.00000000000E+00 0. -1.
         11    1    1    2    0    0  0.95418816943E+01 -0.83320536945E+02 -0.11879918952E+02  0.84702372206E+02  0.00000000000E+00 0.  1.
</event>
<event>
 7    1  0.2644565E-009  0.1237376E+03  0.7561462E-02  0.1237055E+00
          1   -1    0    0  501    0  0.00000000000E+00  0.00000000000E+00  0.25979244488E+03  0.25979244488E+03  0.00000000000E+00 0. -1.
         -1   -1    0    0    0  501 -0.00000000000E+00 -0.00000000000E+00 -0.81064768691E+02  0.81064768691E+02  0.00000000000E+00 0.  1.
         25    2    1    2    0    0 -0.86270037127E+02  0.85712313092E+01  0.14870882144E+03  0.21279507968E+03  0.12510574348E+03 0.  0.
          5    1    3    3  502    0  0.22553612099E+01  0.32190773447E+02  0.10736919119E+03  0.11219156905E+03  0.41800000000E+01 0. -1.
         -5    1    3    3    0  502 -0.88525398337E+02 -0.23619542138E+02  0.41339630243E+02  0.10060351063E+03  0.41800000000E+01 0. -1.
        -11    1    1    2    0    0  0.41752690671E+02 -0.48093317850E+02  0.24643368433E+02  0.68290189690E+02  0.00000000000E+00 0. -1.
         11    1    1    2    0    0  0.44517346456E+02  0.39522086541E+02  0.53754863144E+01  0.59771944197E+02  0.00000000000E+00 0.  1.
</event>
<event>
 7    1  0.2644565E-009  0.1244216E+03  0.7561462E-02  0.1235976E+00
         -2   -1    0    0    0  501 -0.00000000000E+00  0.00000000000E+00  0.20645808490E+02  0.20645808490E+02  0.00000000000E+00 0.  1.
          2   -1    0    0  501    0  0.00000000000E+00 -0.00000000000E+00 -0.10624738508E+04  0.10624738508E+04  0.00000000000E+00 0. -1.
         25    2    1    2    0    0  0.44092368046E+02  0.86685681994E+02 -0.49790619345E+03  0.52251004468E+03  0.12509046700E+03 0.  0.
          5    1    3    3  502    0 -0.12544053069E+02  0.50520908552E+02 -0.60366218632E+02  0.79820224381E+02  0.41800000000E+01 0. -1.
         -5    1    3    3    0  502  0.56636421114E+02  0.36164773442E+02 -0.43753997481E+03  0.44268982030E+03  0.41800000000E+01 0. -1.
        -11    1    1    2    0    0 -0.12015304024E+02 -0.95319774587E+02 -0.46766655819E+03  0.47743296556E+03  0.00000000000E+00 0. -1.
         11    1    1    2    0    0 -0.32077064022E+02  0.86340925931E+01 -0.76255290682E+02  0.83176649056E+02  0.00000000000E+00 0.  1.
</event>
<event>
 7    1  0.2644565E-009  0.1092835E+03  0.7561462E-02  0.1261903E+00
         -1   -1    0    0    0  501 -0.00000000000E+00  0.00000000000E+00  0.51821457039E+02  0.51821457039E+02  0.00000000000E+00 0.  1.
          1   -1    0    0  501    0  0.00000000000E+00 -0.00000000000E+00 -0.33102495332E+03  0.33102495332E+03  0.00000000000E+00 0. -1.
         25    2    1    2    0    0 -0.41098650356E+02 -0.61332170586E+02 -0.14047810102E+03  0.20207080142E+03  0.12509107767E+03 0.  0.
          5    1    3    3  502    0 -0.71068087833E+01  0.36375075756E+02 -0.61196430345E+02  0.71666786968E+02  0.41800000000E+01 0.  1.
         -5    1    3    3    0  502 -0.33991841573E+02 -0.97707246343E+02 -0.79281670672E+02  0.13040401445E+03  0.41800000000E+01 0.  1.
        -11    1    1    2    0    0  0.35091401880E+02  0.31034127880E+02 -0.93571840454E+01  0.47771125928E+02  0.00000000000E+00 0.  1.
         11    1    1    2    0    0  0.60072484759E+01  0.30298042706E+02 -0.12936821122E+03  0.13300448301E+03  0.00000000000E+00 0. -1.
</event>
<event>
 7    1  0.2644565E-009  0.1535181E+03  0.7561462E-02  0.1196215E+00
         -1   -1    0    0    0  501 -0.00000000000E+00  0.00000000000E+00  0.22809220500E+02  0.22809220500E+02  0.00000000000E+00 0.  1.
          1   -1    0    0  501    0  0.00000000000E+00 -0.00000000000E+00 -0.11688686061E+04  0.11688686061E+04  0.00000000000E+00 0. -1.
         25    2    1    2    0    0 -0.65362558813E+02 -0.95588167761E+02 -0.47967408944E+03  0.50906057766E+03  0.12508428255E+03 0.  0.
          5    1    3    3  502    0 -0.64674817629E+02 -0.11971330690E+03 -0.45223273051E+03  0.47227748499E+03  0.41800000000E+01 0.  1.
         -5    1    3    3    0  502 -0.68774118463E+00  0.24125139142E+02 -0.27441358927E+02  0.36783092669E+02  0.41800000000E+01 0.  1.
        -11    1    1    2    0    0  0.45509709786E+02  0.11184626664E+03 -0.58297203273E+03  0.59534621187E+03  0.00000000000E+00 0.  1.
         11    1    1    2    0    0  0.19852849028E+02 -0.16258098883E+02 -0.83413263399E+02  0.87271037032E+02  0.00000000000E+00 0. -1.
</event>
<event>
 7    1  0.2644565E-009  0.1155967E+03  0.7561462E-02  0.1250543E+00
         -1   -1    0    0    0  501 -0.00000000000E+00  0.00000000000E+00  0.37763546016E+03  0.37763546016E+03  0.00000000000E+00 0.  1.
          1   -1    0    0  501    0  0.00000000000E+00 -0.00000000000E+00 -0.42722913343E+02  0.42722913343E+02  0.00000000000E+00 0. -1.
         25    2    1    2    0    0  0.48226548764E+02  0.27348272217E+02  0.24163799410E+03  0.27769391447E+03  0.12510500366E+03 0.  0.
          5    1    3    3  502    0 -0.38909666631E+02  0.15398576035E+02  0.12272296260E+03  0.12972847124E+03  0.41800000000E+01 0.  1.
         -5    1    3    3    0  502  0.87136215395E+02  0.11949696182E+02  0.11891503150E+03  0.14796544323E+03  0.41800000000E+01 0.  1.
        -11    1    1    2    0    0  0.82133963478E+01 -0.41985312898E+02  0.65120491075E+02  0.77916010785E+02  0.00000000000E+00 0.  1.
         11    1    1    2    0    0 -0.56439945112E+02  0.14637040681E+02  0.28154061643E+02  0.64748448253E+02  0.00000000000E+00 0. -1.
</event>
<event>
 7    1  0.2644565E-009  0.1431308E+03  0.7561462E-02  0.1209177E+00
         -1   -1    0    0    0  501 -0.00000000000E+00  0.00000000000E+00  0.76826392816E+02  0.76826392816E+02  0.00000000000E+00 0.  1.
          1   -1    0    0  501    0  0.00000000000E+00 -0.00000000000E+00 -0.29026458026E+03  0.29026458026E+03  0.00000000000E+00 0. -1.
         25    2    1    2    0    0  0.50495420432E+02 -0.94231833594E+02 -0.15251217522E+03  0.22435735420E+03  0.12508730089E+03 0.  0.
          5    1    3    3  502    0  0.61227859647E+02 -0.11851540180E+03 -0.14359490074E+03  0.19604009584E+03  0.41800000000E+01 0.  1.
         -5    1    3    3    0  502 -0.10732439215E+02  0.24283568207E+02 -0.89172744871E+01  0.28317258354E+02  0.41800000000E+01 0.  1.
        -11    1    1    2    0    0 -0.35055273117E+02  0.50537803035E+01 -0.35980799225E+01  0.35599986627E+02  0.00000000000E+00 0.  1.
         11    1    1    2    0    0 -0.15440147315E+02  0.89178053291E+02 -0.57327932300E+02  0.10713363225E+03  0.00000000000E+00 0. -1.
</event>
<event>
 7    1  0.2644565E-009  0.9721379E+02  0.7561462E-02  0.1286266E+00
          1   -1    0    0  501    0  0.00000000000E+00  0.00000000000E+00  0.10014064350E+03  0.10014064350E+03  0.00000000000E+00 0. -1.
         -1   -1    0    0    0  501 -0.00000000000E+00 -0.00000000000E+00 -0.16182698295E+03  0.16182698295E+03  0.00000000000E+00 0.  1.
         25    2    1    2    0    0  0.42928404818E+02 -0.51454080555E+02 -0.22014915320E+02  0.14360522250E+03  0.12508970017E+03 0.  0.
          5    1    3    3  502    0  0.52784910418E+02 -0.17003017215E+02 -0.66267085140E+02  0.86510972340E+02  0.41800000000E+01 0.  1.
         -5    1    3    3    0  502 -0.98565055998E+01 -0.34451063340E+02  0.44252169820E+02  0.57094250163E+02  0.41800000000E+01 0.  1.
        -11    1    1    2    0    0  0.21364346517E+02  0.25846800480E+02  0.78153893870E+01  0.34432146439E+02  0.00000000000E+00 0. -1.
         11    1    1    2    0    0 -0.64292751334E+02  0.25607280075E+02 -0.47486813515E+02  0.83930257504E+02  0.00000000000E+00 0.  1.
</event>
<event>
 7    1  0.2644565E-009  0.1270399E+03  0.7561462E-02  0.1231915E+00
          3   -1    0    0  501    0  0.00000000000E+00  0.00000000000E+00  0.25526708855E+02  0.25526708855E+02  0.00000000000E+00 0. -1.
         -3   -1    0    0    0  501 -0.00000000000E+00 -0.00000000000E+00 -0.73465502826E+03  0.73465502826E+03  0.00000000000E+00 0.  1.
         25    2    1    2    0    0 -0.37072839918E+02 -0.65031995180E+02 -0.28564364149E+03  0.32069200036E+03  0.12509002084E+03 0.  0.
          5    1    3    3  502    0 -0.42221548756E+01  0.35092358074E+02 -0.11213819133E+03  0.11765095215E+03  0.41800000000E+01 0. -1.
         -5    1    3    3    0  502 -0.32850685043E+02 -0.10012435325E+03 -0.17350545016E+03  0.20304104821E+03  0.41800000000E+01 0. -1.
        -11    1    1    2    0    0  0.45124652110E+02 -0.23330279115E+01 -0.23154020204E+03  0.23590791086E+03  0.00000000000E+00 0.  1.
         11    1    1    2    0    0 -0.80518121921E+01  0.67365023091E+02 -0.19194447588E+03  0.20358182590E+03  0.00000000000E+00 0. -1.
</event>
<event>
 7    1  0.2644565E-009  0.1575793E+03  0.7561462E-02  0.1191457E+00
         -2   -1    0    0    0  501 -0.00000000000E+00  0.00000000000E+00  0.10084107710E+03  0.10084107710E+03  0.00000000000E+00 0.  1.
          2   -1    0    0  501    0  0.00000000000E+00 -0.00000000000E+00 -0.25298431863E+03  0.25298431863E+03  0.00000000000E+00 0. -1.
         25    2    1    2    0    0 -0.36531031007E+02  0.10841512518E+03 -0.55263595094E+02  0.17829684412E+03  0.12508934442E+03 0.  0.
          5    1    3    3  502    0  0.30876701138E+02  0.95744733846E+02 -0.29636674679E+02  0.10495822797E+03  0.41800000000E+01 0.  1.
         -5    1    3    3    0  502 -0.67407732144E+02  0.12670391335E+02 -0.25626920415E+02  0.73338616154E+02  0.41800000000E+01 0.  1.
        -11    1    1    2    0    0  0.11656255379E+02  0.15485989342E+02 -0.18668087921E+02  0.26910623590E+02  0.00000000000E+00 0.  1.
         11    1    1    2    0    0  0.24874775628E+02 -0.12390111452E+03 -0.78211558510E+02  0.14861792801E+03  0.00000000000E+00 0. -1.
</event>
<event>
 7    1  0.2644565E-009  0.8905922E+02  0.7561462E-02  0.1305146E+00
          1   -1    0    0  501    0  0.00000000000E+00  0.00000000000E+00  0.18649123396E+03  0.18649123396E+03  0.00000000000E+00 0.  1.
         -1   -1    0    0    0  501 -0.00000000000E+00 -0.00000000000E+00 -0.94095161866E+02  0.94095161866E+02  0.00000000000E+00 0. -1.
         25    2    1    2    0    0 -0.34813512545E+02 -0.10536007165E+02  0.12001610874E+03  0.17712762091E+03  0.12508932660E+03 0.  0.
          5    1    3    3  502    0  0.14800656998E+02  0.17935644088E+02  0.11735557427E+03  0.11971027520E+03  0.41800000000E+01 0.  1.
         -5    1    3    3    0  502 -0.49614169543E+02 -0.28471651253E+02  0.26605344694E+01  0.57417345708E+02  0.41800000000E+01 0.  1.
        -11    1    1    2    0    0  0.65342205402E+02  0.12567878268E+02 -0.77805038520E+01  0.66993220636E+02  0.00000000000E+00 0.  1.
         11    1    1    2    0    0 -0.30528692857E+02 -0.20318711029E+01 -0.19839532792E+02  0.36465554283E+02  0.00000000000E+00 0. -1.
</event>
<event>
 7    1  0.2644565E-009  0.1830860E+03  0.7561462E-02  0.1164849E+00
         -2   -1    0    0    0  501 -0.00000000000E+00  0.00000000000E+00  0.52644785492E+02  0.52644785492E+02  0.00000000000E+00 0.  1.
          2   -1    0    0  501    0  0.00000000000E+00 -0.00000000000E+00 -0.89524443293E+03  0.89524443293E+03  0.00000000000E+00 0. -1.
         25    2    1    2    0    0 -0.16559169806E+03  0.28176523597E+02 -0.60977113447E+03  0.64472609179E+03  0.12504547192E+03 0.  0.
          5    1    3    3  502    0 -0.82712288790E+02  0.64906631377E+02 -0.43793558611E+03  0.45039898256E+03  0.41800000000E+01 0. -1.
         -5    1    3    3    0  502 -0.82879409269E+02 -0.36730107779E+02 -0.17183554836E+03  0.19432710922E+03  0.41800000000E+01 0. -1.
        -11    1    1    2    0    0  0.76849561172E+02 -0.26985386931E+02 -0.39681700297E+02  0.90601895668E+02  0.00000000000E+00 0.  1.
         11    1    1    2    0    0  0.88742136887E+02 -0.11911366661E+01 -0.19314681267E+03  0.21256123097E+03  0.00000000000E+00 0. -1.
</event>
<event>
 7    1  0.2644565E-009  0.1722170E+03  0.7561462E-02  0.1175555E+00
         -1   -1    0    0    0  501 -0.00000000000E+00  0.00000000000E+00  0.70726048892E+03  0.70726048892E+03  0.00000000000E+00 0.  1.
          1   -1    0    0  501    0  0.00000000000E+00 -0.00000000000E+00 -0.58019895509E+02  0.58019895509E+02  0.00000000000E+00 0. -1.
         25    2    1    2    0    0  0.13941991190E+03 -0.26174028199E+02  0.51569215053E+03  0.54928308381E+03  0.12510204016E+03 0.  0.
          5    1    3    3  502    0  0.14026451612E+03 -0.52634691102E+02  0.34011750318E+03  0.37167449947E+03  0.41800000000E+01 0. -1.
         -5    1    3    3    0  502 -0.84460421246E+00  0.26460662903E+02  0.17557464736E+03  0.17760858434E+03  0.41800000000E+01 0. -1.
        -11    1    1    2    0    0  0.42016677922E+01  0.23747586167E+02  0.85634273050E+01  0.25591681231E+02  0.00000000000E+00 0.  1.
         11    1    1    2    0    0 -0.14362157970E+03  0.24264420316E+01  0.12498501557E+03  0.19040561938E+03  0.00000000000E+00 0. -1.
</event>
<event>
 7    1  0.2644565E-009  0.1615096E+03  0.7561462E-02  0.1187003E+00
         -1   -1    0    0    0  501 -0.00000000000E+00  0.00000000000E+00  0.26915984539E+03  0.26915984539E+03  0.00000000000E+00 0.  1.
          1   -1    0    0  501    0  0.00000000000E+00 -0.00000000000E+00 -0.12653937820E+03  0.12653937820E+03  0.00000000000E+00 0. -1.
         25    2    1    2    0    0  0.12515565556E+03  0.10970097852E+02 -0.18023282383E+02  0.17820684293E+03  0.12509420048E+03 0.  0.
          5    1    3    3  502    0  0.10359998865E+03 -0.47495502965E+02 -0.35564025570E+01  0.11410039811E+03  0.41800000000E+01 0.  1.
         -5    1    3    3    0  502  0.21555666909E+02  0.58465600817E+02 -0.14466879826E+02  0.64106444814E+02  0.41800000000E+01 0.  1.
        -11    1    1    2    0    0 -0.19399912030E+02 -0.33202053728E+02  0.45661213266E+02  0.59696560667E+02  0.00000000000E+00 0. -1.
         11    1    1    2    0    0 -0.10575574353E+03  0.22231955876E+02  0.11498253631E+03  0.15779582000E+03  0.00000000000E+00 0.  1.
</event>
<event>
 7    1  0.2644565E-009  0.8994754E+02  0.7561462E-02  0.1302979E+00
         -1   -1    0    0    0  501 -0.00000000000E+00  0.00000000000E+00  0.35476944037E+03  0.35476944037E+03  0.00000000000E+00 0.  1.
          1   -1    0    0  501    0  0.00000000000E+00 -0.00000000000E+00 -0.35134038340E+02  0.35134038340E+02  0.00000000000E+00 0. -1.
         25    2    1    2    0    0  0.20821707845E+02  0.13212003540E+02  0.15239301146E+03  0.19869188047E+03  0.12508690127E+03 0.  0.
          5    1    3    3  502    0 -0.17617859509E+02 -0.27356297155E+02  0.13657382935E+03  0.14045867446E+03  0.41800000000E+01 0.  1.
         -5    1    3    3    0  502  0.38439567354E+02  0.40568300695E+02  0.15819182108E+02  0.58233206010E+02  0.41800000000E+01 0.  1.
        -11    1    1    2    0    0  0.28496118430E+02  0.17026991867E+02  0.44480761855E+02  0.55502120615E+02  0.00000000000E+00 0.  1.
         11    1    1    2    0    0 -0.49317826275E+02 -0.30238995407E+02  0.12276162871E+03  0.13570947762E+03  0.00000000000E+00 0. -1.
</event>
<event>
 7    1  0.2644565E-009  0.1647550E+03  0.7561462E-02  0.1183431E+00
         -1   -1    0    0    0  501 -0.00000000000E+00  0.00000000000E+00  0.47489512049E+03  0.47489512049E+03  0.00000000000E+00 0.  1.
          1   -1    0    0  501    0  0.00000000000E+00 -0.00000000000E+00 -0.81604441587E+02  0.81604441587E+02  0.00000000000E+00 0. -1.
         25    2    1    2    0    0  0.48493226338E+02  0.14749565739E+03  0.28043051731E+03  0.34408672805E+03  0.12509132437E+03 0.  0.
          5    1    3    3  502    0  0.61576726530E+02  0.11358720770E+03  0.10989351221E+03  0.16966968918E+03  0.41800000000E+01 0. -1.
         -5    1    3    3    0  502 -0.13083500193E+02  0.33908449698E+02  0.17053700510E+03  0.17441703887E+03  0.41800000000E+01 0. -1.
        -11    1    1    2    0    0 -0.59165030072E+02 -0.13374843336E+03  0.12400607285E+03  0.19174631760E+03  0.00000000000E+00 0.  1.
         11    1    1    2    0    0  0.10671803734E+02 -0.13747224037E+02 -0.11145911253E+02  0.20666516429E+02  0.00000000000E+00 0. -1.
</event>
<event>
 7    1  0.2644565E-009  0.9802116E+02  0.7561462E-02  0.1284513E+00
          1   -1    0    0  501    0  0.00000000000E+00  0.00000000000E+00  0.34026642091E+03  0.34026642091E+03  0.00000000000E+00 0. -1.
         -1   -1    0    0    0  501 -0.00000000000E+00 -0.00000000000E+00 -0.58400305190E+02  0.58400305190E+02  0.00000000000E+00 0.  1.
         25    2    1    2    0    0 -0.56587341442E+02 -0.16828168358E+02  0.25070150569E+03  0.28633019619E+03  0.12509365226E+03 0.  0.
          5    1    3    3  502    0  0.13263912267E+02  0.53111476186E+01 -0.83593970846E+01  0.17073124414E+02  0.41800000000E+01 0. -1.
         -5    1    3    3    0  502 -0.69851253709E+02 -0.22139315976E+02  0.25906090277E+03  0.26925707178E+03  0.41800000000E+01 0. -1.
        -11    1    1    2    0    0 -0.22418813316E+02  0.17992475211E+02  0.55769113191E+01  0.29281979008E+02  0.00000000000E+00 0.  1.
         11    1    1    2    0    0  0.79006154758E+02 -0.11643068535E+01  0.25587698714E+02  0.83054550903E+02  0.00000000000E+00 0. -1.
</event>
<event>
 7    1  0.2644565E-009  0.1014057E+03  0.7561462E-02  0.1277367E+00
         -2   -1    0    0    0  501 -0.00000000000E+00  0.00000000000E+00  0.10220416563E+03  0.10220416563E+03  0.00000000000E+00 0.  1.
          2   -1    0    0  501    0  0.00000000000E+00 -0.00000000000E+00 -0.20873141359E+03  0.20873141359E+03  0.00000000000E+00 0. -1.
         25    2    1    2    0    0  0.22544433836E+02  0.40167275019E+02 -0.14673232018E+03  0.19824222457E+03  0.12509174369E+03 0.  0.
          5    1    3    3  502    0 -0.34183300320E+02  0.13277067487E+02  0.17805469585E+01  0.36951607398E+02  0.41800000000E+01 0.  1.
         -5    1    3    3    0  502  0.56727734155E+02  0.26890207532E+02 -0.14851286714E+03  0.16129061717E+03  0.41800000000E+01 0.  1.
        -11    1    1    2    0    0  0.14060150366E+02  0.24746726674E+02  0.22013882340E+02  0.35981930536E+02  0.00000000000E+00 0.  1.
         11    1    1    2    0    0 -0.36604584202E+02 -0.64914001693E+02  0.18191189869E+02  0.76711424112E+02  0.00000000000E+00 0. -1.
</event>
<event>
 7    1  0.2644565E-009  0.1206977E+03  0.7561462E-02  0.1241950E+00
         -2   -1    0    0    0  501 -0.00000000000E+00  0.00000000000E+00  0.10150588943E+03  0.10150588943E+03  0.00000000000E+00 0.  1.
          2   -1    0    0  501    0  0.00000000000E+00 -0.00000000000E+00 -0.24594795204E+03  0.24594795204E+03  0.00000000000E+00 0. -1.
         25    2    1    2    0    0 -0.90963083025E+02  0.70515515086E+01 -0.82526878331E+00  0.15483020237E+03  0.12509078162E+03 0.  0.
          5    1    3    3  502    0 -0.25699002594E+02 -0.42313717143E+02 -0.40212602588E+02  0.63917252755E+02  0.41800000000E+01 0.  1.
         -5    1    3    3    0  502 -0.65264080431E+02  0.49365268652E+02  0.39387333805E+02  0.90912949616E+02  0.41800000000E+01 0.  1.
        -11    1    1    2    0    0  0.74769141850E+02  0.20755212587E+02 -0.46840814738E+02  0.90638100972E+02  0.00000000000E+00 0.  1.
         11    1    1    2    0    0  0.16193941175E+02 -0.27806764096E+02 -0.96775979085E+02  0.10198553813E+03  0.00000000000E+00 0. -1.
</event>
<event>
 7    1  0.2644565E-009  0.2458074E+03  0.7561462E-02  0.1115983E+00
         -2   -1    0    0    0  501 -0.00000000000E+00  0.00000000000E+00  0.68686308840E+02  0.68686308840E+02  0.00000000000E+00 0.  1.
          2   -1    0    0  501    0  0.00000000000E+00 -0.00000000000E+00 -0.16761261021E+04  0.16761261021E+04  0.00000000000E+00 0. -1.
         25    2    1    2    0    0 -0.23888934753E+03  0.25579036112E+02 -0.13659436337E+04  0.13925414687E+04  0.12508926507E+03 0.  0.
          5    1    3    3  502    0 -0.97512550400E+02 -0.17076307845E+02 -0.85338212194E+03  0.85911513561E+03  0.41800000000E+01 0. -1.
         -5    1    3    3    0  502 -0.14137679713E+03  0.42655343957E+02 -0.51256151171E+03  0.53342633308E+03  0.41800000000E+01 0. -1.
        -11    1    1    2    0    0  0.18877441779E+03 -0.53462139564E+00 -0.13547141739E+03  0.23235440939E+03  0.00000000000E+00 0.  1.
         11    1    1    2    0    0  0.50114929735E+02 -0.25044414716E+02 -0.10602474216E+03  0.11991653281E+03  0.00000000000E+00 0. -1.
</event>
<event>
 7    1  0.2644565E-009  0.1465430E+03  0.7561462E-02  0.1204786E+00
          2   -1    0    0  501    0  0.00000000000E+00  0.00000000000E+00  0.10202523024E+04  0.10202523024E+04  0.00000000000E+00 0. -1.
         -2   -1    0    0    0  501 -0.00000000000E+00 -0.00000000000E+00 -0.27967133524E+02  0.27967133524E+02  0.00000000000E+00 0.  1.
         25    2    1    2    0    0 -0.10424845419E+02  0.11097975268E+03  0.73672885415E+03  0.75554130934E+03  0.12509229664E+03 0.  0.
          5    1    3    3  502    0  0.39468083147E+02  0.97031386498E+02  0.35083845007E+03  0.36616650584E+03  0.41800000000E+01 0. -1.
         -5    1    3    3    0  502 -0.49892928567E+02  0.13948366179E+02  0.38589040408E+03  0.38937480350E+03  0.41800000000E+01 0. -1.
        -11    1    1    2    0    0 -0.30821834792E+02 -0.76644215010E+02  0.11016290557E+03  0.13769599471E+03  0.00000000000E+00 0.  1.
         11    1    1    2    0    0  0.41246680211E+02 -0.34335537667E+02  0.14539340917E+03  0.15498213189E+03  0.00000000000E+00 0. -1.
</event>
<event>
 7    1  0.2644565E-009  0.1774530E+03  0.7561462E-02  0.1170291E+00
          1   -1    0    0  501    0  0.00000000000E+00  0.00000000000E+00  0.12549569816E+04  0.12549569816E+04  0.00000000000E+00 0. -1.
         -1   -1    0    0    0  501 -0.00000000000E+00 -0.00000000000E+00 -0.36574900667E+02  0.36574900667E+02  0.00000000000E+00 0.  1.
         25    2    1    2    0    0 -0.12480767759E+03  0.66617318555E+02  0.27698243442E+03  0.33523412803E+03  0.12509127908E+03 0.  0.
          5    1    3    3  502    0 -0.63869604401E+02 -0.31532046541E+02  0.12936064285E+03  0.14773369502E+03  0.41800000000E+01 0. -1.
         -5    1    3    3    0  502 -0.60938073190E+02  0.98149365096E+02  0.14762179158E+03  0.18750043302E+03  0.41800000000E+01 0. -1.
        -11    1    1    2    0    0  0.12421452112E+03 -0.25470022040E+02  0.72987465339E+03  0.74080697819E+03  0.00000000000E+00 0.  1.
         11    1    1    2    0    0  0.59315647256E+00 -0.41147296515E+02  0.21152499316E+03  0.21549077608E+03  0.00000000000E+00 0. -1.
</event>
<event>
 7    1  0.2644565E-009  0.1319733E+03  0.7561462E-02  0.1224557E+00
          2   -1    0    0  501    0  0.00000000000E+00  0.00000000000E+00  0.98726565684E+03  0.98726565684E+03  0.00000000000E+00 0. -1.
         -2   -1    0    0    0  501 -0.00000000000E+00 -0.00000000000E+00 -0.28266634117E+02  0.28266634117E+02  0.00000000000E+00 0.  1.
         25    2    1    2    0    0 -0.94243000278E+02  0.69491524684E+02  0.36074052550E+03  0.39936828399E+03  0.12510189614E+03 0.  0.
          5    1    3    3  502    0 -0.51121927793E+02  0.27062886368E+02  0.34373277877E+02  0.67415472644E+02  0.41800000000E+01 0. -1.
         -5    1    3    3    0  502 -0.43121072485E+02  0.42428638316E+02  0.32636724762E+03  0.33195281135E+03  0.41800000000E+01 0. -1.
        -11    1    1    2    0    0  0.37392177606E+02 -0.79252617270E+02  0.41029438844E+03  0.41954813488E+03  0.00000000000E+00 0. -1.
         11    1    1    2    0    0  0.56850822672E+02  0.97610925858E+01  0.18796410878E+03  0.19661587209E+03  0.00000000000E+00 0.  1.
</event>
<event>
 7    1  0.2644565E-009  0.1219596E+03  0.7561462E-02  0.1239899E+00
          2   -1    0    0  501    0  0.00000000000E+00  0.00000000000E+00  0.29281738862E+03  0.29281738862E+03  0.00000000000E+00 0. -1.
         -2   -1    0    0    0  501 -0.00000000000E+00 -0.00000000000E+00 -0.12375325481E+03  0.12375325481E+03  0.00000000000E+00 0.  1.
         25    2    1    2    0    0 -0.36585982862E+02  0.87844109129E+02  0.23209248594E+03  0.28030248737E+03  0.12508973077E+03 0.  0.
          5    1    3    3  502    0  0.21438101163E+02  0.48450568517E+02  0.19847484396E+02  0.56731338852E+02  0.41800000000E+01 0.  1.
         -5    1    3    3    0  502 -0.58024084025E+02  0.39393540612E+02  0.21224500154E+03  0.22357114852E+03  0.41800000000E+01 0.  1.
        -11    1    1    2    0    0 -0.19399144516E+02 -0.48079416323E+02 -0.22382904724E+02  0.56470802241E+02  0.00000000000E+00 0. -1.
         11    1    1    2    0    0  0.55985127378E+02 -0.39764692806E+02 -0.40645447409E+02  0.79797353819E+02  0.00000000000E+00 0.  1.
</event>
<event>
 7    1  0.2644565E-009  0.9645373E+02  0.7561462E-02  0.1287935E+00
         -1   -1    0    0    0  501 -0.00000000000E+00  0.00000000000E+00  0.41969752354E+02  0.41969752354E+02  0.00000000000E+00 0.  1.
          1   -1    0    0  501    0  0.00000000000E+00 -0.00000000000E+00 -0.32136782793E+03  0.32136782793E+03  0.00000000000E+00 0. -1.
         25    2    1    2    0    0  0.15812259962E+02  0.18177639330E+02 -0.85046887117E+02  0.15315782659E+03  0.12507554798E+03 0.  0.
          5    1    3    3  502    0  0.19972362054E+01  0.71527359221E+02 -0.41749263138E+02  0.82949535515E+02  0.41800000000E+01 0.  1.
         -5    1    3    3    0  502  0.13815023756E+02 -0.53349719890E+02 -0.43297623978E+02  0.70208291077E+02  0.41800000000E+01 0.  1.
        -11    1    1    2    0    0  0.19870382919E+02  0.82949313140E+01 -0.17248494872E+02  0.27588921295E+02  0.00000000000E+00 0.  1.
         11    1    1    2    0    0 -0.35682642881E+02 -0.26472570644E+02 -0.17710269359E+03  0.18259083240E+03  0.00000000000E+00 0. -1.
</event>
<event>
 7    1  0.2644565E-009  0.1176612E+03  0.7561462E-02  0.1247006E+00
          2   -1    0    0  501    0  0.00000000000E+00  0.00000000000E+00  0.10302824355E+04  0.10302824355E+04  0.00000000000E+00 0. -1.
         -2   -1    0    0    0  501 -0.00000000000E+00 -0.00000000000E+00 -0.26598914752E+02  0.26598914752E+02  0.00000000000E+00 0.  1.
         25    2    1    2    0    0 -0.76199561338E+02  0.28813725406E+02  0.83036719773E+03  0.84367852476E+03  0.12508863322E+03 0.  0.
          5    1    3    3  502    0 -0.10397521826E+03 -0.30012918753E+01  0.51034104559E+03  0.52085056300E+03  0.41800000000E+01 0. -1.
         -5    1    3    3    0  502  0.27775656921E+02  0.31815017282E+02  0.32002615213E+03  0.32282796176E+03  0.41800000000E+01 0. -1.
        -11    1    1    2    0    0  0.26122086539E+02  0.72014283104E+01 -0.21777801426E+01  0.27183941973E+02  0.00000000000E+00 0.  1.
         11    1    1    2    0    0  0.50077474799E+02 -0.36015153717E+02  0.17549410313E+03  0.18601888348E+03  0.00000000000E+00 0. -1.
</event>
<event>
 7    1  0.2644565E-009  0.1228925E+03  0.7561462E-02  0.1238400E+00
          1   -1    0    0  501    0  0.00000000000E+00  0.00000000000E+00  0.14752053889E+03  0.14752053889E+03  0.00000000000E+00 0. -1.
         -1   -1    0    0    0  501 -0.00000000000E+00 -0.00000000000E+00 -0.15809974666E+03  0.15809974666E+03  0.00000000000E+00 0.  1.
         25    2    1    2    0    0  0.21638653469E+02 -0.53251546938E+02 -0.95812497325E+02  0.16772653757E+03  0.12509275833E+03 0.  0.
          5    1    3    3  502    0  0.65487666094E+02 -0.64699819399E+02 -0.64623640570E+02  0.11255393534E+03  0.41800000000E+01 0. -1.
         -5    1    3    3    0  502 -0.43849012625E+02  0.11448272461E+02 -0.31188856755E+02  0.55172602225E+02  0.41800000000E+01 0. -1.
        -11    1    1    2    0    0  0.25070593304E+02  0.55974194753E+02  0.53196937775E+02  0.81188418605E+02  0.00000000000E+00 0.  1.
         11    1    1    2    0    0 -0.46709246773E+02 -0.27226478153E+01  0.32036351779E+02  0.56705329384E+02  0.00000000000E+00 0. -1.
</event>
<event>
 7    1  0.2644565E-009  0.1047243E+03  0.7561462E-02  0.1270664E+00
          2   -1    0    0  501    0  0.00000000000E+00  0.00000000000E+00  0.40635056281E+03  0.40635056281E+03  0.00000000000E+00 0. -1.
         -2   -1    0    0    0  501 -0.00000000000E+00 -0.00000000000E+00 -0.34885534059E+02  0.34885534059E+02  0.00000000000E+00 0.  1.
         25    2    1    2    0    0  0.24184590928E+02 -0.25759148659E+01  0.28619471524E+03  0.31328318856E+03  0.12508961359E+03 0.  0.
          5    1    3    3  502    0  0.66704710478E+02 -0.17714787104E+02  0.99505029028E+02  0.12116953117E+03  0.41800000000E+01 0. -1.
         -5    1    3    3    0  502 -0.42520119550E+02  0.15138872238E+02  0.18668968621E+03  0.19211365739E+03  0.41800000000E+01 0. -1.
        -11    1    1    2    0    0 -0.24045720630E+02  0.45813013425E+02  0.52401151429E+02  0.73640407052E+02  0.00000000000E+00 0.  1.
         11    1    1    2    0    0 -0.13887029792E+00 -0.43237098559E+02  0.32869162091E+02  0.54312501262E+02  0.00000000000E+00 0. -1.
</event>
<event>
 7    1  0.2644565E-009  0.9519261E+02  0.7561462E-02  0.1290743E+00
          2   -1    0    0  501    0  0.00000000000E+00  0.00000000000E+00  0.57025483493E+03  0.57025483493E+03  0.00000000000E+00 0.  1.
         -2   -1    0    0    0  501 -0.00000000000E+00 -0.00000000000E+00 -0.33512490488E+02  0.33512490488E+02  0.00000000000E+00 0. -1.
         25    2    1    2    0    0  0.76549860078E+01 -0.79422055736E+02  0.22855369424E+03  0.27248920826E+03  0.12508843159E+03 0.  0.
          5    1    3    3  502    0 -0.12985236623E+02 -0.11440763640E+02 -0.12104109254E+02  0.21528801724E+02  0.41800000000E+01 0.  1.
         -5    1    3    3    0  502  0.20640222631E+02 -0.67981292096E+02  0.24065780350E+03  0.25096040654E+03  0.41800000000E+01 0.  1.
        -11    1    1    2    0    0 -0.32361150477E+02  0.22656727071E+02  0.40701742330E+02  0.56720394660E+02  0.00000000000E+00 0. -1.
         11    1    1    2    0    0  0.24706164469E+02  0.56765328666E+02  0.26748690787E+03  0.27455772250E+03  0.00000000000E+00 0.  1.
</event>
<event>
 7    1  0.2644565E-009  0.1058395E+03  0.7561462E-02  0.1268474E+00
         -3   -1    0    0    0  501 -0.00000000000E+00  0.00000000000E+00  0.62634146752E+02  0.62634146752E+02  0.00000000000E+00 0.  1.
          3   -1    0    0  501    0  0.00000000000E+00 -0.00000000000E+00 -0.32320878903E+03  0.32320878903E+03  0.00000000000E+00 0. -1.
         25    2    1    2    0    0  0.50981662944E+02 -0.91467966930E+01 -0.24525581239E+03  0.28014445597E+03  0.12509080243E+03 0.  0.
          5    1    3    3  502    0  0.68532131580E+02 -0.34205153053E+02 -0.75597097402E+02  0.10769883514E+03  0.41800000000E+01 0. -1.
         -5    1    3    3    0  502 -0.17550468636E+02  0.25058356360E+02 -0.16965871498E+03  0.17244562083E+03  0.41800000000E+01 0. -1.
        -11    1    1    2    0    0 -0.75478808778E+02 -0.52811416488E+01 -0.15656865208E+02  0.77266282813E+02  0.00000000000E+00 0.  1.
         11    1    1    2    0    0  0.24497145834E+02  0.14427938342E+02  0.33803531259E+00  0.28432197007E+02  0.00000000000E+00 0. -1.
</event>
<event>
 7    1  0.2644565E-009  0.2357960E+03  0.7561462E-02  0.1122626E+00
         -3   -1    0    0    0  501 -0.00000000000E+00  0.00000000000E+00  0.66947153782E+02  0.66947153782E+02  0.00000000000E+00 0.  1.
          3   -1    0    0  501    0  0.00000000000E+00 -0.00000000000E+00 -0.10345350527E+04  0.10345350527E+04  0.00000000000E+00 0. -1.
         25    2    1    2    0    0 -0.47795088961E+02 -0.21360137451E+03 -0.29959282035E+03  0.39155357227E+03  0.12509366184E+03 0.  0.
          5    1    3    3  502    0 -0.82277737782E+02 -0.10787294054E+03 -0.12508669216E+03  0.18458155485E+03  0.41800000000E+01 0. -1.
         -5    1    3    3    0  502  0.34482648822E+02 -0.10572843397E+03 -0.17450612819E+03  0.20697201742E+03  0.41800000000E+01 0. -1.
        -11    1    1    2    0    0  0.13497936481E+02  0.16229828780E+03 -0.58013989522E+03  0.60256553713E+03  0.00000000000E+00 0. -1.
         11    1    1    2    0    0  0.34297152479E+02  0.51303086708E+02 -0.87855183363E+02  0.10736309709E+03  0.00000000000E+00 0.  1.
</event>
<event>
 7    1  0.2644565E-009  0.9337264E+02  0.7561462E-02  0.1294884E+00
          1   -1    0    0  501    0  0.00000000000E+00  0.00000000000E+00  0.10217222826E+04  0.10217222826E+04  0.00000000000E+00 0. -1.
         -1   -1    0    0    0  501 -0.00000000000E+00 -0.00000000000E+00 -0.19996863629E+02  0.19996863629E+02  0.00000000000E+00 0.  1.
         25    2    1    2    0    0 -0.16577363150E+02 -0.37156264873E+01  0.87690015197E+03  0.88593794736E+03  0.12507419880E+03 0.  0.
          5    1    3    3  502    0 -0.53129970694E+02 -0.18427111895E+02  0.76775547966E+03  0.76982355198E+03  0.41800000000E+01 0.  1.
         -5    1    3    3    0  502  0.36552607544E+02  0.14711485407E+02  0.10914467231E+03  0.11611439538E+03  0.41800000000E+01 0.  1.
        -11    1    1    2    0    0  0.15225004614E+02 -0.42166087036E+02  0.43906509236E+02  0.62749989759E+02  0.00000000000E+00 0. -1.
         11    1    1    2    0    0  0.13523585359E+01  0.45881713523E+02  0.80918757763E+02  0.93031209104E+02  0.00000000000E+00 0.  1.
</event>
<event>
 7    1  0.2644565E-009  0.1369023E+03  0.7561462E-02  0.1217559E+00
         -2   -1    0    0    0  501 -0.00000000000E+00  0.00000000000E+00  0.25059602187E+02  0.25059602187E+02  0.00000000000E+00 0. -1.
          2   -1    0    0  501    0  0.00000000000E+00 -0.00000000000E+00 -0.10132844527E+04  0.10132844527E+04  0.00000000000E+00 0.  1.
         25    2    1    2    0    0  0.10433168078E+03 -0.25095271732E+02 -0.66957939043E+03  0.68956444908E+03  0.12509075531E+03 0.  0.
          5    1    3    3  502    0  0.39681851316E+02 -0.71977451163E+02 -0.39979110866E+03  0.40817374458E+03  0.41800000000E+01 0.  1.
         -5    1    3    3    0  502  0.64649829462E+02  0.46882179430E+02 -0.26978828177E+03  0.28139070450E+03  0.41800000000E+01 0.  1.
        -11    1    1    2    0    0 -0.69251004584E+02  0.31157980559E+02 -0.29821832857E+03  0.30773477685E+03  0.00000000000E+00 0.  1.
         11    1    1    2    0    0 -0.35080676195E+02 -0.60627088263E+01 -0.20427131467E+02  0.41044828914E+02  0.00000000000E+00 0. -1.
</event>
<event>
 7    1  0.2644565E-009  0.1014912E+03  0.7561462E-02  0.1277191E+00
         -1   -1    0    0    0  501 -0.00000000000E+00  0.00000000000E+00  0.17041492051E+02  0.17041492051E+02  0.00000000000E+00 0.  1.
          1   -1    0    0  501    0  0.00000000000E+00 -0.00000000000E+00 -0.13096319061E+04  0.13096319061E+04  0.00000000000E+00 0. -1.
         25    2    1    2    0    0  0.64180405232E+02 -0.38920831947E+02 -0.10051793526E+04  0.10157096937E+04  0.12508675210E+03 0.  0.
          5    1    3    3  502    0  0.16519105726E+02  0.79144775564E+01 -0.79289455946E+03  0.79311712542E+03  0.41800000000E+01 0.  1.
         -5    1    3    3    0  502  0.47661299506E+02 -0.46835309503E+02 -0.21228479309E+03  0.22259256830E+03  0.41800000000E+01 0.  1.
        -11    1    1    2    0    0 -0.20820214245E+02 -0.29579109977E+02 -0.67424673052E+02  0.76514649607E+02  0.00000000000E+00 0. -1.
         11    1    1    2    0    0 -0.43360190987E+02  0.68499941924E+02 -0.21998638847E+03  0.23444905485E+03  0.00000000000E+00 0.  1.
</event>
<event>
 7    1  0.2644565E-009  0.1008504E+03  0.7561462E-02  0.1278518E+00
         -2   -1    0    0    0  501 -0.00000000000E+00  0.00000000000E+00  0.17852652985E+03  0.17852652985E+03  0.00000000000E+00 0. -1.
          2   -1    0    0  501    0  0.00000000000E+00 -0.00000000000E+00 -0.73703363344E+02  0.73703363344E+02  0.00000000000E+00 0.  1.
         25    2    1    2    0    0 -0.15438998049E+02  0.10817019194E+02  0.96464811059E+02  0.15908931883E+03  0.12509428855E+03 0.  0.
          5    1    3    3  502    0  0.28243124190E+02 -0.39321502086E+02  0.74472999752E+02  0.88924432427E+02  0.41800000000E+01 0.  1.
         -5    1    3    3    0  502 -0.43682122239E+02  0.50138521280E+02  0.21991811307E+02  0.70164886403E+02  0.41800000000E+01 0.  1.
        -11    1    1    2    0    0  0.35692774802E+02 -0.38290076957E+02  0.21468619406E+02  0.56577431769E+02  0.00000000000E+00 0. -1.
         11    1    1    2    0    0 -0.20253776753E+02  0.27473057764E+02 -0.13110263956E+02  0.36563142598E+02  0.00000000000E+00 0.  1.
</event>
<event>
 7    1  0.2644565E-009  0.6907839E+02  0.7561462E-02  0.1363255E+00
          3   -1    0    0  501    0  0.00000000000E+00  0.00000000000E+00  0.38352909757E+03  0.38352909757E+03  0.00000000000E+00 0. -1.
         -3   -1    0    0    0  501 -0.00000000000E+00 -0.00000000000E+00 -0.36653403132E+02  0.36653403132E+02  0.00000000000E+00 0.  1.
         25    2    1    2    0    0  0.11063418547E+02 -0.48989037900E+02  0.19378174853E+03  0.23605047418E+03  0.12508451236E+03 0.  0.
          5    1    3    3  502    0 -0.18740368222E+01 -0.45198129073E+02  0.20982233387E+03  0.21468410998E+03  0.41800000000E+01 0. -1.
         -5    1    3    3    0  502  0.12937455369E+02 -0.37909088268E+01 -0.16040585339E+02  0.21366364202E+02  0.41800000000E+01 0. -1.
        -11    1    1    2    0    0 -0.11063538476E+02  0.63321162165E+02  0.15668395466E+03  0.16935711709E+03  0.00000000000E+00 0. -1.
         11    1    1    2    0    0  0.11992868881E-03 -0.14332124265E+02 -0.35900087516E+01  0.14774909434E+02  0.00000000000E+00 0.  1.
</event>
<event>
 7    1  0.2644565E-009  0.2350448E+03  0.7561462E-02  0.1123139E+00
         -1   -1    0    0    0  501 -0.00000000000E+00  0.00000000000E+00  0.16627404328E+03  0.16627404328E+03  0.00000000000E+00 0.  1.
          1   -1    0    0  501    0  0.00000000000E+00 -0.00000000000E+00 -0.37503160302E+03  0.37503160302E+03  0.00000000000E+00 0. -1.
         25    2    1    2    0    0 -0.32796090593E+02 -0.21998912619E+03 -0.13798374827E+03  0.29009922097E+03  0.12508894445E+03 0.  0.
          5    1    3    3  502    0 -0.33816242183E+02 -0.53601363012E+02  0.13623010056E+02  0.64959242261E+02  0.41800000000E+01 0.  1.
         -5    1    3    3    0  502  0.10201515901E+01 -0.16638776318E+03 -0.15160675833E+03  0.22513997871E+03  0.41800000000E+01 0.  1.
        -11    1    1    2    0    0 -0.34413576589E+01  0.19740007330E+03 -0.66328802278E+02  0.20827419882E+03  0.00000000000E+00 0.  1.
         11    1    1    2    0    0  0.36237448252E+02  0.22589052890E+02 -0.44450091853E+01  0.42932226507E+02  0.00000000000E+00 0. -1.
</event>
<event>
 7    1  0.2644565E-009  0.9622136E+02  0.7561462E-02  0.1288449E+00
         -1   -1    0    0    0  501 -0.00000000000E+00  0.00000000000E+00  0.11040397751E+03  0.11040397751E+03  0.00000000000E+00 0.  1.
          1   -1    0    0  501    0  0.00000000000E+00 -0.00000000000E+00 -0.13432954651E+03  0.13432954651E+03  0.00000000000E+00 0. -1.
         25    2    1    2    0    0  0.31137127725E+02  0.47312467955E+02 -0.12512677536E+02  0.13788258939E+03  0.12508817295E+03 0.  0.
          5    1    3    3  502    0  0.65815568975E+02  0.48850303868E+02 -0.41956464354E+02  0.92172981988E+02  0.41800000000E+01 0. -1.
         -5    1    3    3    0  502 -0.34678441249E+02 -0.15378359132E+01  0.29443786818E+02  0.45709607403E+02  0.41800000000E+01 0. -1.
        -11    1    1    2    0    0  0.13346251552E+02 -0.57555740321E+01 -0.37803873621E+02  0.40501628654E+02  0.00000000000E+00 0. -1.
         11    1    1    2    0    0 -0.44483379277E+02 -0.41556893923E+02  0.26390982152E+02  0.66349305975E+02  0.00000000000E+00 0.  1.
</event>
<event>
 7    1  0.2644565E-009  0.1327975E+03  0.7561462E-02  0.1223363E+00
         -2   -1    0    0    0  501 -0.00000000000E+00  0.00000000000E+00  0.28300020062E+02  0.28300020062E+02  0.00000000000E+00 0.  1.
          2   -1    0    0  501    0  0.00000000000E+00 -0.00000000000E+00 -0.85189388152E+03  0.85189388152E+03  0.00000000000E+00 0. -1.
         25    2    1    2    0    0  0.82719883204E+02 -0.34364338289E+02 -0.61126359820E+03  0.63032825508E+03  0.12508811233E+03 0.  0.
          5    1    3    3  502    0  0.93371413716E+02 -0.64206761286E+02 -0.54610217870E+03  0.55775065313E+03  0.41800000000E+01 0.  1.
         -5    1    3    3    0  502 -0.10651530513E+02  0.29842422997E+02 -0.65161419500E+02  0.72577601943E+02  0.41800000000E+01 0.  1.
        -11    1    1    2    0    0 -0.49571734522E+02  0.60365440931E+02 -0.83581209264E+02  0.11439913402E+03  0.00000000000E+00 0.  1.
         11    1    1    2    0    0 -0.33148148682E+02 -0.26001102642E+02 -0.12874905399E+03  0.13546651248E+03  0.00000000000E+00 0. -1.
</event>
<event>
 7    1  0.2644565E-009  0.1235366E+03  0.7561462E-02  0.1237374E+00
          2   -1    0    0  501    0  0.00000000000E+00  0.00000000000E+00  0.55347949394E+02  0.55347949394E+02  0.00000000000E+00 0. -1.
         -2   -1    0    0    0  501 -0.00000000000E+00 -0.00000000000E+00 -0.57729032439E+03  0.57729032439E+03  0.00000000000E+00 0.  1.
         25    2    1    2    0    0 -0.92200631761E+02 -0.39211706021E+01 -0.46824834019E+03  0.49337771545E+03  0.12509488371E+03 0.  0.
          5    1    3    3  502    0 -0.78017595627E+02  0.44025363384E+02 -0.39181527542E+03  0.40194733524E+03  0.41800000000E+01 0.  1.
         -5    1    3    3    0  502 -0.14183036133E+02 -0.47946533986E+02 -0.76433064768E+02  0.91430380208E+02  0.41800000000E+01 0.  1.
        -11    1    1    2    0    0  0.76904660618E+02  0.25275171683E+02 -0.71106311234E+02  0.10774631607E+03  0.00000000000E+00 0.  1.
         11    1    1    2    0    0  0.15295971143E+02 -0.21354001080E+02  0.17412276433E+02  0.31514242271E+02  0.00000000000E+00 0. -1.
</event>
<event>
 7    1  0.2644565E-009  0.1698936E+03  0.7561462E-02  0.1177959E+00
          2   -1    0    0  501    0  0.00000000000E+00  0.00000000000E+00  0.93239887171E+03  0.93239887171E+03  0.00000000000E+00 0. -1.
         -2   -1    0    0    0  501 -0.00000000000E+00 -0.00000000000E+00 -0.48525330727E+02  0.48525330727E+02  0.00000000000E+00 0.  1.
         25    2    1    2    0    0  0.15439759926E+03  0.56521517094E+01  0.69150049097E+03  0.71950719191E+03  0.12508838763E+03 0.  0.
          5    1    3    3  502    0 -0.11200096089E+02  0.11555839280E+02  0.13148406344E+02  0.21197465963E+02  0.41800000000E+01 0.  1.
         -5    1    3    3    0  502  0.16559769535E+03 -0.59036875703E+01  0.67835208463E+03  0.69830972594E+03  0.41800000000E+01 0.  1.
        -11    1    1    2    0    0 -0.18182547442E+02 -0.10697841134E+02 -0.48758127636E+01  0.21652306725E+02  0.00000000000E+00 0. -1.
         11    1    1    2    0    0 -0.13621505182E+03  0.50456894241E+01  0.19724886278E+03  0.23976470381E+03  0.00000000000E+00 0.  1.
</event>
<event>
 7    1  0.2644565E-009  0.1077792E+03  0.7561462E-02  0.1264739E+00
         -4   -1    0    0    0  501 -0.00000000000E+00  0.00000000000E+00  0.60372245723E+02  0.60372245723E+02  0.00000000000E+00 0.  1.
          4   -1    0    0  501    0  0.00000000000E+00 -0.00000000000E+00 -0.20336653830E+03  0.20336653830E+03  0.00000000000E+00 0. -1.
         25    2    1    2    0    0 -0.12347592660E+02  0.13996760306E+02 -0.63739072461E+02  0.14162741192E+03  0.12508909667E+03 0.  0.
          5    1    3    3  502    0  0.29202787485E+02  0.58371834991E+02 -0.29711452052E+02  0.71835344365E+02  0.41800000000E+01 0. -1.
         -5    1    3    3    0  502 -0.41550380145E+02 -0.44375074685E+02 -0.34027620409E+02  0.69792067559E+02  0.41800000000E+01 0. -1.
        -11    1    1    2    0    0 -0.18082112029E+02  0.30415047730E+02 -0.48734327076E+02  0.60225181938E+02  0.00000000000E+00 0. -1.
         11    1    1    2    0    0  0.30429704689E+02 -0.44411808036E+02 -0.30520893037E+02  0.61886190158E+02  0.00000000000E+00 0.  1.
</event>
<event>
 7    1  0.2644565E-009  0.1126365E+03  0.7561462E-02  0.1255764E+00
         -2   -1    0    0    0  501 -0.00000000000E+00  0.00000000000E+00  0.17070923760E+02  0.17070923760E+02  0.00000000000E+00 0. -1.
          2   -1    0    0  501    0  0.00000000000E+00 -0.00000000000E+00 -0.88014773028E+03  0.88014773028E+03  0.00000000000E+00 0.  1.
         25    2    1    2    0    0 -0.57557673595E+02 -0.95568715451E+01 -0.51077303931E+03  0.52909460244E+03  0.12509109106E+03 0.  0.
          5    1    3    3  502    0  0.20913476483E+02 -0.45145118394E+02 -0.23051941082E+03  0.23586463571E+03  0.41800000000E+01 0.  1.
         -5    1    3    3    0  502 -0.78471150078E+02  0.35588246849E+02 -0.28025362849E+03  0.29322996674E+03  0.41800000000E+01 0.  1.
        -11    1    1    2    0    0  0.62890109104E+01 -0.25958790285E+02 -0.31435104766E+02  0.41250166823E+02  0.00000000000E+00 0. -1.
         11    1    1    2    0    0  0.51268662684E+02  0.35515661830E+02 -0.32086866245E+03  0.32687388478E+03  0.00000000000E+00 0.  1.
</event>
<event>
 7    1  0.2644565E-009  0.9231978E+02  0.7561462E-02  0.1297329E+00
          1   -1    0    0  501    0  0.00000000000E+00  0.00000000000E+00  0.33774034663E+03  0.33774034663E+03  0.00000000000E+00 0. -1.
         -1   -1    0    0    0  501 -0.00000000000E+00 -0.00000000000E+00 -0.34403534567E+02  0.34403534567E+02  0.00000000000E+00 0.  1.
         25    2    1    2    0    0  0.11593556677E+02  0.34935995713E+00  0.16984904305E+03  0.21126100668E+03  0.12509189786E+03 0.  0.
          5    1    3    3  502    0 -0.42106172581E+02  0.19305802695E+02  0.13854346107E+03  0.14614173529E+03  0.41800000000E+01 0. -1.
         -5    1    3    3    0  502  0.53699729258E+02 -0.18956442738E+02  0.31305581975E+02  0.65119271390E+02  0.41800000000E+01 0. -1.
        -11    1    1    2    0    0  0.13049878927E+02 -0.35658346304E+02  0.97952380518E+02  0.10505468029E+03  0.00000000000E+00 0. -1.
         11    1    1    2    0    0 -0.24643435603E+02  0.35308986347E+02  0.35535388491E+02  0.55828194224E+02  0.00000000000E+00 0.  1.
</event>
<event>
 7    1  0.2644565E-009  0.1793359E+03  0.7561462E-02  0.1168447E+00
          1   -1    0    0  501    0  0.00000000000E+00  0.00000000000E+00  0.25601904704E+03  0.25601904704E+03  0.00000000000E+00 0. -1.
         -1   -1    0    0    0  501 -0.00000000000E+00 -0.00000000000E+00 -0.13133937421E+03  0.13133937421E+03  0.00000000000E+00 0.  1.
         25    2    1    2    0    0  0.14118994240E+03 -0.22169268201E+02  0.29535124104E+02  0.19221481908E+03  0.12509251309E+03 0.  0.
          5    1    3    3  502    0  0.15602679541E+03 -0.44292240672E+02  0.31126467476E+02  0.16520439717E+03  0.41800000000E+01 0.  1.
         -5    1    3    3    0  502 -0.14836853004E+02  0.22122972471E+02 -0.15913433716E+01  0.27010421910E+02  0.41800000000E+01 0.  1.
        -11    1    1    2    0    0 -0.43321095481E+02 -0.35375506714E+02  0.22071222915E+02  0.60127220706E+02  0.00000000000E+00 0.  1.
         11    1    1    2    0    0 -0.97868846921E+02  0.57544774915E+02  0.73073325812E+02  0.13501638146E+03  0.00000000000E+00 0. -1.
</event>
<event>
 7    1  0.2644565E-009  0.1070779E+03  0.7561462E-02  0.1266079E+00
         -1   -1    0    0    0  501 -0.00000000000E+00  0.00000000000E+00  0.78849694239E+02  0.78849694239E+02  0.00000000000E+00 0.  1.
          1   -1    0    0  501    0  0.00000000000E+00 -0.00000000000E+00 -0.15541116003E+03  0.15541116003E+03  0.00000000000E+00 0. -1.
         25    2    1    2    0    0 -0.61804907809E+01  0.28810998557E+02 -0.68527472161E+02  0.14564370926E+03  0.12509118075E+03 0.  0.
          5    1    3    3  502    0  0.45781409424E+02 -0.24127492014E+02 -0.14899492834E+02  0.54014262991E+02  0.41800000000E+01 0.  1.
         -5    1    3    3    0  502 -0.51961900205E+02  0.52938490571E+02 -0.53627979327E+02  0.91629446269E+02  0.41800000000E+01 0.  1.
        -11    1    1    2    0    0  0.40500580865E+02 -0.34437403626E+02 -0.84897485447E+01  0.53835932696E+02  0.00000000000E+00 0. -1.
         11    1    1    2    0    0 -0.34320090084E+02  0.56264050684E+01  0.45575491618E+00  0.34781212312E+02  0.00000000000E+00 0.  1.
</event>
<event>
 7    1  0.2644565E-009  0.8104867E+02  0.7561462E-02  0.1326102E+00
          1   -1    0    0  501    0  0.00000000000E+00  0.00000000000E+00  0.22238427448E+03  0.22238427448E+03  0.00000000000E+00 0. -1.
         -1   -1    0    0    0  501 -0.00000000000E+00 -0.00000000000E+00 -0.73800143737E+02  0.73800143737E+02  0.00000000000E+00 0.  1.
         25    2    1    2    0    0 -0.40580912192E+02  0.23434418556E+02  0.13957397132E+03  0.19319535765E+03  0.12509024878E+03 0.  0.
          5    1    3    3  502    0  0.14375087739E+02 -0.17169267802E+02  0.11979105631E+03  0.12193767455E+03  0.41800000000E+01 0.  1.
         -5    1    3    3    0  502 -0.54955999931E+02  0.40603686357E+02  0.19782915017E+02  0.71257683100E+02  0.41800000000E+01 0.  1.
        -11    1    1    2    0    0  0.48408444949E+02 -0.24564463287E+01 -0.30718645155E+02  0.57385074985E+02  0.00000000000E+00 0.  1.
         11    1    1    2    0    0 -0.78275327569E+01 -0.20977972227E+02  0.39728804576E+02  0.45603985581E+02  0.00000000000E+00 0. -1.
</event>
<event>
 7    1  0.2644565E-009  0.9047178E+02  0.7561462E-02  0.1301713E+00
          1   -1    0    0  501    0  0.00000000000E+00  0.00000000000E+00  0.19347123221E+03  0.19347123221E+03  0.00000000000E+00 0. -1.
         -1   -1    0    0    0  501 -0.00000000000E+00 -0.00000000000E+00 -0.77713527761E+02  0.77713527761E+02  0.00000000000E+00 0.  1.
         25    2    1    2    0    0  0.22188285454E+02  0.42537165371E+02  0.35082601919E+02  0.13849328274E+03  0.12509144638E+03 0.  0.
          5    1    3    3  502    0 -0.30961599021E+02  0.19738056120E+02 -0.32663226930E+02  0.49321093528E+02  0.41800000000E+01 0.  1.
         -5    1    3    3    0  502  0.53149884474E+02  0.22799109252E+02  0.67745828849E+02  0.89172189212E+02  0.41800000000E+01 0.  1.
        -11    1    1    2    0    0 -0.16556692293E+02  0.18431496555E+02  0.64893244642E+02  0.69462056729E+02  0.00000000000E+00 0. -1.
         11    1    1    2    0    0 -0.56315931611E+01 -0.60968661926E+02  0.15781857887E+02  0.63229420502E+02  0.00000000000E+00 0.  1.
</event>
<event>
 7    1  0.2644565E-009  0.9183262E+02  0.7561462E-02  0.1298473E+00
         -2   -1    0    0    0  501 -0.00000000000E+00  0.00000000000E+00  0.24722024811E+03  0.24722024811E+03  0.00000000000E+00 0.  1.
          2   -1    0    0  501    0  0.00000000000E+00 -0.00000000000E+00 -0.48889107302E+02  0.48889107302E+02  0.00000000000E+00 0. -1.
         25    2    1    2    0    0  0.73149690574E+01  0.73954187905E+01  0.14169560200E+03  0.18929791258E+03  0.12509138695E+03 0.  0.
          5    1    3    3  502    0  0.60627578971E+02  0.29534365270E+02  0.79622621984E+02  0.10442804410E+03  0.41800000000E+01 0.  1.
         -5    1    3    3    0  502 -0.53312609914E+02 -0.22138946479E+02  0.62072980013E+02  0.84869868474E+02  0.41800000000E+01 0.  1.
        -11    1    1    2    0    0 -0.28658542673E+02  0.10341959976E+02 -0.12024855592E+02  0.32754623434E+02  0.00000000000E+00 0. -1.
         11    1    1    2    0    0  0.21343573616E+02 -0.17737378767E+02  0.68660394407E+02  0.74056819405E+02  0.00000000000E+00 0.  1.
</event>
<event>
 7    1  0.2644565E-009  0.1180442E+03  0.7561462E-02  0.1246359E+00
          3   -1    0    0  501    0  0.00000000000E+00  0.00000000000E+00  0.82600571284E+02  0.82600571284E+02  0.00000000000E+00 0. -1.
         -3   -1    0    0    0  501 -0.00000000000E+00 -0.00000000000E+00 -0.20645542615E+03  0.20645542615E+03  0.00000000000E+00 0.  1.
         25    2    1    2    0    0 -0.64515839824E+02 -0.48345737542E+01 -0.84110614808E+02  0.16403589762E+03  0.12509002156E+03 0.  0.
          5    1    3    3  502    0 -0.53532003004E+02  0.50236689171E+02 -0.15274330515E+02  0.75101117550E+02  0.41800000000E+01 0. -1.
         -5    1    3    3    0  502 -0.10983836820E+02 -0.55071262926E+02 -0.68836284293E+02  0.88934780074E+02  0.41800000000E+01 0. -1.
        -11    1    1    2    0    0  0.28205775042E+02  0.44363730762E+02 -0.47421582071E+02  0.70799101682E+02  0.00000000000E+00 0. -1.
         11    1    1    2    0    0  0.36310064782E+02 -0.39529157008E+02  0.76773420082E+01  0.54220998133E+02  0.00000000000E+00 0.  1.
</event>
<event>
 7    1  0.2644565E-009  0.1691094E+03  0.7561462E-02  0.1178780E+00
         -2   -1    0    0    0  501 -0.00000000000E+00  0.00000000000E+00  0.26425135966E+03  0.26425135966E+03  0.00000000000E+00 0. -1.
          2   -1    0    0  501    0  0.00000000000E+00 -0.00000000000E+00 -0.11181038820E+03  0.11181038820E+03  0.00000000000E+00 0.  1.
         25    2    1    2    0    0  0.81758393664E+02 -0.10587816216E+03  0.80002897589E+02  0.19985877392E+03  0.12509374777E+03 0.  0.
          5    1    3    3  502    0  0.92108231870E+02 -0.18264484326E+02  0.50739903391E+02  0.10681539197E+03  0.41800000000E+01 0.  1.
         -5    1    3    3    0  502 -0.10349838207E+02 -0.87613677833E+02  0.29262994198E+02  0.93043381945E+02  0.41800000000E+01 0.  1.
        -11    1    1    2    0    0 -0.87492670651E+02  0.52122530601E+02  0.66921888038E+02  0.12186166219E+03  0.00000000000E+00 0. -1.
         11    1    1    2    0    0  0.57342769877E+01  0.53755631558E+02  0.55161858332E+01  0.54341311752E+02  0.00000000000E+00 0.  1.
</event>
<event>
 7    1  0.2644565E-009  0.1746781E+03  0.7561462E-02  0.1173055E+00
         -2   -1    0    0    0  501 -0.00000000000E+00  0.00000000000E+00  0.25943237135E+03  0.25943237135E+03  0.00000000000E+00 0.  1.
          2   -1    0    0  501    0  0.00000000000E+00 -0.00000000000E+00 -0.15902177771E+03  0.15902177771E+03  0.00000000000E+00 0. -1.
         25    2    1    2    0    0  0.10580506528E+03 -0.11695212784E+03 -0.16780372682E+02  0.20199382394E+03  0.12508961570E+03 0.  0.
          5    1    3    3  502    0 -0.40721997465E+01 -0.72929645318E+02 -0.36760303667E+02  0.81878619326E+02  0.41800000000E+01 0.  1.
         -5    1    3    3    0  502  0.10987726502E+03 -0.44022482522E+02  0.19979930985E+02  0.12011520461E+03  0.41800000000E+01 0.  1.
        -11    1    1    2    0    0 -0.31981663347E+02  0.32901507702E+02  0.90477706672E+02  0.10144728387E+03  0.00000000000E+00 0.  1.
         11    1    1    2    0    0 -0.73823401929E+02  0.84050620138E+02  0.26713259658E+02  0.11501304126E+03  0.00000000000E+00 0. -1.
</event>
<event>
 7    1  0.2644565E-009  0.1956374E+03  0.7561462E-02  0.1153473E+00
         -1   -1    0    0    0  501 -0.00000000000E+00  0.00000000000E+00  0.62987326194E+03  0.62987326194E+03  0.00000000000E+00 0.  1.
          1   -1    0    0  501    0  0.00000000000E+00 -0.00000000000E+00 -0.71304680657E+02  0.71304680657E+02  0.00000000000E+00 0. -1.
         25    2    1    2    0    0 -0.41967675079E+02 -0.17090585360E+03  0.21415427402E+03  0.30410040302E+03  0.12507959664E+03 0.  0.
          5    1    3    3  502    0 -0.77018753242E+02 -0.10113435753E+03  0.17585680335E+03  0.21703256508E+03  0.41800000000E+01 0.  1.
         -5    1    3    3    0  502  0.35051078163E+02 -0.69771496066E+02  0.38297470672E+02  0.87067837940E+02  0.41800000000E+01 0.  1.
        -11    1    1    2    0    0  0.38080344941E+02  0.41109672191E+02  0.17416896517E+03  0.18296159774E+03  0.00000000000E+00 0. -1.
         11    1    1    2    0    0  0.38873301385E+01  0.12979618140E+03  0.17024534210E+03  0.21411594184E+03  0.00000000000E+00 0.  1.
</event>
<event>
 7    1  0.2644565E-009  0.1698752E+03  0.7561462E-02  0.1177978E+00
          1   -1    0    0  501    0  0.00000000000E+00  0.00000000000E+00  0.97681638432E+02  0.97681638432E+02  0.00000000000E+00 0. -1.
         -1   -1    0    0    0  501 -0.00000000000E+00 -0.00000000000E+00 -0.30403644250E+03  0.30403644250E+03  0.00000000000E+00 0.  1.
         25    2    1    2    0    0  0.11655479546E+03 -0.56966880482E+02 -0.13753434696E+03  0.22669975812E+03  0.12508732118E+03 0.  0.
          5    1    3    3  502    0  0.40226210206E+02 -0.88665250524E+02 -0.75309811565E+02  0.12316133629E+03  0.41800000000E+01 0. -1.
         -5    1    3    3    0  502  0.76328585250E+02  0.31698370042E+02 -0.62224535397E+02  0.10353842183E+03  0.41800000000E+01 0. -1.
        -11    1    1    2    0    0 -0.68933228481E+02  0.80866717772E+02 -0.34854371605E+02  0.11183042185E+03  0.00000000000E+00 0. -1.
         11    1    1    2    0    0 -0.47621566975E+02 -0.23899837290E+02 -0.33966085502E+02  0.63187900962E+02  0.00000000000E+00 0.  1.
</event>
<event>
 7    1  0.2644565E-009  0.1218166E+03  0.7561462E-02  0.1240130E+00
          3   -1    0    0  501    0  0.00000000000E+00  0.00000000000E+00  0.36283562710E+02  0.36283562710E+02  0.00000000000E+00 0. -1.
         -3   -1    0    0    0  501 -0.00000000000E+00 -0.00000000000E+00 -0.51895515816E+03  0.51895515816E+03  0.00000000000E+00 0.  1.
         25    2    1    2    0    0 -0.70004840689E+02  0.40543472572E+02 -0.22797065002E+03  0.27231962315E+03  0.12507161546E+03 0.  0.
          5    1    3    3  502    0 -0.39061632756E+02  0.78398961556E+02 -0.19322599043E+03  0.21219322351E+03  0.41800000000E+01 0. -1.
         -5    1    3    3    0  502 -0.30943207933E+02 -0.37855488984E+02 -0.34744659588E+02  0.60126399637E+02  0.41800000000E+01 0. -1.
        -11    1    1    2    0    0  0.39040006949E+02  0.16169071888E+02 -0.38136250842E+02  0.56920423897E+02  0.00000000000E+00 0. -1.
         11    1    1    2    0    0  0.30964833740E+02 -0.56712544460E+02 -0.21656469459E+03  0.22599867382E+03  0.00000000000E+00 0.  1.
</event>
<event>
 7    1  0.2644565E-009  0.1750321E+03  0.7561462E-02  0.1172699E+00
          1   -1    0    0  501    0  0.00000000000E+00  0.00000000000E+00  0.19362812847E+03  0.19362812847E+03  0.00000000000E+00 0. -1.
         -1   -1    0    0    0  501 -0.00000000000E+00 -0.00000000000E+00 -0.20975794884E+03  0.20975794884E+03  0.00000000000E+00 0.  1.
         25    2    1    2    0    0  0.42355079687E+01 -0.15956488927E+03  0.53144359151E+02  0.20964558461E+03  0.12509218530E+03 0.  0.
          5    1    3    3  502    0 -0.39846281602E+02 -0.32309973524E+02 -0.21307013460E+02  0.55705670889E+02  0.41800000000E+01 0. -1.
         -5    1    3    3    0  502  0.44081789571E+02 -0.12725491574E+03  0.74451372611E+02  0.15393991372E+03  0.41800000000E+01 0. -1.
        -11    1    1    2    0    0 -0.20705104094E+02  0.94125686041E+02 -0.80201049439E+02  0.12538163518E+03  0.00000000000E+00 0.  1.
         11    1    1    2    0    0  0.16469596125E+02  0.65439203226E+02  0.10926869915E+02  0.68358857520E+02  0.00000000000E+00 0. -1.
</event>
<event>
 7    1  0.2644565E-009  0.1287693E+03  0.7561462E-02  0.1229293E+00
          1   -1    0    0  501    0  0.00000000000E+00  0.00000000000E+00  0.56041287296E+03  0.56041287296E+03  0.00000000000E+00 0. -1.
         -1   -1    0    0    0  501 -0.00000000000E+00 -0.00000000000E+00 -0.58592806967E+02  0.58592806967E+02  0.00000000000E+00 0.  1.
         25    2    1    2    0    0  0.49120586326E+02 -0.81713501419E+02  0.78390729769E+02  0.17573984651E+03  0.12509779703E+03 0.  0.
          5    1    3    3  502    0  0.19870319854E+02  0.32764123195E+02  0.25512938634E+02  0.46224450430E+02  0.41800000000E+01 0. -1.
         -5    1    3    3    0  502  0.29250266472E+02 -0.11447762461E+03  0.52877791135E+02  0.12951539608E+03  0.41800000000E+01 0. -1.
        -11    1    1    2    0    0 -0.24635696156E+02  0.68808609507E+02  0.40109925556E+03  0.40770351369E+03  0.00000000000E+00 0. -1.
         11    1    1    2    0    0 -0.24484890170E+02  0.12904891911E+02  0.22330080666E+02  0.35562319728E+02  0.00000000000E+00 0.  1.
</event>
<event>
 7    1  0.2644565E-009  0.6172517E+02  0.7561462E-02  0.1390731E+00
          2   -1    0    0  501    0  0.00000000000E+00  0.00000000000E+00  0.18175857641E+03  0.18175857641E+03  0.00000000000E+00 0. -1.
         -2   -1    0    0    0  501 -0.00000000000E+00 -0.00000000000E+00 -0.89151155876E+02  0.89151155876E+02  0.00000000000E+00 0.  1.
         25    2    1    2    0    0  0.19446431034E+02 -0.44263005890E+02  0.97726132082E+02  0.16593993812E+03  0.12509312052E+03 0.  0.
          5    1    3    3  502    0  0.23722490248E+02 -0.36771006052E+02  0.12739244485E+03  0.13476338833E+03  0.41800000000E+01 0. -1.
         -5    1    3    3    0  502 -0.42760592135E+01 -0.74919998383E+01 -0.29666312765E+02  0.31176549794E+02  0.41800000000E+01 0. -1.
        -11    1    1    2    0    0 -0.32911557403E+02  0.12146881590E+02  0.36551976751E+02  0.50663244542E+02  0.00000000000E+00 0. -1.
         11    1    1    2    0    0  0.13465126369E+02  0.32116124300E+02 -0.41670688301E+02  0.54306549620E+02  0.00000000000E+00 0.  1.
</event>
<event>
 7    1  0.2644565E-009  0.1147207E+03  0.7561462E-02  0.1252069E+00
         -2   -1    0    0    0  501 -0.00000000000E+00  0.00000000000E+00  0.30354935315E+02  0.30354935315E+02  0.00000000000E+00 0.  1.
          2   -1    0    0  501    0  0.00000000000E+00 -0.00000000000E+00 -0.56340972333E+03  0.56340972333E+03  0.00000000000E+00 0. -1.
         25    2    1    2    0    0  0.71461903301E+02 -0.11972574761E+01 -0.33062711868E+03  0.36065209173E+03  0.12508957837E+03 0.  0.
          5    1    3    3  502    0  0.10459009758E+03  0.16102290733E+02 -0.25733081590E+03  0.27827143851E+03  0.41800000000E+01 0.  1.
         -5    1    3    3    0  502 -0.33128194280E+02 -0.17299548209E+02 -0.73296302773E+02  0.82380653219E+02  0.41800000000E+01 0.  1.
        -11    1    1    2    0    0 -0.11663164067E+02  0.20079721031E+02 -0.22355411498E+01  0.23328571258E+02  0.00000000000E+00 0.  1.
         11    1    1    2    0    0 -0.59798739234E+02 -0.18882463555E+02 -0.20019212819E+03  0.20978399566E+03  0.00000000000E+00 0. -1.
</event>
<event>
 7    1  0.2644565E-009  0.1120411E+03  0.7561462E-02  0.1256836E+00
          1   -1    0    0  501    0  0.00000000000E+00  0.00000000000E+00  0.15621511314E+03  0.15621511314E+03  0.00000000000E+00 0. -1.
         -1   -1    0    0    0  501 -0.00000000000E+00 -0.00000000000E+00 -0.14590248799E+03  0.14590248799E+03  0.00000000000E+00 0.  1.
         25    2    1    2    0    0  0.21753348687E+02 -0.46078388760E+02  0.95572082740E+02  0.16546554672E+03  0.12509355724E+03 0.  0.
          5    1    3    3  502    0 -0.43667319485E+02  0.98461485543E+01  0.14725186568E+02  0.47308402550E+02  0.41800000000E+01 0. -1.
         -5    1    3    3    0  502  0.65420668172E+02 -0.55924537314E+02  0.80846896172E+02  0.11815714417E+03  0.41800000000E+01 0. -1.
        -11    1    1    2    0    0  0.57495805270E+01  0.61268109189E+02 -0.85364918489E+02  0.10523311355E+03  0.00000000000E+00 0.  1.
         11    1    1    2    0    0 -0.27502929214E+02 -0.15189720429E+02  0.10546090009E+00  0.31418940849E+02  0.00000000000E+00 0. -1.
</event>
<event>
 7    1  0.2644565E-009  0.6141367E+02  0.7561462E-02  0.1391993E+00
          4   -1    0    0  501    0  0.00000000000E+00  0.00000000000E+00  0.32932812004E+02  0.32932812004E+02  0.00000000000E+00 0. -1.
         -4   -1    0    0    0  501 -0.00000000000E+00 -0.00000000000E+00 -0.50493237131E+03  0.50493237131E+03  0.00000000000E+00 0.  1.
         25    2    1    2    0    0  0.17131575312E+02 -0.80113067764E+01 -0.40326786498E+03  0.42264717493E+03  0.12509193277E+03 0.  0.
          5    1    3    3  502    0 -0.10774634539E+01  0.33591817927E+02 -0.26168025601E+02  0.42799639286E+02  0.41800000000E+01 0. -1.
         -5    1    3    3    0  502  0.18209038766E+02 -0.41603124703E+02 -0.37709983938E+03  0.37984753565E+03  0.41800000000E+01 0. -1.
        -11    1    1    2    0    0  0.83383016024E+01  0.14806612288E+02 -0.83357275060E+02  0.85071724718E+02  0.00000000000E+00 0.  1.
         11    1    1    2    0    0 -0.25469876914E+02 -0.67953055120E+01  0.14625580733E+02  0.30146283665E+02  0.00000000000E+00 0. -1.
</event>
<event>
 7    1  0.2644565E-009  0.9831821E+02  0.7561462E-02  0.1283873E+00
         -1   -1    0    0    0  501 -0.00000000000E+00  0.00000000000E+00  0.36011763396E+03  0.36011763396E+03  0.00000000000E+00 0.  1.
          1   -1    0    0  501    0  0.00000000000E+00 -0.00000000000E+00 -0.34813134456E+02  0.34813134456E+02  0.00000000000E+00 0. -1.
         25    2    1    2    0    0 -0.27464656409E+01 -0.11077914874E+02  0.14556197879E+03  0.19225541619E+03  0.12507434634E+03 0.  0.
          5    1    3    3  502    0 -0.22169888428E+02  0.41329375301E+02  0.13797020266E+02  0.49065786287E+02  0.41800000000E+01 0. -1.
         -5    1    3    3    0  502  0.19423422787E+02 -0.52407290175E+02  0.13176495853E+03  0.14318962990E+03  0.41800000000E+01 0. -1.
        -11    1    1    2    0    0 -0.15978834241E+01  0.52163906426E+02  0.94701349886E+02  0.10812942262E+03  0.00000000000E+00 0.  1.
         11    1    1    2    0    0  0.43443490650E+01 -0.41085991553E+02  0.85041170828E+02  0.94545929614E+02  0.00000000000E+00 0. -1.
</event>
<event>
 7    1  0.2644565E-009  0.9191669E+02  0.7561462E-02  0.1298275E+00
         -4   -1    0    0    0  501 -0.00000000000E+00  0.00000000000E+00  0.25909514902E+03  0.25909514902E+03  0.00000000000E+00 0.  1.
          4   -1    0    0  501    0  0.00000000000E+00 -0.00000000000E+00 -0.58845849708E+02  0.58845849708E+02  0.00000000000E+00 0. -1.
         25    2    1    2    0    0  0.22019567858E+02  0.20104122594E+02  0.47110035819E+02  0.13695076870E+03  0.12508845054E+03 0.  0.
          5    1    3    3  502    0  0.33367307823E+02 -0.47570461344E+02  0.32356518196E+02  0.66638897753E+02  0.41800000000E+01 0. -1.
         -5    1    3    3    0  502 -0.11347739966E+02  0.67674583939E+02  0.14753517622E+02  0.70311870945E+02  0.41800000000E+01 0. -1.
        -11    1    1    2    0    0 -0.15147422930E+02  0.14846902036E+02 -0.24723360494E+01  0.21353860705E+02  0.00000000000E+00 0. -1.
         11    1    1    2    0    0 -0.68721449280E+01 -0.34951024631E+02  0.15561159954E+03  0.15963636932E+03  0.00000000000E+00 0.  1.
</event>
<event>
 7    1  0.2644565E-009  0.1222521E+03  0.7561462E-02  0.1239427E+00
         -2   -1    0    0    0  501 -0.00000000000E+00  0.00000000000E+00  0.36531048686E+02  0.36531048686E+02  0.00000000000E+00 0.  1.
          2   -1    0    0  501    0  0.00000000000E+00 -0.00000000000E+00 -0.62490811540E+03  0.62490811540E+03  0.00000000000E+00 0. -1.
         25    2    1    2    0    0  0.36415113588E+02  0.96698621696E+02 -0.28766417287E+03  0.33026123468E+03  0.12508046549E+03 0.  0.
          5    1    3    3  502    0  0.38765729167E+02  0.89691709845E+02 -0.91550981065E+02  0.13396432028E+03  0.41800000000E+01 0.  1.
         -5    1    3    3    0  502 -0.23506155790E+01  0.70069118511E+01 -0.19611319180E+03  0.19629691441E+03  0.41800000000E+01 0.  1.
        -11    1    1    2    0    0 -0.52234560193E+02 -0.14087195904E+02 -0.13211817895E+03  0.14276593283E+03  0.00000000000E+00 0.  1.
         11    1    1    2    0    0  0.15819446605E+02 -0.82611425792E+02 -0.16859471489E+03  0.18841199657E+03  0.00000000000E+00 0. -1.
</event>
<event>
 7    1  0.2644565E-009  0.1282119E+03  0.7561462E-02  0.1230133E+00
          1   -1    0    0  501    0  0.00000000000E+00  0.00000000000E+00  0.31075539196E+03  0.31075539196E+03  0.00000000000E+00 0. -1.
         -1   -1    0    0    0  501 -0.00000000000E+00 -0.00000000000E+00 -0.56679502369E+02  0.56679502369E+02  0.00000000000E+00 0.  1.
         25    2    1    2    0    0 -0.43795075542E+02 -0.79665560240E+02  0.14986763852E+03  0.21534081239E+03  0.12508695485E+03 0.  0.
          5    1    3    3  502    0 -0.84424537379E+02 -0.32513500326E+02  0.10402976273E+03  0.13792858351E+03  0.41800000000E+01 0.  1.
         -5    1    3    3    0  502  0.40629461837E+02 -0.47152059914E+02  0.45837875792E+02  0.77412228882E+02  0.41800000000E+01 0.  1.
        -11    1    1    2    0    0 -0.10372191337E+02  0.22210105670E+02  0.45280175239E+01  0.24927376310E+02  0.00000000000E+00 0.  1.
         11    1    1    2    0    0  0.54167266879E+02  0.57455454570E+02  0.99680233550E+02  0.12716670563E+03  0.00000000000E+00 0. -1.
</event>
<event>
 6    1  0.2644565E-009  0.1375543E+03  0.7561462E-02  0.1216658E+00
          1   -1    0    0  501    0  0.00000000000E+00  0.00000000000E+00  0.14657198709E+04  0.14657198709E+04  0.00000000000E+00 0. -1.
         -1   -1    0    0    0  501 -0.00000000000E+00 -0.00000000000E+00 -0.14744213504E+02  0.14744213504E+02  0.00000000000E+00 0.  1.
          5    1    1    2  502    0 -0.57753756365E+02  0.47187782421E+02  0.20678750652E+03  0.21986525064E+03  0.41800000000E+01 0. -1.
         -5    1    1    2    0  502 -0.39247022378E+02 -0.55447153084E+02  0.49018652705E+03  0.49488889586E+03  0.41800000000E+01 0. -1.
        -11    1    1    2    0    0 -0.16948315626E+01 -0.27369323084E+02  0.12081666237E+03  0.12388954034E+03  0.00000000000E+00 0.  1.
         11    1    1    2    0    0  0.98695610305E+02  0.35628693746E+02  0.63318496150E+03  0.64182039760E+03  0.00000000000E+00 0. -1.
</event>
<event>
 7    1  0.2644565E-009  0.1102390E+03  0.7561462E-02  0.1260128E+00
          2   -1    0    0  501    0  0.00000000000E+00  0.00000000000E+00  0.19984147911E+03  0.19984147911E+03  0.00000000000E+00 0. -1.
         -2   -1    0    0    0  501 -0.00000000000E+00 -0.00000000000E+00 -0.70140695989E+02  0.70140695989E+02  0.00000000000E+00 0.  1.
         25    2    1    2    0    0 -0.12010083662E+02 -0.46304469898E+02  0.78328398359E+02  0.15515071991E+03  0.12509221341E+03 0.  0.
          5    1    3    3  502    0 -0.60286352554E+02 -0.54256405353E+02  0.65664560071E+02  0.10443901893E+03  0.41800000000E+01 0. -1.
         -5    1    3    3    0  502  0.48276268892E+02  0.79519354556E+01  0.12663838289E+02  0.50711700975E+02  0.41800000000E+01 0. -1.
        -11    1    1    2    0    0 -0.30702441627E+02  0.57015209239E+01 -0.68713400536E+01  0.31974405027E+02  0.00000000000E+00 0.  1.
         11    1    1    2    0    0  0.42712525290E+02  0.40602948974E+02  0.58243724820E+02  0.82857050170E+02  0.00000000000E+00 0. -1.
</event>
<event>
 7    1  0.2644565E-009  0.7472934E+02  0.7561462E-02  0.1344711E+00
          2   -1    0    0  501    0  0.00000000000E+00  0.00000000000E+00  0.48157348696E+03  0.48157348696E+03  0.00000000000E+00 0. -1.
         -2   -1    0    0    0  501 -0.00000000000E+00 -0.00000000000E+00 -0.28302040027E+02  0.28302040027E+02  0.00000000000E+00 0.  1.
         25    2    1    2    0    0  0.39762962678E+01 -0.36756705350E+02  0.29581005494E+03  0.32329307067E+03  0.12509178477E+03 0.  0.
          5    1    3    3  502    0  0.36776326943E+02 -0.27991664589E+02  0.29927785899E+02  0.55219346960E+02  0.41800000000E+01 0.  1.
         -5    1    3    3    0  502 -0.32800030675E+02 -0.87650407605E+01  0.26588226904E+03  0.26807372371E+03  0.41800000000E+01 0.  1.
        -11    1    1    2    0    0 -0.29608643904E+02  0.30401050374E+02  0.20556270095E+02  0.47153535370E+02  0.00000000000E+00 0.  1.
         11    1    1    2    0    0  0.25632347636E+02  0.63556549755E+01  0.13690512190E+03  0.13942892095E+03  0.00000000000E+00 0. -1.
</event>
<event>
 7    1  0.2644565E-009  0.6689511E+02  0.7561462E-02  0.1370981E+00
         -2   -1    0    0    0  501 -0.00000000000E+00  0.00000000000E+00  0.83548884618E+02  0.83548884618E+02  0.00000000000E+00 0.  1.
          2   -1    0    0  501    0  0.00000000000E+00 -0.00000000000E+00 -0.15784247106E+03  0.15784247106E+03  0.00000000000E+00 0. -1.
         25    2    1    2    0    0 -0.35527855837E+01 -0.22170764961E+02 -0.77281925898E+02  0.14874630852E+03  0.12509517626E+03 0.  0.
          5    1    3    3  502    0 -0.70752034028E+01 -0.30492933642E+02  0.28474436131E+02  0.42522269674E+02  0.41800000000E+01 0.  1.
         -5    1    3    3    0  502  0.35224178191E+01  0.83221686808E+01 -0.10575636203E+03  0.10622403884E+03  0.41800000000E+01 0.  1.
        -11    1    1    2    0    0  0.45121154397E+02  0.23064956016E+02  0.56120076852E+01  0.50984364273E+02  0.00000000000E+00 0.  1.
         11    1    1    2    0    0 -0.41568368813E+02 -0.89419105458E+00 -0.26236682267E+01  0.41660682884E+02  0.00000000000E+00 0. -1.
</event>
<event>
 7    1  0.2644565E-009  0.1424716E+03  0.7561462E-02  0.1210041E+00
          2   -1    0    0  501    0  0.00000000000E+00  0.00000000000E+00  0.70336652110E+03  0.70336652110E+03  0.00000000000E+00 0.  1.
         -2   -1    0    0    0  501 -0.00000000000E+00 -0.00000000000E+00 -0.44211089831E+02  0.44211089831E+02  0.00000000000E+00 0. -1.
         25    2    1    2    0    0 -0.20428381111E+02 -0.13685118416E+03  0.32623889583E+03  0.37578048558E+03  0.12503435860E+03 0.  0.
          5    1    3    3  502    0 -0.11831142349E+01 -0.20878817620E+01 -0.11037400852E+02  0.12043904148E+02  0.41800000000E+01 0.  1.
         -5    1    3    3    0  502 -0.19245266876E+02 -0.13476330240E+03  0.33727629668E+03  0.36373658143E+03  0.41800000000E+01 0.  1.
        -11    1    1    2    0    0 -0.12016868114E+02  0.32539517886E+02  0.18324702134E+03  0.18650119618E+03  0.00000000000E+00 0.  1.
         11    1    1    2    0    0  0.32445249224E+02  0.10431166628E+03  0.14966951410E+03  0.18529592917E+03  0.00000000000E+00 0. -1.
</event>
<event>
 7    1  0.2644565E-009  0.9056740E+02  0.7561462E-02  0.1301483E+00
         -1   -1    0    0    0  501 -0.00000000000E+00  0.00000000000E+00  0.20768492938E+03  0.20768492938E+03  0.00000000000E+00 0.  1.
          1   -1    0    0  501    0  0.00000000000E+00 -0.00000000000E+00 -0.18669911123E+03  0.18669911123E+03  0.00000000000E+00 0. -1.
         25    2    1    2    0    0  0.55254915336E+02 -0.60866339173E+01 -0.14240557245E+03  0.19756157273E+03  0.12514421750E+03 0.  0.
          5    1    3    3  502    0  0.68393053310E+02  0.12960377557E+01 -0.15997690537E+03  0.17403842135E+03  0.41800000000E+01 0. -1.
         -5    1    3    3    0  502 -0.13138137974E+02 -0.73826716731E+01  0.17571332916E+02  0.23523151381E+02  0.41800000000E+01 0. -1.
        -11    1    1    2    0    0 -0.75727036178E+02  0.44880910509E+00  0.77542441491E+02  0.10838641829E+03  0.00000000000E+00 0. -1.
         11    1    1    2    0    0  0.20472120842E+02  0.56378248122E+01  0.85848949114E+02  0.88436049574E+02  0.00000000000E+00 0.  1.
</event>
<event>
 7    1  0.2644565E-009  0.9767280E+02  0.7561462E-02  0.1285267E+00
          4   -1    0    0  501    0  0.00000000000E+00  0.00000000000E+00  0.18125398301E+02  0.18125398301E+02  0.00000000000E+00 0. -1.
         -4   -1    0    0    0  501 -0.00000000000E+00 -0.00000000000E+00 -0.78982738511E+03  0.78982738511E+03  0.00000000000E+00 0.  1.
         25    2    1    2    0    0  0.24365522933E+02 -0.29279707530E+02 -0.55009342426E+03  0.56542156109E+03  0.12509111223E+03 0.  0.
          5    1    3    3  502    0 -0.24562164250E+02  0.36668374961E+02 -0.26599956249E+03  0.26966851741E+03  0.41800000000E+01 0. -1.
         -5    1    3    3    0  502  0.48927687183E+02 -0.65948082490E+02 -0.28409386176E+03  0.29575304368E+03  0.41800000000E+01 0. -1.
        -11    1    1    2    0    0  0.27563680617E+01 -0.15877413333E+02 -0.14742326910E+01  0.16182187154E+02  0.00000000000E+00 0. -1.
         11    1    1    2    0    0 -0.27121890994E+02  0.45157120863E+02 -0.22013432986E+03  0.22634903516E+03  0.00000000000E+00 0.  1.
</event>
<event>
 7    1  0.2644565E-009  0.7431690E+02  0.7561462E-02  0.1346000E+00
          1   -1    0    0  501    0  0.00000000000E+00  0.00000000000E+00  0.21166436863E+02  0.21166436863E+02  0.00000000000E+00 0. -1.
         -1   -1    0    0    0  501 -0.00000000000E+00 -0.00000000000E+00 -0.44119253828E+03  0.44119253828E+03  0.00000000000E+00 0.  1.
         25    2    1    2    0    0 -0.20689411403E+02  0.10110084823E+02 -0.29942459094E+03  0.32532018597E+03  0.12509145527E+03 0.  0.
          5    1    3    3  502    0  0.11996482508E+02  0.46441862318E+02 -0.43986188547E+02  0.65215177305E+02  0.41800000000E+01 0.  1.
         -5    1    3    3    0  502 -0.32685893911E+02 -0.36331777494E+02 -0.25543840239E+03  0.26010500867E+03  0.41800000000E+01 0.  1.
        -11    1    1    2    0    0  0.81706851512E+01 -0.28243403832E+02 -0.10740038281E+03  0.11135210903E+03  0.00000000000E+00 0.  1.
         11    1    1    2    0    0  0.12518726252E+02  0.18133319009E+02 -0.13201127663E+02  0.25686680144E+02  0.00000000000E+00 0. -1.
</event>
<event>
 7    1  0.2644565E-009  0.1402958E+03  0.7561462E-02  0.1212932E+00
          3   -1    0    0  501    0  0.00000000000E+00  0.00000000000E+00  0.64746388904E+02  0.64746388904E+02  0.00000000000E+00 0. -1.
         -3   -1    0    0    0  501 -0.00000000000E+00 -0.00000000000E+00 -0.35926629450E+03  0.35926629450E+03  0.00000000000E+00 0.  1.
         25    2    1    2    0    0 -0.72681207660E+02  0.67500178938E+02 -0.11596220747E+03  0.19731593900E+03  0.12509002405E+03 0.  0.
          5    1    3    3  502    0 -0.23611708891E+02  0.93646908819E+02 -0.10051898465E+03  0.13945893662E+03  0.41800000000E+01 0.  1.
         -5    1    3    3    0  502 -0.49069498769E+02 -0.26146729880E+02 -0.15443222823E+02  0.57857002377E+02  0.41800000000E+01 0.  1.
        -11    1    1    2    0    0  0.22462573677E+02 -0.74178406917E+02 -0.14923752936E+03  0.16816314530E+03  0.00000000000E+00 0.  1.
         11    1    1    2    0    0  0.50218633983E+02  0.66782279782E+01 -0.29320168770E+02  0.58533599110E+02  0.00000000000E+00 0. -1.
</event>
<event>
 7    1  0.2644565E-009  0.1050090E+03  0.7561462E-02  0.1270102E+00
          2   -1    0    0  501    0  0.00000000000E+00  0.00000000000E+00  0.28330438393E+03  0.28330438393E+03  0.00000000000E+00 0. -1.
         -2   -1    0    0    0  501 -0.00000000000E+00 -0.00000000000E+00 -0.54007423929E+02  0.54007423929E+02  0.00000000000E+00 0.  1.
         25    2    1    2    0    0  0.20990706529E+02  0.55357074786E+02  0.11007990377E+03  0.17682896943E+03  0.12508350701E+03 0.  0.
          5    1    3    3  502    0  0.25849939827E+01  0.93087935371E+02  0.91864031054E+02  0.13087596612E+03  0.41800000000E+01 0. -1.
         -5    1    3    3    0  502  0.18405712546E+02 -0.37730860585E+02  0.18215872720E+02  0.45953003316E+02  0.41800000000E+01 0. -1.
        -11    1    1    2    0    0 -0.34702443698E+02 -0.30393111132E+02  0.94596856924E+01  0.47090194906E+02  0.00000000000E+00 0.  1.
         11    1    1    2    0    0  0.13711737169E+02 -0.24963963654E+02  0.10975737053E+03  0.11339264352E+03  0.00000000000E+00 0. -1.
</event>
<event>
 7    1  0.2644565E-009  0.3183363E+03  0.7561462E-02  0.1076418E+00
         -1   -1    0    0    0  501 -0.00000000000E+00  0.00000000000E+00  0.28211429534E+03  0.28211429534E+03  0.00000000000E+00 0.  1.
          1   -1    0    0  501    0  0.00000000000E+00 -0.00000000000E+00 -0.39343100444E+03  0.39343100444E+03  0.00000000000E+00 0. -1.
         25    2    1    2    0    0 -0.30796649972E+03  0.37174111286E+02 -0.23709990578E+01  0.33448273735E+03  0.12509116855E+03 0.  0.
          5    1    3    3  502    0 -0.17709764476E+03 -0.28498155710E+02  0.36128508854E+02  0.18302585121E+03  0.41800000000E+01 0. -1.
         -5    1    3    3    0  502 -0.13086885496E+03  0.65672266996E+02 -0.38499507911E+02  0.15145688614E+03  0.41800000000E+01 0. -1.
        -11    1    1    2    0    0  0.95761777956E+02 -0.20312850308E+02  0.79328539202E+01  0.98213340114E+02  0.00000000000E+00 0.  1.
         11    1    1    2    0    0  0.21220472176E+03 -0.16861260978E+02 -0.11687856396E+03  0.24284922231E+03  0.00000000000E+00 0. -1.
</event>
<event>
 7    1  0.2644565E-009  0.1278954E+03  0.7561462E-02  0.1230612E+00
         -1   -1    0    0    0  501 -0.00000000000E+00  0.00000000000E+00  0.62698858207E+03  0.62698858207E+03  0.00000000000E+00 0.  1.
          1   -1    0    0  501    0  0.00000000000E+00 -0.00000000000E+00 -0.31382424815E+02  0.31382424815E+02  0.00000000000E+00 0. -1.
         25    2    1    2    0    0  0.11841086655E+02 -0.84586243194E+02  0.27351176044E+03  0.31265119272E+03  0.12508813429E+03 0.  0.
          5    1    3    3  502    0 -0.53020937497E+02 -0.64092317260E+02  0.14733716550E+03  0.16924762238E+03  0.41800000000E+01 0.  1.
         -5    1    3    3    0  502  0.64862024152E+02 -0.20493925935E+02  0.12617459494E+03  0.14340357033E+03  0.41800000000E+01 0.  1.
        -11    1    1    2    0    0 -0.30878083158E+02  0.78520929751E+02  0.31224552010E+03  0.32344436500E+03  0.00000000000E+00 0.  1.
         11    1    1    2    0    0  0.19036996503E+02  0.60653134431E+01  0.98488767218E+01  0.22275449170E+02  0.00000000000E+00 0. -1.
</event>
<event>
 7    1  0.2644565E-009  0.2534523E+03  0.7561462E-02  0.1111142E+00
          2   -1    0    0  501    0  0.00000000000E+00  0.00000000000E+00  0.54677044772E+03  0.54677044772E+03  0.00000000000E+00 0. -1.
         -2   -1    0    0    0  501 -0.00000000000E+00 -0.00000000000E+00 -0.13730252111E+03  0.13730252111E+03  0.00000000000E+00 0.  1.
         25    2    1    2    0    0 -0.77336411614E+01 -0.23427119810E+03  0.96484480319E+02  0.28266646222E+03  0.12509304719E+03 0.  0.
          5    1    3    3  502    0  0.53167991791E+02 -0.70702718418E+02  0.14326909058E+02  0.89713112007E+02  0.41800000000E+01 0.  1.
         -5    1    3    3    0  502 -0.60901632952E+02 -0.16356847968E+03  0.82157571261E+02  0.19295335021E+03  0.41800000000E+01 0.  1.
        -11    1    1    2    0    0 -0.28457478801E+02  0.70394597201E+02  0.14652777815E+03  0.16503217015E+03  0.00000000000E+00 0. -1.
         11    1    1    2    0    0  0.36191119962E+02  0.16387660090E+03  0.16645566814E+03  0.23637433647E+03  0.00000000000E+00 0.  1.
</event>
<event>
 7    1  0.2644565E-009  0.1609720E+03  0.7561462E-02  0.1187604E+00
         -1   -1    0    0    0  501 -0.00000000000E+00  0.00000000000E+00  0.31623314911E+02  0.31623314911E+02  0.00000000000E+00 0.  1.
          1   -1    0    0  501    0  0.00000000000E+00 -0.00000000000E+00 -0.10268488184E+04  0.10268488184E+04  0.00000000000E+00 0. -1.
         25    2    1    2    0    0 -0.79981803666E+02 -0.10873886368E+03 -0.66642730641E+03  0.69137104482E+03  0.12508931805E+03 0.  0.
          5    1    3    3  502    0 -0.49043784522E+02 -0.12233773017E+03 -0.61956583302E+03  0.63344384666E+03  0.41800000000E+01 0. -1.
         -5    1    3    3    0  502 -0.30938019144E+02  0.13598866487E+02 -0.46861473391E+02  0.57927198160E+02  0.41800000000E+01 0. -1.
        -11    1    1    2    0    0  0.75447979725E+02  0.12119889877E+03 -0.25610646313E+03  0.29320997794E+03  0.00000000000E+00 0.  1.
         11    1    1    2    0    0  0.45338239411E+01 -0.12460035088E+02 -0.72691733975E+02  0.73891110577E+02  0.00000000000E+00 0. -1.
</event>
<event>
 7    1  0.2644565E-009  0.1268475E+03  0.7561462E-02  0.1232210E+00
         -2   -1    0    0    0  501 -0.00000000000E+00  0.00000000000E+00  0.15830769844E+02  0.15830769844E+02  0.00000000000E+00 0.  1.
          2   -1    0    0  501    0  0.00000000000E+00 -0.00000000000E+00 -0.11799388732E+04  0.11799388732E+04  0.00000000000E+00 0. -1.
         25    2    1    2    0    0  0.54898794726E+02 -0.34432091958E+02 -0.85805779457E+03  0.86954531489E+03  0.12508568743E+03 0.  0.
          5    1    3    3  502    0  0.79641043547E+02 -0.63832474380E+02 -0.63471802886E+03  0.64288547126E+03  0.41800000000E+01 0. -1.
         -5    1    3    3    0  502 -0.24742248821E+02  0.29400382422E+02 -0.22333976571E+03  0.22665984363E+03  0.41800000000E+01 0. -1.
        -11    1    1    2    0    0  0.13227679241E+02  0.42292755999E+02 -0.11547938370E+03  0.12368967931E+03  0.00000000000E+00 0.  1.
         11    1    1    2    0    0 -0.68126473967E+02 -0.78606640409E+01 -0.19057092504E+03  0.20253464880E+03  0.00000000000E+00 0. -1.
</event>
<event>
 7    1  0.2644565E-009  0.1112351E+03  0.7561462E-02  0.1258300E+00
         -3   -1    0    0    0  501 -0.00000000000E+00  0.00000000000E+00  0.48690345765E+03  0.48690345765E+03  0.00000000000E+00 0.  1.
          3   -1    0    0  501    0  0.00000000000E+00 -0.00000000000E+00 -0.40030980477E+02  0.40030980477E+02  0.00000000000E+00 0. -1.
         25    2    1    2    0    0 -0.59467958852E+02 -0.58812976190E+02  0.19463173159E+03  0.24601721774E+03  0.12509019219E+03 0.  0.
          5    1    3    3  502    0 -0.39862141015E+02  0.22622218220E+02  0.16083759041E+02  0.48753612670E+02  0.41800000000E+01 0. -1.
         -5    1    3    3    0  502 -0.19605817837E+02 -0.81435194410E+02  0.17854797255E+03  0.19726360507E+03  0.41800000000E+01 0. -1.
        -11    1    1    2    0    0  0.46438007249E+02  0.18114154645E+02  0.38599306755E+02  0.63043775250E+02  0.00000000000E+00 0. -1.
         11    1    1    2    0    0  0.13029951603E+02  0.40698821546E+02  0.21364143882E+03  0.21787344514E+03  0.00000000000E+00 0.  1.
</event>
<event>
 7    1  0.2644565E-009  0.1017563E+03  0.7561462E-02  0.1276645E+00
          1   -1    0    0  501    0  0.00000000000E+00  0.00000000000E+00  0.55721127439E+02  0.55721127439E+02  0.00000000000E+00 0. -1.
         -1   -1    0    0    0  501 -0.00000000000E+00 -0.00000000000E+00 -0.34765193519E+03  0.34765193519E+03  0.00000000000E+00 0.  1.
         25    2    1    2    0    0  0.64719508952E+02 -0.49685451385E+02 -0.20097098704E+03  0.25038958982E+03  0.12509336570E+03 0.  0.
          5    1    3    3  502    0  0.22781203142E+02 -0.71065795392E+01 -0.18740233808E+03  0.18896188877E+03  0.41800000000E+01 0. -1.
         -5    1    3    3    0  502  0.41938305810E+02 -0.42578871846E+02 -0.13568648955E+02  0.61427701050E+02  0.41800000000E+01 0. -1.
        -11    1    1    2    0    0  0.10051610313E+02  0.43165205721E+02 -0.16590525222E+02  0.47323518275E+02  0.00000000000E+00 0. -1.
         11    1    1    2    0    0 -0.74771119265E+02  0.65202456638E+01 -0.74369295489E+02  0.10565995453E+03  0.00000000000E+00 0.  1.
</event>
<event>
 7    1  0.2644565E-009  0.1209381E+03  0.7561462E-02  0.1241557E+00
         -1   -1    0    0    0  501 -0.00000000000E+00  0.00000000000E+00  0.41249458203E+02  0.41249458203E+02  0.00000000000E+00 0.  1.
          1   -1    0    0  501    0  0.00000000000E+00 -0.00000000000E+00 -0.94090257608E+03  0.94090257608E+03  0.00000000000E+00 0. -1.
         25    2    1    2    0    0 -0.75981740194E+02 -0.54566363787E+02 -0.80532617904E+03  0.82033389694E+03  0.12508690946E+03 0.  0.
          5    1    3    3  502    0 -0.48412782211E+02 -0.76479628616E+02 -0.74395513164E+03  0.74945289469E+03  0.41800000000E+01 0.  1.
         -5    1    3    3    0  502 -0.27568957983E+02  0.21913264829E+02 -0.61371047400E+02  0.70881002241E+02  0.41800000000E+01 0.  1.
        -11    1    1    2    0    0  0.89211449674E+01  0.47543625912E+02 -0.32288524854E+01  0.48481013611E+02  0.00000000000E+00 0.  1.
         11    1    1    2    0    0  0.67060595226E+02  0.70227378744E+01 -0.91098086350E+02  0.11333712373E+03  0.00000000000E+00 0. -1.
</event>
<event>
 7    1  0.2644565E-009  0.1088767E+03  0.7561462E-02  0.1262664E+00
         -1   -1    0    0    0  501 -0.00000000000E+00  0.00000000000E+00  0.35638933674E+02  0.35638933674E+02  0.00000000000E+00 0.  1.
          1   -1    0    0  501    0  0.00000000000E+00 -0.00000000000E+00 -0.46340639586E+03  0.46340639586E+03  0.00000000000E+00 0. -1.
         25    2    1    2    0    0  0.60665276004E+02  0.34429222458E+00 -0.17705119822E+03  0.22510906436E+03  0.12508624951E+03 0.  0.
          5    1    3    3  502    0  0.16234520510E+02 -0.42474411527E+02 -0.15143080998E+03  0.15816572923E+03  0.41800000000E+01 0.  1.
         -5    1    3    3    0  502  0.44430755495E+02  0.42818703752E+02 -0.25620388236E+02  0.66943335129E+02  0.41800000000E+01 0.  1.
        -11    1    1    2    0    0 -0.85129245888E+02  0.47245306552E+01 -0.18816466967E+03  0.20657989400E+03  0.00000000000E+00 0. -1.
         11    1    1    2    0    0  0.24463969883E+02 -0.50688228798E+01 -0.62551594301E+02  0.67356371171E+02  0.00000000000E+00 0.  1.
</event>
<event>
 7    1  0.2644565E-009  0.1846009E+03  0.7561462E-02  0.1163423E+00
          1   -1    0    0  501    0  0.00000000000E+00  0.00000000000E+00  0.26162909944E+03  0.26162909944E+03  0.00000000000E+00 0. -1.
         -1   -1    0    0    0  501 -0.00000000000E+00 -0.00000000000E+00 -0.18179354864E+03  0.18179354864E+03  0.00000000000E+00 0.  1.
         25    2    1    2    0    0 -0.56530244528E+02 -0.16231711524E+03 -0.38543440266E+02  0.21604805665E+03  0.12509457042E+03 0.  0.
          5    1    3    3  502    0  0.25186363621E+02 -0.20337005779E+02 -0.40689652524E+02  0.52163847050E+02  0.41800000000E+01 0.  1.
         -5    1    3    3    0  502 -0.81716608149E+02 -0.14198010946E+03  0.21462122583E+01  0.16388420960E+03  0.41800000000E+01 0.  1.
        -11    1    1    2    0    0  0.32514300236E+02  0.68140134998E+02  0.16999669444E+01  0.75519186999E+02  0.00000000000E+00 0.  1.
         11    1    1    2    0    0  0.24015944292E+02  0.94176980241E+02  0.11667902412E+03  0.15185540444E+03  0.00000000000E+00 0. -1.
</event>
<event>
 7    1  0.2644565E-009  0.9567744E+02  0.7561462E-02  0.1289658E+00
         -2   -1    0    0    0  501 -0.00000000000E+00  0.00000000000E+00  0.18074706911E+03  0.18074706911E+03  0.00000000000E+00 0.  1.
          2   -1    0    0  501    0  0.00000000000E+00 -0.00000000000E+00 -0.10240467328E+03  0.10240467328E+03  0.00000000000E+00 0. -1.
         25    2    1    2    0    0  0.18888025470E+02  0.18974308257E+02 -0.37097129318E+02  0.13319219922E+03  0.12508870073E+03 0.  0.
          5    1    3    3  502    0  0.58866307998E+02 -0.27665652129E+02 -0.28060913111E+02  0.70961382241E+02  0.41800000000E+01 0.  1.
         -5    1    3    3    0  502 -0.39978282527E+02  0.46639960386E+02 -0.90362162068E+01  0.62230816980E+02  0.41800000000E+01 0.  1.
        -11    1    1    2    0    0 -0.10055470812E+02  0.21204513828E+02  0.10489952165E+03  0.10749257436E+03  0.00000000000E+00 0.  1.
         11    1    1    2    0    0 -0.88325546584E+01 -0.40178822085E+02  0.10540003497E+02  0.42466968807E+02  0.00000000000E+00 0. -1.
</event>
<event>
 7    1  0.2644565E-009  0.1192174E+03  0.7561462E-02  0.1244394E+00
         -1   -1    0    0    0  501 -0.00000000000E+00  0.00000000000E+00  0.11826065989E+02  0.11826065989E+02  0.00000000000E+00 0.  1.
          1   -1    0    0  501    0  0.00000000000E+00 -0.00000000000E+00 -0.22600635152E+04  0.22600635152E+04  0.00000000000E+00 0. -1.
         25    2    1    2    0    0 -0.52326787085E+02 -0.40147398421E+02 -0.19099034471E+04  0.19151315780E+04  0.12509147675E+03 0.  0.
          5    1    3    3  502    0 -0.12926555449E+02  0.36931433262E+02 -0.10796875871E+04  0.10804044542E+04  0.41800000000E+01 0.  1.
         -5    1    3    3    0  502 -0.39400231636E+02 -0.77078831683E+02 -0.83021585997E+03  0.83472712373E+03  0.41800000000E+01 0.  1.
        -11    1    1    2    0    0 -0.22738538332E+02  0.28491605178E+02 -0.12967263155E+03  0.13469893861E+03  0.00000000000E+00 0. -1.
         11    1    1    2    0    0  0.75065325418E+02  0.11655793243E+02 -0.20866137059E+03  0.22205906461E+03  0.00000000000E+00 0.  1.
</event>
<event>
 7    1  0.3245569E-009  0.1079558E+03  0.7561462E-02  0.1264403E+00
         -2   -1    0    0    0  501 -0.00000000000E+00  0.00000000000E+00  0.77379029290E+02  0.77379029290E+02  0.00000000000E+00 0.  1.
          2   -1    0    0  501    0  0.00000000000E+00 -0.00000000000E+00 -0.26724599340E+03  0.26724599340E+03  0.00000000000E+00 0. -1.
         25    2    1    2    0    0  0.66873493319E+02 -0.29797700722E+02 -0.17415819966E+03  0.22657758244E+03  0.12508539194E+03 0.  0.
          5    1    3    3  502    0 -0.29198411219E+01 -0.35330780523E+02  0.32147016724E+01  0.35841264367E+02  0.41800000000E+01 0.  1.
         -5    1    3    3    0  502  0.69793334441E+02  0.55330798006E+01 -0.17737290133E+03  0.19073631807E+03  0.41800000000E+01 0.  1.
        -11    1    1    2    0    0 -0.11511875958E+02  0.49876233919E+02  0.12586592035E+02  0.52712278428E+02  0.00000000000E+00 0.  1.
         11    1    1    2    0    0 -0.55361617361E+02 -0.20078533197E+02 -0.28295356487E+02  0.65335161826E+02  0.00000000000E+00 0. -1.
</event>
<event>
 7    1  0.2644565E-009  0.1679128E+03  0.7561462E-02  0.1180042E+00
         -1   -1    0    0    0  501 -0.00000000000E+00  0.00000000000E+00  0.47914964655E+03  0.47914964655E+03  0.00000000000E+00 0.  1.
          1   -1    0    0  501    0  0.00000000000E+00 -0.00000000000E+00 -0.74670114821E+02  0.74670114821E+02  0.00000000000E+00 0. -1.
         25    2    1    2    0    0 -0.12502487631E+02  0.12668008496E+03  0.32921013740E+03  0.37447371176E+03  0.12508832921E+03 0.  0.
          5    1    3    3  502    0  0.26233466425E+02  0.13285926197E+03  0.28267537859E+03  0.31346869112E+03  0.41800000000E+01 0.  1.
         -5    1    3    3    0  502 -0.38735954056E+02 -0.61791770061E+01  0.46534758807E+02  0.61005020632E+02  0.41800000000E+01 0.  1.
        -11    1    1    2    0    0  0.54149882171E+02 -0.91725948357E+02  0.62483541193E+02  0.12349110195E+03  0.00000000000E+00 0.  1.
         11    1    1    2    0    0 -0.41647394540E+02 -0.34954136607E+02  0.12785853133E+02  0.55854947661E+02  0.00000000000E+00 0. -1.
</event>
<event>
 6    1  0.2644565E-009  0.8960663E+02  0.7561462E-02  0.1303807E+00
          1   -1    0    0  501    0  0.00000000000E+00  0.00000000000E+00  0.16013472725E+03  0.16013472725E+03  0.00000000000E+00 0.  1.
         -1   -1    0    0    0  501 -0.00000000000E+00 -0.00000000000E+00 -0.13798296246E+03  0.13798296246E+03  0.00000000000E+00 0. -1.
          5    1    1    2  502    0  0.37552663050E+02  0.12546959927E+00 -0.90117398629E+01  0.38844589071E+02  0.41800000000E+01 0.  1.
         -5    1    1    2    0  502 -0.47945144253E+02 -0.16745391439E+02  0.11764947392E+03  0.12821082678E+03  0.41800000000E+01 0.  1.
        -11    1    1    2    0    0  0.86711129615E+01 -0.36402557548E+02 -0.62488938014E+02  0.72836816035E+02  0.00000000000E+00 0.  1.
         11    1    1    2    0    0  0.17213682421E+01  0.53022479387E+02 -0.23997031257E+02  0.58225457819E+02  0.00000000000E+00 0. -1.
</event>
<event>
 7    1  0.2644565E-009  0.1322313E+03  0.7561462E-02  0.1224182E+00
          2   -1    0    0  501    0  0.00000000000E+00  0.00000000000E+00  0.19390118391E+03  0.19390118391E+03  0.00000000000E+00 0. -1.
         -2   -1    0    0    0  501 -0.00000000000E+00 -0.00000000000E+00 -0.98136797805E+02  0.98136797805E+02  0.00000000000E+00 0.  1.
         25    2    1    2    0    0  0.84325603353E+02 -0.13850193810E+02  0.49498352066E+02  0.15937448969E+03  0.12508999103E+03 0.  0.
          5    1    3    3  502    0 -0.32517961517E+02  0.18113897826E+01  0.17212277983E+02  0.37073357920E+02  0.41800000000E+01 0.  1.
         -5    1    3    3    0  502  0.11684356487E+03 -0.15661583593E+02  0.32286074084E+02  0.12230113177E+03  0.41800000000E+01 0.  1.
        -11    1    1    2    0    0 -0.59336324950E+02  0.44463282547E+02  0.54843673093E+02  0.92225871813E+02  0.00000000000E+00 0.  1.
         11    1    1    2    0    0 -0.24989278403E+02 -0.30613088736E+02 -0.85776390502E+01  0.40437620216E+02  0.00000000000E+00 0. -1.
</event>
<event>
 7    1  0.2644565E-009  0.1243719E+03  0.7561462E-02  0.1236054E+00
          2   -1    0    0  501    0  0.00000000000E+00  0.00000000000E+00  0.50771475735E+03  0.50771475735E+03  0.00000000000E+00 0.  1.
         -2   -1    0    0    0  501 -0.00000000000E+00 -0.00000000000E+00 -0.41958463908E+02  0.41958463908E+02  0.00000000000E+00 0. -1.
         25    2    1    2    0    0  0.89831665161E+02 -0.48822262113E+01  0.29447530030E+03  0.33234794913E+03  0.12508354249E+03 0.  0.
          5    1    3    3  502    0 -0.21779027664E+02 -0.19573322784E+02  0.20141146919E+02  0.35785181430E+02  0.41800000000E+01 0. -1.
         -5    1    3    3    0  502  0.11161069282E+03  0.14691096573E+02  0.27433415338E+03  0.29656276770E+03  0.41800000000E+01 0. -1.
        -11    1    1    2    0    0 -0.74392380979E+02 -0.20177092670E+02  0.17135308393E+03  0.18789151335E+03  0.00000000000E+00 0.  1.
         11    1    1    2    0    0 -0.15439284182E+02  0.25059318882E+02 -0.72090792687E-01  0.29433758781E+02  0.00000000000E+00 0. -1.
</event>
<event>
 7    1  0.2644565E-009  0.3467478E+03  0.7561462E-02  0.1063958E+00
         -4   -1    0    0    0  501 -0.00000000000E+00  0.00000000000E+00  0.17781153438E+03  0.17781153438E+03  0.00000000000E+00 0.  1.
          4   -1    0    0  501    0  0.00000000000E+00 -0.00000000000E+00 -0.73183426052E+03  0.73183426052E+03  0.00000000000E+00 0. -1.
         25    2    1    2    0    0  0.11989081881E+03  0.32244981947E+03 -0.26733146831E+03  0.45327554227E+03  0.12507960969E+03 0.  0.
          5    1    3    3  502    0  0.93901699693E+02  0.16564934929E+03 -0.21185321162E+03  0.28487978482E+03  0.41800000000E+01 0. -1.
         -5    1    3    3    0  502  0.25989119114E+02  0.15680047018E+03 -0.55478256689E+02  0.16839575745E+03  0.41800000000E+01 0. -1.
        -11    1    1    2    0    0 -0.46698605819E+02 -0.13141426359E+03 -0.17337332568E+03  0.22250568199E+03  0.00000000000E+00 0. -1.
         11    1    1    2    0    0 -0.73192212987E+02 -0.19103555589E+03 -0.11331793216E+03  0.23386457065E+03  0.00000000000E+00 0.  1.
</event>
<event>
 7    1  0.2644565E-009  0.1033924E+03  0.7561462E-02  0.1273320E+00
          2   -1    0    0  501    0  0.00000000000E+00  0.00000000000E+00  0.77381980437E+03  0.77381980437E+03  0.00000000000E+00 0. -1.
         -2   -1    0    0    0  501 -0.00000000000E+00 -0.00000000000E+00 -0.16646532828E+02  0.16646532828E+02  0.00000000000E+00 0.  1.
         25    2    1    2    0    0  0.14911537511E+02 -0.24841712203E+02  0.38494488845E+03  0.40579220258E+03  0.12508109335E+03 0.  0.
          5    1    3    3  502    0  0.57624916404E+02 -0.34221339425E+02  0.32266015077E+03  0.32957362812E+03  0.41800000000E+01 0. -1.
         -5    1    3    3    0  502 -0.42713378894E+02  0.93796272225E+01  0.62284737686E+02  0.76218574455E+02  0.41800000000E+01 0. -1.
        -11    1    1    2    0    0 -0.20963137641E+02 -0.32155962921E+02  0.11891537272E+03  0.12495729255E+03  0.00000000000E+00 0.  1.
         11    1    1    2    0    0  0.60516001308E+01  0.56997675123E+02  0.25331301037E+03  0.25971684207E+03  0.00000000000E+00 0. -1.
</event>
<event>
 7    1  0.2644565E-009  0.9111784E+02  0.7561462E-02  0.1300167E+00
         -3   -1    0    0    0  501 -0.00000000000E+00  0.00000000000E+00  0.20571854467E+03  0.20571854467E+03  0.00000000000E+00 0.  1.
          3   -1    0    0  501    0  0.00000000000E+00 -0.00000000000E+00 -0.70710358363E+02  0.70710358363E+02  0.00000000000E+00 0. -1.
         25    2    1    2    0    0  0.52982615836E+02  0.45569831745E+01  0.66997325281E+02  0.15153922981E+03  0.12509025901E+03 0.  0.
          5    1    3    3  502    0  0.56838821088E+02 -0.37367506973E+02  0.82024074016E+02  0.10664147072E+03  0.41800000000E+01 0.  1.
         -5    1    3    3    0  502 -0.38562052527E+01  0.41924490147E+02 -0.15026748735E+02  0.44897759082E+02  0.41800000000E+01 0.  1.
        -11    1    1    2    0    0 -0.39569916551E+02 -0.25378750556E+02  0.83395747511E+02  0.95732491759E+02  0.00000000000E+00 0.  1.
         11    1    1    2    0    0 -0.13412699285E+02  0.20821767381E+02 -0.15384886484E+02  0.29157181467E+02  0.00000000000E+00 0. -1.
</event>
<event>
 7    1  0.2644565E-009  0.1354309E+03  0.7561462E-02  0.1219613E+00
         -1   -1    0    0    0  501 -0.00000000000E+00  0.00000000000E+00  0.27967088426E+02  0.27967088426E+02  0.00000000000E+00 0.  1.
          1   -1    0    0  501    0  0.00000000000E+00 -0.00000000000E+00 -0.69259144768E+03  0.69259144768E+03  0.00000000000E+00 0. -1.
         25    2    1    2    0    0 -0.86398930531E+02  0.11195244154E+01 -0.33254066398E+03  0.36564637556E+03  0.12509176723E+03 0.  0.
          5    1    3    3  502    0 -0.11623158194E+03 -0.14646417528E+02 -0.27255057789E+03  0.29669106507E+03  0.41800000000E+01 0.  1.
         -5    1    3    3    0  502  0.29832651406E+02  0.15765941943E+02 -0.59990086100E+02  0.68955310495E+02  0.41800000000E+01 0.  1.
        -11    1    1    2    0    0  0.99809300209E+02 -0.14305221342E+02 -0.30957076042E+03  0.32557732026E+03  0.00000000000E+00 0. -1.
         11    1    1    2    0    0 -0.13410369678E+02  0.13185696927E+02 -0.22512934850E+02  0.29334840274E+02  0.00000000000E+00 0.  1.
</event>
<event>
 7    1  0.2644565E-009  0.1011299E+03  0.7561462E-02  0.1277938E+00
         -2   -1    0    0    0  501 -0.00000000000E+00  0.00000000000E+00  0.10457960905E+03  0.10457960905E+03  0.00000000000E+00 0. -1.
          2   -1    0    0  501    0  0.00000000000E+00 -0.00000000000E+00 -0.14648103873E+03  0.14648103873E+03  0.00000000000E+00 0.  1.
         25    2    1    2    0    0  0.33911964384E+01  0.54202613864E+02 -0.49887138548E+02  0.14520643037E+03  0.12508699879E+03 0.  0.
          5    1    3    3  502    0 -0.38637801801E+02  0.32194854613E+02 -0.75741985485E+02  0.91014884260E+02  0.41800000000E+01 0. -1.
         -5    1    3    3    0  502  0.42028998239E+02  0.22007759251E+02  0.25854846937E+02  0.54191546115E+02  0.41800000000E+01 0. -1.
        -11    1    1    2    0    0  0.25277357900E+01  0.24807334175E+02 -0.53637519171E+01  0.25506138707E+02  0.00000000000E+00 0.  1.
         11    1    1    2    0    0 -0.59189322284E+01 -0.79009948039E+02  0.13349460784E+02  0.80348078702E+02  0.00000000000E+00 0. -1.
</event>
<event>
 7    1  0.2644565E-009  0.9279122E+02  0.7561462E-02  0.1296230E+00
         -3   -1    0    0    0  501 -0.00000000000E+00  0.00000000000E+00  0.53078155855E+03  0.53078155855E+03  0.00000000000E+00 0.  1.
          3   -1    0    0  501    0  0.00000000000E+00 -0.00000000000E+00 -0.28610499155E+02  0.28610499155E+02  0.00000000000E+00 0. -1.
         25    2    1    2    0    0  0.20484499676E+02  0.23753367877E-01  0.40430540761E+03  0.42370943825E+03  0.12508880904E+03 0.  0.
          5    1    3    3  502    0  0.63547856613E+02  0.26299775135E+02  0.15984065263E+03  0.17405894084E+03  0.41800000000E+01 0.  1.
         -5    1    3    3    0  502 -0.43063356937E+02 -0.26276021767E+02  0.24446475499E+03  0.24965049742E+03  0.41800000000E+01 0.  1.
        -11    1    1    2    0    0  0.19644114835E+01  0.29168709407E+02 -0.19406351210E+01  0.29299122609E+02  0.00000000000E+00 0. -1.
         11    1    1    2    0    0 -0.22448911159E+02 -0.29192462775E+02  0.99806286896E+02  0.10638349684E+03  0.00000000000E+00 0.  1.
</event>
<event>
 7    1  0.2644565E-009  0.4864499E+03  0.7561462E-02  0.1017377E+00
         -2   -1    0    0    0  501 -0.00000000000E+00  0.00000000000E+00  0.13041897758E+03  0.13041897758E+03  0.00000000000E+00 0.  1.
          2   -1    0    0  501    0  0.00000000000E+00 -0.00000000000E+00 -0.18652338736E+04  0.18652338736E+04  0.00000000000E+00 0. -1.
         25    2    1    2    0    0 -0.27307621020E+03  0.39589835091E+03 -0.86668836204E+03  0.99905070784E+03  0.12508988405E+03 0.  0.
          5    1    3    3  502    0 -0.18968530112E+03  0.22428445775E+03 -0.41270370100E+03  0.50658251911E+03  0.41800000000E+01 0. -1.
         -5    1    3    3    0  502 -0.83390909082E+02  0.17161389316E+03 -0.45398466104E+03  0.49246818873E+03  0.41800000000E+01 0. -1.
        -11    1    1    2    0    0  0.33327157700E+02 -0.11117027417E+03 -0.23690774098E+03  0.26380827704E+03  0.00000000000E+00 0.  1.
         11    1    1    2    0    0  0.23974905250E+03 -0.28472807674E+03 -0.63121879304E+03  0.73279386634E+03  0.00000000000E+00 0. -1.
</event>
<event>
 7    1  0.2644565E-009  0.2179564E+03  0.7561462E-02  0.1135416E+00
          1   -1    0    0  501    0  0.00000000000E+00  0.00000000000E+00  0.31491712362E+03  0.31491712362E+03  0.00000000000E+00 0. -1.
         -1   -1    0    0    0  501 -0.00000000000E+00 -0.00000000000E+00 -0.16331339039E+03  0.16331339039E+03  0.00000000000E+00 0.  1.
         25    2    1    2    0    0 -0.12514679836E+03 -0.14098847674E+03  0.14010721920E+03  0.26611345966E+03  0.12508744473E+03 0.  0.
          5    1    3    3  502    0 -0.12644036236E+03 -0.16132767003E+03  0.12225699412E+03  0.23870070666E+03  0.41800000000E+01 0.  1.
         -5    1    3    3    0  502  0.12935640015E+01  0.20339193292E+02  0.17850225078E+02  0.27412752998E+02  0.41800000000E+01 0.  1.
        -11    1    1    2    0    0  0.11320952572E+03  0.59802349588E+02 -0.61514708208E+01  0.12818173943E+03  0.00000000000E+00 0.  1.
         11    1    1    2    0    0  0.11937272632E+02  0.81186127152E+02  0.17647984853E+02  0.83935314911E+02  0.00000000000E+00 0. -1.
</event>
<event>
 7    1  0.2644565E-009  0.1201209E+03  0.7561462E-02  0.1242898E+00
          3   -1    0    0  501    0  0.00000000000E+00  0.00000000000E+00  0.69919831687E+02  0.69919831687E+02  0.00000000000E+00 0. -1.
         -3   -1    0    0    0  501 -0.00000000000E+00 -0.00000000000E+00 -0.29615104056E+03  0.29615104056E+03  0.00000000000E+00 0.  1.
         25    2    1    2    0    0  0.74007604175E+02 -0.27614441440E+01 -0.49315059862E+02  0.15350670114E+03  0.12509029185E+03 0.  0.
          5    1    3    3  502    0 -0.30714649684E+02  0.11736178039E+01  0.10524857512E+02  0.32756863549E+02  0.41800000000E+01 0.  1.
         -5    1    3    3    0  502  0.10472225386E+03 -0.39350619479E+01 -0.59839917374E+02  0.12074983759E+03  0.41800000000E+01 0.  1.
        -11    1    1    2    0    0 -0.82218706830E+02 -0.16091725508E+02 -0.17215266320E+03  0.19145599711E+03  0.00000000000E+00 0.  1.
         11    1    1    2    0    0  0.82111026542E+01  0.18853169652E+02 -0.47634858147E+01  0.21108174005E+02  0.00000000000E+00 0. -1.
</event>
<event>
 7    1  0.2644565E-009  0.1505822E+03  0.7561462E-02  0.1199759E+00
          2   -1    0    0  501    0  0.00000000000E+00  0.00000000000E+00  0.10653557157E+04  0.10653557157E+04  0.00000000000E+00 0. -1.
         -2   -1    0    0    0  501 -0.00000000000E+00 -0.00000000000E+00 -0.27314541458E+02  0.27314541458E+02  0.00000000000E+00 0.  1.
         25    2    1    2    0    0 -0.14190479207E+02 -0.12345738837E+03  0.40868408483E+03  0.44509603426E+03  0.12507878348E+03 0.  0.
          5    1    3    3  502    0 -0.32219465194E+02 -0.17931940866E+01  0.21941139351E+02  0.39245324288E+02  0.41800000000E+01 0.  1.
         -5    1    3    3    0  502  0.18028985987E+02 -0.12166419429E+03  0.38674294548E+03  0.40585070997E+03  0.41800000000E+01 0.  1.
        -11    1    1    2    0    0  0.18650365823E+02 -0.31167366607E+01  0.34094705138E+02  0.38987165980E+02  0.00000000000E+00 0.  1.
         11    1    1    2    0    0 -0.44598866157E+01  0.12657412503E+03  0.59526238430E+03  0.60858705695E+03  0.00000000000E+00 0. -1.
</event>
<event>
 7    1  0.2644565E-009  0.2259359E+03  0.7561462E-02  0.1129533E+00
         -2   -1    0    0    0  501 -0.00000000000E+00  0.00000000000E+00  0.63057760455E+02  0.63057760455E+02  0.00000000000E+00 0.  1.
          2   -1    0    0  501    0  0.00000000000E+00 -0.00000000000E+00 -0.98313889576E+03  0.98313889576E+03  0.00000000000E+00 0. -1.
         25    2    1    2    0    0 -0.10034202782E+03  0.17552831440E+03 -0.67350624643E+03  0.71423884807E+03  0.12509099256E+03 0.  0.
          5    1    3    3  502    0  0.17548719691E+02 -0.45718558469E+00 -0.18598076334E+02  0.25913846198E+02  0.41800000000E+01 0.  1.
         -5    1    3    3    0  502 -0.11789074751E+03  0.17598549998E+03 -0.65490817009E+03  0.68832500188E+03  0.41800000000E+01 0.  1.
        -11    1    1    2    0    0  0.11644094255E+03 -0.13457422032E+03 -0.20428419720E+03  0.27092572248E+03  0.00000000000E+00 0.  1.
         11    1    1    2    0    0 -0.16098914730E+02 -0.40954094082E+02 -0.42290691677E+02  0.61032085661E+02  0.00000000000E+00 0. -1.
</event>
<event>
 7    1  0.2644565E-009  0.1868647E+03  0.7561462E-02  0.1161320E+00
          2   -1    0    0  501    0  0.00000000000E+00  0.00000000000E+00  0.64049859508E+03  0.64049859508E+03  0.00000000000E+00 0. -1.
         -2   -1    0    0    0  501 -0.00000000000E+00 -0.00000000000E+00 -0.13114810173E+03  0.13114810173E+03  0.00000000000E+00 0.  1.
         25    2    1    2    0    0 -0.82796366601E+02  0.15124537116E+03  0.53472839405E+03  0.57559706141E+03  0.12508845302E+03 0.  0.
          5    1    3    3  502    0 -0.26298354488E+02  0.10868359184E+03  0.45664458238E+03  0.47015473368E+03  0.41800000000E+01 0. -1.
         -5    1    3    3    0  502 -0.56498012113E+02  0.42561779322E+02  0.78083811667E+02  0.10544232773E+03  0.41800000000E+01 0. -1.
        -11    1    1    2    0    0  0.87970975701E+02 -0.78079174931E+02 -0.33373262646E+02  0.12226620458E+03  0.00000000000E+00 0.  1.
         11    1    1    2    0    0 -0.51746091004E+01 -0.73166196228E+02  0.79953619482E+01  0.73783430813E+02  0.00000000000E+00 0. -1.
</event>
<event>
 7    1  0.2924175E-009  0.1144529E+03  0.7561462E-02  0.1252539E+00
          3   -1    0    0  501    0  0.00000000000E+00  0.00000000000E+00  0.22559372481E+03  0.22559372481E+03  0.00000000000E+00 0. -1.
         -3   -1    0    0    0  501 -0.00000000000E+00 -0.00000000000E+00 -0.66644036205E+02  0.66644036205E+02  0.00000000000E+00 0.  1.
         25    2    1    2    0    0 -0.14329483662E+02  0.53896229240E+02  0.72556007556E+02  0.15499155120E+03  0.12509144288E+03 0.  0.
          5    1    3    3  502    0 -0.65610719392E+02  0.50560530673E+02  0.30197816687E+02  0.88263890090E+02  0.41800000000E+01 0.  1.
         -5    1    3    3    0  502  0.51281235730E+02  0.33356985672E+01  0.42358190869E+02  0.66727661106E+02  0.41800000000E+01 0.  1.
        -11    1    1    2    0    0 -0.26464379220E+02 -0.45685680077E+02  0.78944906593E+02  0.94972854062E+02  0.00000000000E+00 0. -1.
         11    1    1    2    0    0  0.40793862882E+02 -0.82105491631E+01  0.74487744607E+01  0.42273355762E+02  0.00000000000E+00 0.  1.
</event>
<event>
 7    1  0.2644565E-009  0.1005883E+03  0.7561462E-02  0.1279064E+00
          1   -1    0    0  501    0  0.00000000000E+00  0.00000000000E+00  0.78745351461E+03  0.78745351461E+03  0.00000000000E+00 0. -1.
         -1   -1    0    0    0  501 -0.00000000000E+00 -0.00000000000E+00 -0.18834273731E+02  0.18834273731E+02  0.00000000000E+00 0.  1.
         25    2    1    2    0    0 -0.38841551996E+02  0.33288064760E+02  0.36283711121E+03  0.38718725056E+03  0.12508571583E+03 0.  0.
          5    1    3    3  502    0  0.24486544128E+02  0.19218574260E+02  0.17842726176E+02  0.36121734694E+02  0.41800000000E+01 0. -1.
         -5    1    3    3    0  502 -0.63328096124E+02  0.14069490500E+02  0.34499438504E+03  0.35106551586E+03  0.41800000000E+01 0. -1.
        -11    1    1    2    0    0  0.30272255783E+02  0.28980027362E+02  0.15589135439E+03  0.16142603827E+03  0.00000000000E+00 0.  1.
         11    1    1    2    0    0  0.85692962125E+01 -0.62268092122E+02  0.24989077527E+03  0.25767449952E+03  0.00000000000E+00 0. -1.
</event>
<event>
 7    1  0.2644565E-009  0.2125766E+03  0.7561462E-02  0.1139542E+00
         -1   -1    0    0    0  501 -0.00000000000E+00  0.00000000000E+00  0.86382181806E+02  0.86382181806E+02  0.00000000000E+00 0.  1.
          1   -1    0    0  501    0  0.00000000000E+00 -0.00000000000E+00 -0.73564012754E+03  0.73564012754E+03  0.00000000000E+00 0. -1.
         25    2    1    2    0    0 -0.19426962672E+03 -0.80167370159E+02 -0.19144423578E+03  0.31058470941E+03  0.12507786055E+03 0.  0.
          5    1    3    3  502    0 -0.16671110128E+03 -0.84218980729E+02 -0.20664602871E+03  0.27857760424E+03  0.41800000000E+01 0. -1.
         -5    1    3    3    0  502 -0.27558525437E+02  0.40516105695E+01  0.15201792932E+02  0.32007105161E+02  0.41800000000E+01 0. -1.
        -11    1    1    2    0    0  0.98340908741E+02  0.41164228054E+02 -0.13263893174E+03  0.17017201361E+03  0.00000000000E+00 0.  1.
         11    1    1    2    0    0  0.95928717975E+02  0.39003142106E+02 -0.32517477821E+03  0.34126558633E+03  0.00000000000E+00 0. -1.
</event>
<event>
 7    1  0.2644565E-009  0.1956862E+03  0.7561462E-02  0.1153430E+00
         -2   -1    0    0    0  501 -0.00000000000E+00  0.00000000000E+00  0.86789009748E+03  0.86789009748E+03  0.00000000000E+00 0.  1.
          2   -1    0    0  501    0  0.00000000000E+00 -0.00000000000E+00 -0.60326783399E+02  0.60326783399E+02  0.00000000000E+00 0. -1.
         25    2    1    2    0    0 -0.18641080219E+03  0.15257102626E+02  0.57476523211E+03  0.61723917743E+03  0.12508942305E+03 0.  0.
          5    1    3    3  502    0 -0.11155228791E+03 -0.30622127318E+02  0.18936051209E+03  0.22193806244E+03  0.41800000000E+01 0.  1.
         -5    1    3    3    0  502 -0.74858514275E+02  0.45879229943E+02  0.38540472002E+03  0.39530111499E+03  0.41800000000E+01 0.  1.
        -11    1    1    2    0    0  0.15122701989E+03 -0.18647916809E+02  0.12359490046E+03  0.19619647236E+03  0.00000000000E+00 0. -1.
         11    1    1    2    0    0  0.35183782298E+02  0.33908141834E+01  0.10920318152E+03  0.11478123109E+03  0.00000000000E+00 0.  1.
</event>
<event>
 7    1  0.3477900E-009  0.2149850E+03  0.7561462E-02  0.1137678E+00
         -2   -1    0    0    0  501 -0.00000000000E+00  0.00000000000E+00  0.95451573969E+02  0.95451573969E+02  0.00000000000E+00 0.  1.
          2   -1    0    0  501    0  0.00000000000E+00 -0.00000000000E+00 -0.62972501605E+03  0.62972501605E+03  0.00000000000E+00 0. -1.
         25    2    1    2    0    0 -0.92881087063E+02  0.16155492879E+03 -0.10401728930E+03  0.24737213755E+03  0.12508591691E+03 0.  0.
          5    1    3    3  502    0 -0.52634571482E+02  0.17421684419E+03 -0.84423936889E+02  0.20066584272E+03  0.41800000000E+01 0. -1.
         -5    1    3    3    0  502 -0.40246515582E+02 -0.12661915396E+02 -0.19593352413E+02  0.46706294830E+02  0.41800000000E+01 0. -1.
        -11    1    1    2    0    0  0.19039724521E+02 -0.11856903453E+03 -0.21595896685E+03  0.24710200813E+03  0.00000000000E+00 0.  1.
         11    1    1    2    0    0  0.73841362543E+02 -0.42985894258E+02 -0.21429718593E+03  0.23070244434E+03  0.00000000000E+00 0. -1.
</event>
<event>
 7    1  0.2644565E-009  0.8448320E+02  0.7561462E-02  0.1316790E+00
          2   -1    0    0  501    0  0.00000000000E+00  0.00000000000E+00  0.28788231171E+03  0.28788231171E+03  0.00000000000E+00 0. -1.
         -2   -1    0    0    0  501 -0.00000000000E+00 -0.00000000000E+00 -0.51993986916E+02  0.51993986916E+02  0.00000000000E+00 0.  1.
         25    2    1    2    0    0 -0.49014061121E+02  0.36479269561E+02  0.15162920902E+03  0.20584574992E+03  0.12509172810E+03 0.  0.
          5    1    3    3  502    0 -0.62791004778E+02  0.94337976844E+01  0.14405744371E+02  0.65243426417E+02  0.41800000000E+01 0.  1.
         -5    1    3    3    0  502  0.13776943656E+02  0.27045471876E+02  0.13722346465E+03  0.14060232350E+03  0.41800000000E+01 0.  1.
        -11    1    1    2    0    0  0.49166358950E+02 -0.12520915862E+02  0.47123598643E+01  0.50954003984E+02  0.00000000000E+00 0.  1.
         11    1    1    2    0    0 -0.15229782915E+00 -0.23958353699E+02  0.79546755917E+02  0.83076544726E+02  0.00000000000E+00 0. -1.
</event>
<event>
 7    1  0.2644565E-009  0.3141604E+03  0.7561462E-02  0.1078369E+00
         -2   -1    0    0    0  501 -0.00000000000E+00  0.00000000000E+00  0.81840174252E+02  0.81840174252E+02  0.00000000000E+00 0.  1.
          2   -1    0    0  501    0  0.00000000000E+00 -0.00000000000E+00 -0.13728764513E+04  0.13728764513E+04  0.00000000000E+00 0. -1.
         25    2    1    2    0    0  0.13276498178E+03  0.26895430640E+03 -0.87755953285E+03  0.93579997025E+03  0.12509153174E+03 0.  0.
          5    1    3    3  502    0  0.41947912086E+02  0.21510447722E+03 -0.58023713955E+03  0.62025976329E+03  0.41800000000E+01 0.  1.
         -5    1    3    3    0  502  0.90817069690E+02  0.53849829179E+02 -0.29732239330E+03  0.31554020696E+03  0.41800000000E+01 0.  1.
        -11    1    1    2    0    0 -0.69539683398E+02 -0.18990171834E+03 -0.33299639282E+03  0.38959598025E+03  0.00000000000E+00 0. -1.
         11    1    1    2    0    0 -0.63225298378E+02 -0.79052588053E+02 -0.80480351336E+02  0.12932067501E+03  0.00000000000E+00 0.  1.
</event>
<event>
 6    1  0.2644565E-009  0.1168080E+03  0.7561462E-02  0.1248458E+00
         -1   -1    0    0    0  501 -0.00000000000E+00  0.00000000000E+00  0.15108578514E+03  0.15108578514E+03  0.00000000000E+00 0. -1.
          1   -1    0    0  501    0  0.00000000000E+00 -0.00000000000E+00 -0.11524674567E+03  0.11524674567E+03  0.00000000000E+00 0.  1.
          5    1    1    2  502    0  0.73389688205E+02 -0.25074045622E+02 -0.19322128264E+02  0.80034812047E+02  0.41800000000E+01 0. -1.
         -5    1    1    2    0  502 -0.41401986993E+02 -0.40033593022E+02  0.29118336959E+01  0.57816643561E+02  0.41800000000E+01 0. -1.
        -11    1    1    2    0    0 -0.23611545532E+02 -0.77629007290E+01 -0.14948022732E+02  0.29003639319E+02  0.00000000000E+00 0.  1.
         11    1    1    2    0    0 -0.83761556798E+01  0.72870539373E+02  0.67197356776E+02  0.99477435885E+02  0.00000000000E+00 0. -1.
</event>
<event>
 7    1  0.2644565E-009  0.9697876E+02  0.7561462E-02  0.1286781E+00
         -2   -1    0    0    0  501 -0.00000000000E+00  0.00000000000E+00  0.29596660419E+02  0.29596660419E+02  0.00000000000E+00 0.  1.
          2   -1    0    0  501    0  0.00000000000E+00 -0.00000000000E+00 -0.40202116116E+03  0.40202116116E+03  0.00000000000E+00 0. -1.
         25    2    1    2    0    0 -0.11760983867E+01 -0.17847897367E+02 -0.20673415638E+03  0.24229664405E+03  0.12509485063E+03 0.  0.
          5    1    3    3  502    0 -0.18675059150E+02 -0.56672464068E+02 -0.44606826079E+02  0.74617473494E+02  0.41800000000E+01 0. -1.
         -5    1    3    3    0  502  0.17498960763E+02  0.38824566700E+02 -0.16212733030E+03  0.16767917055E+03  0.41800000000E+01 0. -1.
        -11    1    1    2    0    0 -0.33367891689E+02  0.38622951189E+02 -0.85694851259E+02  0.99743451347E+02  0.00000000000E+00 0.  1.
         11    1    1    2    0    0  0.34543990076E+02 -0.20775053821E+02 -0.79995493104E+02  0.89577726186E+02  0.00000000000E+00 0. -1.
</event>
<event>
 7    1  0.2644565E-009  0.1108725E+03  0.7561462E-02  0.1258963E+00
          1   -1    0    0  501    0  0.00000000000E+00  0.00000000000E+00  0.33580701162E+03  0.33580701162E+03  0.00000000000E+00 0. -1.
         -1   -1    0    0    0  501 -0.00000000000E+00 -0.00000000000E+00 -0.80031603946E+02  0.80031603946E+02  0.00000000000E+00 0.  1.
         25    2    1    2    0    0  0.73272606474E+02  0.57838882623E+02  0.36465110247E+02  0.16031697765E+03  0.12513040341E+03 0.  0.
          5    1    3    3  502    0  0.63274306301E+01  0.23199275269E+02 -0.43791924432E+02  0.50134297610E+02  0.41800000000E+01 0.  1.
         -5    1    3    3    0  502  0.66945175844E+02  0.34639607353E+02  0.80257034679E+02  0.11018268004E+03  0.41800000000E+01 0.  1.
        -11    1    1    2    0    0 -0.87279041182E+02 -0.32960166308E+02  0.20102078227E+03  0.22161533904E+03  0.00000000000E+00 0. -1.
         11    1    1    2    0    0  0.14006434708E+02 -0.24878716315E+02  0.18289515162E+02  0.33906298878E+02  0.00000000000E+00 0.  1.
</event>
<event>
 7    1  0.2644565E-009  0.7903926E+02  0.7561462E-02  0.1331800E+00
         -1   -1    0    0    0  501 -0.00000000000E+00  0.00000000000E+00  0.38230340012E+03  0.38230340012E+03  0.00000000000E+00 0.  1.
          1   -1    0    0  501    0  0.00000000000E+00 -0.00000000000E+00 -0.46576165269E+02  0.46576165269E+02  0.00000000000E+00 0. -1.
         25    2    1    2    0    0 -0.67107286539E+01  0.71968216630E+02  0.14248637235E+03  0.20291103826E+03  0.12508423185E+03 0.  0.
          5    1    3    3  502    0  0.18729338526E+02  0.42265605070E+02 -0.82345861321E+01  0.47142871172E+02  0.41800000000E+01 0. -1.
         -5    1    3    3    0  502 -0.25440067180E+02  0.29702611560E+02  0.15072095848E+03  0.15576816709E+03  0.41800000000E+01 0. -1.
        -11    1    1    2    0    0  0.66480388192E+01 -0.61004622735E+02  0.20251502808E+03  0.21160835762E+03  0.00000000000E+00 0.  1.
         11    1    1    2    0    0  0.62689834752E-01 -0.10963593895E+02 -0.92741655836E+01  0.14360169511E+02  0.00000000000E+00 0. -1.
</event>
<event>
 7    1  0.2644565E-009  0.1361665E+03  0.7561462E-02  0.1218582E+00
          1   -1    0    0  501    0  0.00000000000E+00  0.00000000000E+00  0.54360578691E+03  0.54360578691E+03  0.00000000000E+00 0. -1.
         -1   -1    0    0    0  501 -0.00000000000E+00 -0.00000000000E+00 -0.45376374626E+02  0.45376374626E+02  0.00000000000E+00 0.  1.
         25    2    1    2    0    0  0.11023609014E+03  0.30729216819E+02  0.27174931382E+03  0.32029929060E+03  0.12509062979E+03 0.  0.
          5    1    3    3  502    0  0.10861348157E+03  0.34065334138E+01  0.27165273615E+03  0.29261096067E+03  0.41800000000E+01 0.  1.
         -5    1    3    3    0  502  0.16226085680E+01  0.27322683405E+02  0.96577676046E-01  0.27688329929E+02  0.41800000000E+01 0.  1.
        -11    1    1    2    0    0 -0.35920154853E+02  0.24350164087E+02  0.12015624881E+03  0.12775254261E+03  0.00000000000E+00 0.  1.
         11    1    1    2    0    0 -0.74315935283E+02 -0.55079380905E+02  0.10632384966E+03  0.14093032833E+03  0.00000000000E+00 0. -1.
</event>
<event>
 7    1  0.2644565E-009  0.1297414E+03  0.7561462E-02  0.1227840E+00
         -1   -1    0    0    0  501 -0.00000000000E+00  0.00000000000E+00  0.87145586456E+02  0.87145586456E+02  0.00000000000E+00 0.  1.
          1   -1    0    0  501    0  0.00000000000E+00 -0.00000000000E+00 -0.21928295099E+03  0.21928295099E+03  0.00000000000E+00 0. -1.
         25    2    1    2    0    0 -0.64423455200E+02 -0.49423943860E+02 -0.43516682181E+02  0.15534877570E+03  0.12508570133E+03 0.  0.
          5    1    3    3  502    0  0.32620285394E+02 -0.18956691381E+02 -0.37519346463E+02  0.53372398544E+02  0.41800000000E+01 0.  1.
         -5    1    3    3    0  502 -0.97043740594E+02 -0.30467252479E+02 -0.59973357176E+01  0.10197637716E+03  0.41800000000E+01 0.  1.
        -11    1    1    2    0    0  0.46171869038E+02  0.75138008040E+02 -0.50567727121E+02  0.10165951391E+03  0.00000000000E+00 0.  1.
         11    1    1    2    0    0  0.18251586162E+02 -0.25714064180E+02 -0.38052955235E+02  0.49420247836E+02  0.00000000000E+00 0. -1.
</event>
<event>
 7    1  0.2644565E-009  0.7600077E+02  0.7561462E-02  0.1340800E+00
          2   -1    0    0  501    0  0.00000000000E+00  0.00000000000E+00  0.42195016780E+03  0.42195016780E+03  0.00000000000E+00 0.  1.
         -2   -1    0    0    0  501 -0.00000000000E+00 -0.00000000000E+00 -0.33021629149E+02  0.33021629149E+02  0.00000000000E+00 0. -1.
         25    2    1    2    0    0 -0.37015693510E+02  0.23370389867E+02  0.25023561605E+03  0.28316462058E+03  0.12509197465E+03 0.  0.
          5    1    3    3  502    0 -0.67387266088E+02 -0.32329542279E+01  0.65862124771E+02  0.94375778159E+02  0.41800000000E+01 0.  1.
         -5    1    3    3    0  502  0.30371572577E+02  0.26603344095E+02  0.18437349128E+03  0.18878884242E+03  0.41800000000E+01 0.  1.
        -11    1    1    2    0    0  0.15224511360E+02 -0.10709734269E+02 -0.99062989288E+01  0.21085988540E+02  0.00000000000E+00 0. -1.
         11    1    1    2    0    0  0.21791182151E+02 -0.12660655598E+02  0.14859922153E+03  0.15072118782E+03  0.00000000000E+00 0.  1.
</event>
<event>
 7    1  0.2644565E-009  0.9782831E+02  0.7561462E-02  0.1284930E+00
          2   -1    0    0  501    0  0.00000000000E+00  0.00000000000E+00  0.23100644652E+04  0.23100644652E+04  0.00000000000E+00 0. -1.
         -2   -1    0    0    0  501 -0.00000000000E+00 -0.00000000000E+00 -0.10746173437E+02  0.10746173437E+02  0.00000000000E+00 0.  1.
         25    2    1    2    0    0 -0.70213555184E+02  0.35676201719E+02  0.18515579357E+04  0.18574490128E+04  0.12508921313E+03 0.  0.
          5    1    3    3  502    0 -0.40342850876E+02  0.25193367435E+02  0.20140626294E+03  0.20698842125E+03  0.41800000000E+01 0.  1.
         -5    1    3    3    0  502 -0.29870704308E+02  0.10482834284E+02  0.16501516727E+04  0.16504605915E+04  0.41800000000E+01 0.  1.
        -11    1    1    2    0    0  0.75435816832E+02  0.43996216523E+01  0.33939740485E+03  0.34770751725E+03  0.00000000000E+00 0.  1.
         11    1    1    2    0    0 -0.52222616474E+01 -0.40075823371E+02  0.10836295124E+03  0.11565410860E+03  0.00000000000E+00 0. -1.
</event>
<event>
 7    1  0.2644565E-009  0.1619780E+03  0.7561462E-02  0.1186482E+00
         -1   -1    0    0    0  501 -0.00000000000E+00  0.00000000000E+00  0.28328655262E+02  0.28328655262E+02  0.00000000000E+00 0.  1.
          1   -1    0    0  501    0  0.00000000000E+00 -0.00000000000E+00 -0.11968478074E+04  0.11968478074E+04  0.00000000000E+00 0. -1.
         25    2    1    2    0    0  0.66446993551E+02  0.12626564191E+03 -0.48202719521E+03  0.51802634683E+03  0.12507143482E+03 0.  0.
          5    1    3    3  502    0 -0.54917563949E+01  0.53634544232E+02 -0.33235936515E+03  0.33672992699E+03  0.41800000000E+01 0.  1.
         -5    1    3    3    0  502  0.71938749946E+02  0.72631097679E+02 -0.14966783006E+03  0.18129641985E+03  0.41800000000E+01 0.  1.
        -11    1    1    2    0    0  0.20360540115E+02 -0.41557865378E+02 -0.24325147453E+03  0.24761439302E+03  0.00000000000E+00 0. -1.
         11    1    1    2    0    0 -0.86807533666E+02 -0.84707776533E+02 -0.44324048239E+03  0.45953572280E+03  0.00000000000E+00 0.  1.
</event>
<event>
 7    1  0.2644565E-009  0.8579269E+02  0.7561462E-02  0.1313372E+00
          1   -1    0    0  501    0  0.00000000000E+00  0.00000000000E+00  0.19192417921E+03  0.19192417921E+03  0.00000000000E+00 0. -1.
         -1   -1    0    0    0  501 -0.00000000000E+00 -0.00000000000E+00 -0.83229069337E+02  0.83229069337E+02  0.00000000000E+00 0.  1.
         25    2    1    2    0    0  0.41963286154E+02 -0.34119207138E+02  0.22181982708E+02  0.13806976464E+03  0.12508469879E+03 0.  0.
          5    1    3    3  502    0 -0.10967117965E+02  0.85695414975E+01 -0.42017031903E+02  0.44459173270E+02  0.41800000000E+01 0. -1.
         -5    1    3    3    0  502  0.52930404119E+02 -0.42688748636E+02  0.64199014611E+02  0.93610591373E+02  0.41800000000E+01 0. -1.
        -11    1    1    2    0    0 -0.35040470001E+01  0.47932502969E+02  0.83201551001E+02  0.96084864964E+02  0.00000000000E+00 0. -1.
         11    1    1    2    0    0 -0.38459239154E+02 -0.13813295830E+02  0.33115761622E+01  0.40998618936E+02  0.00000000000E+00 0.  1.
</event>
<event>
 7    1  0.2644565E-009  0.1282686E+03  0.7561462E-02  0.1230048E+00
          2   -1    0    0  501    0  0.00000000000E+00  0.00000000000E+00  0.11429818522E+03  0.11429818522E+03  0.00000000000E+00 0. -1.
         -2   -1    0    0    0  501 -0.00000000000E+00 -0.00000000000E+00 -0.18792579494E+03  0.18792579494E+03  0.00000000000E+00 0.  1.
         25    2    1    2    0    0  0.75817707080E+02  0.64105668009E+02 -0.58538569270E+02  0.17009036418E+03  0.12508439757E+03 0.  0.
          5    1    3    3  502    0  0.71811143683E+02 -0.18352312720E+02 -0.11914291417E+02  0.75186903641E+02  0.41800000000E+01 0.  1.
         -5    1    3    3    0  502  0.40065633973E+01  0.82457980729E+02 -0.46624277853E+02  0.94903460535E+02  0.41800000000E+01 0.  1.
        -11    1    1    2    0    0 -0.54646139310E+02 -0.41120015670E+02 -0.50419411168E+02  0.84965718103E+02  0.00000000000E+00 0.  1.
         11    1    1    2    0    0 -0.21171567770E+02 -0.22985652340E+02  0.35330370722E+02  0.47167897883E+02  0.00000000000E+00 0. -1.
</event>
<event>
 7    1  0.2644565E-009  0.1666921E+03  0.7561462E-02  0.1181342E+00
         -3   -1    0    0    0  501 -0.00000000000E+00  0.00000000000E+00  0.10034909435E+04  0.10034909435E+04  0.00000000000E+00 0.  1.
          3   -1    0    0  501    0  0.00000000000E+00 -0.00000000000E+00 -0.35800908738E+02  0.35800908738E+02  0.00000000000E+00 0. -1.
         25    2    1    2    0    0 -0.14992327066E+03 -0.36471307338E+02  0.49464415600E+03  0.53303675320E+03  0.12509274900E+03 0.  0.
          5    1    3    3  502    0 -0.80391992318E+02  0.25111871767E+02  0.35774877751E+03  0.36755290605E+03  0.41800000000E+01 0.  1.
         -5    1    3    3    0  502 -0.69531278346E+02 -0.61583179105E+02  0.13689537849E+03  0.16548384715E+03  0.41800000000E+01 0.  1.
        -11    1    1    2    0    0  0.10236997596E+03  0.36032753915E+02  0.18640434146E+03  0.21569550262E+03  0.00000000000E+00 0. -1.
         11    1    1    2    0    0  0.47553294700E+02  0.43855342314E+00  0.28664153735E+03  0.29055959647E+03  0.00000000000E+00 0.  1.
</event>
<event>
 7    1  0.2644565E-009  0.9752285E+02  0.7561462E-02  0.1285593E+00
          1   -1    0    0  501    0  0.00000000000E+00  0.00000000000E+00  0.69388283667E+02  0.69388283667E+02  0.00000000000E+00 0. -1.
         -1   -1    0    0    0  501 -0.00000000000E+00 -0.00000000000E+00 -0.32958788936E+03  0.32958788936E+03  0.00000000000E+00 0.  1.
         25    2    1    2    0    0  0.70156822974E+02 -0.48460599231E+02 -0.57887758561E+02  0.16207658727E+03  0.12508964011E+03 0.  0.
          5    1    3    3  502    0  0.56153622357E+02 -0.35048498177E+02  0.29409970795E+02  0.72553740845E+02  0.41800000000E+01 0.  1.
         -5    1    3    3    0  502  0.14003200617E+02 -0.13412101054E+02 -0.87297729356E+02  0.89522846430E+02  0.41800000000E+01 0.  1.
        -11    1    1    2    0    0 -0.10023285619E+02  0.47704595584E+02 -0.14816162905E+03  0.15597455888E+03  0.00000000000E+00 0.  1.
         11    1    1    2    0    0 -0.60133537355E+02  0.75600364730E+00 -0.54150218079E+02  0.80925026873E+02  0.00000000000E+00 0. -1.
</event>
<event>
 7    1  0.2644565E-009  0.1926322E+03  0.7561462E-02  0.1156108E+00
         -2   -1    0    0    0  501 -0.00000000000E+00  0.00000000000E+00  0.83449307478E+02  0.83449307478E+02  0.00000000000E+00 0. -1.
          2   -1    0    0  501    0  0.00000000000E+00 -0.00000000000E+00 -0.45087443810E+03  0.45087443810E+03  0.00000000000E+00 0.  1.
         25    2    1    2    0    0 -0.15545262158E+03  0.38256206297E+02 -0.16383426868E+03  0.26097193190E+03  0.12504249985E+03 0.  0.
          5    1    3    3  502    0 -0.17576821843E+03  0.44299193558E+02 -0.15000909166E+03  0.23532336293E+03  0.41800000000E+01 0.  1.
         -5    1    3    3    0  502  0.20315596851E+02 -0.60429872613E+01 -0.13825177028E+02  0.25648568972E+02  0.41800000000E+01 0.  1.
        -11    1    1    2    0    0  0.56010374995E+02 -0.58365219679E+02 -0.93751203738E+02  0.12382628629E+03  0.00000000000E+00 0. -1.
         11    1    1    2    0    0  0.99442246586E+02  0.20109013382E+02 -0.10983965820E+03  0.14952552738E+03  0.00000000000E+00 0.  1.
</event>
<event>
 7    1  0.2644565E-009  0.1513608E+03  0.7561462E-02  0.1198811E+00
          1   -1    0    0  501    0  0.00000000000E+00  0.00000000000E+00  0.17241451049E+03  0.17241451049E+03  0.00000000000E+00 0. -1.
         -1   -1    0    0    0  501 -0.00000000000E+00 -0.00000000000E+00 -0.16683651971E+03  0.16683651971E+03  0.00000000000E+00 0.  1.
         25    2    1    2    0    0 -0.87714844802E+02  0.76400592876E+02  0.55517630956E+02  0.17961428175E+03  0.12509251885E+03 0.  0.
          5    1    3    3  502    0 -0.10051676652E+03  0.32944934499E+02  0.75397037993E+02  0.12996605249E+03  0.41800000000E+01 0. -1.
         -5    1    3    3    0  502  0.12801921720E+02  0.43455658378E+02 -0.19879407037E+02  0.49648229262E+02  0.41800000000E+01 0. -1.
        -11    1    1    2    0    0  0.46313623903E+02 -0.95222181784E+02 -0.39168719787E+02  0.11289997463E+03  0.00000000000E+00 0.  1.
         11    1    1    2    0    0  0.41401220898E+02  0.18821588908E+02 -0.10770920389E+02  0.46736773818E+02  0.00000000000E+00 0. -1.
</event>
<event>
 7    1  0.2644565E-009  0.7117563E+02  0.7561462E-02  0.1356140E+00
          2   -1    0    0  501    0  0.00000000000E+00  0.00000000000E+00  0.47979995490E+02  0.47979995490E+02  0.00000000000E+00 0.  1.
         -2   -1    0    0    0  501 -0.00000000000E+00 -0.00000000000E+00 -0.26782439361E+03  0.26782439361E+03  0.00000000000E+00 0. -1.
         25    2    1    2    0    0  0.16798045703E+02  0.18023086982E+02 -0.10133706177E+03  0.16286295465E+03  0.12509250938E+03 0.  0.
          5    1    3    3  502    0 -0.21092726610E+02  0.15974709005E+02  0.21425314722E+02  0.34301763141E+02  0.41800000000E+01 0. -1.
         -5    1    3    3    0  502  0.37890772313E+02  0.20483779764E+01 -0.12276237650E+03  0.12856119151E+03  0.41800000000E+01 0. -1.
        -11    1    1    2    0    0  0.28377031691E+02 -0.15036056979E+02 -0.98207481194E+02  0.10332496455E+03  0.00000000000E+00 0. -1.
         11    1    1    2    0    0 -0.45175077394E+02 -0.29870300030E+01 -0.20299855147E+02  0.49616469895E+02  0.00000000000E+00 0.  1.
</event>
<event>
 7    1  0.2644565E-009  0.3205763E+03  0.7561462E-02  0.1075384E+00
          1   -1    0    0  501    0  0.00000000000E+00  0.00000000000E+00  0.78861077099E+03  0.78861077099E+03  0.00000000000E+00 0. -1.
         -1   -1    0    0    0  501 -0.00000000000E+00 -0.00000000000E+00 -0.13968600003E+03  0.13968600003E+03  0.00000000000E+00 0.  1.
         25    2    1    2    0    0  0.12285496610E+03 -0.28397237973E+03  0.26713419193E+03  0.42748212717E+03  0.12508651968E+03 0.  0.
          5    1    3    3  502    0  0.76572162185E+02 -0.27159812790E+03  0.24808635237E+03  0.37575676938E+03  0.41800000000E+01 0. -1.
         -5    1    3    3    0  502  0.46282803919E+02 -0.12374251828E+02  0.19047839563E+02  0.51725357794E+02  0.41800000000E+01 0. -1.
        -11    1    1    2    0    0 -0.15404083423E+02  0.66693446435E+02  0.15248168640E+03  0.16714055843E+03  0.00000000000E+00 0. -1.
         11    1    1    2    0    0 -0.10745088268E+03  0.21727893329E+03  0.22930889263E+03  0.33367408542E+03  0.00000000000E+00 0.  1.
</event>
<event>
 7    1  0.2644565E-009  0.1461854E+03  0.7561462E-02  0.1205240E+00
          1   -1    0    0  501    0  0.00000000000E+00  0.00000000000E+00  0.33305846075E+03  0.33305846075E+03  0.00000000000E+00 0. -1.
         -1   -1    0    0    0  501 -0.00000000000E+00 -0.00000000000E+00 -0.90052313628E+02  0.90052313628E+02  0.00000000000E+00 0.  1.
         25    2    1    2    0    0  0.78035387350E+02  0.89068930086E+02  0.49971639379E+02  0.17935142207E+03  0.12508785661E+03 0.  0.
          5    1    3    3  502    0  0.67270686841E+01 -0.30522364805E+02  0.52981144617E+00  0.31537617325E+02  0.41800000000E+01 0.  1.
         -5    1    3    3    0  502  0.71308318666E+02  0.11959129489E+03  0.49441827932E+02  0.14781380475E+03  0.41800000000E+01 0.  1.
        -11    1    1    2    0    0 -0.69601044248E+02 -0.62088687849E+02  0.67631846437E+02  0.11521014353E+03  0.00000000000E+00 0.  1.
         11    1    1    2    0    0 -0.84343431014E+01 -0.26980242237E+02  0.12540266131E+03  0.12854920878E+03  0.00000000000E+00 0. -1.
</event>
<event>
 7    1  0.2644565E-009  0.1843911E+03  0.7561462E-02  0.1163620E+00
         -1   -1    0    0    0  501 -0.00000000000E+00  0.00000000000E+00  0.52501809236E+03  0.52501809236E+03  0.00000000000E+00 0.  1.
          1   -1    0    0  501    0  0.00000000000E+00 -0.00000000000E+00 -0.90225907906E+02  0.90225907906E+02  0.00000000000E+00 0. -1.
         25    2    1    2    0    0  0.14304124919E+03  0.61417230932E+02  0.37483878354E+03  0.42471604553E+03  0.12508689164E+03 0.  0.
          5    1    3    3  502    0  0.92625779642E+02 -0.18953201197E+02  0.12046220046E+03  0.15319064276E+03  0.41800000000E+01 0.  1.
         -5    1    3    3    0  502  0.50415469548E+02  0.80370432129E+02  0.25437658307E+03  0.27152540277E+03  0.41800000000E+01 0.  1.
        -11    1    1    2    0    0 -0.71486913449E+02 -0.77921374941E+02  0.47994650864E+02  0.11612754186E+03  0.00000000000E+00 0.  1.
         11    1    1    2    0    0 -0.71554335741E+02  0.16504144009E+02  0.11958750048E+02  0.74400412872E+02  0.00000000000E+00 0. -1.
</event>
<event>
 7    1  0.2644565E-009  0.6800435E+02  0.7561462E-02  0.1367014E+00
          2   -1    0    0  501    0  0.00000000000E+00  0.00000000000E+00  0.20470707427E+03  0.20470707427E+03  0.00000000000E+00 0. -1.
         -2   -1    0    0    0  501 -0.00000000000E+00 -0.00000000000E+00 -0.61550508506E+02  0.61550508506E+02  0.00000000000E+00 0.  1.
         25    2    1    2    0    0 -0.11508982519E+02 -0.13643097098E+02  0.54565425963E+02  0.13763872313E+03  0.12509373133E+03 0.  0.
          5    1    3    3  502    0  0.22956835509E+02  0.31103552877E+02 -0.20220985623E+02  0.43827023145E+02  0.41800000000E+01 0. -1.
         -5    1    3    3    0  502 -0.34465818028E+02 -0.44746649975E+02  0.74786411586E+02  0.93811699986E+02  0.41800000000E+01 0. -1.
        -11    1    1    2    0    0 -0.62458515783E+01 -0.94698958342E+01 -0.16241042175E+02  0.19810629469E+02  0.00000000000E+00 0.  1.
         11    1    1    2    0    0  0.17754834097E+02  0.23112992932E+02  0.10483218197E+03  0.10880823017E+03  0.00000000000E+00 0. -1.
</event>
<event>
 7    1  0.2644565E-009  0.1142323E+03  0.7561462E-02  0.1252927E+00
         -2   -1    0    0    0  501 -0.00000000000E+00  0.00000000000E+00  0.55441569301E+02  0.55441569301E+02  0.00000000000E+00 0.  1.
          2   -1    0    0  501    0  0.00000000000E+00 -0.00000000000E+00 -0.34076998371E+03  0.34076998371E+03  0.00000000000E+00 0. -1.
         25    2    1    2    0    0 -0.47001705880E+02 -0.41264197538E+02 -0.78686247209E+02  0.16046961370E+03  0.12508827710E+03 0.  0.
          5    1    3    3  502    0 -0.11782672432E+02 -0.82337896933E+02 -0.61561751757E+02  0.10356487011E+03  0.41800000000E+01 0. -1.
         -5    1    3    3    0  502 -0.35219033449E+02  0.41073699395E+02 -0.17124495452E+02  0.56904743594E+02  0.41800000000E+01 0. -1.
        -11    1    1    2    0    0  0.21476715905E+02 -0.16944844456E+02 -0.14373537526E+03  0.14631553295E+03  0.00000000000E+00 0. -1.
         11    1    1    2    0    0  0.25524989975E+02  0.58209041995E+02 -0.62906791941E+02  0.89426406365E+02  0.00000000000E+00 0.  1.
</event>
<event>
 7    1  0.2743229E-009  0.1838318E+03  0.7561462E-02  0.1164145E+00
          2   -1    0    0  501    0  0.00000000000E+00  0.00000000000E+00  0.25484107361E+04  0.25484107361E+04  0.00000000000E+00 0. -1.
         -2   -1    0    0    0  501 -0.00000000000E+00 -0.00000000000E+00 -0.17085034027E+02  0.17085034027E+02  0.00000000000E+00 0.  1.
         25    2    1    2    0    0 -0.14598467774E+03 -0.78981747096E+02  0.17040612079E+04  0.17166893707E+04  0.12509257594E+03 0.  0.
          5    1    3    3  502    0 -0.14453664622E+03 -0.56317048292E+02  0.16571791542E+04  0.16644286327E+04  0.41800000000E+01 0.  1.
         -5    1    3    3    0  502 -0.14480315253E+01 -0.22664698804E+02  0.46882053726E+02  0.52260737928E+02  0.41800000000E+01 0.  1.
        -11    1    1    2    0    0  0.11255637484E+03  0.99449963161E+02  0.62664842538E+03  0.64439699078E+03  0.00000000000E+00 0. -1.
         11    1    1    2    0    0  0.33428302902E+02 -0.20468216064E+02  0.20061606881E+03  0.20440940871E+03  0.00000000000E+00 0.  1.
</event>
<event>
 7    1  0.2644565E-009  0.1839757E+03  0.7561462E-02  0.1164010E+00
         -2   -1    0    0    0  501 -0.00000000000E+00  0.00000000000E+00  0.13880193731E+03  0.13880193731E+03  0.00000000000E+00 0.  1.
          2   -1    0    0  501    0  0.00000000000E+00 -0.00000000000E+00 -0.27219503786E+03  0.27219503786E+03  0.00000000000E+00 0. -1.
         25    2    1    2    0    0 -0.19615629379E+02 -0.15700407852E+03 -0.98485021898E+02  0.22445876821E+03  0.12508950996E+03 0.  0.
          5    1    3    3  502    0  0.32897621237E+02 -0.10739416441E+03 -0.10231970455E+03  0.15199524456E+03  0.41800000000E+01 0. -1.
         -5    1    3    3    0  502 -0.52513250615E+02 -0.49609914114E+02  0.38346826483E+01  0.72463523649E+02  0.41800000000E+01 0. -1.
        -11    1    1    2    0    0 -0.13931703017E+02  0.14773090866E+03 -0.29997364346E+02  0.15138809593E+03  0.00000000000E+00 0. -1.
         11    1    1    2    0    0  0.33547332396E+02  0.92731698589E+01 -0.49107143082E+01  0.35150111026E+02  0.00000000000E+00 0.  1.
</event>
<event>
 7    1  0.2644565E-009  0.9640492E+02  0.7561462E-02  0.1288043E+00
          1   -1    0    0  501    0  0.00000000000E+00  0.00000000000E+00  0.43560296867E+03  0.43560296867E+03  0.00000000000E+00 0. -1.
         -1   -1    0    0    0  501 -0.00000000000E+00 -0.00000000000E+00 -0.28159078477E+02  0.28159078477E+02  0.00000000000E+00 0.  1.
         25    2    1    2    0    0  0.66216900956E-01  0.10763847056E+01  0.17983828462E+03  0.21906734082E+03  0.12509008039E+03 0.  0.
          5    1    3    3  502    0  0.29148152559E+01  0.62868070712E+02  0.92750283391E+02  0.11216495858E+03  0.41800000000E+01 0. -1.
         -5    1    3    3    0  502 -0.28485983549E+01 -0.61791686007E+02  0.87088001225E+02  0.10690238224E+03  0.41800000000E+01 0. -1.
        -11    1    1    2    0    0 -0.26365292025E+02  0.20757469477E+02  0.32837543394E+02  0.46950031084E+02  0.00000000000E+00 0.  1.
         11    1    1    2    0    0  0.26299075124E+02 -0.21833854182E+02  0.19476806218E+03  0.19774467524E+03  0.00000000000E+00 0. -1.
</event>
<event>
 7    1  0.2644565E-009  0.8405759E+02  0.7561462E-02  0.1317916E+00
          4   -1    0    0  501    0  0.00000000000E+00  0.00000000000E+00  0.16169983353E+03  0.16169983353E+03  0.00000000000E+00 0. -1.
         -4   -1    0    0    0  501 -0.00000000000E+00 -0.00000000000E+00 -0.11686963429E+03  0.11686963429E+03  0.00000000000E+00 0.  1.
         25    2    1    2    0    0 -0.16443578251E+02  0.18064516359E+01  0.10764864899E+03  0.16590295733E+03  0.12514753329E+03 0.  0.
          5    1    3    3  502    0 -0.22498871430E+02  0.34407087797E+02 -0.10898271624E+02  0.42735133446E+02  0.41800000000E+01 0.  1.
         -5    1    3    3    0  502  0.60552931791E+01 -0.32600636161E+02  0.11854692061E+03  0.12316782388E+03  0.41800000000E+01 0.  1.
        -11    1    1    2    0    0  0.34786899325E+02  0.36793942453E+02 -0.30815032532E+02  0.59274689336E+02  0.00000000000E+00 0.  1.
         11    1    1    2    0    0 -0.18343321075E+02 -0.38600394089E+02 -0.32003417220E+02  0.53391821149E+02  0.00000000000E+00 0. -1.
</event>
<event>
 7    1  0.2644565E-009  0.6568140E+02  0.7561462E-02  0.1375427E+00
          2   -1    0    0  501    0  0.00000000000E+00  0.00000000000E+00  0.52979679683E+02  0.52979679683E+02  0.00000000000E+00 0. -1.
         -2   -1    0    0    0  501 -0.00000000000E+00 -0.00000000000E+00 -0.23929056415E+03  0.23929056415E+03  0.00000000000E+00 0.  1.
         25    2    1    2    0    0 -0.10022534697E+02 -0.30943298903E+02 -0.10253190073E+03  0.16497892049E+03  0.12508922652E+03 0.  0.
          5    1    3    3  502    0  0.37132072698E+02 -0.60706378780E+01  0.11051457079E+02  0.39436665309E+02  0.41800000000E+01 0. -1.
         -5    1    3    3    0  502 -0.47154607395E+02 -0.24872661025E+02 -0.11358335781E+03  0.12554225518E+03  0.41800000000E+01 0. -1.
        -11    1    1    2    0    0  0.10492334911E+02  0.15183657728E+01  0.18248434857E+02  0.21104499550E+02  0.00000000000E+00 0. -1.
         11    1    1    2    0    0 -0.46980021438E+00  0.29424933130E+02 -0.10202741859E+03  0.10618682379E+03  0.00000000000E+00 0.  1.
</event>
<event>
 7    1  0.3008394E-009  0.1046499E+03  0.7561462E-02  0.1270811E+00
         -2   -1    0    0    0  501 -0.00000000000E+00  0.00000000000E+00  0.42362963698E+02  0.42362963698E+02  0.00000000000E+00 0.  1.
          2   -1    0    0  501    0  0.00000000000E+00 -0.00000000000E+00 -0.49048762605E+03  0.49048762605E+03  0.00000000000E+00 0. -1.
         25    2    1    2    0    0 -0.66325974265E+01 -0.26302972253E+02 -0.76057794866E+02  0.14888657138E+03  0.12508631132E+03 0.  0.
          5    1    3    3  502    0  0.27633935480E+02  0.37192353301E+02 -0.58072746226E+02  0.74409823198E+02  0.41800000000E+01 0. -1.
         -5    1    3    3    0  502 -0.34266532906E+02 -0.63495325555E+02 -0.17985048641E+02  0.74476748179E+02  0.41800000000E+01 0. -1.
        -11    1    1    2    0    0 -0.28154313284E+02  0.43408406633E+02 -0.26716353954E+03  0.27212738190E+03  0.00000000000E+00 0. -1.
         11    1    1    2    0    0  0.34786910710E+02 -0.17105434380E+02 -0.10490332795E+03  0.11183663647E+03  0.00000000000E+00 0.  1.
</event>
<event>
 7    1  0.2644565E-009  0.3066154E+03  0.7561462E-02  0.1081980E+00
          1   -1    0    0  501    0  0.00000000000E+00  0.00000000000E+00  0.53085018612E+03  0.53085018612E+03  0.00000000000E+00 0. -1.
         -1   -1    0    0    0  501 -0.00000000000E+00 -0.00000000000E+00 -0.18718886297E+03  0.18718886297E+03  0.00000000000E+00 0.  1.
         25    2    1    2    0    0  0.30329266193E+02  0.28276531714E+03  0.23629287477E+03  0.39032898380E+03  0.12508518683E+03 0.  0.
          5    1    3    3  502    0  0.68262472377E+02  0.11980812553E+03  0.71218350911E+02  0.15525230428E+03  0.41800000000E+01 0.  1.
         -5    1    3    3    0  502 -0.37933206184E+02  0.16295719162E+03  0.16507452385E+03  0.23507667953E+03  0.41800000000E+01 0.  1.
        -11    1    1    2    0    0 -0.73774803131E+00 -0.27792507842E+03  0.86131855132E+02  0.29096664750E+03  0.00000000000E+00 0.  1.
         11    1    1    2    0    0 -0.29591518162E+02 -0.48402387174E+01  0.21236593254E+02  0.36743417792E+02  0.00000000000E+00 0. -1.
</event>
<event>
 7    1  0.2644565E-009  0.1419356E+03  0.7561462E-02  0.1210748E+00
          1   -1    0    0  501    0  0.00000000000E+00  0.00000000000E+00  0.26606281282E+03  0.26606281282E+03  0.00000000000E+00 0. -1.
         -1   -1    0    0    0  501 -0.00000000000E+00 -0.00000000000E+00 -0.12732932377E+03  0.12732932377E+03  0.00000000000E+00 0.  1.
         25    2    1    2    0    0  0.11194541105E+03 -0.51297666262E+02 -0.15185275077E+02  0.17618455206E+03  0.12508868128E+03 0.  0.
          5    1    3    3  502    0  0.55692080386E+02  0.17306795535E+02 -0.53689905932E+02  0.79380169995E+02  0.41800000000E+01 0. -1.
         -5    1    3    3    0  502  0.56253330663E+02 -0.68604461797E+02  0.38504630855E+02  0.96804382062E+02  0.41800000000E+01 0. -1.
        -11    1    1    2    0    0 -0.10218358148E+03  0.20423584628E+02  0.65585026231E+02  0.12312596314E+03  0.00000000000E+00 0.  1.
         11    1    1    2    0    0 -0.97618295729E+01  0.30874081634E+02  0.88333737901E+02  0.94081621398E+02  0.00000000000E+00 0. -1.
</event>
<event>
 7    1  0.2644565E-009  0.1014257E+03  0.7561462E-02  0.1277326E+00
          1   -1    0    0  501    0  0.00000000000E+00  0.00000000000E+00  0.51779743718E+02  0.51779743718E+02  0.00000000000E+00 0. -1.
         -1   -1    0    0    0  501 -0.00000000000E+00 -0.00000000000E+00 -0.33363044765E+03  0.33363044765E+03  0.00000000000E+00 0.  1.
         25    2    1    2    0    0  0.57938938713E+02 -0.36436524133E+02 -0.10920791888E+03  0.17960707483E+03  0.12509113027E+03 0.  0.
          5    1    3    3  502    0 -0.21640333733E+02 -0.40326122754E+02 -0.84321984042E+02  0.96032128026E+02  0.41800000000E+01 0.  1.
         -5    1    3    3    0  502  0.79579272446E+02  0.38895986218E+01 -0.24885934843E+02  0.83574946805E+02  0.41800000000E+01 0.  1.
        -11    1    1    2    0    0 -0.54387176705E+02  0.16462644811E+02 -0.17626232406E+03  0.18519554678E+03  0.00000000000E+00 0.  1.
         11    1    1    2    0    0 -0.35517620079E+01  0.19973879321E+02  0.36195390155E+01  0.20607569754E+02  0.00000000000E+00 0. -1.
</event>
<event>
 7    1  0.3311645E-009  0.2301585E+03  0.7561462E-02  0.1126528E+00
         -1   -1    0    0    0  501 -0.00000000000E+00  0.00000000000E+00  0.16210780934E+03  0.16210780934E+03  0.00000000000E+00 0.  1.
          1   -1    0    0  501    0  0.00000000000E+00 -0.00000000000E+00 -0.41909843615E+03  0.41909843615E+03  0.00000000000E+00 0. -1.
         25    2    1    2    0    0  0.13138185258E+03 -0.16603969916E+03 -0.25029612212E+03  0.35089415108E+03  0.12509270013E+03 0.  0.
          5    1    3    3  502    0  0.11156993088E+03 -0.48056601365E+02 -0.92060496617E+02  0.15247915874E+03  0.41800000000E+01 0. -1.
         -5    1    3    3    0  502  0.19811921701E+02 -0.11798309780E+03 -0.15823562550E+03  0.19841499234E+03  0.41800000000E+01 0. -1.
        -11    1    1    2    0    0 -0.77097104942E+02  0.52697590808E+02  0.32164361069E+02  0.98770166499E+02  0.00000000000E+00 0.  1.
         11    1    1    2    0    0 -0.54284747641E+02  0.11334210835E+03 -0.38858865753E+02  0.13154192792E+03  0.00000000000E+00 0. -1.
</event>
<event>
 7    1  0.4109951E-009  0.5897156E+02  0.7561462E-02  0.1402199E+00
          2   -1    0    0  501    0  0.00000000000E+00  0.00000000000E+00  0.47555104486E+03  0.47555104486E+03  0.00000000000E+00 0. -1.
         -2   -1    0    0    0  501 -0.00000000000E+00 -0.00000000000E+00 -0.33099091573E+02  0.33099091573E+02  0.00000000000E+00 0.  1.
         25    2    1    2    0    0 -0.19234578894E+02  0.41429648029E+02  0.33692027433E+03  0.36228361639E+03  0.12509101760E+03 0.  0.
          5    1    3    3  502    0  0.35206074008E+01  0.89117557626E-01  0.30524876870E+03  0.30529770030E+03  0.41800000000E+01 0. -1.
         -5    1    3    3    0  502 -0.22755186295E+02  0.41340530471E+02  0.31671505638E+02  0.56985916087E+02  0.41800000000E+01 0. -1.
        -11    1    1    2    0    0 -0.94660356072E+01 -0.34227965001E+02  0.11076342113E+03  0.11631721660E+03  0.00000000000E+00 0. -1.
         11    1    1    2    0    0  0.28700614501E+02 -0.72016830274E+01 -0.52317421753E+01  0.30049303442E+02  0.00000000000E+00 0.  1.
</event>
<event>
 7    1  0.2644565E-009  0.3496139E+03  0.7561462E-02  0.1062774E+00
          2   -1    0    0  501    0  0.00000000000E+00  0.00000000000E+00  0.24921267526E+04  0.24921267526E+04  0.00000000000E+00 0. -1.
         -2   -1    0    0    0  501 -0.00000000000E+00 -0.00000000000E+00 -0.50721117512E+02  0.50721117512E+02  0.00000000000E+00 0.  1.
         25    2    1    2    0    0  0.13289747750E+03  0.30874675783E+03  0.12948141131E+04  0.13435692953E+04  0.12509421965E+03 0.  0.
          5    1    3    3  502    0  0.12197806345E+03  0.16935606533E+03  0.61347136237E+03  0.64801597950E+03  0.41800000000E+01 0.  1.
         -5    1    3    3    0  502  0.10919414044E+02  0.13939069249E+03  0.68134275069E+03  0.69555331577E+03  0.41800000000E+01 0.  1.
        -11    1    1    2    0    0 -0.70476059667E+02 -0.55321112898E+02  0.25572244692E+03  0.27096359604E+03  0.00000000000E+00 0.  1.
         11    1    1    2    0    0 -0.62421417831E+02 -0.25342564493E+03  0.89086907512E+03  0.92831497883E+03  0.00000000000E+00 0. -1.
</event>
<event>
 7    1  0.2644565E-009  0.1203919E+03  0.7561462E-02  0.1242452E+00
         -1   -1    0    0    0  501 -0.00000000000E+00  0.00000000000E+00  0.91261476607E+02  0.91261476607E+02  0.00000000000E+00 0. -1.
          1   -1    0    0  501    0  0.00000000000E+00 -0.00000000000E+00 -0.17823071922E+03  0.17823071922E+03  0.00000000000E+00 0.  1.
         25    2    1    2    0    0  0.49992986380E+02 -0.39488135212E+02 -0.76951201178E+02  0.16008697219E+03  0.12509092610E+03 0.  0.
          5    1    3    3  502    0 -0.28315836976E+02 -0.53252944329E+02 -0.38437126076E+02  0.71641801794E+02  0.41800000000E+01 0.  1.
         -5    1    3    3    0  502  0.78308823355E+02  0.13764809116E+02 -0.38514075102E+02  0.88445170395E+02  0.41800000000E+01 0.  1.
        -11    1    1    2    0    0  0.12286343447E+02  0.36325841485E+02 -0.24343118680E+02  0.45421453322E+02  0.00000000000E+00 0.  1.
         11    1    1    2    0    0 -0.62279329826E+02  0.31622937277E+01  0.14325077248E+02  0.63983770312E+02  0.00000000000E+00 0. -1.
</event>
<event>
 7    1  0.2644565E-009  0.1303318E+03  0.7561462E-02  0.1226964E+00
         -1   -1    0    0    0  501 -0.00000000000E+00  0.00000000000E+00  0.18378936923E+03  0.18378936923E+03  0.00000000000E+00 0.  1.
          1   -1    0    0  501    0  0.00000000000E+00 -0.00000000000E+00 -0.12954273505E+03  0.12954273505E+03  0.00000000000E+00 0. -1.
         25    2    1    2    0    0 -0.64980082088E+02 -0.32076664934E+02  0.11258111599E+03  0.18323066460E+03  0.12509054829E+03 0.  0.
          5    1    3    3  502    0 -0.63023671600E+02  0.38380093441E+02  0.59944393709E+02  0.95162059097E+02  0.41800000000E+01 0. -1.
         -5    1    3    3    0  502 -0.19564104879E+01 -0.70456758375E+02  0.52636722285E+02  0.88068605505E+02  0.41800000000E+01 0. -1.
        -11    1    1    2    0    0  0.86811289221E+02  0.14272836818E+02 -0.41381508828E+02  0.97223161232E+02  0.00000000000E+00 0.  1.
         11    1    1    2    0    0 -0.21831207133E+02  0.17803828116E+02 -0.16952972980E+02  0.32878278442E+02  0.00000000000E+00 0. -1.
</event>
<event>
 7    1  0.2644565E-009  0.1010904E+03  0.7561462E-02  0.1278020E+00
          1   -1    0    0  501    0  0.00000000000E+00  0.00000000000E+00  0.11343319581E+04  0.11343319581E+04  0.00000000000E+00 0. -1.
         -1   -1    0    0    0  501 -0.00000000000E+00 -0.00000000000E+00 -0.16085843834E+02  0.16085843834E+02  0.00000000000E+00 0.  1.
         25    2    1    2    0    0 -0.60765571903E+02 -0.43074447609E+02  0.76073363131E+03  0.77453949690E+03  0.12509161317E+03 0.  0.
          5    1    3    3  502    0 -0.50257727031E+02 -0.55581184672E+02  0.75164901080E+03  0.75538653353E+03  0.41800000000E+01 0.  1.
         -5    1    3    3    0  502 -0.10507844873E+02  0.12506737063E+02  0.90846205193E+01  0.19152963369E+02  0.41800000000E+01 0.  1.
        -11    1    1    2    0    0  0.29272296453E+02 -0.22898386050E+02  0.70429170244E+02  0.79633356356E+02  0.00000000000E+00 0.  1.
         11    1    1    2    0    0  0.31493275450E+02  0.65972833659E+02  0.28708331267E+03  0.29624494864E+03  0.00000000000E+00 0. -1.
</event>
<event>
 7    1  0.2644565E-009  0.1151816E+03  0.7561462E-02  0.1251265E+00
          1   -1    0    0  501    0  0.00000000000E+00  0.00000000000E+00  0.11645489773E+03  0.11645489773E+03  0.00000000000E+00 0. -1.
         -1   -1    0    0    0  501 -0.00000000000E+00 -0.00000000000E+00 -0.16228032346E+03  0.16228032346E+03  0.00000000000E+00 0.  1.
         25    2    1    2    0    0 -0.49580322428E+02 -0.64109209408E+02 -0.51996943057E+00  0.14905051550E+03  0.12509031417E+03 0.  0.
          5    1    3    3  502    0 -0.26988266880E+01 -0.67082588590E+02 -0.47605274570E+02  0.82408081669E+02  0.41800000000E+01 0. -1.
         -5    1    3    3    0  502 -0.46881495740E+02  0.29733791829E+01  0.47085305139E+02  0.66642433829E+02  0.41800000000E+01 0. -1.
        -11    1    1    2    0    0  0.43634567490E+02 -0.73324190865E+01  0.11478547088E+01  0.44261240608E+02  0.00000000000E+00 0.  1.
         11    1    1    2    0    0  0.59457549375E+01  0.71441628494E+02 -0.46453311003E+02  0.85423465083E+02  0.00000000000E+00 0. -1.
</event>
<event>
 7    1  0.2644565E-009  0.1216531E+03  0.7561462E-02  0.1240395E+00
         -2   -1    0    0    0  501 -0.00000000000E+00  0.00000000000E+00  0.34100925652E+02  0.34100925652E+02  0.00000000000E+00 0.  1.
          2   -1    0    0  501    0  0.00000000000E+00 -0.00000000000E+00 -0.50163329745E+03  0.50163329745E+03  0.00000000000E+00 0. -1.
         25    2    1    2    0    0  0.72726405640E+02  0.11342370246E+02 -0.24885813581E+03  0.28808870756E+03  0.12508777808E+03 0.  0.
          5    1    3    3  502    0  0.86056844332E+02  0.49227093473E+02 -0.13696622459E+03  0.16913398910E+03  0.41800000000E+01 0. -1.
         -5    1    3    3    0  502 -0.13330438692E+02 -0.37884723227E+02 -0.11189191121E+03  0.11895471846E+03  0.41800000000E+01 0. -1.
        -11    1    1    2    0    0  0.89188128371E+01 -0.19701089135E+02 -0.10834278915E+02  0.24188008085E+02  0.00000000000E+00 0.  1.
         11    1    1    2    0    0 -0.81645218477E+02  0.83587188890E+01 -0.20783995707E+03  0.22345750745E+03  0.00000000000E+00 0. -1.
</event>
<event>
 7    1  0.2644565E-009  0.1954737E+03  0.7561462E-02  0.1153615E+00
         -2   -1    0    0    0  501 -0.00000000000E+00  0.00000000000E+00  0.49920509933E+02  0.49920509933E+02  0.00000000000E+00 0. -1.
          2   -1    0    0  501    0  0.00000000000E+00 -0.00000000000E+00 -0.89252000357E+03  0.89252000357E+03  0.00000000000E+00 0.  1.
         25    2    1    2    0    0  0.22591957622E+02 -0.17822003921E+03 -0.38075359630E+03  0.43919613125E+03  0.12508861534E+03 0.  0.
          5    1    3    3  502    0  0.42586111339E+02 -0.13784040011E+02 -0.13914059357E+03  0.14622295927E+03  0.41800000000E+01 0. -1.
         -5    1    3    3    0  502 -0.19994153716E+02 -0.16443599920E+03 -0.24161300272E+03  0.29297317198E+03  0.41800000000E+01 0. -1.
        -11    1    1    2    0    0 -0.65531185875E+00  0.62904548747E+02 -0.27868666991E+03  0.28569856785E+03  0.00000000000E+00 0.  1.
         11    1    1    2    0    0 -0.21936645764E+02  0.11531549047E+03 -0.18315922743E+03  0.21754581440E+03  0.00000000000E+00 0. -1.
</event>
<event>
 7    1  0.2644565E-009  0.1119836E+03  0.7561462E-02  0.1256940E+00
         -2   -1    0    0    0  501 -0.00000000000E+00  0.00000000000E+00  0.23393941365E+03  0.23393941365E+03  0.00000000000E+00 0. -1.
          2   -1    0    0  501    0  0.00000000000E+00 -0.00000000000E+00 -0.18565134006E+03  0.18565134006E+03  0.00000000000E+00 0.  1.
         25    2    1    2    0    0  0.57793765397E+02  0.31194346932E+02 -0.14078540048E+03  0.19945350921E+03  0.12509183326E+03 0.  0.
          5    1    3    3  502    0  0.94063616058E+02  0.14561362565E+01 -0.91982128038E+02  0.13163688114E+03  0.41800000000E+01 0.  1.
         -5    1    3    3    0  502 -0.36269850662E+02  0.29738210675E+02 -0.48803272444E+02  0.67816628067E+02  0.41800000000E+01 0.  1.
        -11    1    1    2    0    0 -0.43801082768E+02 -0.45180331667E+02  0.19018208977E+03  0.20032230153E+03  0.00000000000E+00 0. -1.
         11    1    1    2    0    0 -0.13992682629E+02  0.13985984735E+02 -0.11086156955E+01  0.19814942970E+02  0.00000000000E+00 0.  1.
</event>
<event>
 7    1  0.2644565E-009  0.3022427E+03  0.7561462E-02  0.1084125E+00
          2   -1    0    0  501    0  0.00000000000E+00  0.00000000000E+00  0.95414348358E+03  0.95414348358E+03  0.00000000000E+00 0. -1.
         -2   -1    0    0    0  501 -0.00000000000E+00 -0.00000000000E+00 -0.99781665311E+02  0.99781665311E+02  0.00000000000E+00 0.  1.
         25    2    1    2    0    0 -0.13715608251E+03 -0.24854529749E+03  0.52227564366E+03  0.60745926531E+03  0.12509338580E+03 0.  0.
          5    1    3    3  502    0  0.15803426105E+02 -0.24069302628E+01  0.11318329702E+02  0.20027944907E+02  0.41800000000E+01 0.  1.
         -5    1    3    3    0  502 -0.15295950862E+03 -0.24613836723E+03  0.51095731396E+03  0.58743132040E+03  0.41800000000E+01 0.  1.
        -11    1    1    2    0    0  0.14204809011E+03  0.17943608034E+03  0.24664752561E+03  0.33646689097E+03  0.00000000000E+00 0.  1.
         11    1    1    2    0    0 -0.48920075937E+01  0.69109217146E+02  0.85438649004E+02  0.10999899262E+03  0.00000000000E+00 0. -1.
</event>
<event>
 7    1  0.2644565E-009  0.7573940E+02  0.7561462E-02  0.1341597E+00
          1   -1    0    0  501    0  0.00000000000E+00  0.00000000000E+00  0.42910905619E+02  0.42910905619E+02  0.00000000000E+00 0. -1.
         -1   -1    0    0    0  501 -0.00000000000E+00 -0.00000000000E+00 -0.29198238605E+03  0.29198238605E+03  0.00000000000E+00 0.  1.
         25    2    1    2    0    0  0.21682111916E+02  0.14374620000E+02 -0.14968762806E+03  0.19679350986E+03  0.12507819894E+03 0.  0.
          5    1    3    3  502    0  0.83547489598E+00 -0.27453592961E+02 -0.14720745069E+03  0.14980622057E+03  0.41800000000E+01 0.  1.
         -5    1    3    3    0  502  0.20846637020E+02  0.41828212961E+02 -0.24801773786E+01  0.46987289285E+02  0.41800000000E+01 0.  1.
        -11    1    1    2    0    0  0.16554773895E+02 -0.30950128383E+02 -0.88234031339E+02  0.94959018908E+02  0.00000000000E+00 0.  1.
         11    1    1    2    0    0 -0.38236885811E+02  0.16575508383E+02 -0.11149821024E+02  0.43140762900E+02  0.00000000000E+00 0. -1.
</event>
<event>
 7    1  0.2644565E-009  0.9617201E+02  0.7561462E-02  0.1288558E+00
          2   -1    0    0  501    0  0.00000000000E+00  0.00000000000E+00  0.33951873703E+03  0.33951873703E+03  0.00000000000E+00 0. -1.
         -2   -1    0    0    0  501 -0.00000000000E+00 -0.00000000000E+00 -0.52676674571E+02  0.52676674571E+02  0.00000000000E+00 0.  1.
         25    2    1    2    0    0  0.54292830303E+02 -0.35070669144E+02  0.88256593821E+02  0.16615997768E+03  0.12506897526E+03 0.  0.
          5    1    3    3  502    0 -0.10279044640E+02 -0.54457079596E+02  0.80985599824E+02  0.98221036727E+02  0.41800000000E+01 0. -1.
         -5    1    3    3    0  502  0.64571874944E+02  0.19386410452E+02  0.72709939969E+01  0.67938940952E+02  0.41800000000E+01 0. -1.
        -11    1    1    2    0    0 -0.19733113001E+02  0.27487569621E+02  0.11658598788E+02  0.35789455963E+02  0.00000000000E+00 0.  1.
         11    1    1    2    0    0 -0.34559717302E+02  0.75830995233E+01  0.18692686985E+03  0.19024597796E+03  0.00000000000E+00 0. -1.
</event>
<event>
 7    1  0.2644565E-009  0.1271607E+03  0.7561462E-02  0.1231731E+00
          2   -1    0    0  501    0  0.00000000000E+00  0.00000000000E+00  0.29410198026E+04  0.29410198026E+04  0.00000000000E+00 0. -1.
         -2   -1    0    0    0  501 -0.00000000000E+00 -0.00000000000E+00 -0.97476579236E+01  0.97476579236E+01  0.00000000000E+00 0.  1.
         25    2    1    2    0    0  0.74165961389E+02  0.50280914720E+02  0.23736863178E+04  0.23786710275E+04  0.12514136649E+03 0.  0.
          5    1    3    3  502    0 -0.74858268328E+01 -0.21003659289E+02  0.10640896655E+03  0.10880042219E+03  0.41800000000E+01 0.  1.
         -5    1    3    3    0  502  0.81651788222E+02  0.71284574009E+02  0.22672773512E+04  0.22698706053E+04  0.41800000000E+01 0.  1.
        -11    1    1    2    0    0  0.19113774917E+02 -0.73326238433E+01  0.46673521341E+02  0.50965884260E+02  0.00000000000E+00 0. -1.
         11    1    1    2    0    0 -0.93279736306E+02 -0.42948290877E+02  0.51091230559E+03  0.52113054881E+03  0.00000000000E+00 0.  1.
</event>
<event>
 7    1  0.2644565E-009  0.1686816E+03  0.7561462E-02  0.1179230E+00
          1   -1    0    0  501    0  0.00000000000E+00  0.00000000000E+00  0.89745337613E+02  0.89745337613E+02  0.00000000000E+00 0. -1.
         -1   -1    0    0    0  501 -0.00000000000E+00 -0.00000000000E+00 -0.51928872585E+03  0.51928872585E+03  0.00000000000E+00 0.  1.
         25    2    1    2    0    0  0.51569995181E+02 -0.13666481279E+03 -0.38000919100E+03  0.42590003041E+03  0.12508842954E+03 0.  0.
          5    1    3    3  502    0  0.91036640803E+01 -0.14697494155E+03 -0.27245288398E+03  0.30972981215E+03  0.41800000000E+01 0. -1.
         -5    1    3    3    0  502  0.42466331101E+02  0.10310128764E+02 -0.10755630702E+03  0.11617021827E+03  0.41800000000E+01 0. -1.
        -11    1    1    2    0    0 -0.15603595126E+02  0.35427509675E+02 -0.63930443191E+02  0.74737421613E+02  0.00000000000E+00 0.  1.
         11    1    1    2    0    0 -0.35966400055E+02  0.10123730311E+03  0.14396245948E+02  0.10839661144E+03  0.00000000000E+00 0. -1.
</event>
<event>
 7    1  0.2644565E-009  0.1375771E+03  0.7561462E-02  0.1216627E+00
          1   -1    0    0  501    0  0.00000000000E+00  0.00000000000E+00  0.29138764505E+03  0.29138764505E+03  0.00000000000E+00 0. -1.
         -1   -1    0    0    0  501 -0.00000000000E+00 -0.00000000000E+00 -0.88672063519E+02  0.88672063519E+02  0.00000000000E+00 0.  1.
         25    2    1    2    0    0  0.61202235634E+02  0.95463111764E+02  0.69764707598E+02  0.18268215876E+03  0.12508691918E+03 0.  0.
          5    1    3    3  502    0  0.29168635122E+02 -0.17127655700E+02  0.54885863894E+02  0.64607246652E+02  0.41800000000E+01 0. -1.
         -5    1    3    3    0  502  0.32033600512E+02  0.11259076746E+03  0.14878843704E+02  0.11807491211E+03  0.41800000000E+01 0. -1.
        -11    1    1    2    0    0 -0.19251391522E+02  0.44442789899E+00  0.75603609589E+02  0.78017429941E+02  0.00000000000E+00 0. -1.
         11    1    1    2    0    0 -0.41950844112E+02 -0.95907539663E+02  0.57347264341E+02  0.11936011986E+03  0.00000000000E+00 0.  1.
</event>
<event>
 7    1  0.2644565E-009  0.6967538E+02  0.7561462E-02  0.1361200E+00
          1   -1    0    0  501    0  0.00000000000E+00  0.00000000000E+00  0.84170390079E+02  0.84170390079E+02  0.00000000000E+00 0. -1.
         -1   -1    0    0    0  501 -0.00000000000E+00 -0.00000000000E+00 -0.16819481813E+03  0.16819481813E+03  0.00000000000E+00 0.  1.
         25    2    1    2    0    0 -0.31936323242E+02 -0.82407133728E+01 -0.84945796153E+02  0.15476289292E+03  0.12509167296E+03 0.  0.
          5    1    3    3  502    0  0.26082067604E+01 -0.48835879796E+01 -0.11096686932E+03  0.11118349994E+03  0.41800000000E+01 0.  1.
         -5    1    3    3    0  502 -0.34544530002E+02 -0.33571253932E+01  0.26021073163E+02  0.43579392980E+02  0.41800000000E+01 0.  1.
        -11    1    1    2    0    0  0.21662836813E+02  0.49978801379E+02 -0.21027160956E+01  0.54512205065E+02  0.00000000000E+00 0.  1.
         11    1    1    2    0    0  0.10273486428E+02 -0.41738088006E+02  0.30240841951E+01  0.43090110223E+02  0.00000000000E+00 0. -1.
</event>
<event>
 7    1  0.3204415E-009  0.1080335E+03  0.7561462E-02  0.1264256E+00
          2   -1    0    0  501    0  0.00000000000E+00  0.00000000000E+00  0.58462480797E+03  0.58462480797E+03  0.00000000000E+00 0. -1.
         -2   -1    0    0    0  501 -0.00000000000E+00 -0.00000000000E+00 -0.25150385216E+02  0.25150385216E+02  0.00000000000E+00 0.  1.
         25    2    1    2    0    0  0.69747714065E+01  0.21899153953E+02  0.19148805708E+03  0.22987418555E+03  0.12508495033E+03 0.  0.
          5    1    3    3  502    0  0.17446084653E+02 -0.50421399582E+02  0.71264128733E+02  0.89122005417E+02  0.41800000000E+01 0.  1.
         -5    1    3    3    0  502 -0.10471313247E+02  0.72320553536E+02  0.12022392835E+03  0.14075218013E+03  0.41800000000E+01 0.  1.
        -11    1    1    2    0    0 -0.42996595266E+02  0.64993893531E+01  0.24082330662E+03  0.24471782583E+03  0.00000000000E+00 0. -1.
         11    1    1    2    0    0  0.36021823860E+02 -0.28398543306E+02  0.12716305905E+03  0.13518318181E+03  0.00000000000E+00 0.  1.
</event>
<event>
 7    1  0.2644565E-009  0.7814494E+02  0.7561462E-02  0.1334400E+00
          1   -1    0    0  501    0  0.00000000000E+00  0.00000000000E+00  0.54972150949E+03  0.54972150949E+03  0.00000000000E+00 0. -1.
         -1   -1    0    0    0  501 -0.00000000000E+00 -0.00000000000E+00 -0.29236018880E+02  0.29236018880E+02  0.00000000000E+00 0.  1.
         25    2    1    2    0    0 -0.27505425145E+02  0.64490442583E+01  0.42718013085E+03  0.44601473446E+03  0.12509252806E+03 0.  0.
          5    1    3    3  502    0  0.21240782357E+01 -0.21072897888E+02  0.53649155200E+01  0.22244852265E+02  0.41800000000E+01 0. -1.
         -5    1    3    3    0  502 -0.29629503381E+02  0.27521942146E+02  0.42181521533E+03  0.42376988220E+03  0.41800000000E+01 0. -1.
        -11    1    1    2    0    0  0.13154030328E+02 -0.48166097037E+02  0.41722457223E+02  0.65067387026E+02  0.00000000000E+00 0.  1.
         11    1    1    2    0    0  0.14351394817E+02  0.41717052779E+02  0.51582902531E+02  0.67875406881E+02  0.00000000000E+00 0. -1.
</event>
<event>
 7    1  0.2644565E-009  0.1272443E+03  0.7561462E-02  0.1231603E+00
          2   -1    0    0  501    0  0.00000000000E+00  0.00000000000E+00  0.78841835485E+03  0.78841835485E+03  0.00000000000E+00 0. -1.
         -2   -1    0    0    0  501 -0.00000000000E+00 -0.00000000000E+00 -0.21853341752E+02  0.21853341752E+02  0.00000000000E+00 0.  1.
         25    2    1    2    0    0  0.81198092121E+02 -0.16175669327E+02  0.44293912754E+03  0.46764959286E+03  0.12508512523E+03 0.  0.
          5    1    3    3  502    0  0.55541398063E+02  0.52342345676E+02  0.21165885934E+03  0.22503669298E+03  0.41800000000E+01 0.  1.
         -5    1    3    3    0  502  0.25656694058E+02 -0.68518015003E+02  0.23128026819E+03  0.24261289988E+03  0.41800000000E+01 0.  1.
        -11    1    1    2    0    0 -0.86767294191E+01 -0.21401437537E+02  0.30067526723E+02  0.37912574765E+02  0.00000000000E+00 0.  1.
         11    1    1    2    0    0 -0.72521362702E+02  0.37577106864E+02  0.29355835884E+03  0.30470952898E+03  0.00000000000E+00 0. -1.
</event>
<event>
 7    1  0.2644565E-009  0.6676713E+02  0.7561462E-02  0.1371445E+00
         -2   -1    0    0    0  501 -0.00000000000E+00  0.00000000000E+00  0.37258621684E+02  0.37258621684E+02  0.00000000000E+00 0.  1.
          2   -1    0    0  501    0  0.00000000000E+00 -0.00000000000E+00 -0.48574277748E+03  0.48574277748E+03  0.00000000000E+00 0. -1.
         25    2    1    2    0    0  0.27249517921E+02  0.43233243781E+02 -0.36358456922E+03  0.38788225058E+03  0.12508897532E+03 0.  0.
          5    1    3    3  502    0  0.27561956021E+02  0.30662379262E+02 -0.37058545580E+03  0.37289528741E+03  0.41800000000E+01 0.  1.
         -5    1    3    3    0  502 -0.31243810033E+00  0.12570864520E+02  0.70008865769E+01  0.14986963175E+02  0.41800000000E+01 0.  1.
        -11    1    1    2    0    0 -0.22846841923E+02  0.10347708455E+02 -0.76749127842E+02  0.80743308581E+02  0.00000000000E+00 0. -1.
         11    1    1    2    0    0 -0.44026759972E+01 -0.53580952236E+02 -0.81504587367E+01  0.54375840004E+02  0.00000000000E+00 0.  1.
</event>
<event>
 7    1  0.2644565E-009  0.8192671E+02  0.7561462E-02  0.1323671E+00
         -1   -1    0    0    0  501 -0.00000000000E+00  0.00000000000E+00  0.11827260102E+03  0.11827260102E+03  0.00000000000E+00 0.  1.
          1   -1    0    0  501    0  0.00000000000E+00 -0.00000000000E+00 -0.13324324451E+03  0.13324324451E+03  0.00000000000E+00 0. -1.
         25    2    1    2    0    0  0.69382104487E+01 -0.55382165403E+02 -0.35999374033E+02  0.14162986393E+03  0.12509092860E+03 0.  0.
          5    1    3    3  502    0 -0.16612287837E+02 -0.19940068767E+02  0.43808032113E+02  0.51090023754E+02  0.41800000000E+01 0.  1.
         -5    1    3    3    0  502  0.23550498285E+02 -0.35442096636E+02 -0.79807406146E+02  0.90539840177E+02  0.41800000000E+01 0.  1.
        -11    1    1    2    0    0  0.23663907112E+02  0.59402687440E+02 -0.11583912772E+02  0.64983434890E+02  0.00000000000E+00 0. -1.
         11    1    1    2    0    0 -0.30602117561E+02 -0.40205220372E+01  0.32612643320E+02  0.44902546710E+02  0.00000000000E+00 0.  1.
</event>
<event>
 7    1  0.2644565E-009  0.8375787E+02  0.7561462E-02  0.1318713E+00
          1   -1    0    0  501    0  0.00000000000E+00  0.00000000000E+00  0.31178176213E+02  0.31178176213E+02  0.00000000000E+00 0. -1.
         -1   -1    0    0    0  501 -0.00000000000E+00 -0.00000000000E+00 -0.54954583672E+03  0.54954583672E+03  0.00000000000E+00 0.  1.
         25    2    1    2    0    0  0.64755010299E+02  0.70502061403E+01 -0.21894427762E+03  0.26043671722E+03  0.12509104767E+03 0.  0.
          5    1    3    3  502    0 -0.14950373760E+02 -0.10738193266E+02 -0.15627558771E+03  0.15741141694E+03  0.41800000000E+01 0. -1.
         -5    1    3    3    0  502  0.79705384059E+02  0.17788399406E+02 -0.62668689913E+02  0.10302530028E+03  0.41800000000E+01 0. -1.
        -11    1    1    2    0    0 -0.12465235155E+02  0.46141899225E+01  0.26044433433E+01  0.13544591586E+02  0.00000000000E+00 0. -1.
         11    1    1    2    0    0 -0.52289775144E+02 -0.11664396063E+02 -0.30202782622E+03  0.30674270412E+03  0.00000000000E+00 0.  1.
</event>
<event>
 7    1  0.2644565E-009  0.1135871E+03  0.7561462E-02  0.1254068E+00
          2   -1    0    0  501    0  0.00000000000E+00  0.00000000000E+00  0.11920375963E+03  0.11920375963E+03  0.00000000000E+00 0. -1.
         -2   -1    0    0    0  501 -0.00000000000E+00 -0.00000000000E+00 -0.14119640407E+03  0.14119640407E+03  0.00000000000E+00 0.  1.
         25    2    1    2    0    0  0.70936342464E+02  0.13488944395E+02 -0.22511226946E+01  0.14445249414E+03  0.12509012434E+03 0.  0.
          5    1    3    3  502    0  0.47975804918E+02 -0.47804186902E+02 -0.28777028305E+02  0.73705548644E+02  0.41800000000E+01 0. -1.
         -5    1    3    3    0  502  0.22960537546E+02  0.61293131297E+02  0.26525905610E+02  0.70746945496E+02  0.41800000000E+01 0. -1.
        -11    1    1    2    0    0 -0.69996259681E+02  0.95762265287E+01 -0.43383027246E+02  0.82905171955E+02  0.00000000000E+00 0.  1.
         11    1    1    2    0    0 -0.94008278290E+00 -0.23065170924E+02  0.23641505506E+02  0.33042497605E+02  0.00000000000E+00 0. -1.
</event>
<event>
 7    1  0.2644565E-009  0.1522391E+03  0.7561462E-02  0.1197748E+00
          1   -1    0    0  501    0  0.00000000000E+00  0.00000000000E+00  0.42435265397E+02  0.42435265397E+02  0.00000000000E+00 0. -1.
         -1   -1    0    0    0  501 -0.00000000000E+00 -0.00000000000E+00 -0.81872382034E+03  0.81872382034E+03  0.00000000000E+00 0.  1.
         25    2    1    2    0    0 -0.13672611327E+03  0.27727418308E+02 -0.27530637129E+03  0.33302270469E+03  0.12509070303E+03 0.  0.
          5    1    3    3  502    0 -0.85269983501E+02 -0.16512277097E+02 -0.24233180478E+03  0.25746029090E+03  0.41800000000E+01 0. -1.
         -5    1    3    3    0  502 -0.51456129771E+02  0.44239695405E+02 -0.32974566509E+02  0.75562413785E+02  0.41800000000E+01 0. -1.
        -11    1    1    2    0    0  0.63565734712E+02  0.14311994209E+02 -0.10746727049E+03  0.12567676807E+03  0.00000000000E+00 0. -1.
         11    1    1    2    0    0  0.73160378560E+02 -0.42039412518E+02 -0.39351491317E+03  0.40245961298E+03  0.00000000000E+00 0.  1.
</event>
<event>
 7    1  0.2644565E-009  0.1794415E+03  0.7561462E-02  0.1168345E+00
          2   -1    0    0  501    0  0.00000000000E+00  0.00000000000E+00  0.65059370412E+03  0.65059370412E+03  0.00000000000E+00 0. -1.
         -2   -1    0    0    0  501 -0.00000000000E+00 -0.00000000000E+00 -0.93422349174E+02  0.93422349174E+02  0.00000000000E+00 0.  1.
         25    2    1    2    0    0  0.11182420805E+03  0.11318419229E+03  0.54723593413E+02  0.20965978048E+03  0.12508891630E+03 0.  0.
          5    1    3    3  502    0  0.93878099281E+02  0.38157599214E+02 -0.18638305237E+02  0.10312108768E+03  0.41800000000E+01 0. -1.
         -5    1    3    3    0  502  0.17946108771E+02  0.75026593079E+02  0.73361898650E+02  0.10653869280E+03  0.41800000000E+01 0. -1.
        -11    1    1    2    0    0 -0.69770516996E+02 -0.12220934636E+02  0.23392395650E+03  0.24441295733E+03  0.00000000000E+00 0.  1.
         11    1    1    2    0    0 -0.42053691055E+02 -0.10096325766E+03  0.26852380503E+03  0.28994331549E+03  0.00000000000E+00 0. -1.
</event>
<event>
 7    1  0.2644565E-009  0.1809997E+03  0.7561462E-02  0.1166839E+00
          1   -1    0    0  501    0  0.00000000000E+00  0.00000000000E+00  0.16400930290E+03  0.16400930290E+03  0.00000000000E+00 0. -1.
         -1   -1    0    0    0  501 -0.00000000000E+00 -0.00000000000E+00 -0.25267418646E+03  0.25267418646E+03  0.00000000000E+00 0.  1.
         25    2    1    2    0    0 -0.15201018538E+03  0.56687819355E+02 -0.10450571284E+03  0.22997593600E+03  0.12508749659E+03 0.  0.
          5    1    3    3  502    0 -0.17011099986E+03  0.49477457145E+02 -0.70819033798E+02  0.19083652425E+03  0.41800000000E+01 0. -1.
         -5    1    3    3    0  502  0.18100814479E+02  0.72103622105E+01 -0.33686679038E+02  0.39139411756E+02  0.41800000000E+01 0. -1.
        -11    1    1    2    0    0  0.10393034683E+03 -0.52939806915E+02 -0.29720001566E+02  0.12036369321E+03  0.00000000000E+00 0.  1.
         11    1    1    2    0    0  0.48079838547E+02 -0.37480124401E+01  0.45560830840E+02  0.66343860144E+02  0.00000000000E+00 0. -1.
</event>
<event>
 7    1  0.2644565E-009  0.7968653E+02  0.7561462E-02  0.1329943E+00
         -2   -1    0    0    0  501 -0.00000000000E+00  0.00000000000E+00  0.63555936396E+02  0.63555936396E+02  0.00000000000E+00 0.  1.
          2   -1    0    0  501    0  0.00000000000E+00 -0.00000000000E+00 -0.24959244634E+03  0.24959244634E+03  0.00000000000E+00 0. -1.
         25    2    1    2    0    0 -0.24619789594E+02  0.55405282138E+02 -0.77239505070E+02  0.15902669338E+03  0.12509064208E+03 0.  0.
          5    1    3    3  502    0 -0.47768909827E+01  0.50475010141E+02 -0.10942215294E+03  0.12066990218E+03  0.41800000000E+01 0.  1.
         -5    1    3    3    0  502 -0.19842898611E+02  0.49302719974E+01  0.32182647873E+02  0.38356791203E+02  0.41800000000E+01 0.  1.
        -11    1    1    2    0    0  0.21655155780E+02  0.87874736268E+01 -0.80647683987E+02  0.83965554825E+02  0.00000000000E+00 0. -1.
         11    1    1    2    0    0  0.29646338140E+01 -0.64192755765E+02 -0.28149320888E+02  0.70156134535E+02  0.00000000000E+00 0.  1.
</event>
<event>
 7    1  0.2827575E-009  0.1125096E+03  0.7561462E-02  0.1255992E+00
         -2   -1    0    0    0  501 -0.00000000000E+00  0.00000000000E+00  0.15803944253E+02  0.15803944253E+02  0.00000000000E+00 0.  1.
          2   -1    0    0  501    0  0.00000000000E+00 -0.00000000000E+00 -0.13535494923E+04  0.13535494923E+04  0.00000000000E+00 0. -1.
         25    2    1    2    0    0 -0.15149341500E+02 -0.96862350379E+02 -0.73261375951E+03  0.74965474029E+03  0.12508993384E+03 0.  0.
          5    1    3    3  502    0  0.66308450412E+01 -0.31876524616E+02 -0.32539059881E+02  0.46220598714E+02  0.41800000000E+01 0. -1.
         -5    1    3    3    0  502 -0.21780186541E+02 -0.64985825763E+02 -0.70007469962E+03  0.70343414157E+03  0.41800000000E+01 0. -1.
        -11    1    1    2    0    0 -0.26604952590E+02  0.12495096501E+02 -0.63826463789E+02  0.70269256568E+02  0.00000000000E+00 0.  1.
         11    1    1    2    0    0  0.41754294090E+02  0.84367253878E+02 -0.54130532477E+03  0.54942943972E+03  0.00000000000E+00 0. -1.
</event>
<event>
 7    1  0.2644565E-009  0.2033996E+03  0.7561462E-02  0.1146902E+00
          2   -1    0    0  501    0  0.00000000000E+00  0.00000000000E+00  0.36648876816E+02  0.36648876816E+02  0.00000000000E+00 0. -1.
         -2   -1    0    0    0  501 -0.00000000000E+00 -0.00000000000E+00 -0.14247585127E+04  0.14247585127E+04  0.00000000000E+00 0.  1.
         25    2    1    2    0    0  0.18415704054E+03 -0.67374769197E+02 -0.58483879245E+03  0.62939413710E+03  0.12508953418E+03 0.  0.
          5    1    3    3  502    0  0.12503444370E+03 -0.40865573064E+02 -0.20201950924E+03  0.24110778023E+03  0.41800000000E+01 0. -1.
         -5    1    3    3    0  502  0.59122596838E+02 -0.26509196133E+02 -0.38281928321E+03  0.38828635688E+03  0.41800000000E+01 0. -1.
        -11    1    1    2    0    0 -0.62244968190E+02  0.62565041477E+02 -0.44115108885E+03  0.44989232453E+03  0.00000000000E+00 0. -1.
         11    1    1    2    0    0 -0.12191207235E+03  0.48097277201E+01 -0.36211975461E+03  0.38212092790E+03  0.00000000000E+00 0.  1.
</event>
<event>
 7    1  0.2644565E-009  0.1560221E+03  0.7561462E-02  0.1193262E+00
          1   -1    0    0  501    0  0.00000000000E+00  0.00000000000E+00  0.43594941346E+03  0.43594941346E+03  0.00000000000E+00 0. -1.
         -1   -1    0    0    0  501 -0.00000000000E+00 -0.00000000000E+00 -0.61658698044E+02  0.61658698044E+02  0.00000000000E+00 0.  1.
         25    2    1    2    0    0  0.92948697652E+02 -0.76248068072E+02  0.22266157476E+03  0.28226881074E+03  0.12507708169E+03 0.  0.
          5    1    3    3  502    0  0.11911013585E+03 -0.62950633521E+02  0.21107883674E+03  0.25044311618E+03  0.41800000000E+01 0.  1.
         -5    1    3    3    0  502 -0.26161438199E+02 -0.13297434550E+02  0.11582738020E+02  0.31825694561E+02  0.41800000000E+01 0.  1.
        -11    1    1    2    0    0 -0.25207711822E+02 -0.18409611912E+02  0.11723510649E+02  0.33343413862E+02  0.00000000000E+00 0.  1.
         11    1    1    2    0    0 -0.67740985830E+02  0.94657679984E+02  0.13990563001E+03  0.18199588690E+03  0.00000000000E+00 0. -1.
</event>
<event>
 7    1  0.2644565E-009  0.1390532E+03  0.7561462E-02  0.1214609E+00
         -1   -1    0    0    0  501 -0.00000000000E+00  0.00000000000E+00  0.11871738485E+02  0.11871738485E+02  0.00000000000E+00 0.  1.
          1   -1    0    0  501    0  0.00000000000E+00 -0.00000000000E+00 -0.17304454676E+04  0.17304454676E+04  0.00000000000E+00 0. -1.
         25    2    1    2    0    0  0.73169515677E+02  0.49001506272E+02 -0.11482134208E+04  0.11583593146E+04  0.12508923353E+03 0.  0.
          5    1    3    3  502    0  0.10844438710E+03  0.43312920747E+02 -0.89941773570E+03  0.90697625652E+03  0.41800000000E+01 0. -1.
         -5    1    3    3    0  502 -0.35274871426E+02  0.56885855257E+01 -0.24879568513E+03  0.25138305810E+03  0.41800000000E+01 0. -1.
        -11    1    1    2    0    0 -0.75652981046E+01 -0.58506850701E+02 -0.26800997888E+03  0.27442600841E+03  0.00000000000E+00 0.  1.
         11    1    1    2    0    0 -0.65604217572E+02  0.95053444291E+01 -0.30235032939E+03  0.30953188304E+03  0.00000000000E+00 0. -1.
</event>
<event>
 7    1  0.2644565E-009  0.1080405E+03  0.7561462E-02  0.1264242E+00
         -1   -1    0    0    0  501 -0.00000000000E+00  0.00000000000E+00  0.17832686684E+02  0.17832686684E+02  0.00000000000E+00 0.  1.
          1   -1    0    0  501    0  0.00000000000E+00 -0.00000000000E+00 -0.14293979743E+04  0.14293979743E+04  0.00000000000E+00 0. -1.
         25    2    1    2    0    0  0.14547547682E+02 -0.45108109452E+02 -0.12407752216E+04  0.12479654943E+04  0.12509337259E+03 0.  0.
          5    1    3    3  502    0 -0.53973447061E+02 -0.12860797403E+02 -0.64179314030E+03  0.64420062126E+03  0.41800000000E+01 0.  1.
         -5    1    3    3    0  502  0.68520994743E+02 -0.32247312049E+02 -0.59898208129E+03  0.60376487308E+03  0.41800000000E+01 0.  1.
        -11    1    1    2    0    0 -0.66223421608E+01  0.63877669353E+02 -0.16648416543E+03  0.17844099696E+03  0.00000000000E+00 0. -1.
         11    1    1    2    0    0 -0.79252055215E+01 -0.18769559900E+02 -0.43059005446E+01  0.20824169633E+02  0.00000000000E+00 0.  1.
</event>
<event>
 7    1  0.2644565E-009  0.1088854E+03  0.7561462E-02  0.1262648E+00
         -1   -1    0    0    0  501 -0.00000000000E+00  0.00000000000E+00  0.14206304215E+03  0.14206304215E+03  0.00000000000E+00 0.  1.
          1   -1    0    0  501    0  0.00000000000E+00 -0.00000000000E+00 -0.93584777767E+02  0.93584777767E+02  0.00000000000E+00 0. -1.
         25    2    1    2    0    0 -0.33887066517E+02  0.18181719047E+02  0.31042840135E+02  0.13449795656E+03  0.12508850551E+03 0.  0.
          5    1    3    3  502    0  0.43640860017E+02  0.23591643793E+02 -0.22758069711E+01  0.49837154987E+02  0.41800000000E+01 0. -1.
         -5    1    3    3    0  502 -0.77527926534E+02 -0.54099247462E+01  0.33318647106E+02  0.84660801575E+02  0.41800000000E+01 0. -1.
        -11    1    1    2    0    0  0.43639205547E+02  0.21956095358E+02  0.30783108904E+02  0.57741234642E+02  0.00000000000E+00 0.  1.
         11    1    1    2    0    0 -0.97521390300E+01 -0.40137814405E+02 -0.13347684657E+02  0.43408628711E+02  0.00000000000E+00 0. -1.
</event>
<event>
 7    1  0.2644565E-009  0.1162482E+03  0.7561462E-02  0.1249418E+00
         -2   -1    0    0    0  501 -0.00000000000E+00  0.00000000000E+00  0.25588938297E+02  0.25588938297E+02  0.00000000000E+00 0. -1.
          2   -1    0    0  501    0  0.00000000000E+00 -0.00000000000E+00 -0.60915362812E+03  0.60915362812E+03  0.00000000000E+00 0.  1.
         25    2    1    2    0    0  0.32106276063E+02  0.53269773430E+02 -0.36207710856E+03  0.38808329702E+03  0.12506130962E+03 0.  0.
          5    1    3    3  502    0  0.39021100112E+02 -0.27055150209E+02 -0.67429929245E+02  0.82576601800E+02  0.41800000000E+01 0. -1.
         -5    1    3    3    0  502 -0.69148240499E+01  0.80324923639E+02 -0.29464717931E+03  0.30550669522E+03  0.41800000000E+01 0. -1.
        -11    1    1    2    0    0 -0.60093687242E+02 -0.44479734726E+02 -0.12342859528E+03  0.14430632758E+03  0.00000000000E+00 0.  1.
         11    1    1    2    0    0  0.27987411179E+02 -0.87900387031E+01 -0.98058985988E+02  0.10235294181E+03  0.00000000000E+00 0. -1.
</event>
<event>
 7    1  0.2644565E-009  0.9461981E+02  0.7561462E-02  0.1292035E+00
          2   -1    0    0  501    0  0.00000000000E+00  0.00000000000E+00  0.51393611794E+03  0.51393611794E+03  0.00000000000E+00 0.  1.
         -2   -1    0    0    0  501 -0.00000000000E+00 -0.00000000000E+00 -0.29342423244E+02  0.29342423244E+02  0.00000000000E+00 0. -1.
         25    2    1    2    0    0 -0.46114885807E+02 -0.28074840890E+02  0.32906610314E+03  0.35615482878E+03  0.12508789888E+03 0.  0.
          5    1    3    3  502    0  0.17607685140E+02 -0.14139477039E+02  0.26018940888E+03  0.26120098828E+03  0.41800000000E+01 0. -1.
         -5    1    3    3    0  502 -0.63722570947E+02 -0.13935363851E+02  0.68876694261E+02  0.94953840502E+02  0.41800000000E+01 0. -1.
        -11    1    1    2    0    0 -0.24921152815E+02  0.11620195985E+01  0.20909231939E+02  0.32551653221E+02  0.00000000000E+00 0. -1.
         11    1    1    2    0    0  0.71036038622E+02  0.26912821291E+02  0.13461835962E+03  0.15457205918E+03  0.00000000000E+00 0.  1.
</event>
<event>
 7    1  0.2644565E-009  0.1059053E+03  0.7561462E-02  0.1268346E+00
          1   -1    0    0  501    0  0.00000000000E+00  0.00000000000E+00  0.39195736696E+03  0.39195736696E+03  0.00000000000E+00 0. -1.
         -1   -1    0    0    0  501 -0.00000000000E+00 -0.00000000000E+00 -0.45092100670E+02  0.45092100670E+02  0.00000000000E+00 0.  1.
         25    2    1    2    0    0 -0.74042154555E+02  0.11947434684E+02  0.18892871003E+03  0.23867285798E+03  0.12508274787E+03 0.  0.
          5    1    3    3  502    0 -0.73945983163E+02 -0.32204821276E+02  0.17408183487E+03  0.19190392537E+03  0.41800000000E+01 0. -1.
         -5    1    3    3    0  502 -0.96171391921E-01  0.44152255960E+02  0.14846875152E+02  0.46768932605E+02  0.41800000000E+01 0. -1.
        -11    1    1    2    0    0  0.36972460050E+02  0.15987618022E+02  0.75407548444E+01  0.40980845719E+02  0.00000000000E+00 0.  1.
         11    1    1    2    0    0  0.37069694505E+02 -0.27935052706E+02  0.15039580142E+03  0.15739576394E+03  0.00000000000E+00 0. -1.
</event>
<event>
 7    1  0.2644565E-009  0.1464934E+03  0.7561462E-02  0.1204849E+00
          2   -1    0    0  501    0  0.00000000000E+00  0.00000000000E+00  0.39125685205E+03  0.39125685205E+03  0.00000000000E+00 0.  1.
         -2   -1    0    0    0  501 -0.00000000000E+00 -0.00000000000E+00 -0.80832816521E+02  0.80832816521E+02  0.00000000000E+00 0. -1.
         25    2    1    2    0    0  0.13840565762E+03 -0.20627671325E+02  0.18561962837E+03  0.26396493355E+03  0.12506483449E+03 0.  0.
          5    1    3    3  502    0  0.77441017038E+02  0.18801272650E+02  0.18803316057E+02  0.81985584512E+02  0.41800000000E+01 0. -1.
         -5    1    3    3    0  502  0.60964640579E+02 -0.39428943975E+02  0.16681631231E+03  0.18197934904E+03  0.41800000000E+01 0. -1.
        -11    1    1    2    0    0 -0.11366838266E+03  0.21615767267E+02  0.13798582888E+03  0.18007729335E+03  0.00000000000E+00 0.  1.
         11    1    1    2    0    0 -0.24737274955E+02 -0.98809594197E+00 -0.13181421710E+02  0.28047441668E+02  0.00000000000E+00 0. -1.
</event>
<event>
 7    1  0.2644565E-009  0.1183797E+03  0.7561462E-02  0.1245794E+00
         -1   -1    0    0    0  501 -0.00000000000E+00  0.00000000000E+00  0.15041199139E+02  0.15041199139E+02  0.00000000000E+00 0.  1.
          1   -1    0    0  501    0  0.00000000000E+00 -0.00000000000E+00 -0.10558531063E+04  0.10558531063E+04  0.00000000000E+00 0. -1.
         25    2    1    2    0    0 -0.54820999384E+02  0.91287861454E+01 -0.71005802932E+03  0.72313294485E+03  0.12510065636E+03 0.  0.
          5    1    3    3  502    0 -0.91656832910E+02  0.11525882285E+02 -0.38457159702E+03  0.39553331923E+03  0.41800000000E+01 0. -1.
         -5    1    3    3    0  502  0.36835833527E+02 -0.23970961395E+01 -0.32548643229E+03  0.32759962562E+03  0.41800000000E+01 0. -1.
        -11    1    1    2    0    0 -0.11102666453E+02 -0.34695585834E+02 -0.12478598654E+03  0.12999459726E+03  0.00000000000E+00 0. -1.
         11    1    1    2    0    0  0.65923665837E+02  0.25566799689E+02 -0.20596789129E+03  0.21776676332E+03  0.00000000000E+00 0.  1.
</event>
<event>
 7    1  0.2644565E-009  0.1503762E+03  0.7561462E-02  0.1200012E+00
         -1   -1    0    0    0  501 -0.00000000000E+00  0.00000000000E+00  0.85212245226E+02  0.85212245226E+02  0.00000000000E+00 0.  1.
          1   -1    0    0  501    0  0.00000000000E+00 -0.00000000000E+00 -0.47888035034E+03  0.47888035034E+03  0.00000000000E+00 0. -1.
         25    2    1    2    0    0 -0.12751064262E+03 -0.19780891109E+02 -0.52033135656E+02  0.18710468638E+03  0.12510183383E+03 0.  0.
          5    1    3    3  502    0 -0.14671038553E+03 -0.29176356530E+02 -0.23919727062E+02  0.15154148853E+03  0.41800000000E+01 0.  1.
         -5    1    3    3    0  502  0.19199742917E+02  0.93954654207E+01 -0.28113408594E+02  0.35563197850E+02  0.41800000000E+01 0.  1.
        -11    1    1    2    0    0  0.70478496885E+02  0.65398593475E+01 -0.71607142206E+02  0.10068550590E+03  0.00000000000E+00 0.  1.
         11    1    1    2    0    0  0.57032145732E+02  0.13241031761E+02 -0.27002782725E+03  0.27630240328E+03  0.00000000000E+00 0. -1.
</event>
<event>
 7    1  0.2644565E-009  0.8895748E+02  0.7561462E-02  0.1305396E+00
         -2   -1    0    0    0  501 -0.00000000000E+00  0.00000000000E+00  0.95079699594E+02  0.95079699594E+02  0.00000000000E+00 0.  1.
          2   -1    0    0  501    0  0.00000000000E+00 -0.00000000000E+00 -0.14412791094E+03  0.14412791094E+03  0.00000000000E+00 0. -1.
         25    2    1    2    0    0 -0.16742073678E+02 -0.40472356229E+02  0.48372367005E+01  0.13262924064E+03  0.12509519561E+03 0.  0.
          5    1    3    3  502    0  0.53700425484E+02 -0.24999971686E+02  0.99334521054E+01  0.60206977604E+02  0.41800000000E+01 0. -1.
         -5    1    3    3    0  502 -0.70442499162E+02 -0.15472384543E+02 -0.50962154049E+01  0.72422263035E+02  0.41800000000E+01 0. -1.
        -11    1    1    2    0    0  0.17990831800E+02  0.25178179997E+02 -0.74620586563E+02  0.80782688219E+02  0.00000000000E+00 0. -1.
         11    1    1    2    0    0 -0.12487581216E+01  0.15294176232E+02  0.20735138520E+02  0.25795681672E+02  0.00000000000E+00 0.  1.
</event>
<event>
 7    1  0.2644565E-009  0.1336430E+03  0.7561462E-02  0.1222148E+00
          2   -1    0    0  501    0  0.00000000000E+00  0.00000000000E+00  0.49939646485E+03  0.49939646485E+03  0.00000000000E+00 0.  1.
         -2   -1    0    0    0  501 -0.00000000000E+00 -0.00000000000E+00 -0.47159930609E+02  0.47159930609E+02  0.00000000000E+00 0. -1.
         25    2    1    2    0    0  0.95410183944E+02  0.28806384548E+02  0.18797535752E+03  0.24680930626E+03  0.12508871904E+03 0.  0.
          5    1    3    3  502    0 -0.13418027058E+02 -0.17984372748E+01  0.10639696759E+03  0.10733622380E+03  0.41800000000E+01 0.  1.
         -5    1    3    3    0  502  0.10882821100E+03  0.30604821822E+02  0.81578389934E+02  0.13947308247E+03  0.41800000000E+01 0.  1.
        -11    1    1    2    0    0 -0.78294592582E+02  0.26059061636E+02  0.17656793082E+03  0.19489831224E+03  0.00000000000E+00 0.  1.
         11    1    1    2    0    0 -0.17115591363E+02 -0.54865446184E+02  0.87693245903E+02  0.10484877696E+03  0.00000000000E+00 0. -1.
</event>
<event>
 7    1  0.2644565E-009  0.1543709E+03  0.7561462E-02  0.1195203E+00
          2   -1    0    0  501    0  0.00000000000E+00  0.00000000000E+00  0.52139551307E+03  0.52139551307E+03  0.00000000000E+00 0. -1.
         -2   -1    0    0    0  501 -0.00000000000E+00 -0.00000000000E+00 -0.59048177511E+02  0.59048177511E+02  0.00000000000E+00 0.  1.
         25    2    1    2    0    0 -0.11166590334E+03 -0.71454868939E+02  0.18165551897E+03  0.25733539887E+03  0.12509079774E+03 0.  0.
          5    1    3    3  502    0 -0.89749378667E+02  0.69845216219E+01  0.51652613056E+02  0.10387107080E+03  0.41800000000E+01 0.  1.
         -5    1    3    3    0  502 -0.21916524668E+02 -0.78439390561E+02  0.13000290591E+03  0.15346432807E+03  0.41800000000E+01 0.  1.
        -11    1    1    2    0    0  0.93150308088E+02  0.41769000219E+02  0.11505071216E+03  0.15381253410E+03  0.00000000000E+00 0.  1.
         11    1    1    2    0    0  0.18515595247E+02  0.29685868720E+02  0.16564110442E+03  0.16929575761E+03  0.00000000000E+00 0. -1.
</event>
<event>
 6    1  0.2644565E-009  0.1718867E+03  0.7561462E-02  0.1175895E+00
          1   -1    0    0  501    0  0.00000000000E+00  0.00000000000E+00  0.21155250830E+03  0.21155250830E+03  0.00000000000E+00 0. -1.
         -1   -1    0    0    0  501 -0.00000000000E+00 -0.00000000000E+00 -0.20674593446E+03  0.20674593446E+03  0.00000000000E+00 0.  1.
          5    1    1    2  502    0  0.78676945347E+02 -0.10615129702E+03  0.10375489941E+03  0.16804972818E+03  0.41800000000E+01 0.  1.
         -5    1    1    2    0  502 -0.27686435013E+02 -0.38238905666E+02 -0.13600614182E+02  0.49307217488E+02  0.41800000000E+01 0.  1.
        -11    1    1    2    0    0 -0.45472540981E+02  0.42809946416E+02 -0.76604143134E+02  0.98836421630E+02  0.00000000000E+00 0.  1.
         11    1    1    2    0    0 -0.55179693534E+01  0.10158025627E+03 -0.87435682513E+01  0.10210507546E+03  0.00000000000E+00 0. -1.
</event>
<event>
 7    1  0.2644565E-009  0.1108432E+03  0.7561462E-02  0.1259016E+00
          1   -1    0    0  501    0  0.00000000000E+00  0.00000000000E+00  0.56844172690E+03  0.56844172690E+03  0.00000000000E+00 0. -1.
         -1   -1    0    0    0  501 -0.00000000000E+00 -0.00000000000E+00 -0.32502338233E+02  0.32502338233E+02  0.00000000000E+00 0.  1.
         25    2    1    2    0    0 -0.39425814343E+02 -0.37735714042E+02  0.15972678882E+03  0.21009377794E+03  0.12509344312E+03 0.  0.
          5    1    3    3  502    0  0.23726878426E+02  0.32265858002E+02  0.64415019833E+02  0.75965897168E+02  0.41800000000E+01 0.  1.
         -5    1    3    3    0  502 -0.63152692769E+02 -0.70001572044E+02  0.95311768982E+02  0.13412788077E+03  0.41800000000E+01 0.  1.
        -11    1    1    2    0    0  0.18828655585E+02  0.56271146395E+02  0.34058678722E+03  0.34571710952E+03  0.00000000000E+00 0. -1.
         11    1    1    2    0    0  0.20597158758E+02 -0.18535432353E+02  0.35625812634E+02  0.45133177677E+02  0.00000000000E+00 0.  1.
</event>
<event>
 7    1  0.2644565E-009  0.1173054E+03  0.7561462E-02  0.1247610E+00
          1   -1    0    0  501    0  0.00000000000E+00  0.00000000000E+00  0.20747572480E+03  0.20747572480E+03  0.00000000000E+00 0. -1.
         -1   -1    0    0    0  501 -0.00000000000E+00 -0.00000000000E+00 -0.12637952711E+03  0.12637952711E+03  0.00000000000E+00 0.  1.
         25    2    1    2    0    0 -0.68511358043E+02 -0.75162492862E+02 -0.23468954982E+02  0.16291325680E+03  0.12508689332E+03 0.  0.
          5    1    3    3  502    0 -0.30913856619E+02 -0.27732655518E+02 -0.73334823272E+02  0.84381487410E+02  0.41800000000E+01 0.  1.
         -5    1    3    3    0  502 -0.37597501424E+02 -0.47429837344E+02  0.49865868291E+02  0.78531769394E+02  0.41800000000E+01 0.  1.
        -11    1    1    2    0    0 -0.11707864128E+02  0.45003096520E+02  0.54680320347E+02  0.71779455362E+02  0.00000000000E+00 0.  1.
         11    1    1    2    0    0  0.80219222171E+02  0.30159396342E+02  0.49884832323E+02  0.99162539749E+02  0.00000000000E+00 0. -1.
</event>
<event>
 7    1  0.2644565E-009  0.3268000E+03  0.7561462E-02  0.1072562E+00
          1   -1    0    0  501    0  0.00000000000E+00  0.00000000000E+00  0.15702034945E+03  0.15702034945E+03  0.00000000000E+00 0. -1.
         -1   -1    0    0    0  501 -0.00000000000E+00 -0.00000000000E+00 -0.84141607757E+03  0.84141607757E+03  0.00000000000E+00 0.  1.
         25    2    1    2    0    0 -0.31786433731E+02  0.31226060538E+03 -0.14612278224E+03  0.36812364333E+03  0.12508431655E+03 0.  0.
          5    1    3    3  502    0  0.24949811324E+02  0.23914516881E+03 -0.76895463265E+02  0.25247433438E+03  0.41800000000E+01 0. -1.
         -5    1    3    3    0  502 -0.56736245055E+02  0.73115436568E+02 -0.69227318975E+02  0.11564930895E+03  0.41800000000E+01 0. -1.
        -11    1    1    2    0    0 -0.19065854056E+02 -0.12463367338E+03 -0.14890389258E+03  0.19511388612E+03  0.00000000000E+00 0.  1.
         11    1    1    2    0    0  0.50852287786E+02 -0.18762693200E+03 -0.38936905330E+03  0.43519889758E+03  0.00000000000E+00 0. -1.
</event>
<event>
 7    1  0.2644565E-009  0.1112583E+03  0.7561462E-02  0.1258257E+00
          2   -1    0    0  501    0  0.00000000000E+00  0.00000000000E+00  0.11397725907E+04  0.11397725907E+04  0.00000000000E+00 0.  1.
         -2   -1    0    0    0  501 -0.00000000000E+00 -0.00000000000E+00 -0.15629378936E+02  0.15629378936E+02  0.00000000000E+00 0. -1.
         25    2    1    2    0    0 -0.44278515516E+02 -0.60322004948E+02  0.71791150073E+03  0.73255925662E+03  0.12508721101E+03 0.  0.
          5    1    3    3  502    0 -0.22557457831E+02 -0.75373627485E+02  0.21575448679E+03  0.22968999454E+03  0.41800000000E+01 0. -1.
         -5    1    3    3    0  502 -0.21721057685E+02  0.15051622536E+02  0.50215701394E+03  0.50286926207E+03  0.41800000000E+01 0. -1.
        -11    1    1    2    0    0 -0.12679031661E+02  0.58636434021E+02  0.22528112945E+03  0.23313210102E+03  0.00000000000E+00 0.  1.
         11    1    1    2    0    0  0.56957547176E+02  0.16855709273E+01  0.18095058156E+03  0.18971061197E+03  0.00000000000E+00 0. -1.
</event>
<event>
 7    1  0.2644565E-009  0.9970183E+02  0.7561462E-02  0.1280924E+00
          2   -1    0    0  501    0  0.00000000000E+00  0.00000000000E+00  0.12590099332E+04  0.12590099332E+04  0.00000000000E+00 0.  1.
         -2   -1    0    0    0  501 -0.00000000000E+00 -0.00000000000E+00 -0.10050201505E+02  0.10050201505E+02  0.00000000000E+00 0. -1.
         25    2    1    2    0    0 -0.21277823235E+02 -0.12961855792E+02  0.81398884144E+03  0.82392123192E+03  0.12509039516E+03 0.  0.
          5    1    3    3  502    0  0.39545562763E+02  0.76569676647E+01  0.11398524897E+03  0.12096524323E+03  0.41800000000E+01 0. -1.
         -5    1    3    3    0  502 -0.60823385998E+02 -0.20618823457E+02  0.70000359247E+03  0.70295598869E+03  0.41800000000E+01 0. -1.
        -11    1    1    2    0    0  0.51828274368E+02 -0.14125444508E+02  0.25432282417E+03  0.25993421687E+03  0.00000000000E+00 0.  1.
         11    1    1    2    0    0 -0.30550451133E+02  0.27087300300E+02  0.18064806608E+03  0.18520468590E+03  0.00000000000E+00 0. -1.
</event>
<event>
 7    1  0.3085237E-009  0.1575042E+03  0.7561462E-02  0.1191544E+00
          1   -1    0    0  501    0  0.00000000000E+00  0.00000000000E+00  0.45085989410E+03  0.45085989410E+03  0.00000000000E+00 0. -1.
         -1   -1    0    0    0  501 -0.00000000000E+00 -0.00000000000E+00 -0.78832534322E+02  0.78832534322E+02  0.00000000000E+00 0.  1.
         25    2    1    2    0    0 -0.58833152989E+02  0.12120162199E+03  0.29954437747E+03  0.35146155171E+03  0.12508882922E+03 0.  0.
          5    1    3    3  502    0  0.21376478205E+02  0.47856394980E+01  0.12419541381E+03  0.12618173155E+03  0.41800000000E+01 0. -1.
         -5    1    3    3    0  502 -0.80209631194E+02  0.11641598249E+03  0.17534896366E+03  0.22527982016E+03  0.41800000000E+01 0. -1.
        -11    1    1    2    0    0  0.57172983810E+02 -0.39353240947E+02  0.66538886683E+02  0.96150148683E+02  0.00000000000E+00 0. -1.
         11    1    1    2    0    0  0.16601691791E+01 -0.81848381041E+02  0.59440956268E+01  0.82080728028E+02  0.00000000000E+00 0.  1.
</event>
<event>
 7    1  0.2644565E-009  0.1388253E+03  0.7561462E-02  0.1214918E+00
          1   -1    0    0  501    0  0.00000000000E+00  0.00000000000E+00  0.18826362756E+03  0.18826362756E+03  0.00000000000E+00 0. -1.
         -1   -1    0    0    0  501 -0.00000000000E+00 -0.00000000000E+00 -0.11093535497E+03  0.11093535497E+03  0.00000000000E+00 0.  1.
         25    2    1    2    0    0  0.65548230905E+02  0.54920995644E+02  0.82295278423E+02  0.17243203919E+03  0.12508960369E+03 0.  0.
          5    1    3    3  502    0  0.43784325708E+02 -0.36540019603E+02  0.26456493764E+02  0.63005227343E+02  0.41800000000E+01 0.  1.
         -5    1    3    3    0  502  0.21763905197E+02  0.91461015247E+02  0.55838784659E+02  0.10942681185E+03  0.41800000000E+01 0.  1.
        -11    1    1    2    0    0  0.35437727147E+01  0.22394130680E+02 -0.42956290333E+01  0.23076131451E+02  0.00000000000E+00 0. -1.
         11    1    1    2    0    0 -0.69092003619E+02 -0.77315126324E+02 -0.67137679631E+00  0.10369081189E+03  0.00000000000E+00 0.  1.
</event>
<event>
 7    1  0.2644565E-009  0.1399624E+03  0.7561462E-02  0.1213380E+00
          1   -1    0    0  501    0  0.00000000000E+00  0.00000000000E+00  0.24183621558E+02  0.24183621558E+02  0.00000000000E+00 0. -1.
         -1   -1    0    0    0  501 -0.00000000000E+00 -0.00000000000E+00 -0.82021270656E+03  0.82021270656E+03  0.00000000000E+00 0.  1.
         25    2    1    2    0    0  0.61968339194E+02 -0.64554872357E+02 -0.43596321141E+03  0.46229756700E+03  0.12509081557E+03 0.  0.
          5    1    3    3  502    0  0.87875359777E+02 -0.49167344279E+01 -0.26942967150E+03  0.28347146844E+03  0.41800000000E+01 0. -1.
         -5    1    3    3    0  502 -0.25907020584E+02 -0.59638137929E+02 -0.16653353991E+03  0.17882609856E+03  0.41800000000E+01 0. -1.
        -11    1    1    2    0    0 -0.14165274599E+02  0.76158862199E+02 -0.24512217799E+03  0.25707140922E+03  0.00000000000E+00 0. -1.
         11    1    1    2    0    0 -0.47803064595E+02 -0.11603989841E+02 -0.11494369560E+03  0.12502735190E+03  0.00000000000E+00 0.  1.
</event>
<event>
 7    1  0.2644565E-009  0.9784641E+02  0.7561462E-02  0.1284891E+00
         -2   -1    0    0    0  501 -0.00000000000E+00  0.00000000000E+00  0.24133781530E+03  0.24133781530E+03  0.00000000000E+00 0.  1.
          2   -1    0    0  501    0  0.00000000000E+00 -0.00000000000E+00 -0.89392545493E+02  0.89392545493E+02  0.00000000000E+00 0. -1.
         25    2    1    2    0    0  0.95164070391E+02 -0.92558783039E+01  0.53899592802E+02  0.16641223453E+03  0.12508394829E+03 0.  0.
          5    1    3    3  502    0  0.24433720964E+02 -0.17286356916E+01  0.85081156774E+02  0.88635605371E+02  0.41800000000E+01 0. -1.
         -5    1    3    3    0  502  0.70730349427E+02 -0.75272426122E+01 -0.31181563972E+02  0.77776629158E+02  0.41800000000E+01 0. -1.
        -11    1    1    2    0    0 -0.52292430350E+02  0.18980835661E+02  0.10593628820E+03  0.11965478491E+03  0.00000000000E+00 0.  1.
         11    1    1    2    0    0 -0.42871640042E+02 -0.97249573567E+01 -0.78906112003E+01  0.44663341350E+02  0.00000000000E+00 0. -1.
</event>
<event>
 7    1  0.2644565E-009  0.1389185E+03  0.7561462E-02  0.1214792E+00
          1   -1    0    0  501    0  0.00000000000E+00  0.00000000000E+00  0.54448691086E+02  0.54448691086E+02  0.00000000000E+00 0. -1.
         -1   -1    0    0    0  501 -0.00000000000E+00 -0.00000000000E+00 -0.55368518523E+03  0.55368518523E+03  0.00000000000E+00 0.  1.
         25    2    1    2    0    0 -0.67974320545E+02 -0.11453578669E+03 -0.22078924329E+03  0.28658994615E+03  0.12508777955E+03 0.  0.
          5    1    3    3  502    0 -0.63122782039E+02 -0.95091864179E+02 -0.23526163998E+03  0.26151952105E+03  0.41800000000E+01 0. -1.
         -5    1    3    3    0  502 -0.48515385064E+01 -0.19443922511E+02  0.14472396687E+02  0.25070425093E+02  0.41800000000E+01 0. -1.
        -11    1    1    2    0    0  0.18689361710E+02  0.81987751078E+02 -0.86177223088E+02  0.12040679942E+03  0.00000000000E+00 0. -1.
         11    1    1    2    0    0  0.49284958835E+02  0.32548035611E+02 -0.19227002776E+03  0.20113713075E+03  0.00000000000E+00 0.  1.
</event>
<event>
 7    1  0.2644565E-009  0.1977908E+03  0.7561462E-02  0.1151616E+00
         -3   -1    0    0    0  501 -0.00000000000E+00  0.00000000000E+00  0.24552752117E+03  0.24552752117E+03  0.00000000000E+00 0.  1.
          3   -1    0    0  501    0  0.00000000000E+00 -0.00000000000E+00 -0.29774017219E+03  0.29774017219E+03  0.00000000000E+00 0. -1.
         25    2    1    2    0    0 -0.19040238931E+03 -0.49413734025E+02 -0.17779021385E+03  0.29317519372E+03  0.12509015590E+03 0.  0.
          5    1    3    3  502    0 -0.21014452192E+02 -0.84125783199E+01 -0.99402087178E+02  0.10203247527E+03  0.41800000000E+01 0. -1.
         -5    1    3    3    0  502 -0.16938793712E+03 -0.41001155705E+02 -0.78388126670E+02  0.19114271844E+03  0.41800000000E+01 0. -1.
        -11    1    1    2    0    0  0.10277395005E+03  0.14015178956E+02  0.11520043271E+03  0.15501628865E+03  0.00000000000E+00 0.  1.
         11    1    1    2    0    0  0.87628439262E+02  0.35398555069E+02  0.10377130124E+02  0.95076210999E+02  0.00000000000E+00 0. -1.
</event>
<event>
 7    1  0.2644565E-009  0.9687821E+02  0.7561462E-02  0.1287001E+00
          2   -1    0    0  501    0  0.00000000000E+00  0.00000000000E+00  0.42754976993E+03  0.42754976993E+03  0.00000000000E+00 0. -1.
         -2   -1    0    0    0  501 -0.00000000000E+00 -0.00000000000E+00 -0.36486060228E+02  0.36486060228E+02  0.00000000000E+00 0.  1.
         25    2    1    2    0    0 -0.44634435285E+02  0.37498319145E+02  0.18155558708E+03  0.22805062556E+03  0.12508517045E+03 0.  0.
          5    1    3    3  502    0 -0.65445715046E+02  0.68650691462E+01  0.17892609284E+03  0.19068898733E+03  0.41800000000E+01 0. -1.
         -5    1    3    3    0  502  0.20811279761E+02  0.30633249999E+02  0.26294942426E+01  0.37361638224E+02  0.41800000000E+01 0. -1.
        -11    1    1    2    0    0  0.39398093725E+02  0.11680572618E+02  0.16298443066E+03  0.16808500886E+03  0.00000000000E+00 0. -1.
         11    1    1    2    0    0  0.52363415596E+01 -0.49178891763E+02  0.46523691968E+02  0.67900195746E+02  0.00000000000E+00 0.  1.
</event>
