<event>
 7    1  0.7550631E-006  0.1870540E+03  0.7546771E-02  0.1188074E+00
         -1   -1    0    0    0  501 -0.00000000000E+00  0.00000000000E+00  0.52013755930E+03  0.52013755930E+03  0.00000000000E+00 0.  1.
          1   -1    0    0  501    0  0.00000000000E+00 -0.00000000000E+00 -0.44218358477E+02  0.44218358477E+02  0.00000000000E+00 0. -1.
         23    2    1    2    0    0  0.47558337763E+02 -0.10936100414E+02  0.25747148397E+03  0.27676488455E+03  0.89027200770E+02 0.  0.
          5    1    1    2  502    0 -0.79905093816E+02 -0.71870402211E+01  0.23376955902E+03  0.24719784443E+03  0.47000000000E+01 0. -1.
         -5    1    1    2    0  502  0.32346756052E+02  0.18123140635E+02 -0.15321842174E+02  0.40393188797E+02  0.47000000000E+01 0.  1.
        -11    1    3    3    0    0  0.42182224919E+01 -0.27749869544E+02  0.19215162419E+02  0.34015748228E+02  0.00000000000E+00 0. -1.
         11    1    3    3    0    0  0.43340115271E+02  0.16813769130E+02  0.23825632155E+03  0.24274913632E+03  0.00000000000E+00 0.  1.
<mgrwt>
<rscale>  0 0.16055285E+03</rscale>
<asrwt>0</asrwt>
<pdfrwt beam="2">  1        1 0.68028248E-02 0.18705400E+03</pdfrwt>
<pdfrwt beam="1">  1       -1 0.80021158E-01 0.18705400E+03</pdfrwt>
<totfact> 0.17468017E+03</totfact>
</mgrwt>
</event>
<event>
 8    1  0.7550631E-006  0.1430809E+03  0.7546771E-02  0.1219811E+00
         -2   -1    0    0    0  501 -0.00000000000E+00  0.00000000000E+00  0.19293198020E+02  0.19293198020E+02  0.00000000000E+00 0. -1.
          2   -1    0    0  501    0  0.00000000000E+00 -0.00000000000E+00 -0.10192708668E+04  0.10192708668E+04  0.00000000000E+00 0.  1.
         23    2    1    2    0    0  0.50010185515E+02  0.48390180551E+02 -0.24809171074E+03  0.27318530226E+03  0.90763892641E+02 0.  0.
         23    2    1    2    0    0 -0.50010185515E+02 -0.48390180551E+02 -0.75188595808E+03  0.76537876259E+03  0.12501811085E+03 0.  0.
          5    1    4    4  502    0 -0.16770146950E+02 -0.78179370572E+02 -0.63734861912E+03  0.64236173929E+03  0.47000000000E+01 0.  1.
         -5    1    4    4    0  502 -0.33240038565E+02  0.29789190020E+02 -0.11453733896E+03  0.12301702330E+03  0.47000000000E+01 0.  1.
        -11    1    3    3    0    0 -0.22505754189E+02  0.95889595703E+00 -0.91354784313E+02  0.94091046705E+02  0.00000000000E+00 0.  1.
         11    1    3    3    0    0  0.72515939704E+02  0.47431284594E+02 -0.15673692642E+03  0.17909425556E+03  0.00000000000E+00 0. -1.
<mgrwt>
<rscale>  0 0.13528987E+03</rscale>
<asrwt>0</asrwt>
<pdfrwt beam="2">  1        2 0.15681094E+00 0.14308094E+03</pdfrwt>
<pdfrwt beam="1">  1       -2 0.29681836E-02 0.14308094E+03</pdfrwt>
<totfact> 0.10629556E+04</totfact>
</mgrwt>
</event>
<event>
 8    1  0.7550631E-006  0.1312695E+03  0.7546771E-02  0.1238218E+00
          1   -1    0    0  501    0  0.00000000000E+00  0.00000000000E+00  0.96597755302E+02  0.96597755302E+02  0.00000000000E+00 0. -1.
         -1   -1    0    0    0  501 -0.00000000000E+00 -0.00000000000E+00 -0.14404246836E+03  0.14404246836E+03  0.00000000000E+00 0.  1.
         23    2    1    2    0    0  0.24947943820E+02  0.31384064802E+02 -0.44539280798E+00  0.10121058277E+03  0.92930211799E+02 0.  0.
         23    2    1    2    0    0 -0.24947943820E+02 -0.31384064802E+02 -0.46999320247E+02  0.13942964089E+03  0.12499731689E+03 0.  0.
          5    1    4    4  502    0 -0.40484200887E+02  0.24824273399E+02 -0.62756665130E+02  0.78839736742E+02  0.47000000000E+01 0.  1.
         -5    1    4    4    0  502  0.15536257066E+02 -0.56208338202E+02  0.15757344883E+02  0.60589904149E+02  0.47000000000E+01 0.  1.
        -11    1    3    3    0    0  0.30666709579E+01  0.46116443881E+02 -0.34830248204E+02  0.57872938900E+02  0.00000000000E+00 0.  1.
         11    1    3    3    0    0  0.21881272862E+02 -0.14732379079E+02  0.34384855396E+02  0.43337643868E+02  0.00000000000E+00 0. -1.
<mgrwt>
<rscale>  0 0.12300659E+03</rscale>
<asrwt>0</asrwt>
<pdfrwt beam="1">  1        1 0.14861193E-01 0.13126953E+03</pdfrwt>
<pdfrwt beam="2">  1       -1 0.22160380E-01 0.13126953E+03</pdfrwt>
<totfact> 0.60881593E+03</totfact>
</mgrwt>
</event>
<event>
 8    1  0.7550631E-006  0.1561085E+03  0.7546771E-02  0.1201558E+00
          3   -1    0    0  501    0  0.00000000000E+00  0.00000000000E+00  0.13197344957E+03  0.13197344957E+03  0.00000000000E+00 0. -1.
         -3   -1    0    0    0  501 -0.00000000000E+00 -0.00000000000E+00 -0.17562226918E+03  0.17562226918E+03  0.00000000000E+00 0.  1.
         23    2    1    2    0    0 -0.82652558415E+02  0.43740944339E+02 -0.72520904489E+02  0.14883974391E+03  0.90273319173E+02 0.  0.
         23    2    1    2    0    0  0.82652558415E+02 -0.43740944339E+02  0.28872084887E+02  0.15875597484E+03  0.12500058655E+03 0.  0.
          5    1    4    4  502    0  0.88285612611E+02 -0.52099046771E+02  0.64652119160E+02  0.12128745434E+03  0.47000000000E+01 0.  1.
         -5    1    4    4    0  502 -0.56330541958E+01  0.83581024325E+01 -0.35780034274E+02  0.37468520500E+02  0.47000000000E+01 0.  1.
        -11    1    3    3    0    0 -0.20686508932E+02  0.24016385487E+02  0.18707723132E+02  0.36806213177E+02  0.00000000000E+00 0. -1.
         11    1    3    3    0    0 -0.61966049483E+02  0.19724558852E+02 -0.91228627621E+02  0.11203353073E+03  0.00000000000E+00 0.  1.
<mgrwt>
<rscale>  0 0.14912018E+03</rscale>
<asrwt>0</asrwt>
<pdfrwt beam="1">  1        3 0.20303608E-01 0.15610850E+03</pdfrwt>
<pdfrwt beam="2">  1       -3 0.27018811E-01 0.15610850E+03</pdfrwt>
<totfact> 0.67238685E+02</totfact>
</mgrwt>
</event>
<event>
 8    1  0.7550631E-006  0.2309687E+03  0.7546771E-02  0.1128095E+00
         -2   -1    0    0    0  501 -0.00000000000E+00  0.00000000000E+00  0.29074651049E+02  0.29074651049E+02  0.00000000000E+00 0.  1.
          2   -1    0    0  501    0  0.00000000000E+00 -0.00000000000E+00 -0.17485229746E+04  0.17485229746E+04  0.00000000000E+00 0. -1.
         23    2    1    2    0    0 -0.14499259416E+03 -0.13786818914E+03 -0.89225266280E+03  0.91876166632E+03  0.89317944955E+02 0.  0.
         23    2    1    2    0    0  0.14499259416E+03  0.13786818914E+03 -0.82719566080E+03  0.85883595937E+03  0.11539520758E+03 0.  0.
          5    1    4    4  502    0  0.12885379029E+02 -0.13584292318E+02 -0.18267499939E+03  0.18369216476E+03  0.47000000000E+01 0. -1.
         -5    1    4    4    0  502  0.13210721513E+03  0.15145248146E+03 -0.64452066141E+03  0.67514379462E+03  0.47000000000E+01 0.  1.
        -11    1    3    3    0    0 -0.69477565979E+02 -0.11721726289E+03 -0.65161061912E+03  0.66570520341E+03  0.00000000000E+00 0. -1.
         11    1    3    3    0    0 -0.75515028182E+02 -0.20650926247E+02 -0.24064204368E+03  0.25305646292E+03  0.00000000000E+00 0.  1.
<mgrwt>
<rscale>  0 0.22794458E+03</rscale>
<asrwt>0</asrwt>
<pdfrwt beam="2">  1        2 0.26900355E+00 0.23096871E+03</pdfrwt>
<pdfrwt beam="1">  1       -2 0.44730230E-02 0.23096871E+03</pdfrwt>
<totfact> 0.23392522E+03</totfact>
</mgrwt>
</event>
<event>
 7    1  0.7550631E-006  0.1895416E+03  0.7546771E-02  0.1168376E+00
          1   -1    0    0  501    0  0.00000000000E+00  0.00000000000E+00  0.99079719449E+02  0.99079719449E+02  0.00000000000E+00 0. -1.
         -1   -1    0    0    0  501 -0.00000000000E+00 -0.00000000000E+00 -0.31356216540E+03  0.31356216540E+03  0.00000000000E+00 0.  1.
         23    2    1    2    0    0  0.93845822034E+02  0.10721201033E+03 -0.67804508618E+02  0.20130441506E+03  0.12499825064E+03 0.  0.
          5    1    3    3  502    0  0.70479299128E+02 -0.57845844066E+01 -0.43918868070E+02  0.83377155114E+02  0.47000000000E+01 0. -1.
         -5    1    3    3    0  502  0.23366522906E+02  0.11299659473E+03 -0.23885640548E+02  0.11792725995E+03  0.47000000000E+01 0. -1.
        -11    1    1    2    0    0 -0.51223266462E+02 -0.86423886287E+02 -0.12147001998E+03  0.15763209350E+03  0.00000000000E+00 0.  1.
         11    1    1    2    0    0 -0.42622555572E+02 -0.20788124040E+02 -0.25207917349E+02  0.53705376283E+02  0.00000000000E+00 0. -1.
<mgrwt>
<rscale>  0 0.17940940E+03</rscale>
<asrwt>0</asrwt>
<pdfrwt beam="1">  1        1 0.15243034E-01 0.18954159E+03</pdfrwt>
<pdfrwt beam="2">  1       -1 0.48240333E-01 0.18954159E+03</pdfrwt>
<totfact> 0.15837794E+03</totfact>
</mgrwt>
</event>
<event>
 8    1  0.7550631E-006  0.1424386E+03  0.7546771E-02  0.1220884E+00
          3   -1    0    0  501    0  0.00000000000E+00  0.00000000000E+00  0.55864993341E+02  0.55864993341E+02  0.00000000000E+00 0. -1.
         -3   -1    0    0    0  501 -0.00000000000E+00 -0.00000000000E+00 -0.34737540952E+03  0.34737540952E+03  0.00000000000E+00 0.  1.
         23    2    1    2    0    0  0.96637941534E+01 -0.67617064911E+02 -0.21127322825E+03  0.23975722152E+03  0.90452705380E+02 0.  0.
         23    2    1    2    0    0 -0.96637941534E+01  0.67617064911E+02 -0.80237187927E+02  0.16348318134E+03  0.12499315129E+03 0.  0.
          5    1    4    4  502    0 -0.47183297361E+02  0.83881055625E+02 -0.35490932982E+02  0.10268393919E+03  0.47000000000E+01 0.  1.
         -5    1    4    4    0  502  0.37519503208E+02 -0.16263990714E+02 -0.44746254946E+02  0.60799242155E+02  0.47000000000E+01 0.  1.
        -11    1    3    3    0    0  0.45935269372E+00 -0.89554104869E+02 -0.16709331610E+03  0.18957933692E+03  0.00000000000E+00 0.  1.
         11    1    3    3    0    0  0.92044414597E+01  0.21937039958E+02 -0.44179912156E+02  0.50177884598E+02  0.00000000000E+00 0. -1.
<mgrwt>
<rscale>  0 0.13453074E+03</rscale>
<asrwt>0</asrwt>
<pdfrwt beam="1">  1        3 0.85946143E-02 0.14243856E+03</pdfrwt>
<pdfrwt beam="2">  1       -3 0.53442371E-01 0.14243856E+03</pdfrwt>
<totfact> 0.77079121E+02</totfact>
</mgrwt>
</event>
<event>
 8    1  0.7550631E-006  0.1307894E+03  0.7546771E-02  0.1241875E+00
         -2   -1    0    0    0  501 -0.00000000000E+00  0.00000000000E+00  0.25670760279E+03  0.25670760279E+03  0.00000000000E+00 0. -1.
          2   -1    0    0  501    0  0.00000000000E+00 -0.00000000000E+00 -0.70564080284E+02  0.70564080284E+02  0.00000000000E+00 0.  1.
         23    2    1    2    0    0 -0.26224933689E+02  0.28152746735E+02  0.17098598952E+03  0.19560690737E+03  0.86865006218E+02 0.  0.
         23    2    1    2    0    0  0.26224933689E+02 -0.28152746735E+02  0.15157532992E+02  0.13166477570E+03  0.12500215222E+03 0.  0.
          5    1    4    4  502    0 -0.42431639635E+02  0.17179132913E+02 -0.64625533657E+01  0.46469573333E+02  0.47000000000E+01 0. -1.
         -5    1    4    4    0  502  0.68656573324E+02 -0.45331879648E+02  0.21620086358E+02  0.85195202372E+02  0.47000000000E+01 0. -1.
        -11    1    3    3    0    0 -0.57119434325E+02  0.24391948806E+02  0.95082223472E+02  0.11357035777E+03  0.00000000000E+00 0.  1.
         11    1    3    3    0    0  0.30894500636E+02  0.37607979292E+01  0.75903766044E+02  0.82036549600E+02  0.00000000000E+00 0. -1.
<mgrwt>
<rscale>  0 0.12074396E+03</rscale>
<asrwt>0</asrwt>
<pdfrwt beam="2">  1        2 0.10856012E-01 0.13078938E+03</pdfrwt>
<pdfrwt beam="1">  1       -2 0.39493477E-01 0.13078938E+03</pdfrwt>
<totfact> 0.33758440E+03</totfact>
</mgrwt>
</event>
<event>
 8    1  0.7550631E-006  0.2046726E+03  0.7546771E-02  0.1148931E+00
          2   -1    0    0  501    0  0.00000000000E+00  0.00000000000E+00  0.22678114874E+04  0.22678114874E+04  0.00000000000E+00 0. -1.
         -2   -1    0    0    0  501 -0.00000000000E+00 -0.00000000000E+00 -0.18151554849E+02  0.18151554849E+02  0.00000000000E+00 0.  1.
         23    2    1    2    0    0  0.13874855565E+03  0.83757014652E+02  0.82306427036E+03  0.84476005625E+03  0.99590964853E+02 0.  0.
         23    2    1    2    0    0 -0.13874855565E+03 -0.83757014652E+02  0.14265956622E+04  0.14412029860E+04  0.12499785715E+03 0.  0.
          5    1    4    4  502    0 -0.22909928032E+01 -0.61903497915E+02  0.31749131836E+03  0.32351216196E+03  0.47000000000E+01 0. -1.
         -5    1    4    4    0  502 -0.13645756285E+03 -0.21853516736E+02  0.11091043438E+04  0.11176908240E+04  0.47000000000E+01 0. -1.
        -11    1    3    3    0    0  0.15052483820E+03  0.56998671926E+02  0.70209467238E+03  0.72030792339E+03  0.00000000000E+00 0. -1.
         11    1    3    3    0    0 -0.11776282542E+02  0.26758342726E+02  0.12096959798E+03  0.12445213285E+03  0.00000000000E+00 0.  1.
<mgrwt>
<rscale>  0 0.20096038E+03</rscale>
<asrwt>0</asrwt>
<pdfrwt beam="1">  1        2 0.34889385E+00 0.20467258E+03</pdfrwt>
<pdfrwt beam="2">  1       -2 0.27925487E-02 0.20467258E+03</pdfrwt>
<totfact> 0.25343892E+03</totfact>
</mgrwt>
</event>
<event>
 8    1  0.7550631E-006  0.1399055E+03  0.7546771E-02  0.1224409E+00
          1   -1    0    0  501    0  0.00000000000E+00  0.00000000000E+00  0.15841823890E+04  0.15841823890E+04  0.00000000000E+00 0. -1.
         -1   -1    0    0    0  501 -0.00000000000E+00 -0.00000000000E+00 -0.19633557987E+02  0.19633557987E+02  0.00000000000E+00 0.  1.
         23    2    1    2    0    0  0.29708597935E+02  0.55370569628E+02  0.17536369711E+03  0.20760361663E+03  0.91642427965E+02 0.  0.
         23    2    1    2    0    0 -0.29708597935E+02 -0.55370569628E+02  0.13891851339E+04  0.13962123304E+04  0.12500013760E+03 0.  0.
          5    1    4    4  502    0  0.42364246960E+00 -0.24780618059E+02  0.47080264873E+02  0.53412543890E+02  0.47000000000E+01 0. -1.
         -5    1    4    4    0  502 -0.30132240404E+02 -0.30589951569E+02  0.13421048691E+04  0.13427997865E+04  0.47000000000E+01 0. -1.
        -11    1    3    3    0    0  0.59244614300E+02  0.42836117394E+02  0.87254480451E+02  0.11383409698E+03  0.00000000000E+00 0.  1.
         11    1    3    3    0    0 -0.29536016365E+02  0.12534452234E+02  0.88109216657E+02  0.93769519650E+02  0.00000000000E+00 0. -1.
<mgrwt>
<rscale>  0 0.13207494E+03</rscale>
<asrwt>0</asrwt>
<pdfrwt beam="1">  1        1 0.24372027E+00 0.13990545E+03</pdfrwt>
<pdfrwt beam="2">  1       -1 0.30205486E-02 0.13990545E+03</pdfrwt>
<totfact> 0.23445337E+03</totfact>
</mgrwt>
</event>
<event>
 8    1  0.7550631E-006  0.1825366E+03  0.7546771E-02  0.1170880E+00
         -2   -1    0    0    0  501 -0.00000000000E+00  0.00000000000E+00  0.57458026497E+02  0.57458026497E+02  0.00000000000E+00 0.  1.
          2   -1    0    0  501    0  0.00000000000E+00 -0.00000000000E+00 -0.70305683374E+03  0.70305683374E+03  0.00000000000E+00 0. -1.
         23    2    1    2    0    0  0.13279273967E+03 -0.78114406019E+01 -0.11053705217E+03  0.19517364675E+03  0.90439936800E+02 0.  0.
         23    2    1    2    0    0 -0.13279273967E+03  0.78114406019E+01 -0.53506175507E+03  0.56534121349E+03  0.12499870246E+03 0.  0.
          5    1    4    4  502    0 -0.92033212626E+02 -0.13876922596E+02 -0.14393200033E+03  0.17146775769E+03  0.47000000000E+01 0. -1.
         -5    1    4    4    0  502 -0.40759527043E+02  0.21688363198E+02 -0.39112975474E+03  0.39387345580E+03  0.47000000000E+01 0. -1.
        -11    1    3    3    0    0  0.57086477784E+02 -0.28291868093E+01  0.45402851268E+01  0.57336588954E+02  0.00000000000E+00 0.  1.
         11    1    3    3    0    0  0.75706261885E+02 -0.49822537927E+01 -0.11507733730E+03  0.13783705779E+03  0.00000000000E+00 0. -1.
<mgrwt>
<rscale>  0 0.17685651E+03</rscale>
<asrwt>0</asrwt>
<pdfrwt beam="2">  1        2 0.10816259E+00 0.18253659E+03</pdfrwt>
<pdfrwt beam="1">  1       -2 0.88396965E-02 0.18253659E+03</pdfrwt>
<totfact> 0.33238093E+03</totfact>
</mgrwt>
</event>
<event>
 8    1  0.7550631E-006  0.1479018E+03  0.7546771E-02  0.1215181E+00
         -1   -1    0    0    0  501 -0.00000000000E+00  0.00000000000E+00  0.10609863294E+03  0.10609863294E+03  0.00000000000E+00 0.  1.
          1   -1    0    0  501    0  0.00000000000E+00 -0.00000000000E+00 -0.22008641584E+03  0.22008641584E+03  0.00000000000E+00 0. -1.
         23    2    1    2    0    0  0.79011188727E+02 -0.26388666336E+01  0.31797349595E+02  0.11851160279E+03  0.82366236971E+02 0.  0.
         23    2    1    2    0    0 -0.79011188727E+02  0.26388666336E+01 -0.14578513250E+03  0.20767344600E+03  0.12500089501E+03 0.  0.
          5    1    4    4  502    0  0.32682395315E+02  0.12833743882E+02 -0.30240327586E+02  0.46576940197E+02  0.47000000000E+01 0. -1.
         -5    1    4    4    0  502 -0.11169358404E+03 -0.10194877249E+02 -0.11554480491E+03  0.16109650580E+03  0.47000000000E+01 0. -1.
        -11    1    3    3    0    0  0.93817420890E+02 -0.58751486465E+01  0.38951809167E+02  0.10175199886E+03  0.00000000000E+00 0.  1.
         11    1    3    3    0    0 -0.14806232163E+02  0.32362820129E+01 -0.71544595715E+01  0.16759603930E+02  0.00000000000E+00 0. -1.
<mgrwt>
<rscale>  0 0.13863236E+03</rscale>
<asrwt>0</asrwt>
<pdfrwt beam="2">  1        1 0.33859448E-01 0.14790184E+03</pdfrwt>
<pdfrwt beam="1">  1       -1 0.16322867E-01 0.14790184E+03</pdfrwt>
<totfact> 0.35281641E+03</totfact>
</mgrwt>
</event>
<event>
 8    1  0.7550631E-006  0.1318156E+03  0.7546771E-02  0.1234422E+00
         -1   -1    0    0    0  501 -0.00000000000E+00  0.00000000000E+00  0.15455625736E+02  0.15455625736E+02  0.00000000000E+00 0.  1.
          1   -1    0    0  501    0  0.00000000000E+00 -0.00000000000E+00 -0.94981146860E+03  0.94981146860E+03  0.00000000000E+00 0. -1.
         23    2    1    2    0    0 -0.29137770932E+02  0.30033737735E+02 -0.35311404930E+03  0.36926594376E+03  0.99582982056E+02 0.  0.
         23    2    1    2    0    0  0.29137770932E+02 -0.30033737735E+02 -0.58124179357E+03  0.59600115058E+03  0.12499725516E+03 0.  0.
          5    1    4    4  502    0  0.45451754409E+02 -0.66382509759E+02 -0.25837644364E+03  0.27065287031E+03  0.47000000000E+01 0. -1.
         -5    1    4    4    0  502 -0.16313983478E+02  0.36348772023E+02 -0.32286534993E+03  0.32534828027E+03  0.47000000000E+01 0. -1.
        -11    1    3    3    0    0  0.93090329717E+01 -0.14460864914E+02 -0.76325959599E+01  0.18815717632E+02  0.00000000000E+00 0.  1.
         11    1    3    3    0    0 -0.38446803903E+02  0.44494602650E+02 -0.34548145334E+03  0.35045022613E+03  0.00000000000E+00 0. -1.
<mgrwt>
<rscale>  0 0.12541478E+03</rscale>
<asrwt>0</asrwt>
<pdfrwt beam="2">  1        1 0.14612489E+00 0.13181559E+03</pdfrwt>
<pdfrwt beam="1">  1       -1 0.23777878E-02 0.13181559E+03</pdfrwt>
<totfact> 0.89485301E+03</totfact>
</mgrwt>
</event>
<event>
 8    1  0.7550631E-006  0.1714460E+03  0.7546771E-02  0.1182837E+00
         -2   -1    0    0    0  501 -0.00000000000E+00  0.00000000000E+00  0.51664184336E+02  0.51664184336E+02  0.00000000000E+00 0.  1.
          2   -1    0    0  501    0  0.00000000000E+00 -0.00000000000E+00 -0.50620623496E+03  0.50620623496E+03  0.00000000000E+00 0. -1.
         23    2    1    2    0    0 -0.10349127073E+03 -0.55300776082E+02 -0.16842003896E+03  0.22431452075E+03  0.90460354540E+02 0.  0.
         23    2    1    2    0    0  0.10349127073E+03  0.55300776082E+02 -0.28612201167E+03  0.33355589855E+03  0.12500045178E+03 0.  0.
          5    1    4    4  502    0  0.52381112637E+02  0.81500622928E+02 -0.10256525292E+03  0.14116604976E+03  0.47000000000E+01 0. -1.
         -5    1    4    4    0  502  0.51110158089E+02 -0.26199846846E+02 -0.18355675875E+03  0.19238984879E+03  0.47000000000E+01 0. -1.
        -11    1    3    3    0    0 -0.36248140799E+02 -0.60506586223E+02 -0.44991594787E+02  0.83661330907E+02  0.00000000000E+00 0.  1.
         11    1    3    3    0    0 -0.67243129927E+02  0.52058101406E+01 -0.12342844417E+03  0.14065318984E+03  0.00000000000E+00 0. -1.
<mgrwt>
<rscale>  0 0.16530235E+03</rscale>
<asrwt>0</asrwt>
<pdfrwt beam="2">  1        2 0.77877883E-01 0.17144600E+03</pdfrwt>
<pdfrwt beam="1">  1       -2 0.79483360E-02 0.17144600E+03</pdfrwt>
<totfact> 0.57111727E+03</totfact>
</mgrwt>
</event>
<event>
 8    1  0.7550631E-006  0.1569506E+03  0.7546771E-02  0.1199364E+00
          2   -1    0    0  501    0  0.00000000000E+00  0.00000000000E+00  0.71675109300E+03  0.71675109300E+03  0.00000000000E+00 0. -1.
         -2   -1    0    0    0  501 -0.00000000000E+00 -0.00000000000E+00 -0.30618763712E+02  0.30618763712E+02  0.00000000000E+00 0.  1.
         23    2    1    2    0    0 -0.94457796459E+02  0.92299120826E+01  0.24761411351E+03  0.28161057759E+03  0.94785555918E+02 0.  0.
         23    2    1    2    0    0  0.94457796459E+02 -0.92299120826E+01  0.43851821578E+03  0.46575927912E+03  0.12500405567E+03 0.  0.
          5    1    4    4  502    0  0.59677071669E+02 -0.62077029240E+02  0.18030685673E+03  0.19986886458E+03  0.47000000000E+01 0. -1.
         -5    1    4    4    0  502  0.34780724790E+02  0.52847117158E+02  0.25821135904E+03  0.26589041455E+03  0.47000000000E+01 0. -1.
        -11    1    3    3    0    0 -0.99103608067E+02 -0.17363087465E+02  0.15218884853E+03  0.18244025749E+03  0.00000000000E+00 0.  1.
         11    1    3    3    0    0  0.46458116079E+01  0.26592999547E+02  0.95425264986E+02  0.99170320096E+02  0.00000000000E+00 0. -1.
<mgrwt>
<rscale>  0 0.15090596E+03</rscale>
<asrwt>0</asrwt>
<pdfrwt beam="1">  1        2 0.11026939E+00 0.15695057E+03</pdfrwt>
<pdfrwt beam="2">  1       -2 0.47105796E-02 0.15695057E+03</pdfrwt>
<totfact> 0.84648978E+03</totfact>
</mgrwt>
</event>
<event>
 8    1  0.7550631E-006  0.1461705E+03  0.7546771E-02  0.1215939E+00
          4   -1    0    0  501    0  0.00000000000E+00  0.00000000000E+00  0.33456787466E+02  0.33456787466E+02  0.00000000000E+00 0.  1.
         -4   -1    0    0    0  501 -0.00000000000E+00 -0.00000000000E+00 -0.54807208440E+03  0.54807208440E+03  0.00000000000E+00 0. -1.
         23    2    1    2    0    0 -0.50459318598E+02  0.56525481088E+02 -0.30073019991E+03  0.32246776335E+03  0.88348924253E+02 0.  0.
         23    2    1    2    0    0  0.50459318598E+02 -0.56525481088E+02 -0.21388509702E+03  0.25906110851E+03  0.12499820147E+03 0.  0.
          5    1    4    4  502    0  0.13810208255E+02 -0.90790860002E+02 -0.16477214718E+03  0.18869460140E+03  0.47000000000E+01 0. -1.
         -5    1    4    4    0  502  0.36649110343E+02  0.34265378914E+02 -0.49112949847E+02  0.70366507116E+02  0.47000000000E+01 0. -1.
        -11    1    3    3    0    0  0.10339276511E+02  0.37098439449E+02 -0.46649158537E+02  0.60492469287E+02  0.00000000000E+00 0.  1.
         11    1    3    3    0    0 -0.60798595109E+02  0.19427041640E+02 -0.25408104138E+03  0.26197529407E+03  0.00000000000E+00 0. -1.
<mgrwt>
<rscale>  0 0.13807800E+03</rscale>
<asrwt>0</asrwt>
<pdfrwt beam="1">  1        4 0.51471980E-02 0.14617053E+03</pdfrwt>
<pdfrwt beam="2">  1       -4 0.84318783E-01 0.14617053E+03</pdfrwt>
<totfact> 0.48516752E+02</totfact>
</mgrwt>
</event>
<event>
 8    1  0.7550631E-006  0.1641596E+03  0.7546771E-02  0.1191709E+00
          2   -1    0    0  501    0  0.00000000000E+00  0.00000000000E+00  0.70708576824E+03  0.70708576824E+03  0.00000000000E+00 0. -1.
         -2   -1    0    0    0  501 -0.00000000000E+00 -0.00000000000E+00 -0.32432014820E+02  0.32432014820E+02  0.00000000000E+00 0.  1.
         23    2    1    2    0    0  0.94999830888E+02  0.47915436084E+02  0.31833302068E+03  0.34720053296E+03  0.88833783840E+02 0.  0.
         23    2    1    2    0    0 -0.94999830888E+02 -0.47915436084E+02  0.35632073275E+03  0.39231725010E+03  0.12501001263E+03 0.  0.
          5    1    4    4  502    0  0.28383257251E+02 -0.25254745555E+02  0.72929805276E+02  0.82366607085E+02  0.47000000000E+01 0. -1.
         -5    1    4    4    0  502 -0.12338308814E+03 -0.22660690529E+02  0.28339092747E+03  0.30995064302E+03  0.47000000000E+01 0. -1.
        -11    1    3    3    0    0 -0.11423066511E+02 -0.73643934026E+01  0.71461253821E+02  0.72742226638E+02  0.00000000000E+00 0. -1.
         11    1    3    3    0    0  0.10642289740E+03  0.55279829486E+02  0.24687176686E+03  0.27445830632E+03  0.00000000000E+00 0.  1.
<mgrwt>
<rscale>  0 0.15736098E+03</rscale>
<asrwt>0</asrwt>
<pdfrwt beam="1">  1        2 0.10878241E+00 0.16415956E+03</pdfrwt>
<pdfrwt beam="2">  1       -2 0.49895413E-02 0.16415956E+03</pdfrwt>
<totfact> 0.79093567E+03</totfact>
</mgrwt>
</event>
<event>
 7    1  0.7550631E-006  0.1345764E+03  0.7546771E-02  0.1236519E+00
         -1   -1    0    0    0  501 -0.00000000000E+00  0.00000000000E+00  0.18597563286E+02  0.18597563286E+02  0.00000000000E+00 0.  1.
          1   -1    0    0  501    0  0.00000000000E+00 -0.00000000000E+00 -0.72975926544E+03  0.72975926544E+03  0.00000000000E+00 0. -1.
         23    2    1    2    0    0  0.30776686198E+01  0.33826372060E+02 -0.26183125105E+03  0.27930602734E+03  0.91118370234E+02 0.  0.
          5    1    1    2  502    0  0.41870372977E+02 -0.65731778880E+02 -0.29285851180E+03  0.30308743428E+03  0.47000000000E+01 0. -1.
         -5    1    1    2    0  502 -0.44948041597E+02  0.31905406820E+02 -0.15647193931E+03  0.16596336710E+03  0.47000000000E+01 0.  1.
        -11    1    3    3    0    0 -0.37328594965E+02  0.11589308419E+02 -0.18973893206E+03  0.19372299402E+03  0.00000000000E+00 0. -1.
         11    1    3    3    0    0  0.40406263585E+02  0.22237063641E+02 -0.72092318987E+02  0.85583033326E+02  0.00000000000E+00 0.  1.
<mgrwt>
<rscale>  0 0.12407706E+03</rscale>
<asrwt>0</asrwt>
<pdfrwt beam="2">  1        1 0.11227067E+00 0.13457637E+03</pdfrwt>
<pdfrwt beam="1">  1       -1 0.28611632E-02 0.13457637E+03</pdfrwt>
<totfact> 0.10269771E+04</totfact>
</mgrwt>
</event>
<event>
 8    1  0.7550631E-006  0.1271606E+03  0.7546771E-02  0.1246927E+00
          1   -1    0    0  501    0  0.00000000000E+00  0.00000000000E+00  0.10496641137E+04  0.10496641137E+04  0.00000000000E+00 0. -1.
         -1   -1    0    0    0  501 -0.00000000000E+00 -0.00000000000E+00 -0.12884328340E+02  0.12884328340E+02  0.00000000000E+00 0.  1.
         23    2    1    2    0    0  0.11245552027E+02 -0.20465587414E+02  0.27985569116E+03  0.29501740190E+03  0.90392238848E+02 0.  0.
         23    2    1    2    0    0 -0.11245552027E+02  0.20465587414E+02  0.75692409425E+03  0.76753104018E+03  0.12499804191E+03 0.  0.
          5    1    4    4  502    0  0.55593037225E+02  0.20508958606E+02  0.39666114785E+03  0.40109021353E+03  0.47000000000E+01 0.  1.
         -5    1    4    4    0  502 -0.66838589252E+02 -0.43371191770E-01  0.36026294640E+03  0.36644082666E+03  0.47000000000E+01 0.  1.
        -11    1    3    3    0    0  0.44680895016E+02 -0.23266234589E+02  0.99043442070E+02  0.11111842092E+03  0.00000000000E+00 0. -1.
         11    1    3    3    0    0 -0.33435342989E+02  0.28006471750E+01  0.18081224909E+03  0.18389898098E+03  0.00000000000E+00 0.  1.
<mgrwt>
<rscale>  0 0.11770757E+03</rscale>
<asrwt>0</asrwt>
<pdfrwt beam="1">  1        1 0.16148672E+00 0.12716058E+03</pdfrwt>
<pdfrwt beam="2">  1       -1 0.19822052E-02 0.12716058E+03</pdfrwt>
<totfact> 0.98155914E+03</totfact>
</mgrwt>
</event>
<event>
 8    1  0.7550631E-006  0.2832038E+03  0.7546771E-02  0.1095789E+00
          1   -1    0    0  501    0  0.00000000000E+00  0.00000000000E+00  0.63644666741E+03  0.63644666741E+03  0.00000000000E+00 0. -1.
         -1   -1    0    0    0  501 -0.00000000000E+00 -0.00000000000E+00 -0.20913315839E+03  0.20913315839E+03  0.00000000000E+00 0.  1.
         23    2    1    2    0    0 -0.22893271465E+03 -0.11031049284E+03 -0.65004628502E+02  0.27761722397E+03  0.90923751821E+02 0.  0.
         23    2    1    2    0    0  0.22893271465E+03  0.11031049284E+03  0.49231813753E+03  0.56796260183E+03  0.12500310345E+03 0.  0.
          5    1    4    4  502    0  0.20749723322E+03  0.42472093964E+02  0.36354594727E+03  0.42076920793E+03  0.47000000000E+01 0. -1.
         -5    1    4    4    0  502  0.21435481434E+02  0.67838398879E+02  0.12877219026E+03  0.14719339391E+03  0.47000000000E+01 0. -1.
        -11    1    3    3    0    0 -0.10367230243E+03 -0.60667742555E+01 -0.45890382788E+02  0.11353712729E+03  0.00000000000E+00 0.  1.
         11    1    3    3    0    0 -0.12526041223E+03 -0.10424371859E+03 -0.19114245714E+02  0.16408009668E+03  0.00000000000E+00 0. -1.
<mgrwt>
<rscale>  0 0.27981743E+03</rscale>
<asrwt>0</asrwt>
<pdfrwt beam="1">  1        1 0.97914871E-01 0.28320376E+03</pdfrwt>
<pdfrwt beam="2">  1       -1 0.32174332E-01 0.28320376E+03</pdfrwt>
<totfact> 0.29512247E+02</totfact>
</mgrwt>
</event>
<event>
 7    1  0.7550631E-006  0.2423728E+03  0.7546771E-02  0.1155058E+00
         -2   -1    0    0    0  501 -0.00000000000E+00  0.00000000000E+00  0.21967386963E+02  0.21967386963E+02  0.00000000000E+00 0.  1.
          2   -1    0    0  501    0  0.00000000000E+00 -0.00000000000E+00 -0.24313138126E+04  0.24313138126E+04  0.00000000000E+00 0. -1.
         23    2    1    2    0    0  0.93862203931E+00  0.39118613368E+02 -0.14290297783E+03  0.17391495030E+03  0.91071411220E+02 0.  0.
          5    1    1    2  502    0  0.92149856142E+02 -0.74483879489E+02 -0.71882149052E+03  0.72853680039E+03  0.47000000000E+01 0. -1.
         -5    1    1    2    0  502 -0.93088478181E+02  0.35365266121E+02 -0.15476219573E+04  0.15508294489E+04  0.47000000000E+01 0.  1.
        -11    1    3    3    0    0 -0.33073664594E+02  0.16029420896E+02 -0.15224825171E+02  0.39781967340E+02  0.00000000000E+00 0.  1.
         11    1    3    3    0    0  0.34012286634E+02  0.23089192473E+02 -0.12767815266E+03  0.13413298296E+03  0.00000000000E+00 0. -1.
<mgrwt>
<rscale>  0 0.19382302E+03</rscale>
<asrwt>0</asrwt>
<pdfrwt beam="2">  1        2 0.37404822E+00 0.24237285E+03</pdfrwt>
<pdfrwt beam="1">  1       -2 0.33795986E-02 0.24237285E+03</pdfrwt>
<totfact> 0.15536604E+03</totfact>
</mgrwt>
</event>
<event>
 8    1  0.7550631E-006  0.2380875E+03  0.7546771E-02  0.1123879E+00
          2   -1    0    0  501    0  0.00000000000E+00  0.00000000000E+00  0.99637966309E+03  0.99637966309E+03  0.00000000000E+00 0.  1.
         -2   -1    0    0    0  501 -0.00000000000E+00 -0.00000000000E+00 -0.60919106619E+02  0.60919106619E+02  0.00000000000E+00 0. -1.
         23    2    1    2    0    0  0.18627828345E+03 -0.79756279082E+02  0.26442651296E+03  0.34527887964E+03  0.90749440922E+02 0.  0.
         23    2    1    2    0    0 -0.18627828345E+03  0.79756279082E+02  0.67103404351E+03  0.71201989007E+03  0.12499989348E+03 0.  0.
          5    1    4    4  502    0 -0.58506967028E+01  0.39692034255E+02  0.23442339361E+03  0.23787834224E+03  0.47000000000E+01 0.  1.
         -5    1    4    4    0  502 -0.18042758675E+03  0.40064244827E+02  0.43661064990E+03  0.47414154783E+03  0.47000000000E+01 0.  1.
        -11    1    3    3    0    0  0.12868334540E+03 -0.12102906100E+02  0.12406010284E+03  0.17915577813E+03  0.00000000000E+00 0. -1.
         11    1    3    3    0    0  0.57594938050E+02 -0.67653372982E+02  0.14036641012E+03  0.16612310151E+03  0.00000000000E+00 0.  1.
<mgrwt>
<rscale>  0 0.23396666E+03</rscale>
<asrwt>0</asrwt>
<pdfrwt beam="1">  1        2 0.15328917E+00 0.23808746E+03</pdfrwt>
<pdfrwt beam="2">  1       -2 0.93721710E-02 0.23808746E+03</pdfrwt>
<totfact> 0.19397861E+03</totfact>
</mgrwt>
</event>
<event>
 8    1  0.7550631E-006  0.1299174E+03  0.7546771E-02  0.1242870E+00
         -1   -1    0    0    0  501 -0.00000000000E+00  0.00000000000E+00  0.30689661778E+02  0.30689661778E+02  0.00000000000E+00 0.  1.
          1   -1    0    0  501    0  0.00000000000E+00 -0.00000000000E+00 -0.43527437743E+03  0.43527437743E+03  0.00000000000E+00 0. -1.
         23    2    1    2    0    0 -0.31964001928E+02  0.15316747172E+02 -0.11939688963E+03  0.15257830216E+03  0.88137511166E+02 0.  0.
         23    2    1    2    0    0  0.31964001928E+02 -0.15316747172E+02 -0.28518782602E+03  0.31338573704E+03  0.12498889514E+03 0.  0.
          5    1    4    4  502    0 -0.17958717533E+02 -0.48995279343E+02 -0.57363385357E+02  0.77689773541E+02  0.47000000000E+01 0. -1.
         -5    1    4    4    0  502  0.49922719462E+02  0.33678532171E+02 -0.22782444067E+03  0.23569596350E+03  0.47000000000E+01 0. -1.
        -11    1    3    3    0    0  0.53352282556E+00 -0.25717365088E+02 -0.42222852745E+01  0.26067128852E+02  0.00000000000E+00 0.  1.
         11    1    3    3    0    0 -0.32497524754E+02  0.41034112259E+02 -0.11517460436E+03  0.12651117331E+03  0.00000000000E+00 0. -1.
<mgrwt>
<rscale>  0 0.12013746E+03</rscale>
<asrwt>0</asrwt>
<pdfrwt beam="2">  1        1 0.66965290E-01 0.12991737E+03</pdfrwt>
<pdfrwt beam="1">  1       -1 0.47214863E-02 0.12991737E+03</pdfrwt>
<totfact> 0.98642432E+03</totfact>
</mgrwt>
</event>
<event>
 8    1  0.7550631E-006  0.1619925E+03  0.7546771E-02  0.1194107E+00
          1   -1    0    0  501    0  0.00000000000E+00  0.00000000000E+00  0.25674697160E+03  0.25674697160E+03  0.00000000000E+00 0. -1.
         -1   -1    0    0    0  501 -0.00000000000E+00 -0.00000000000E+00 -0.87169645881E+02  0.87169645881E+02  0.00000000000E+00 0.  1.
         23    2    1    2    0    0  0.48333269020E+01  0.10292746963E+03  0.69122413310E+02  0.15330511878E+03  0.90039582231E+02 0.  0.
         23    2    1    2    0    0 -0.48333269020E+01 -0.10292746963E+03  0.10045491241E+03  0.19061149871E+03  0.12499651578E+03 0.  0.
          5    1    4    4  502    0 -0.53391510849E+02 -0.88842106755E+02  0.92909553038E+02  0.13927615880E+03  0.47000000000E+01 0. -1.
         -5    1    4    4    0  502  0.48558183947E+02 -0.14085362874E+02  0.75453593734E+01  0.51335339909E+02  0.47000000000E+01 0. -1.
        -11    1    3    3    0    0 -0.10710717622E+02  0.36626303477E+01 -0.17368335194E+02  0.20731459197E+02  0.00000000000E+00 0.  1.
         11    1    3    3    0    0  0.15544044524E+02  0.99264839282E+02  0.86490748503E+02  0.13257365958E+03  0.00000000000E+00 0. -1.
<mgrwt>
<rscale>  0 0.15530038E+03</rscale>
<asrwt>0</asrwt>
<pdfrwt beam="1">  1        1 0.39499534E-01 0.16199245E+03</pdfrwt>
<pdfrwt beam="2">  1       -1 0.13410715E-01 0.16199245E+03</pdfrwt>
<totfact> 0.39849324E+03</totfact>
</mgrwt>
</event>
<event>
 7    1  0.7550631E-006  0.6852426E+03  0.7546771E-02  0.1031120E+00
         -2   -1    0    0    0  501 -0.00000000000E+00  0.00000000000E+00  0.16753812409E+03  0.16753812409E+03  0.00000000000E+00 0.  1.
          2   -1    0    0  501    0  0.00000000000E+00 -0.00000000000E+00 -0.95686007361E+03  0.95686007361E+03  0.00000000000E+00 0. -1.
         23    2    1    2    0    0 -0.16360083937E+02 -0.66811454219E+02 -0.10256370326E+03  0.15424648504E+03  0.92418840928E+02 0.  0.
          5    1    1    2  502    0  0.11369607405E+02 -0.19968852663E+03 -0.67421037244E+03  0.70326843520E+03  0.47000000000E+01 0. -1.
         -5    1    1    2    0  502  0.49904765316E+01  0.26649998085E+03 -0.12547873816E+02  0.26688327746E+03  0.47000000000E+01 0.  1.
        -11    1    3    3    0    0  0.38647745985E+02 -0.25293901310E+02 -0.44337085804E+02  0.64025048933E+02  0.00000000000E+00 0.  1.
         11    1    3    3    0    0 -0.55007829922E+02 -0.41517552909E+02 -0.58226617459E+02  0.90221436106E+02  0.00000000000E+00 0. -1.
<mgrwt>
<rscale>  0 0.43878628E+03</rscale>
<asrwt>0</asrwt>
<pdfrwt beam="2">  1        2 0.14720925E+00 0.68524263E+03</pdfrwt>
<pdfrwt beam="1">  1       -2 0.25775095E-01 0.68524263E+03</pdfrwt>
<totfact> 0.36792033E+02</totfact>
</mgrwt>
</event>
<event>
 8    1  0.7550631E-006  0.1505334E+03  0.7546771E-02  0.1208816E+00
         -4   -1    0    0    0  501 -0.00000000000E+00  0.00000000000E+00  0.94800817973E+02  0.94800817973E+02  0.00000000000E+00 0.  1.
          4   -1    0    0  501    0  0.00000000000E+00 -0.00000000000E+00 -0.20116712634E+03  0.20116712634E+03  0.00000000000E+00 0. -1.
         23    2    1    2    0    0  0.80315786245E+02  0.24169587726E+02 -0.31934173386E+02  0.12803807602E+03  0.91319017681E+02 0.  0.
         23    2    1    2    0    0 -0.80315786245E+02 -0.24169587726E+02 -0.74432134979E+02  0.16792986829E+03  0.12500201381E+03 0.  0.
          5    1    4    4  502    0 -0.44505790421E+02 -0.72758371233E+02 -0.63432272272E+02  0.10639684737E+03  0.47000000000E+01 0. -1.
         -5    1    4    4    0  502 -0.35809995823E+02  0.48588783507E+02 -0.10999862708E+02  0.61533020917E+02  0.47000000000E+01 0. -1.
        -11    1    3    3    0    0  0.24538455002E+02 -0.14119954356E+02  0.26397562436E+02  0.38708399443E+02  0.00000000000E+00 0.  1.
         11    1    3    3    0    0  0.55777331242E+02  0.38289542082E+02 -0.58331735822E+02  0.89329676577E+02  0.00000000000E+00 0. -1.
<mgrwt>
<rscale>  0 0.14340781E+03</rscale>
<asrwt>0</asrwt>
<pdfrwt beam="2">  1        4 0.30948788E-01 0.15053338E+03</pdfrwt>
<pdfrwt beam="1">  1       -4 0.14584741E-01 0.15053338E+03</pdfrwt>
<totfact> 0.67033312E+02</totfact>
</mgrwt>
</event>
<event>
 8    1  0.7550631E-006  0.1589432E+03  0.7546771E-02  0.1197695E+00
         -3   -1    0    0    0  501 -0.00000000000E+00  0.00000000000E+00  0.36377978590E+03  0.36377978590E+03  0.00000000000E+00 0.  1.
          3   -1    0    0  501    0  0.00000000000E+00 -0.00000000000E+00 -0.62467543657E+02  0.62467543657E+02  0.00000000000E+00 0. -1.
         23    2    1    2    0    0 -0.27277861036E+02 -0.94304129225E+02  0.18893499638E+03  0.23158972165E+03  0.91104422631E+02 0.  0.
         23    2    1    2    0    0  0.27277861036E+02  0.94304129225E+02  0.11237724586E+03  0.19465760791E+03  0.12500235373E+03 0.  0.
          5    1    4    4  502    0  0.13864673450E+01  0.32014961844E+02  0.12211819280E+03  0.12634010878E+03  0.47000000000E+01 0.  1.
         -5    1    4    4    0  502  0.25891393691E+02  0.62289167381E+02 -0.97409469402E+01  0.68317499131E+02  0.47000000000E+01 0.  1.
        -11    1    3    3    0    0 -0.26007945812E+02 -0.40509695072E+02  0.16397244919E+02  0.50855857884E+02  0.00000000000E+00 0. -1.
         11    1    3    3    0    0 -0.12699152240E+01 -0.53794434153E+02  0.17253775147E+03  0.18073386376E+03  0.00000000000E+00 0.  1.
<mgrwt>
<rscale>  0 0.15228295E+03</rscale>
<asrwt>0</asrwt>
<pdfrwt beam="2">  1        3 0.96103916E-02 0.15894319E+03</pdfrwt>
<pdfrwt beam="1">  1       -3 0.55966120E-01 0.15894319E+03</pdfrwt>
<totfact> 0.59340562E+02</totfact>
</mgrwt>
</event>
<event>
 8    1  0.7550631E-006  0.1281013E+03  0.7546771E-02  0.1243386E+00
          1   -1    0    0  501    0  0.00000000000E+00  0.00000000000E+00  0.14201905482E+04  0.14201905482E+04  0.00000000000E+00 0. -1.
         -1   -1    0    0    0  501 -0.00000000000E+00 -0.00000000000E+00 -0.94550096698E+01  0.94550096698E+01  0.00000000000E+00 0.  1.
         23    2    1    2    0    0 -0.27155510453E+02 -0.68773970738E+01  0.46145914156E+03  0.47176475965E+03  0.93982598322E+02 0.  0.
         23    2    1    2    0    0  0.27155510453E+02  0.68773970738E+01  0.94927639700E+03  0.95788079824E+03  0.12500090160E+03 0.  0.
          5    1    4    4  502    0  0.14530788876E+01 -0.43680388977E+02  0.14311998762E+03  0.14971809735E+03  0.47000000000E+01 0.  1.
         -5    1    4    4    0  502  0.25702431565E+02  0.50557786051E+02  0.80615640938E+03  0.80816270089E+03  0.47000000000E+01 0.  1.
        -11    1    3    3    0    0 -0.61466248680E+02  0.52203159736E+01  0.29019687963E+03  0.29668094036E+03  0.00000000000E+00 0.  1.
         11    1    3    3    0    0  0.34310738227E+02 -0.12097713047E+02  0.17126226192E+03  0.17508381929E+03  0.00000000000E+00 0. -1.
<mgrwt>
<rscale>  0 0.11982506E+03</rscale>
<asrwt>0</asrwt>
<pdfrwt beam="1">  1        1 0.21849068E+00 0.12810131E+03</pdfrwt>
<pdfrwt beam="2">  1       -1 0.14546180E-02 0.12810131E+03</pdfrwt>
<totfact> 0.85790069E+03</totfact>
</mgrwt>
</event>
<event>
 8    1  0.7550631E-006  0.1753125E+03  0.7546771E-02  0.1178207E+00
          1   -1    0    0  501    0  0.00000000000E+00  0.00000000000E+00  0.31832027364E+02  0.31832027364E+02  0.00000000000E+00 0. -1.
         -1   -1    0    0    0  501 -0.00000000000E+00 -0.00000000000E+00 -0.85662518484E+03  0.85662518484E+03  0.00000000000E+00 0.  1.
         23    2    1    2    0    0  0.12233724350E+03 -0.11946930464E+02 -0.42315566475E+03  0.45022538178E+03  0.92374495937E+02 0.  0.
         23    2    1    2    0    0 -0.12233724350E+03  0.11946930464E+02 -0.40163749273E+03  0.43823183042E+03  0.12500132533E+03 0.  0.
          5    1    4    4  502    0  0.25283455197E+02  0.46765477888E+01 -0.43240618203E+02  0.50526866799E+02  0.47000000000E+01 0. -1.
         -5    1    4    4    0  502 -0.14762069869E+03  0.72703826754E+01 -0.35839687452E+03  0.38770496362E+03  0.47000000000E+01 0. -1.
        -11    1    3    3    0    0  0.57928513996E+02 -0.52019156821E+02 -0.20880648708E+03  0.22284939860E+03  0.00000000000E+00 0. -1.
         11    1    3    3    0    0  0.64408729500E+02  0.40072226357E+02 -0.21434917767E+03  0.22737598318E+03  0.00000000000E+00 0.  1.
<mgrwt>
<rscale>  0 0.16965651E+03</rscale>
<asrwt>0</asrwt>
<pdfrwt beam="1">  1        1 0.48972356E-02 0.17531247E+03</pdfrwt>
<pdfrwt beam="2">  1       -1 0.13178847E+00 0.17531247E+03</pdfrwt>
<totfact> 0.89382897E+02</totfact>
</mgrwt>
</event>
<event>
 8    1  0.7550631E-006  0.1586513E+03  0.7546771E-02  0.1198276E+00
         -2   -1    0    0    0  501 -0.00000000000E+00  0.00000000000E+00  0.45689186464E+02  0.45689186464E+02  0.00000000000E+00 0.  1.
          2   -1    0    0  501    0  0.00000000000E+00 -0.00000000000E+00 -0.51060853475E+03  0.51060853475E+03  0.00000000000E+00 0. -1.
         23    2    1    2    0    0  0.93469528933E+02 -0.19447071672E+02 -0.13130177124E+03  0.18687799769E+03  0.92566135567E+02 0.  0.
         23    2    1    2    0    0 -0.93469528933E+02  0.19447071672E+02 -0.33361757705E+03  0.36941972353E+03  0.12671031126E+03 0.  0.
          5    1    4    4  502    0 -0.58021579855E+02  0.73344276178E+02 -0.20895892176E+03  0.22897992829E+03  0.47000000000E+01 0. -1.
         -5    1    4    4    0  502 -0.35447949078E+02 -0.53897204506E+02 -0.12465865529E+03  0.14043979524E+03  0.47000000000E+01 0.  1.
        -11    1    3    3    0    0  0.96958583947E+02  0.92262678698E+01 -0.72677726008E+02  0.12152424811E+03  0.00000000000E+00 0. -1.
         11    1    3    3    0    0 -0.34890550142E+01 -0.28673339542E+02 -0.58624045228E+02  0.65353749580E+02  0.00000000000E+00 0.  1.
<mgrwt>
<rscale>  0 0.15180217E+03</rscale>
<asrwt>0</asrwt>
<pdfrwt beam="2">  1        2 0.78555159E-01 0.15865133E+03</pdfrwt>
<pdfrwt beam="1">  1       -2 0.70291056E-02 0.15865133E+03</pdfrwt>
<totfact> 0.68115840E+03</totfact>
</mgrwt>
</event>
<event>
 8    1  0.7550631E-006  0.1250829E+03  0.7546771E-02  0.1251059E+00
          1   -1    0    0  501    0  0.00000000000E+00  0.00000000000E+00  0.10563425892E+03  0.10563425892E+03  0.00000000000E+00 0. -1.
         -1   -1    0    0    0  501 -0.00000000000E+00 -0.00000000000E+00 -0.10979873718E+03  0.10979873718E+03  0.00000000000E+00 0.  1.
         23    2    1    2    0    0  0.42556639731E+01  0.15831715481E+01 -0.11498540918E+01  0.90313744091E+02  0.90192200878E+02 0.  0.
         23    2    1    2    0    0 -0.42556639731E+01 -0.15831715481E+01 -0.30146241722E+01  0.12511925201E+03  0.12500048862E+03 0.  0.
          5    1    4    4  502    0 -0.26278909624E+02 -0.17164591356E+02  0.53564728468E+02  0.62261339717E+02  0.47000000000E+01 0.  1.
         -5    1    4    4    0  502  0.22023245651E+02  0.15581419808E+02 -0.56579352640E+02  0.62857912290E+02  0.47000000000E+01 0.  1.
        -11    1    3    3    0    0 -0.28562927852E+02 -0.24037900439E+02  0.21331675015E+02  0.42996533162E+02  0.00000000000E+00 0. -1.
         11    1    3    3    0    0  0.32818591825E+02  0.25621071987E+02 -0.22481529107E+02  0.47317210929E+02  0.00000000000E+00 0.  1.
<mgrwt>
<rscale>  0 0.11529970E+03</rscale>
<asrwt>0</asrwt>
<pdfrwt beam="1">  1        1 0.16251424E-01 0.12508293E+03</pdfrwt>
<pdfrwt beam="2">  1       -1 0.16892113E-01 0.12508293E+03</pdfrwt>
<totfact> 0.83423205E+03</totfact>
</mgrwt>
</event>
<event>
 7    1  0.7550631E-006  0.1972811E+03  0.7546771E-02  0.1161273E+00
         -2   -1    0    0    0  501 -0.00000000000E+00  0.00000000000E+00  0.84693518382E+02  0.84693518382E+02  0.00000000000E+00 0.  1.
          2   -1    0    0  501    0  0.00000000000E+00 -0.00000000000E+00 -0.55351826301E+03  0.55351826301E+03  0.00000000000E+00 0. -1.
         23    2    1    2    0    0 -0.29050390567E+02 -0.12741693198E+03 -0.36660953377E+02  0.16314824814E+03  0.90522514444E+02 0.  0.
          5    1    1    2  502    0 -0.48463462669E+02  0.15460632676E+02 -0.19466066753E+03  0.20125258721E+03  0.47000000000E+01 0. -1.
         -5    1    1    2    0  502  0.77513853236E+02  0.11195629930E+03 -0.23750312373E+03  0.27381094605E+03  0.47000000000E+01 0.  1.
        -11    1    3    3    0    0  0.23654128594E+02 -0.71052436207E+01  0.52974882547E+01  0.25259961763E+02  0.00000000000E+00 0. -1.
         11    1    3    3    0    0 -0.52704519161E+02 -0.12031168835E+03 -0.41958441632E+02  0.13788828637E+03  0.00000000000E+00 0.  1.
<mgrwt>
<rscale>  0 0.18691616E+03</rscale>
<asrwt>0</asrwt>
<pdfrwt beam="2">  1        2 0.85156654E-01 0.19728106E+03</pdfrwt>
<pdfrwt beam="1">  1       -2 0.13029772E-01 0.19728106E+03</pdfrwt>
<totfact> 0.23717906E+03</totfact>
</mgrwt>
</event>
<event>
 8    1  0.7550631E-006  0.1662697E+03  0.7546771E-02  0.1189189E+00
         -2   -1    0    0    0  501 -0.00000000000E+00  0.00000000000E+00  0.21710003893E+02  0.21710003893E+02  0.00000000000E+00 0.  1.
          2   -1    0    0  501    0  0.00000000000E+00 -0.00000000000E+00 -0.13640490384E+04  0.13640490384E+04  0.00000000000E+00 0. -1.
         23    2    1    2    0    0 -0.10881546280E+03  0.13400949745E+02 -0.31603979314E+03  0.34607845147E+03  0.88705993717E+02 0.  0.
         23    2    1    2    0    0  0.10881546280E+03 -0.13400949745E+02 -0.10262992414E+04  0.10396805909E+04  0.12500083086E+03 0.  0.
          5    1    4    4  502    0  0.13179073103E+03 -0.32031478825E+02 -0.80401991685E+03  0.81539250004E+03  0.47000000000E+01 0. -1.
         -5    1    4    4    0  502 -0.22975268230E+02  0.18630529079E+02 -0.22227932454E+03  0.22428809082E+03  0.47000000000E+01 0. -1.
        -11    1    3    3    0    0 -0.11950827617E+03  0.14557899806E+02 -0.31228269327E+03  0.33468588413E+03  0.00000000000E+00 0.  1.
         11    1    3    3    0    0  0.10692813364E+02 -0.11569500607E+01 -0.37570998716E+01  0.11392567337E+02  0.00000000000E+00 0. -1.
<mgrwt>
<rscale>  0 0.15956468E+03</rscale>
<asrwt>0</asrwt>
<pdfrwt beam="2">  1        2 0.20985371E+00 0.16626965E+03</pdfrwt>
<pdfrwt beam="1">  1       -2 0.33400005E-02 0.16626965E+03</pdfrwt>
<totfact> 0.57584987E+03</totfact>
</mgrwt>
</event>
<event>
 8    1  0.7550631E-006  0.1998858E+03  0.7546771E-02  0.1154053E+00
         -3   -1    0    0    0  501 -0.00000000000E+00  0.00000000000E+00  0.97348419748E+02  0.97348419748E+02  0.00000000000E+00 0.  1.
          3   -1    0    0  501    0  0.00000000000E+00 -0.00000000000E+00 -0.59074054387E+03  0.59074054387E+03  0.00000000000E+00 0. -1.
         23    2    1    2    0    0 -0.15596144454E+03  0.23707810055E+01 -0.29978994219E+02  0.18340483272E+03  0.91700598612E+02 0.  0.
         23    2    1    2    0    0  0.15596144454E+03 -0.23707810055E+01 -0.46341312990E+03  0.50468413090E+03  0.12499900092E+03 0.  0.
          5    1    4    4  502    0  0.13081818213E+03 -0.13007134829E+01 -0.19387611018E+03  0.23393401790E+03  0.47000000000E+01 0. -1.
         -5    1    4    4    0  502  0.25143262404E+02 -0.10700675226E+01 -0.26953701972E+03  0.27075011299E+03  0.47000000000E+01 0. -1.
        -11    1    3    3    0    0 -0.10211562329E+03 -0.40550187326E+02 -0.44392492098E+01  0.10996192589E+03  0.00000000000E+00 0.  1.
         11    1    3    3    0    0 -0.53845821245E+02  0.42920968331E+02 -0.25539745009E+02  0.73442906827E+02  0.00000000000E+00 0. -1.
<mgrwt>
<rscale>  0 0.19497054E+03</rscale>
<asrwt>0</asrwt>
<pdfrwt beam="2">  1        3 0.90883162E-01 0.19988582E+03</pdfrwt>
<pdfrwt beam="1">  1       -3 0.14976680E-01 0.19988582E+03</pdfrwt>
<totfact> 0.10232712E+02</totfact>
</mgrwt>
</event>
<event>
 7    1  0.7550631E-006  0.1313907E+03  0.7546771E-02  0.1242728E+00
         -2   -1    0    0    0  501 -0.00000000000E+00  0.00000000000E+00  0.48791594673E+03  0.48791594673E+03  0.00000000000E+00 0.  1.
          2   -1    0    0  501    0  0.00000000000E+00 -0.00000000000E+00 -0.26643069326E+02  0.26643069326E+02  0.00000000000E+00 0. -1.
         23    2    1    2    0    0  0.15639394735E+02  0.43734681300E+01  0.24199685245E+03  0.25893136916E+03  0.90660131531E+02 0.  0.
          5    1    1    2  502    0  0.87075896337E+01  0.11088450946E+02 -0.14066201985E+02  0.20462744193E+02  0.47000000000E+01 0. -1.
         -5    1    1    2    0  502 -0.24346984369E+02 -0.15461919076E+02  0.23334222695E+03  0.23516490271E+03  0.47000000000E+01 0.  1.
        -11    1    3    3    0    0 -0.13842841341E+02  0.34461403546E+02  0.49519035649E+02  0.61897879465E+02  0.00000000000E+00 0.  1.
         11    1    3    3    0    0  0.29482236076E+02 -0.30087935416E+02  0.19247781680E+03  0.19703348969E+03  0.00000000000E+00 0. -1.
<mgrwt>
<rscale>  0 0.12022424E+03</rscale>
<asrwt>0</asrwt>
<pdfrwt beam="2">  1        2 0.40989341E-02 0.13139071E+03</pdfrwt>
<pdfrwt beam="1">  1       -2 0.75063985E-01 0.13139071E+03</pdfrwt>
<totfact> 0.31986369E+03</totfact>
</mgrwt>
</event>
<event>
 8    1  0.7550631E-006  0.1295047E+03  0.7546771E-02  0.1241654E+00
         -1   -1    0    0    0  501 -0.00000000000E+00  0.00000000000E+00  0.19675972138E+03  0.19675972138E+03  0.00000000000E+00 0. -1.
          1   -1    0    0  501    0  0.00000000000E+00 -0.00000000000E+00 -0.81547250395E+02  0.81547250395E+02  0.00000000000E+00 0.  1.
         23    2    1    2    0    0  0.27547318221E+02 -0.19702068898E+02  0.11164662711E+03  0.14875314496E+03  0.92279480555E+02 0.  0.
         23    2    1    2    0    0 -0.27547318221E+02  0.19702068898E+02  0.35658438791E+01  0.12955382681E+03  0.12499781014E+03 0.  0.
          5    1    4    4  502    0 -0.56046759365E+02  0.24626875636E+02 -0.42701999783E+02  0.74788187733E+02  0.47000000000E+01 0. -1.
         -5    1    4    4    0  502  0.28499441144E+02 -0.49248067383E+01  0.46267843662E+02  0.54765639082E+02  0.47000000000E+01 0. -1.
        -11    1    3    3    0    0 -0.78025229334E+01 -0.13126628883E+02 -0.12355653480E+02  0.19643062970E+02  0.00000000000E+00 0.  1.
         11    1    3    3    0    0  0.35349841154E+02 -0.65754400155E+01  0.12400228059E+03  0.12911008199E+03  0.00000000000E+00 0. -1.
<mgrwt>
<rscale>  0 0.12087893E+03</rscale>
<asrwt>0</asrwt>
<pdfrwt beam="2">  1        1 0.12545731E-01 0.12950474E+03</pdfrwt>
<pdfrwt beam="1">  1       -1 0.30270726E-01 0.12950474E+03</pdfrwt>
<totfact> 0.45336758E+03</totfact>
</mgrwt>
</event>
<event>
 8    1  0.7550631E-006  0.1569544E+03  0.7546771E-02  0.1201274E+00
          1   -1    0    0  501    0  0.00000000000E+00  0.00000000000E+00  0.88664961115E+03  0.88664961115E+03  0.00000000000E+00 0. -1.
         -1   -1    0    0    0  501 -0.00000000000E+00 -0.00000000000E+00 -0.24388864793E+02  0.24388864793E+02  0.00000000000E+00 0.  1.
         23    2    1    2    0    0 -0.95379652572E+01  0.94211453062E+02  0.28281215924E+03  0.31070912122E+03  0.87124450787E+02 0.  0.
         23    2    1    2    0    0  0.95379652572E+01 -0.94211453062E+02  0.57944858711E+03  0.60032935472E+03  0.12517147584E+03 0.  0.
          5    1    4    4  502    0 -0.38407426058E+02 -0.99067520170E+02  0.34886223295E+03  0.36471420525E+03  0.47000000000E+01 0.  1.
         -5    1    4    4    0  502  0.47945391316E+02  0.48560671076E+01  0.23058635416E+03  0.23561514948E+03  0.47000000000E+01 0.  1.
        -11    1    3    3    0    0 -0.33529255880E+02  0.88413115296E+02  0.26159867468E+03  0.27816354281E+03  0.00000000000E+00 0. -1.
         11    1    3    3    0    0  0.23991290623E+02  0.57983377663E+01  0.21213484563E+02  0.32545578408E+02  0.00000000000E+00 0.  1.
<mgrwt>
<rscale>  0 0.14934964E+03</rscale>
<asrwt>0</asrwt>
<pdfrwt beam="1">  1        1 0.13640761E+00 0.15695435E+03</pdfrwt>
<pdfrwt beam="2">  1       -1 0.37521337E-02 0.15695435E+03</pdfrwt>
<totfact> 0.51842740E+03</totfact>
</mgrwt>
</event>
<event>
 8    1  0.7550631E-006  0.1556464E+03  0.7546771E-02  0.1202538E+00
          1   -1    0    0  501    0  0.00000000000E+00  0.00000000000E+00  0.12200019023E+03  0.12200019023E+03  0.00000000000E+00 0. -1.
         -1   -1    0    0    0  501 -0.00000000000E+00 -0.00000000000E+00 -0.17431970706E+03  0.17431970706E+03  0.00000000000E+00 0.  1.
         23    2    1    2    0    0  0.60398921162E+02  0.70376021123E+02 -0.57303326425E+02  0.14059368938E+03  0.88781193089E+02 0.  0.
         23    2    1    2    0    0 -0.60398921162E+02 -0.70376021123E+02  0.49838096004E+01  0.15572620792E+03  0.12499999779E+03 0.  0.
          5    1    4    4  502    0 -0.18461578187E+02 -0.99384268207E+02  0.18252564502E+02  0.10282659552E+03  0.47000000000E+01 0. -1.
         -5    1    4    4    0  502 -0.41937342976E+02  0.29008247084E+02 -0.13268754901E+02  0.52899612393E+02  0.47000000000E+01 0. -1.
        -11    1    3    3    0    0  0.47849073041E+02  0.88644964794E+02 -0.29357245531E+02  0.10492526597E+03  0.00000000000E+00 0.  1.
         11    1    3    3    0    0  0.12549848121E+02 -0.18268943672E+02 -0.27946080893E+02  0.35668423403E+02  0.00000000000E+00 0. -1.
<mgrwt>
<rscale>  0 0.14833159E+03</rscale>
<asrwt>0</asrwt>
<pdfrwt beam="1">  1        1 0.18769260E-01 0.15564644E+03</pdfrwt>
<pdfrwt beam="2">  1       -1 0.26818416E-01 0.15564644E+03</pdfrwt>
<totfact> 0.33295947E+03</totfact>
</mgrwt>
</event>
<event>
 8    1  0.7550631E-006  0.1649667E+03  0.7546771E-02  0.1190401E+00
         -1   -1    0    0    0  501 -0.00000000000E+00  0.00000000000E+00  0.32222489756E+02  0.32222489756E+02  0.00000000000E+00 0.  1.
          1   -1    0    0  501    0  0.00000000000E+00 -0.00000000000E+00 -0.13491177275E+04  0.13491177275E+04  0.00000000000E+00 0. -1.
         23    2    1    2    0    0  0.76540141600E+01 -0.10737955246E+03 -0.16102308622E+03  0.21375533641E+03  0.90409940433E+02 0.  0.
         23    2    1    2    0    0 -0.76540141600E+01  0.10737955246E+03 -0.11558721515E+04  0.11675848809E+04  0.12500028437E+03 0.  0.
          5    1    4    4  502    0 -0.32513344577E+01  0.30531275945E+02 -0.48909689782E+02  0.57939431660E+02  0.47000000000E+01 0. -1.
         -5    1    4    4    0  502 -0.44026797023E+01  0.76848276514E+02 -0.11069624618E+04  0.11096454492E+04  0.47000000000E+01 0. -1.
        -11    1    3    3    0    0 -0.25692187371E+01 -0.11576464448E+03 -0.16345269745E+03  0.20031185212E+03  0.00000000000E+00 0. -1.
         11    1    3    3    0    0  0.10223232897E+02  0.83850920169E+01  0.24296112366E+01  0.13443484286E+02  0.00000000000E+00 0.  1.
<mgrwt>
<rscale>  0 0.15849977E+03</rscale>
<asrwt>0</asrwt>
<pdfrwt beam="2">  1        1 0.20755653E+00 0.16496673E+03</pdfrwt>
<pdfrwt beam="1">  1       -1 0.49573071E-02 0.16496673E+03</pdfrwt>
<totfact> 0.16127274E+03</totfact>
</mgrwt>
</event>
<event>
 8    1  0.7550631E-006  0.1357234E+03  0.7546771E-02  0.1231249E+00
          2   -1    0    0  501    0  0.00000000000E+00  0.00000000000E+00  0.59478941299E+02  0.59478941299E+02  0.00000000000E+00 0. -1.
         -2   -1    0    0    0  501 -0.00000000000E+00 -0.00000000000E+00 -0.24568289097E+03  0.24568289097E+03  0.00000000000E+00 0.  1.
         23    2    1    2    0    0  0.48460916193E+02  0.21160433490E+02 -0.90481497424E+02  0.13907861464E+03  0.91431588257E+02 0.  0.
         23    2    1    2    0    0 -0.48460916193E+02 -0.21160433490E+02 -0.95722452251E+02  0.16608321763E+03  0.12499849187E+03 0.  0.
          5    1    4    4  502    0  0.19702974985E+02 -0.28449179931E+02 -0.90694461291E+02  0.97186101737E+02  0.47000000000E+01 0. -1.
         -5    1    4    4    0  502 -0.68163891178E+02  0.72887464410E+01 -0.50279909600E+01  0.68897115893E+02  0.47000000000E+01 0. -1.
        -11    1    3    3    0    0  0.34999404703E+02  0.45308144644E+02 -0.15722676625E+02  0.59371616627E+02  0.00000000000E+00 0. -1.
         11    1    3    3    0    0  0.13461511490E+02 -0.24147711153E+02 -0.74758820799E+02  0.79706998016E+02  0.00000000000E+00 0.  1.
<mgrwt>
<rscale>  0 0.12747631E+03</rscale>
<asrwt>0</asrwt>
<pdfrwt beam="1">  1        2 0.91506063E-02 0.13572342E+03</pdfrwt>
<pdfrwt beam="2">  1       -2 0.37797368E-01 0.13572342E+03</pdfrwt>
<totfact> 0.45319802E+03</totfact>
</mgrwt>
</event>
<event>
 8    1  0.7550631E-006  0.1309340E+03  0.7546771E-02  0.1239960E+00
          1   -1    0    0  501    0  0.00000000000E+00  0.00000000000E+00  0.87968656742E+02  0.87968656742E+02  0.00000000000E+00 0. -1.
         -1   -1    0    0    0  501 -0.00000000000E+00 -0.00000000000E+00 -0.21337484754E+03  0.21337484754E+03  0.00000000000E+00 0.  1.
         23    2    1    2    0    0  0.35765855065E+02  0.15481800069E+02 -0.13832158875E+03  0.16977402560E+03  0.90396213043E+02 0.  0.
         23    2    1    2    0    0 -0.35765855065E+02 -0.15481800069E+02  0.12915397953E+02  0.13156947868E+03  0.12499935077E+03 0.  0.
          5    1    4    4  502    0 -0.27860436775E+02 -0.69109772926E+02  0.18360864176E+02  0.76886773794E+02  0.47000000000E+01 0. -1.
         -5    1    4    4    0  502 -0.79054182902E+01  0.53627972857E+02 -0.54454662233E+01  0.54682704885E+02  0.47000000000E+01 0. -1.
        -11    1    3    3    0    0  0.37507641286E+02 -0.32758661207E+02 -0.77567894641E+02  0.92177715951E+02  0.00000000000E+00 0.  1.
         11    1    3    3    0    0 -0.17417862209E+01  0.48240461276E+02 -0.60753694105E+02  0.77596309646E+02  0.00000000000E+00 0. -1.
<mgrwt>
<rscale>  0 0.12192194E+03</rscale>
<asrwt>0</asrwt>
<pdfrwt beam="1">  1        1 0.13533640E-01 0.13093403E+03</pdfrwt>
<pdfrwt beam="2">  1       -1 0.32826900E-01 0.13093403E+03</pdfrwt>
<totfact> 0.35838375E+03</totfact>
</mgrwt>
</event>
<event>
 8    1  0.7550631E-006  0.1574161E+03  0.7546771E-02  0.1199063E+00
         -3   -1    0    0    0  501 -0.00000000000E+00  0.00000000000E+00  0.12973175940E+03  0.12973175940E+03  0.00000000000E+00 0.  1.
          3   -1    0    0  501    0  0.00000000000E+00 -0.00000000000E+00 -0.27895820909E+03  0.27895820909E+03  0.00000000000E+00 0. -1.
         23    2    1    2    0    0 -0.97376821346E+02  0.21143929053E+02  0.60167449549E+02  0.14672500507E+03  0.89324095615E+02 0.  0.
         23    2    1    2    0    0  0.97376821346E+02 -0.21143929053E+02 -0.20939389924E+03  0.26196496342E+03  0.12186273405E+03 0.  0.
          5    1    4    4  502    0  0.11381791968E+03  0.10092695479E+02 -0.12013234705E+03  0.16586214803E+03  0.47000000000E+01 0. -1.
         -5    1    4    4    0  502 -0.16441098334E+02 -0.31236624532E+02 -0.89261552186E+02  0.96102815387E+02  0.47000000000E+01 0.  1.
        -11    1    3    3    0    0 -0.75133890279E+02  0.38884514269E+02  0.76380465090E+02  0.11397842939E+03  0.00000000000E+00 0.  1.
         11    1    3    3    0    0 -0.22242931067E+02 -0.17740585216E+02 -0.16213015541E+02  0.32746575686E+02  0.00000000000E+00 0. -1.
<mgrwt>
<rscale>  0 0.15115347E+03</rscale>
<asrwt>0</asrwt>
<pdfrwt beam="2">  1        3 0.42916647E-01 0.15741613E+03</pdfrwt>
<pdfrwt beam="1">  1       -3 0.19958732E-01 0.15741613E+03</pdfrwt>
<totfact> 0.28960878E+02</totfact>
</mgrwt>
</event>
<event>
 8    1  0.7550631E-006  0.1533432E+03  0.7546771E-02  0.1205046E+00
         -1   -1    0    0    0  501 -0.00000000000E+00  0.00000000000E+00  0.12638520732E+03  0.12638520732E+03  0.00000000000E+00 0.  1.
          1   -1    0    0  501    0  0.00000000000E+00 -0.00000000000E+00 -0.18015894507E+03  0.18015894507E+03  0.00000000000E+00 0. -1.
         23    2    1    2    0    0  0.80448583036E+01 -0.88449874262E+02  0.31577840830E+02  0.13104760377E+03  0.91039631044E+02 0.  0.
         23    2    1    2    0    0 -0.80448583036E+01  0.88449874262E+02 -0.85351578582E+02  0.17549654862E+03  0.12500418636E+03 0.  0.
          5    1    4    4  502    0  0.36831261334E+02  0.89371575420E+02 -0.87283965271E+02  0.13032421455E+03  0.47000000000E+01 0. -1.
         -5    1    4    4    0  502 -0.44876119638E+02 -0.92170115795E+00  0.19323866892E+01  0.45172334067E+02  0.47000000000E+01 0. -1.
        -11    1    3    3    0    0 -0.25125054013E+02 -0.87506732502E+02  0.35321018790E+02  0.97653832186E+02  0.00000000000E+00 0. -1.
         11    1    3    3    0    0  0.33169912316E+02 -0.94314176003E+00 -0.37431779603E+01  0.33393771585E+02  0.00000000000E+00 0.  1.
<mgrwt>
<rscale>  0 0.14633843E+03</rscale>
<asrwt>0</asrwt>
<pdfrwt beam="2">  1        1 0.27716761E-01 0.15334323E+03</pdfrwt>
<pdfrwt beam="1">  1       -1 0.19443878E-01 0.15334323E+03</pdfrwt>
<totfact> 0.34330021E+03</totfact>
</mgrwt>
</event>
<event>
 8    1  0.7550631E-006  0.1353908E+03  0.7546771E-02  0.1231867E+00
         -4   -1    0    0    0  501 -0.00000000000E+00  0.00000000000E+00  0.22243477994E+02  0.22243477994E+02  0.00000000000E+00 0.  1.
          4   -1    0    0  501    0  0.00000000000E+00 -0.00000000000E+00 -0.76536073587E+03  0.76536073587E+03  0.00000000000E+00 0. -1.
         23    2    1    2    0    0  0.47768075223E+02 -0.20605495864E+02 -0.17977595119E+03  0.20822170883E+03  0.91271638151E+02 0.  0.
         23    2    1    2    0    0 -0.47768075223E+02  0.20605495864E+02 -0.56334130668E+03  0.57938250503E+03  0.12499713538E+03 0.  0.
          5    1    4    4  502    0  0.21027497540E+02 -0.12920666594E+02 -0.24426426051E+02  0.35040541772E+02  0.47000000000E+01 0.  1.
         -5    1    4    4    0  502 -0.68795572763E+02  0.33526162458E+02 -0.53891488063E+03  0.54434196326E+03  0.47000000000E+01 0.  1.
        -11    1    3    3    0    0  0.32623179702E+02  0.17560275341E+02 -0.17764401099E+02  0.41087821436E+02  0.00000000000E+00 0.  1.
         11    1    3    3    0    0  0.15144895521E+02 -0.38165771205E+02 -0.16201155010E+03  0.16713388740E+03  0.00000000000E+00 0. -1.
<mgrwt>
<rscale>  0 0.12707134E+03</rscale>
<asrwt>0</asrwt>
<pdfrwt beam="2">  1        4 0.11774780E+00 0.13539077E+03</pdfrwt>
<pdfrwt beam="1">  1       -4 0.34220736E-02 0.13539077E+03</pdfrwt>
<totfact> 0.42370022E+02</totfact>
</mgrwt>
</event>
<event>
 8    1  0.7550631E-006  0.1294346E+03  0.7546771E-02  0.1239763E+00
          1   -1    0    0  501    0  0.00000000000E+00  0.00000000000E+00  0.19662622676E+03  0.19662622676E+03  0.00000000000E+00 0. -1.
         -1   -1    0    0    0  501 -0.00000000000E+00 -0.00000000000E+00 -0.71823943895E+02  0.71823943895E+02  0.00000000000E+00 0.  1.
         23    2    1    2    0    0  0.30111952556E+02  0.14929333230E+02  0.25846124586E+02  0.10552183282E+03  0.96629293529E+02 0.  0.
         23    2    1    2    0    0 -0.30111952556E+02 -0.14929333230E+02  0.98956158281E+02  0.16292833784E+03  0.12499482922E+03 0.  0.
          5    1    4    4  502    0 -0.45501125036E+02  0.31150250678E+02  0.99794647338E+02  0.11411289206E+03  0.47000000000E+01 0. -1.
         -5    1    4    4    0  502  0.15389172479E+02 -0.46079583908E+02 -0.83848905649E+00  0.48815445779E+02  0.47000000000E+01 0. -1.
        -11    1    3    3    0    0  0.28763145843E+02  0.54273682336E+02  0.68323313204E+01  0.61803170666E+02  0.00000000000E+00 0.  1.
         11    1    3    3    0    0  0.13488067134E+01 -0.39344349106E+02  0.19013793266E+02  0.43718662153E+02  0.00000000000E+00 0. -1.
<mgrwt>
<rscale>  0 0.12204353E+03</rscale>
<asrwt>0</asrwt>
<pdfrwt beam="1">  1        1 0.30250189E-01 0.12943462E+03</pdfrwt>
<pdfrwt beam="2">  1       -1 0.11049838E-01 0.12943462E+03</pdfrwt>
<totfact> 0.73874901E+03</totfact>
</mgrwt>
</event>
<event>
 8    1  0.7550631E-006  0.1308278E+03  0.7546771E-02  0.1239571E+00
         -1   -1    0    0    0  501 -0.00000000000E+00  0.00000000000E+00  0.30308828767E+03  0.30308828767E+03  0.00000000000E+00 0.  1.
          1   -1    0    0  501    0  0.00000000000E+00 -0.00000000000E+00 -0.45127809858E+02  0.45127809858E+02  0.00000000000E+00 0. -1.
         23    2    1    2    0    0 -0.27466910733E+01  0.38095098230E+02  0.14216462104E+03  0.17350318601E+03  0.91835697095E+02 0.  0.
         23    2    1    2    0    0  0.27466910733E+01 -0.38095098230E+02  0.11579585678E+03  0.17471291152E+03  0.12512849469E+03 0.  0.
          5    1    4    4  502    0  0.36091429811E+02 -0.72731592766E+02  0.61004042776E+02  0.10166641101E+03  0.47000000000E+01 0. -1.
         -5    1    4    4    0  502 -0.33344738738E+02  0.34636494536E+02  0.54791813999E+02  0.73046500509E+02  0.47000000000E+01 0. -1.
        -11    1    3    3    0    0 -0.10143622602E+02  0.64191682399E+02  0.12640495034E+03  0.14213260231E+03  0.00000000000E+00 0.  1.
         11    1    3    3    0    0  0.73969315290E+01 -0.26096584170E+02  0.15759670695E+02  0.31370583702E+02  0.00000000000E+00 0. -1.
<mgrwt>
<rscale>  0 0.12216274E+03</rscale>
<asrwt>0</asrwt>
<pdfrwt beam="2">  1        1 0.69427402E-02 0.13082783E+03</pdfrwt>
<pdfrwt beam="1">  1       -1 0.46628966E-01 0.13082783E+03</pdfrwt>
<totfact> 0.47049535E+03</totfact>
</mgrwt>
</event>
<event>
 8    1  0.7550631E-006  0.1355596E+03  0.7546771E-02  0.1231551E+00
          1   -1    0    0  501    0  0.00000000000E+00  0.00000000000E+00  0.75839029318E+03  0.75839029318E+03  0.00000000000E+00 0. -1.
         -1   -1    0    0    0  501 -0.00000000000E+00 -0.00000000000E+00 -0.19131986639E+02  0.19131986639E+02  0.00000000000E+00 0.  1.
         23    2    1    2    0    0 -0.52487685609E+02 -0.18553950390E+01  0.32519339374E+03  0.34183184381E+03  0.91322869401E+02 0.  0.
         23    2    1    2    0    0  0.52487685609E+02  0.18553950390E+01  0.41406491280E+03  0.43569043601E+03  0.12497201442E+03 0.  0.
          5    1    4    4  502    0  0.80227041076E+02  0.35487730382E+02  0.22350302915E+03  0.24014881046E+03  0.47000000000E+01 0. -1.
         -5    1    4    4    0  502 -0.27739355467E+02 -0.33632335343E+02  0.19056188365E+03  0.19554162555E+03  0.47000000000E+01 0. -1.
        -11    1    3    3    0    0 -0.41762763681E+02  0.41846930227E+02  0.15835085627E+03  0.16902747611E+03  0.00000000000E+00 0.  1.
         11    1    3    3    0    0 -0.10724921928E+02 -0.43702325266E+02  0.16684253747E+03  0.17280436769E+03  0.00000000000E+00 0. -1.
<mgrwt>
<rscale>  0 0.12727837E+03</rscale>
<asrwt>0</asrwt>
<pdfrwt beam="1">  1        1 0.11667541E+00 0.13555960E+03</pdfrwt>
<pdfrwt beam="2">  1       -1 0.29433832E-02 0.13555960E+03</pdfrwt>
<totfact> 0.93204433E+03</totfact>
</mgrwt>
</event>
<event>
 7    1  0.7550631E-006  0.1469540E+03  0.7546771E-02  0.1222796E+00
          1   -1    0    0  501    0  0.00000000000E+00  0.00000000000E+00  0.84855095880E+03  0.84855095880E+03  0.00000000000E+00 0. -1.
         -1   -1    0    0    0  501 -0.00000000000E+00 -0.00000000000E+00 -0.22634653317E+02  0.22634653317E+02  0.00000000000E+00 0.  1.
         23    2    1    2    0    0 -0.33535932286E+02 -0.76071928402E+01  0.15238706520E+03  0.18181117983E+03  0.93010533453E+02 0.  0.
          5    1    1    2  502    0  0.16340595375E+02  0.57203143557E+02  0.57083954120E+03  0.57395042163E+03  0.47000000000E+01 0. -1.
         -5    1    1    2    0  502  0.17195336911E+02 -0.49595950717E+02  0.10268969908E+03  0.11542401066E+03  0.47000000000E+01 0.  1.
        -11    1    3    3    0    0 -0.15910265841E+01  0.40838637290E+02  0.69576856843E+02  0.80692407756E+02  0.00000000000E+00 0. -1.
         11    1    3    3    0    0 -0.31944905702E+02 -0.48445830130E+02  0.82810208354E+02  0.10111877207E+03  0.00000000000E+00 0.  1.
<mgrwt>
<rscale>  0 0.13319087E+03</rscale>
<asrwt>0</asrwt>
<pdfrwt beam="1">  1        1 0.13054628E+00 0.14695397E+03</pdfrwt>
<pdfrwt beam="2">  1       -1 0.34822550E-02 0.14695397E+03</pdfrwt>
<totfact> 0.61797674E+03</totfact>
</mgrwt>
</event>
<event>
 8    1  0.7550631E-006  0.2392502E+03  0.7546771E-02  0.1122842E+00
         -3   -1    0    0    0  501 -0.00000000000E+00  0.00000000000E+00  0.92883991530E+03  0.92883991530E+03  0.00000000000E+00 0.  1.
          3   -1    0    0  501    0  0.00000000000E+00 -0.00000000000E+00 -0.59285488056E+02  0.59285488056E+02  0.00000000000E+00 0. -1.
         23    2    1    2    0    0  0.16153689871E+03  0.12459834774E+03  0.34549352302E+03  0.41203469325E+03  0.93743778908E+02 0.  0.
         23    2    1    2    0    0 -0.16153689871E+03 -0.12459834774E+03  0.52406090422E+03  0.57609071011E+03  0.12498702748E+03 0.  0.
          5    1    4    4  502    0 -0.37475361160E+02 -0.10748047788E+03  0.25063760741E+03  0.27531392276E+03  0.47000000000E+01 0. -1.
         -5    1    4    4    0  502 -0.12406153755E+03 -0.17117869855E+02  0.27342329681E+03  0.30077678735E+03  0.47000000000E+01 0. -1.
        -11    1    3    3    0    0  0.57407358809E+02  0.49581752381E+02  0.52743585810E+02  0.92389614452E+02  0.00000000000E+00 0. -1.
         11    1    3    3    0    0  0.10412953990E+03  0.75016595355E+02  0.29274993721E+03  0.31964507879E+03  0.00000000000E+00 0.  1.
<mgrwt>
<rscale>  0 0.23547805E+03</rscale>
<asrwt>0</asrwt>
<pdfrwt beam="2">  1        3 0.91208450E-02 0.23925023E+03</pdfrwt>
<pdfrwt beam="1">  1       -3 0.14289844E+00 0.23925023E+03</pdfrwt>
<totfact> 0.82345193E+01</totfact>
</mgrwt>
</event>
<event>
 8    1  0.7550631E-006  0.1367852E+03  0.7546771E-02  0.1229708E+00
         -1   -1    0    0    0  501 -0.00000000000E+00  0.00000000000E+00  0.26012453206E+03  0.26012453206E+03  0.00000000000E+00 0.  1.
          1   -1    0    0  501    0  0.00000000000E+00 -0.00000000000E+00 -0.57625432567E+02  0.57625432567E+02  0.00000000000E+00 0. -1.
         23    2    1    2    0    0 -0.12145964944E+02 -0.54211636230E+02  0.10661124690E+03  0.15070307239E+03  0.90879217072E+02 0.  0.
         23    2    1    2    0    0  0.12145964944E+02  0.54211636230E+02  0.95887852602E+02  0.16704689224E+03  0.12499503176E+03 0.  0.
          5    1    4    4  502    0  0.26153025681E+02  0.91787865152E+02  0.75681161311E+02  0.12189635400E+03  0.47000000000E+01 0.  1.
         -5    1    4    4    0  502 -0.14007060737E+02 -0.37576228922E+02  0.20206691291E+02  0.45150538241E+02  0.47000000000E+01 0.  1.
        -11    1    3    3    0    0 -0.45061697464E+01  0.14412239965E+02 -0.78570837287E+01  0.17022103023E+02  0.00000000000E+00 0. -1.
         11    1    3    3    0    0 -0.76397951979E+01 -0.68623876195E+02  0.11446833062E+03  0.13368096937E+03  0.00000000000E+00 0.  1.
<mgrwt>
<rscale>  0 0.12849376E+03</rscale>
<asrwt>0</asrwt>
<pdfrwt beam="2">  1        1 0.88654513E-02 0.13678517E+03</pdfrwt>
<pdfrwt beam="1">  1       -1 0.40019158E-01 0.13678517E+03</pdfrwt>
<totfact> 0.44593112E+03</totfact>
</mgrwt>
</event>
<event>
 8    1  0.7550631E-006  0.1259479E+03  0.7546771E-02  0.1248058E+00
          3   -1    0    0  501    0  0.00000000000E+00  0.00000000000E+00  0.10633091182E+03  0.10633091182E+03  0.00000000000E+00 0. -1.
         -3   -1    0    0    0  501 -0.00000000000E+00 -0.00000000000E+00 -0.14034672304E+03  0.14034672304E+03  0.00000000000E+00 0.  1.
         23    2    1    2    0    0  0.65889511069E+01  0.13965077426E+02 -0.68313750911E+02  0.11614323821E+03  0.92650124417E+02 0.  0.
         23    2    1    2    0    0 -0.65889511069E+01 -0.13965077426E+02  0.34297939691E+02  0.13053439664E+03  0.12499776948E+03 0.  0.
          5    1    4    4  502    0 -0.21716522535E+02 -0.61788748788E+02 -0.61188199083E+01  0.65946848180E+02  0.47000000000E+01 0.  1.
         -5    1    4    4    0  502  0.15127571428E+02  0.47823671362E+02  0.40416759599E+02  0.64587548462E+02  0.47000000000E+01 0.  1.
        -11    1    3    3    0    0 -0.29553394395E+02  0.34891747077E+02 -0.56610721266E+02  0.72770948163E+02  0.00000000000E+00 0.  1.
         11    1    3    3    0    0  0.36142345502E+02 -0.20926669651E+02 -0.11703029645E+02  0.43372290048E+02  0.00000000000E+00 0. -1.
<mgrwt>
<rscale>  0 0.11704210E+03</rscale>
<asrwt>0</asrwt>
<pdfrwt beam="1">  1        3 0.16358602E-01 0.12594793E+03</pdfrwt>
<pdfrwt beam="2">  1       -3 0.21591803E-01 0.12594793E+03</pdfrwt>
<totfact> 0.14195317E+03</totfact>
</mgrwt>
</event>
<event>
 8    1  0.7550631E-006  0.1546522E+03  0.7546771E-02  0.1202796E+00
         -2   -1    0    0    0  501 -0.00000000000E+00  0.00000000000E+00  0.10387098960E+02  0.10387098960E+02  0.00000000000E+00 0.  1.
          2   -1    0    0  501    0  0.00000000000E+00 -0.00000000000E+00 -0.21289113878E+04  0.21289113878E+04  0.00000000000E+00 0. -1.
         23    2    1    2    0    0  0.27208110689E+02  0.97863274852E+02 -0.66859012473E+03  0.68113992271E+03  0.81371601725E+02 0.  0.
         23    2    1    2    0    0 -0.27208110689E+02 -0.97863274852E+02 -0.14499341641E+04  0.14581585640E+04  0.11661824819E+03 0.  0.
          5    1    4    4  502    0  0.31731399445E+02 -0.58612184912E+02 -0.37664175087E+03  0.38252237638E+03  0.47000000000E+01 0. -1.
         -5    1    4    4    0  502 -0.58939510134E+02 -0.39251089941E+02 -0.10732924132E+04  0.10756361876E+04  0.47000000000E+01 0.  1.
        -11    1    3    3    0    0  0.18008741452E+02 -0.10862796750E+02 -0.10622963078E+03  0.10829150280E+03  0.00000000000E+00 0.  1.
         11    1    3    3    0    0  0.91993692367E+01  0.10872607160E+03 -0.56236049395E+03  0.57284841991E+03  0.00000000000E+00 0. -1.
<mgrwt>
<rscale>  0 0.14812475E+03</rscale>
<asrwt>0</asrwt>
<pdfrwt beam="2">  1        2 0.32752493E+00 0.15465225E+03</pdfrwt>
<pdfrwt beam="1">  1       -2 0.15980148E-02 0.15465225E+03</pdfrwt>
<totfact> 0.67826117E+03</totfact>
</mgrwt>
</event>
<event>
 8    1  0.7550631E-006  0.1342129E+03  0.7546771E-02  0.1232430E+00
         -2   -1    0    0    0  501 -0.00000000000E+00  0.00000000000E+00  0.59571190401E+03  0.59571190401E+03  0.00000000000E+00 0.  1.
          2   -1    0    0  501    0  0.00000000000E+00 -0.00000000000E+00 -0.27571938858E+02  0.27571938858E+02  0.00000000000E+00 0. -1.
         23    2    1    2    0    0  0.42077151438E+02  0.34831777390E+02  0.36143609260E+03  0.37682980002E+03  0.91547308843E+02 0.  0.
         23    2    1    2    0    0 -0.42077151438E+02 -0.34831777390E+02  0.20670387255E+03  0.24645404285E+03  0.12259431031E+03 0.  0.
          5    1    4    4  502    0  0.16298405604E+02  0.51860958476E+01  0.16121927591E+03  0.16219210382E+03  0.47000000000E+01 0. -1.
         -5    1    4    4    0  502 -0.58375557042E+02 -0.40017873237E+02  0.45484596639E+02  0.84261939034E+02  0.47000000000E+01 0.  1.
        -11    1    3    3    0    0  0.46715648412E+02  0.47082849485E+02  0.35683300081E+03  0.36294481260E+03  0.00000000000E+00 0.  1.
         11    1    3    3    0    0 -0.46384969736E+01 -0.12251072095E+02  0.46030917902E+01  0.13884987421E+02  0.00000000000E+00 0. -1.
<mgrwt>
<rscale>  0 0.12670397E+03</rscale>
<asrwt>0</asrwt>
<pdfrwt beam="2">  1        2 0.42418372E-02 0.13421291E+03</pdfrwt>
<pdfrwt beam="1">  1       -2 0.91647976E-01 0.13421291E+03</pdfrwt>
<totfact> 0.19719041E+03</totfact>
</mgrwt>
</event>
<event>
 8    1  0.7550631E-006  0.1549604E+03  0.7546771E-02  0.1202830E+00
          2   -1    0    0  501    0  0.00000000000E+00  0.00000000000E+00  0.31190866467E+03  0.31190866467E+03  0.00000000000E+00 0. -1.
         -2   -1    0    0    0  501 -0.00000000000E+00 -0.00000000000E+00 -0.67931128013E+02  0.67931128013E+02  0.00000000000E+00 0.  1.
         23    2    1    2    0    0  0.88242982947E+02 -0.24519577169E+02  0.70592366791E+02  0.14729915845E+03  0.91245417021E+02 0.  0.
         23    2    1    2    0    0 -0.88242982947E+02  0.24519577169E+02  0.17338516986E+03  0.23254063423E+03  0.12499878294E+03 0.  0.
          5    1    4    4  502    0 -0.37970380161E+02  0.27439563940E+02 -0.47906663479E+01  0.47325679317E+02  0.47000000000E+01 0.  1.
         -5    1    4    4    0  502 -0.50272602786E+02 -0.29199867703E+01  0.17817583621E+03  0.18521495491E+03  0.47000000000E+01 0.  1.
        -11    1    3    3    0    0  0.70310022528E+02  0.17408702557E+02  0.71374508012E+02  0.10169013023E+03  0.00000000000E+00 0. -1.
         11    1    3    3    0    0  0.17932960419E+02 -0.41928279726E+02 -0.78214122114E+00  0.45609028219E+02  0.00000000000E+00 0.  1.
<mgrwt>
<rscale>  0 0.14809822E+03</rscale>
<asrwt>0</asrwt>
<pdfrwt beam="1">  1        2 0.47985948E-01 0.15496041E+03</pdfrwt>
<pdfrwt beam="2">  1       -2 0.10450943E-01 0.15496041E+03</pdfrwt>
<totfact> 0.62389664E+03</totfact>
</mgrwt>
</event>
<event>
 8    1  0.7550631E-006  0.1354592E+03  0.7546771E-02  0.1232462E+00
         -2   -1    0    0    0  501 -0.00000000000E+00  0.00000000000E+00  0.19064133624E+02  0.19064133624E+02  0.00000000000E+00 0. -1.
          2   -1    0    0  501    0  0.00000000000E+00 -0.00000000000E+00 -0.79118203747E+03  0.79118203747E+03  0.00000000000E+00 0.  1.
         23    2    1    2    0    0 -0.47244487811E+02 -0.22185021050E+02 -0.24522614822E+03  0.26622033009E+03  0.89516387295E+02 0.  0.
         23    2    1    2    0    0  0.47244487811E+02  0.22185021050E+02 -0.52689175563E+03  0.54402584101E+03  0.12499990699E+03 0.  0.
          5    1    4    4  502    0 -0.13782990940E+02  0.26251422579E+00 -0.15169706491E+01  0.14643461097E+02  0.47000000000E+01 0. -1.
         -5    1    4    4    0  502  0.61027478750E+02  0.21922506824E+02 -0.52537478498E+03  0.52938237991E+03  0.47000000000E+01 0. -1.
        -11    1    3    3    0    0 -0.29702822691E+02  0.27545784726E+02 -0.16725480570E+03  0.17209066786E+03  0.00000000000E+00 0.  1.
         11    1    3    3    0    0 -0.17541665119E+02 -0.49730805776E+02 -0.77971342513E+02  0.94129662230E+02  0.00000000000E+00 0. -1.
<mgrwt>
<rscale>  0 0.12668312E+03</rscale>
<asrwt>0</asrwt>
<pdfrwt beam="2">  1        2 0.12172034E+00 0.13545920E+03</pdfrwt>
<pdfrwt beam="1">  1       -2 0.29329431E-02 0.13545920E+03</pdfrwt>
<totfact> 0.15021981E+04</totfact>
</mgrwt>
</event>
<event>
 8    1  0.7550631E-006  0.1542682E+03  0.7546771E-02  0.1203731E+00
          2   -1    0    0  501    0  0.00000000000E+00  0.00000000000E+00  0.20466403001E+02  0.20466403001E+02  0.00000000000E+00 0. -1.
         -2   -1    0    0    0  501 -0.00000000000E+00 -0.00000000000E+00 -0.97966984538E+03  0.97966984538E+03  0.00000000000E+00 0.  1.
         23    2    1    2    0    0  0.63469739352E+02  0.64388954889E+02 -0.46334086445E+03  0.48083057464E+03  0.91317794098E+02 0.  0.
         23    2    1    2    0    0 -0.63469739352E+02 -0.64388954889E+02 -0.49586257793E+03  0.51930567373E+03  0.12499736501E+03 0.  0.
          5    1    4    4  502    0 -0.26317447160E+01  0.34634557995E+02 -0.77171713785E+02  0.84758728732E+02  0.47000000000E+01 0. -1.
         -5    1    4    4    0  502 -0.60837994636E+02 -0.99023512884E+02 -0.41869086414E+03  0.43454694500E+03  0.47000000000E+01 0. -1.
        -11    1    3    3    0    0  0.69740039864E+02  0.10489815292E+02 -0.20319716037E+03  0.21508787824E+03  0.00000000000E+00 0. -1.
         11    1    3    3    0    0 -0.62703005123E+01  0.53899139597E+02 -0.26014370408E+03  0.26574269640E+03  0.00000000000E+00 0.  1.
<mgrwt>
<rscale>  0 0.14737932E+03</rscale>
<asrwt>0</asrwt>
<pdfrwt beam="1">  1        2 0.31486772E-02 0.15426823E+03</pdfrwt>
<pdfrwt beam="2">  1       -2 0.15071845E+00 0.15426823E+03</pdfrwt>
<totfact> 0.89648778E+02</totfact>
</mgrwt>
</event>
<event>
 8    1  0.7550631E-006  0.1988536E+03  0.7546771E-02  0.1155098E+00
          1   -1    0    0  501    0  0.00000000000E+00  0.00000000000E+00  0.14340157694E+04  0.14340157694E+04  0.00000000000E+00 0. -1.
         -1   -1    0    0    0  501 -0.00000000000E+00 -0.00000000000E+00 -0.33420186533E+02  0.33420186533E+02  0.00000000000E+00 0.  1.
         23    2    1    2    0    0  0.13275412354E+03 -0.79342337779E+02  0.30388751405E+03  0.35284574022E+03  0.90739359237E+02 0.  0.
         23    2    1    2    0    0 -0.13275412354E+03  0.79342337779E+02  0.10967080688E+04  0.11145902157E+04  0.12499558740E+03 0.  0.
          5    1    4    4  502    0  0.16267042128E+02  0.41765918733E+02  0.25655656281E+03  0.26048487201E+03  0.47000000000E+01 0.  1.
         -5    1    4    4    0  502 -0.14902116567E+03  0.37576419046E+02  0.84015150600E+03  0.85410534369E+03  0.47000000000E+01 0.  1.
        -11    1    3    3    0    0  0.69010456167E+02  0.69469908837E+01  0.90635226507E+02  0.11412908493E+03  0.00000000000E+00 0.  1.
         11    1    3    3    0    0  0.63743667376E+02 -0.86289328662E+02  0.21325228754E+03  0.23871665529E+03  0.00000000000E+00 0. -1.
<mgrwt>
<rscale>  0 0.19377688E+03</rscale>
<asrwt>0</asrwt>
<pdfrwt beam="1">  1        1 0.22061776E+00 0.19885362E+03</pdfrwt>
<pdfrwt beam="2">  1       -1 0.51415683E-02 0.19885362E+03</pdfrwt>
<totfact> 0.13403872E+03</totfact>
</mgrwt>
</event>
<event>
 8    1  0.7550631E-006  0.1502827E+03  0.7546771E-02  0.1209252E+00
          2   -1    0    0  501    0  0.00000000000E+00  0.00000000000E+00  0.10496099658E+04  0.10496099658E+04  0.00000000000E+00 0. -1.
         -2   -1    0    0    0  501 -0.00000000000E+00 -0.00000000000E+00 -0.23433239396E+02  0.23433239396E+02  0.00000000000E+00 0.  1.
         23    2    1    2    0    0  0.15141879678E+02  0.82057148370E+02  0.21381457514E+03  0.24689724574E+03  0.90988599776E+02 0.  0.
         23    2    1    2    0    0 -0.15141879678E+02 -0.82057148370E+02  0.81236215128E+03  0.82614595948E+03  0.12498891717E+03 0.  0.
          5    1    4    4  502    0 -0.29837643644E+02 -0.60421303230E+02  0.78536387082E+03  0.78826360975E+03  0.47000000000E+01 0.  1.
         -5    1    4    4    0  502  0.14695763966E+02 -0.21635845139E+02  0.26998280456E+02  0.37882349730E+02  0.47000000000E+01 0.  1.
        -11    1    3    3    0    0  0.35652957398E+02  0.78697383212E+02  0.10433841636E+03  0.13546555512E+03  0.00000000000E+00 0.  1.
         11    1    3    3    0    0 -0.20511077720E+02  0.33597651574E+01  0.10947615879E+03  0.11143169062E+03  0.00000000000E+00 0. -1.
<mgrwt>
<rscale>  0 0.14307390E+03</rscale>
<asrwt>0</asrwt>
<pdfrwt beam="1">  1        2 0.16147842E+00 0.15028267E+03</pdfrwt>
<pdfrwt beam="2">  1       -2 0.36051146E-02 0.15028267E+03</pdfrwt>
<totfact> 0.76728919E+03</totfact>
</mgrwt>
</event>
<event>
 8    1  0.7550631E-006  0.1525688E+03  0.7546771E-02  0.1204632E+00
          1   -1    0    0  501    0  0.00000000000E+00  0.00000000000E+00  0.12418950025E+04  0.12418950025E+04  0.00000000000E+00 0. -1.
         -1   -1    0    0    0  501 -0.00000000000E+00 -0.00000000000E+00 -0.17135477170E+02  0.17135477170E+02  0.00000000000E+00 0.  1.
         23    2    1    2    0    0 -0.91131751303E+01 -0.86996488376E+02  0.41319952954E+03  0.43325395854E+03  0.96559320748E+02 0.  0.
         23    2    1    2    0    0  0.91131751303E+01  0.86996488376E+02  0.81155999582E+03  0.82577652117E+03  0.12500318852E+03 0.  0.
          5    1    4    4  502    0 -0.38413661153E+02 -0.21167076813E-01  0.98317295672E+02  0.10565978629E+03  0.47000000000E+01 0. -1.
         -5    1    4    4    0  502  0.47526836283E+02  0.87017655453E+02  0.71324270015E+03  0.72011673487E+03  0.47000000000E+01 0. -1.
        -11    1    3    3    0    0 -0.20789564346E+02 -0.20848289147E+02  0.23124958781E+02  0.37438227317E+02  0.00000000000E+00 0.  1.
         11    1    3    3    0    0  0.11676389215E+02 -0.66148199229E+02  0.39007457076E+03  0.39581573122E+03  0.00000000000E+00 0. -1.
<mgrwt>
<rscale>  0 0.14666482E+03</rscale>
<asrwt>0</asrwt>
<pdfrwt beam="1">  1        1 0.19106070E+00 0.15256879E+03</pdfrwt>
<pdfrwt beam="2">  1       -1 0.26362282E-02 0.15256879E+03</pdfrwt>
<totfact> 0.48125001E+03</totfact>
</mgrwt>
</event>
<event>
 8    1  0.7550631E-006  0.2603360E+03  0.7546771E-02  0.1108987E+00
         -2   -1    0    0    0  501 -0.00000000000E+00  0.00000000000E+00  0.14202663505E+03  0.14202663505E+03  0.00000000000E+00 0.  1.
          2   -1    0    0  501    0  0.00000000000E+00 -0.00000000000E+00 -0.45681458569E+03  0.45681458569E+03  0.00000000000E+00 0. -1.
         23    2    1    2    0    0 -0.44195344978E+02 -0.22397424631E+03 -0.12667650192E+03  0.27765476023E+03  0.94485650834E+02 0.  0.
         23    2    1    2    0    0  0.44195344978E+02  0.22397424631E+03 -0.18811144873E+03  0.32118646052E+03  0.12512846898E+03 0.  0.
          5    1    4    4  502    0  0.70385335587E+00  0.71985361298E+02  0.41137581123E+01  0.72259260005E+02  0.47000000000E+01 0. -1.
         -5    1    4    4    0  502  0.43491491622E+02  0.15198888501E+03 -0.19222520684E+03  0.24892720051E+03  0.47000000000E+01 0. -1.
        -11    1    3    3    0    0 -0.36071666458E+01 -0.53539256954E+02  0.11066866065E+02  0.54789955383E+02  0.00000000000E+00 0.  1.
         11    1    3    3    0    0 -0.40588178332E+02 -0.17043498935E+03 -0.13774336798E+03  0.22286480485E+03  0.00000000000E+00 0. -1.
<mgrwt>
<rscale>  0 0.25695503E+03</rscale>
<asrwt>0</asrwt>
<pdfrwt beam="2">  1        2 0.70279167E-01 0.26033599E+03</pdfrwt>
<pdfrwt beam="1">  1       -2 0.21850252E-01 0.26033599E+03</pdfrwt>
<totfact> 0.12421533E+03</totfact>
</mgrwt>
</event>
<event>
 8    1  0.7550631E-006  0.1394712E+03  0.7546771E-02  0.1225141E+00
          2   -1    0    0  501    0  0.00000000000E+00  0.00000000000E+00  0.13463558457E+04  0.13463558457E+04  0.00000000000E+00 0. -1.
         -2   -1    0    0    0  501 -0.00000000000E+00 -0.00000000000E+00 -0.11704968509E+02  0.11704968509E+02  0.00000000000E+00 0.  1.
         23    2    1    2    0    0 -0.21742995749E+02 -0.57917019898E+02  0.52642183920E+03  0.53788620776E+03  0.91512188515E+02 0.  0.
         23    2    1    2    0    0  0.21742995749E+02  0.57917019898E+02  0.80822903795E+03  0.82017460642E+03  0.12500027265E+03 0.  0.
          5    1    4    4  502    0 -0.18737123480E+02  0.21669647092E+02  0.37045988645E+02  0.47065365993E+02  0.47000000000E+01 0.  1.
         -5    1    4    4    0  502  0.40480119229E+02  0.36247372807E+02  0.77118304931E+03  0.77310924042E+03  0.47000000000E+01 0.  1.
        -11    1    3    3    0    0  0.34891192034E+02 -0.16117371426E+02  0.23236370272E+03  0.23552081709E+03  0.00000000000E+00 0.  1.
         11    1    3    3    0    0 -0.56634187783E+02 -0.41799648473E+02  0.29405813648E+03  0.30236539066E+03  0.00000000000E+00 0. -1.
<mgrwt>
<rscale>  0 0.13157262E+03</rscale>
<asrwt>0</asrwt>
<pdfrwt beam="1">  1        2 0.20713155E+00 0.13947117E+03</pdfrwt>
<pdfrwt beam="2">  1       -2 0.18007655E-02 0.13947117E+03</pdfrwt>
<totfact> 0.14442790E+04</totfact>
</mgrwt>
</event>
<event>
 8    1  0.7550631E-006  0.1395595E+03  0.7546771E-02  0.1218576E+00
          3   -1    0    0  501    0  0.00000000000E+00  0.00000000000E+00  0.17450986382E+03  0.17450986382E+03  0.00000000000E+00 0. -1.
         -3   -1    0    0    0  501 -0.00000000000E+00 -0.00000000000E+00 -0.11926823026E+03  0.11926823026E+03  0.00000000000E+00 0.  1.
         23    2    1    2    0    0  0.28526751725E+02  0.55113946263E+02 -0.30325713049E+02  0.13007525427E+03  0.11022068891E+03 0.  0.
         23    2    1    2    0    0 -0.28526751725E+02 -0.55113946263E+02  0.85567346608E+02  0.16370283981E+03  0.12500210526E+03 0.  0.
          5    1    4    4  502    0  0.21906401483E+02  0.22233197554E+02 -0.75786901252E+01  0.32461239093E+02  0.47000000000E+01 0.  1.
         -5    1    4    4    0  502 -0.50433153208E+02 -0.77347143818E+02  0.93146036733E+02  0.13124160072E+03  0.47000000000E+01 0.  1.
        -11    1    3    3    0    0  0.45532122569E+02  0.56586150840E+02 -0.61081412534E+02  0.94900503738E+02  0.00000000000E+00 0.  1.
         11    1    3    3    0    0 -0.17005370844E+02 -0.14722045770E+01  0.30755699485E+02  0.35174750527E+02  0.00000000000E+00 0. -1.
<mgrwt>
<rscale>  0 0.13617088E+03</rscale>
<asrwt>0</asrwt>
<pdfrwt beam="1">  1        3 0.26847671E-01 0.13955948E+03</pdfrwt>
<pdfrwt beam="2">  1       -3 0.18348958E-01 0.13955948E+03</pdfrwt>
<totfact> 0.79950480E+02</totfact>
</mgrwt>
</event>
<event>
 8    1  0.7550631E-006  0.1514404E+03  0.7546771E-02  0.1204343E+00
         -2   -1    0    0    0  501 -0.00000000000E+00  0.00000000000E+00  0.13081537093E+02  0.13081537093E+02  0.00000000000E+00 0.  1.
          2   -1    0    0  501    0  0.00000000000E+00 -0.00000000000E+00 -0.19540879173E+04  0.19540879173E+04  0.00000000000E+00 0. -1.
         23    2    1    2    0    0  0.73778958945E+02 -0.68042338229E+02 -0.48105818692E+03  0.49938782478E+03  0.88871400157E+02 0.  0.
         23    2    1    2    0    0 -0.73778958945E+02  0.68042338229E+02 -0.14599481933E+04  0.14677816296E+04  0.11340674830E+03 0.  0.
          5    1    4    4  502    0 -0.75865799808E+02  0.50240854855E+02 -0.53899038152E+03  0.54663743418E+03  0.47000000000E+01 0. -1.
         -5    1    4    4    0  502  0.20868408629E+01  0.17801483374E+02 -0.92095781179E+03  0.92114419545E+03  0.47000000000E+01 0.  1.
        -11    1    3    3    0    0  0.82035041491E+02 -0.28194543251E+02 -0.24630811117E+03  0.26113668055E+03  0.00000000000E+00 0.  1.
         11    1    3    3    0    0 -0.82560825460E+01 -0.39847794978E+02 -0.23475007575E+03  0.23825114423E+03  0.00000000000E+00 0. -1.
<mgrwt>
<rscale>  0 0.14689379E+03</rscale>
<asrwt>0</asrwt>
<pdfrwt beam="2">  1        2 0.30062883E+00 0.15144037E+03</pdfrwt>
<pdfrwt beam="1">  1       -2 0.20125447E-02 0.15144037E+03</pdfrwt>
<totfact> 0.59691840E+03</totfact>
</mgrwt>
</event>
<event>
 7    1  0.7550631E-006  0.2203084E+03  0.7546771E-02  0.1138002E+00
          2   -1    0    0  501    0  0.00000000000E+00  0.00000000000E+00  0.15711152142E+03  0.15711152142E+03  0.00000000000E+00 0. -1.
         -2   -1    0    0    0  501 -0.00000000000E+00 -0.00000000000E+00 -0.43037853580E+03  0.43037853580E+03  0.00000000000E+00 0.  1.
         23    2    1    2    0    0 -0.62249879034E+02 -0.16463519721E+03 -0.30617761505E+03  0.36473702410E+03  0.91151353230E+02 0.  0.
          5    1    1    2  502    0  0.92290098190E+02  0.62363213188E+02  0.13698114922E+01  0.11149259602E+03  0.47000000000E+01 0. -1.
         -5    1    1    2    0  502 -0.30040219156E+02  0.10227198402E+03  0.31540789170E+02  0.11126043710E+03  0.47000000000E+01 0.  1.
        -11    1    3    3    0    0 -0.42066388353E+02 -0.16162550408E+03 -0.22019570179E+03  0.27636666168E+03  0.00000000000E+00 0.  1.
         11    1    3    3    0    0 -0.20183490681E+02 -0.30096931307E+01 -0.85981913251E+02  0.88370362424E+02  0.00000000000E+00 0. -1.
<mgrwt>
<rscale>  0 0.21456374E+03</rscale>
<asrwt>0</asrwt>
<pdfrwt beam="1">  1        2 0.24171004E-01 0.22030843E+03</pdfrwt>
<pdfrwt beam="2">  1       -2 0.66212081E-01 0.22030843E+03</pdfrwt>
<totfact> 0.48092898E+02</totfact>
</mgrwt>
</event>
<event>
 8    1  0.7550631E-006  0.2377588E+03  0.7546771E-02  0.1123968E+00
         -1   -1    0    0    0  501 -0.00000000000E+00  0.00000000000E+00  0.15869243792E+03  0.15869243792E+03  0.00000000000E+00 0.  1.
          1   -1    0    0  501    0  0.00000000000E+00 -0.00000000000E+00 -0.33590455125E+03  0.33590455125E+03  0.00000000000E+00 0. -1.
         23    2    1    2    0    0  0.19990919746E+03 -0.30744118250E+02 -0.65484759489E+02  0.23189516803E+03  0.92618719448E+02 0.  0.
         23    2    1    2    0    0 -0.19990919746E+03  0.30744118250E+02 -0.11172735384E+03  0.26270182114E+03  0.12498142741E+03 0.  0.
          5    1    4    4  502    0 -0.11717873381E+03  0.76054543754E+02 -0.44188100699E+02  0.14659409103E+03  0.47000000000E+01 0. -1.
         -5    1    4    4    0  502 -0.82730463651E+02 -0.45310425504E+02 -0.67539253140E+02  0.11610773010E+03  0.47000000000E+01 0. -1.
        -11    1    3    3    0    0  0.63280624144E+02  0.68289388331E-02 -0.66565731343E+02  0.91844618939E+02  0.00000000000E+00 0. -1.
         11    1    3    3    0    0  0.13662857332E+03 -0.30750947189E+02  0.10809718545E+01  0.14005054909E+03  0.00000000000E+00 0.  1.
<mgrwt>
<rscale>  0 0.23383739E+03</rscale>
<asrwt>0</asrwt>
<pdfrwt beam="2">  1        1 0.51677623E-01 0.23775880E+03</pdfrwt>
<pdfrwt beam="1">  1       -1 0.24414221E-01 0.23775880E+03</pdfrwt>
<totfact> 0.10987749E+03</totfact>
</mgrwt>
</event>
<event>
 7    1  0.7550631E-006  0.2794359E+03  0.7546771E-02  0.1109716E+00
         -2   -1    0    0    0  501 -0.00000000000E+00  0.00000000000E+00  0.93102649879E+02  0.93102649879E+02  0.00000000000E+00 0.  1.
          2   -1    0    0  501    0  0.00000000000E+00 -0.00000000000E+00 -0.65419892186E+03  0.65419892186E+03  0.00000000000E+00 0. -1.
         23    2    1    2    0    0 -0.17005317410E+03  0.31404660763E+02 -0.13625670215E+03  0.23880074171E+03  0.92496327619E+02 0.  0.
          5    1    1    2  502    0  0.13140928468E+03 -0.87822084237E+02 -0.40849956991E+03  0.43803550906E+03  0.47000000000E+01 0. -1.
         -5    1    1    2    0  502  0.38643889419E+02  0.56417423474E+02 -0.16339999917E+02  0.70465320961E+02  0.47000000000E+01 0.  1.
        -11    1    3    3    0    0 -0.12233455105E+03 -0.10390334667E+02 -0.51995894344E+02  0.13333144589E+03  0.00000000000E+00 0.  1.
         11    1    3    3    0    0 -0.47718623047E+02  0.41794995430E+02 -0.84260807803E+02  0.10546929582E+03  0.00000000000E+00 0. -1.
<mgrwt>
<rscale>  0 0.25576299E+03</rscale>
<asrwt>0</asrwt>
<pdfrwt beam="2">  1        2 0.10064599E+00 0.27943592E+03</pdfrwt>
<pdfrwt beam="1">  1       -2 0.14323485E-01 0.27943592E+03</pdfrwt>
<totfact> 0.16825726E+03</totfact>
</mgrwt>
</event>
<event>
 8    1  0.7550631E-006  0.1756745E+03  0.7546771E-02  0.1178032E+00
         -2   -1    0    0    0  501 -0.00000000000E+00  0.00000000000E+00  0.33606738812E+02  0.33606738812E+02  0.00000000000E+00 0.  1.
          2   -1    0    0  501    0  0.00000000000E+00 -0.00000000000E+00 -0.84862918534E+03  0.84862918534E+03  0.00000000000E+00 0. -1.
         23    2    1    2    0    0 -0.92149602113E+02  0.82125197512E+02 -0.28226434359E+03  0.32126113324E+03  0.91101365683E+02 0.  0.
         23    2    1    2    0    0  0.92149602113E+02 -0.82125197512E+02 -0.53275810293E+03  0.56097479091E+03  0.12500169024E+03 0.  0.
          5    1    4    4  502    0 -0.22839474914E+02 -0.51557537938E+02 -0.16836957185E+03  0.17762382739E+03  0.47000000000E+01 0. -1.
         -5    1    4    4    0  502  0.11498907703E+03 -0.30567659574E+02 -0.36438853109E+03  0.38335096352E+03  0.47000000000E+01 0. -1.
        -11    1    3    3    0    0 -0.57820547999E+02  0.30606068744E+01 -0.62506742486E+02  0.85203731970E+02  0.00000000000E+00 0.  1.
         11    1    3    3    0    0 -0.34329054114E+02  0.79064590638E+02 -0.21975760111E+03  0.23605740127E+03  0.00000000000E+00 0. -1.
<mgrwt>
<rscale>  0 0.16982321E+03</rscale>
<asrwt>0</asrwt>
<pdfrwt beam="2">  1        2 0.13055834E+00 0.17567447E+03</pdfrwt>
<pdfrwt beam="1">  1       -2 0.51702673E-02 0.17567447E+03</pdfrwt>
<totfact> 0.59949125E+03</totfact>
</mgrwt>
</event>
<event>
 8    1  0.7550631E-006  0.1747596E+03  0.7546771E-02  0.1178900E+00
          2   -1    0    0  501    0  0.00000000000E+00  0.00000000000E+00  0.16625074533E+03  0.16625074533E+03  0.00000000000E+00 0. -1.
         -2   -1    0    0    0  501 -0.00000000000E+00 -0.00000000000E+00 -0.16824914336E+03  0.16824914336E+03  0.00000000000E+00 0.  1.
         23    2    1    2    0    0 -0.10570401407E+02 -0.12168156256E+03 -0.34701055473E+02  0.15670682870E+03  0.91840790811E+02 0.  0.
         23    2    1    2    0    0  0.10570401407E+02  0.12168156256E+03  0.32702657438E+02  0.17779305999E+03  0.12499108898E+03 0.  0.
          5    1    4    4  502    0 -0.33943612360E+02 -0.91377080719E+01 -0.10021904384E+01  0.35479020766E+02  0.47000000000E+01 0. -1.
         -5    1    4    4    0  502  0.44514013767E+02  0.13081927063E+03  0.33704847876E+02  0.14231403923E+03  0.47000000000E+01 0. -1.
        -11    1    3    3    0    0 -0.37616723756E+02 -0.28902519145E+02  0.12640408222E+02  0.49093313588E+02  0.00000000000E+00 0. -1.
         11    1    3    3    0    0  0.27046322349E+02 -0.92779043417E+02 -0.47341463694E+02  0.10761351511E+03  0.00000000000E+00 0.  1.
<mgrwt>
<rscale>  0 0.16899477E+03</rscale>
<asrwt>0</asrwt>
<pdfrwt beam="1">  1        2 0.25577038E-01 0.17475957E+03</pdfrwt>
<pdfrwt beam="2">  1       -2 0.25884484E-01 0.17475957E+03</pdfrwt>
<totfact> 0.27397174E+03</totfact>
</mgrwt>
</event>
<event>
 8    1  0.7550631E-006  0.1954129E+03  0.7546771E-02  0.1158145E+00
         -1   -1    0    0    0  501 -0.00000000000E+00  0.00000000000E+00  0.31474217135E+03  0.31474217135E+03  0.00000000000E+00 0.  1.
          1   -1    0    0  501    0  0.00000000000E+00 -0.00000000000E+00 -0.10976898572E+03  0.10976898572E+03  0.00000000000E+00 0. -1.
         23    2    1    2    0    0 -0.18740853712E+02 -0.14902538525E+03  0.10690363140E+03  0.20587024448E+03  0.91620882501E+02 0.  0.
         23    2    1    2    0    0  0.18740853712E+02  0.14902538525E+03  0.98069554224E+02  0.21864091259E+03  0.12500570445E+03 0.  0.
          5    1    4    4  502    0  0.62917689551E+02  0.13465701651E+03  0.73444075750E+02  0.16585315800E+03  0.47000000000E+01 0. -1.
         -5    1    4    4    0  502 -0.44176835838E+02  0.14368368738E+02  0.24625478473E+02  0.52787754592E+02  0.47000000000E+01 0. -1.
        -11    1    3    3    0    0  0.50647759165E+00 -0.13603763146E+03  0.11804684774E+03  0.18011538511E+03  0.00000000000E+00 0.  1.
         11    1    3    3    0    0 -0.19247331304E+02 -0.12987753792E+02 -0.11143216340E+02  0.25754859372E+02  0.00000000000E+00 0. -1.
<mgrwt>
<rscale>  0 0.19035087E+03</rscale>
<asrwt>0</asrwt>
<pdfrwt beam="2">  1        1 0.16887536E-01 0.19541292E+03</pdfrwt>
<pdfrwt beam="1">  1       -1 0.48421872E-01 0.19541292E+03</pdfrwt>
<totfact> 0.13776847E+03</totfact>
</mgrwt>
</event>
<event>
 8    1  0.7550631E-006  0.2733486E+03  0.7546771E-02  0.1101501E+00
         -2   -1    0    0    0  501 -0.00000000000E+00  0.00000000000E+00  0.37763268761E+02  0.37763268761E+02  0.00000000000E+00 0.  1.
          2   -1    0    0  501    0  0.00000000000E+00 -0.00000000000E+00 -0.22411024184E+04  0.22411024184E+04  0.00000000000E+00 0. -1.
         23    2    1    2    0    0 -0.21699583541E+03  0.10957824464E+03 -0.61535849607E+03  0.66753020989E+03  0.88520721570E+02 0.  0.
         23    2    1    2    0    0  0.21699583541E+03 -0.10957824464E+03 -0.15879806536E+04  0.16113354773E+04  0.12499951969E+03 0.  0.
          5    1    4    4  502    0  0.23779763020E+02 -0.72608615488E+02 -0.45427197962E+03  0.46067625252E+03  0.47000000000E+01 0. -1.
         -5    1    4    4    0  502  0.19321607239E+03 -0.36969629148E+02 -0.11337086740E+04  0.11506592248E+04  0.47000000000E+01 0. -1.
        -11    1    3    3    0    0 -0.18688370194E+03  0.12157230365E+03 -0.49513173076E+03  0.54301084139E+03  0.00000000000E+00 0. -1.
         11    1    3    3    0    0 -0.30112133472E+02 -0.11994059015E+02 -0.12022676532E+03  0.12451936850E+03  0.00000000000E+00 0.  1.
<mgrwt>
<rscale>  0 0.26961290E+03</rscale>
<asrwt>0</asrwt>
<pdfrwt beam="2">  1        2 0.34478498E+00 0.27334861E+03</pdfrwt>
<pdfrwt beam="1">  1       -2 0.58097338E-02 0.27334861E+03</pdfrwt>
<totfact> 0.86093161E+02</totfact>
</mgrwt>
</event>
<event>
 8    1  0.7550631E-006  0.1649017E+03  0.7546771E-02  0.1191067E+00
         -1   -1    0    0    0  501 -0.00000000000E+00  0.00000000000E+00  0.22211822188E+02  0.22211822188E+02  0.00000000000E+00 0.  1.
          1   -1    0    0  501    0  0.00000000000E+00 -0.00000000000E+00 -0.10452191153E+04  0.10452191153E+04  0.00000000000E+00 0. -1.
         23    2    1    2    0    0  0.68077997643E+02 -0.83265628704E+02 -0.42169896030E+03  0.44392129488E+03  0.87568968480E+02 0.  0.
         23    2    1    2    0    0 -0.68077997643E+02  0.83265628704E+02 -0.60130833283E+03  0.62350964263E+03  0.12499913853E+03 0.  0.
          5    1    4    4  502    0 -0.94908720526E+02  0.80150769425E+02 -0.56199747628E+03  0.57558236980E+03  0.47000000000E+01 0. -1.
         -5    1    4    4    0  502  0.26830722883E+02  0.31148592786E+01 -0.39310856546E+02  0.47927272832E+02  0.47000000000E+01 0. -1.
        -11    1    3    3    0    0  0.32658213081E+02  0.96261754426E+01 -0.16848049925E+03  0.17188630185E+03  0.00000000000E+00 0.  1.
         11    1    3    3    0    0  0.35419784562E+02 -0.92891804147E+02 -0.25321846105E+03  0.27203499303E+03  0.00000000000E+00 0. -1.
<mgrwt>
<rscale>  0 0.15791866E+03</rscale>
<asrwt>0</asrwt>
<pdfrwt beam="2">  1        1 0.16080294E+00 0.16490168E+03</pdfrwt>
<pdfrwt beam="1">  1       -1 0.34172033E-02 0.16490168E+03</pdfrwt>
<totfact> 0.45327326E+03</totfact>
</mgrwt>
</event>
<event>
 8    1  0.7550631E-006  0.1342950E+03  0.7546771E-02  0.1232122E+00
          3   -1    0    0  501    0  0.00000000000E+00  0.00000000000E+00  0.63236663726E+03  0.63236663726E+03  0.00000000000E+00 0. -1.
         -3   -1    0    0    0  501 -0.00000000000E+00 -0.00000000000E+00 -0.23056263548E+02  0.23056263548E+02  0.00000000000E+00 0.  1.
         23    2    1    2    0    0 -0.10438089283E+02  0.47946404891E+02  0.26038060062E+03  0.28154174222E+03  0.95183422852E+02 0.  0.
         23    2    1    2    0    0  0.10438089283E+02 -0.47946404891E+02  0.34892977310E+03  0.37388115859E+03  0.12500929063E+03 0.  0.
          5    1    4    4  502    0  0.48103747892E+02  0.73393468321E+01  0.60628015883E+02  0.77882494073E+02  0.47000000000E+01 0.  1.
         -5    1    4    4    0  502 -0.37665658609E+02 -0.55285751723E+02  0.28830175721E+03  0.29599866451E+03  0.47000000000E+01 0.  1.
        -11    1    3    3    0    0 -0.75302630712E+01 -0.25743843522E+02  0.12008256182E+03  0.12304174899E+03  0.00000000000E+00 0. -1.
         11    1    3    3    0    0 -0.29078262117E+01  0.73690248413E+02  0.14029803880E+03  0.15849999324E+03  0.00000000000E+00 0.  1.
<mgrwt>
<rscale>  0 0.12690516E+03</rscale>
<asrwt>0</asrwt>
<pdfrwt beam="1">  1        3 0.97287162E-01 0.13429495E+03</pdfrwt>
<pdfrwt beam="2">  1       -3 0.35471179E-02 0.13429495E+03</pdfrwt>
<totfact> 0.87367047E+02</totfact>
</mgrwt>
</event>
<event>
 8    1  0.7550631E-006  0.1481491E+03  0.7546771E-02  0.1212144E+00
         -1   -1    0    0    0  501 -0.00000000000E+00  0.00000000000E+00  0.46196591865E+02  0.46196591865E+02  0.00000000000E+00 0.  1.
          1   -1    0    0  501    0  0.00000000000E+00 -0.00000000000E+00 -0.39402636108E+03  0.39402636108E+03  0.00000000000E+00 0. -1.
         23    2    1    2    0    0 -0.77794579007E+02 -0.16484840054E+02 -0.14288211184E+03  0.18733620964E+03  0.91410125724E+02 0.  0.
         23    2    1    2    0    0  0.77794579007E+02  0.16484840054E+02 -0.20494765738E+03  0.25288674331E+03  0.12499766478E+03 0.  0.
          5    1    4    4  502    0  0.23435320344E+02 -0.42721842105E+02 -0.14345102350E+03  0.15157392974E+03  0.47000000000E+01 0.  1.
         -5    1    4    4    0  502  0.54359258663E+02  0.59206682159E+02 -0.61496633875E+02  0.10131281357E+03  0.47000000000E+01 0.  1.
        -11    1    3    3    0    0  0.13901486911E+02 -0.86978910740E+01  0.11241501170E+01  0.16436798988E+02  0.00000000000E+00 0.  1.
         11    1    3    3    0    0 -0.91696065918E+02 -0.77869489802E+01 -0.14400626196E+03  0.17089941065E+03  0.00000000000E+00 0. -1.
<mgrwt>
<rscale>  0 0.14088457E+03</rscale>
<asrwt>0</asrwt>
<pdfrwt beam="2">  1        1 0.60619438E-01 0.14814912E+03</pdfrwt>
<pdfrwt beam="1">  1       -1 0.71071682E-02 0.14814912E+03</pdfrwt>
<totfact> 0.61396688E+03</totfact>
</mgrwt>
</event>
<event>
 6    1  0.7550631E-006  0.1645796E+03  0.7546771E-02  0.1280389E+00
          2   -1    0    0  501    0  0.00000000000E+00  0.00000000000E+00  0.59878561487E+03  0.59878561487E+03  0.00000000000E+00 0. -1.
         -2   -1    0    0    0  501 -0.00000000000E+00 -0.00000000000E+00 -0.16536064329E+02  0.16536064329E+02  0.00000000000E+00 0.  1.
          5    1    1    2  502    0 -0.17386489157E+02 -0.24491196971E+02  0.52854256442E+03  0.52941613230E+03  0.47000000000E+01 0. -1.
         -5    1    1    2    0  502  0.25111788273E+02  0.36250591100E+02  0.31734647087E+02  0.54533339262E+02  0.47000000000E+01 0.  1.
        -11    1    1    2    0    0 -0.11101314567E+02 -0.16251677632E+01  0.14511023706E+02  0.18342577909E+02  0.00000000000E+00 0.  1.
         11    1    1    2    0    0  0.33760154514E+01 -0.10134226366E+02  0.74613153212E+01  0.13029629722E+02  0.00000000000E+00 0. -1.
<mgrwt>
<rscale>  0 0.99955892E+02</rscale>
<asrwt>0</asrwt>
<pdfrwt beam="1">  1        2 0.92120847E-01 0.16457956E+03</pdfrwt>
<pdfrwt beam="2">  1       -2 0.25440104E-02 0.16457956E+03</pdfrwt>
<totfact> 0.26170668E+04</totfact>
</mgrwt>
</event>
<event>
 8    1  0.7550631E-006  0.1566468E+03  0.7546771E-02  0.1200127E+00
          1   -1    0    0  501    0  0.00000000000E+00  0.00000000000E+00  0.15124880486E+03  0.15124880486E+03  0.00000000000E+00 0. -1.
         -1   -1    0    0    0  501 -0.00000000000E+00 -0.00000000000E+00 -0.14092280700E+03  0.14092280700E+03  0.00000000000E+00 0.  1.
         23    2    1    2    0    0 -0.87779234992E+02  0.34741066106E+02 -0.14803665399E+02  0.13352190827E+03  0.93256719372E+02 0.  0.
         23    2    1    2    0    0  0.87779234992E+02 -0.34741066106E+02  0.25129663260E+02  0.15864970359E+03  0.12500437074E+03 0.  0.
          5    1    4    4  502    0  0.10678914067E+03 -0.59070407906E+02  0.65369166769E+01  0.12230312725E+03  0.47000000000E+01 0. -1.
         -5    1    4    4    0  502 -0.19009905676E+02  0.24329341801E+02  0.18592746583E+02  0.36346576341E+02  0.47000000000E+01 0. -1.
        -11    1    3    3    0    0 -0.18786502695E+02  0.62420798181E+01 -0.47927985287E+02  0.51855453114E+02  0.00000000000E+00 0.  1.
         11    1    3    3    0    0 -0.68992732297E+02  0.28498986288E+02  0.33124319888E+02  0.81666455153E+02  0.00000000000E+00 0. -1.
<mgrwt>
<rscale>  0 0.15028232E+03</rscale>
<asrwt>0</asrwt>
<pdfrwt beam="1">  1        1 0.23269047E-01 0.15664683E+03</pdfrwt>
<pdfrwt beam="2">  1       -1 0.21680432E-01 0.15664683E+03</pdfrwt>
<totfact> 0.35926393E+03</totfact>
</mgrwt>
</event>
<event>
 8    1  0.7550631E-006  0.1629728E+03  0.7546771E-02  0.1194487E+00
          1   -1    0    0  501    0  0.00000000000E+00  0.00000000000E+00  0.97843581563E+03  0.97843581563E+03  0.00000000000E+00 0. -1.
         -1   -1    0    0    0  501 -0.00000000000E+00 -0.00000000000E+00 -0.22567559039E+02  0.22567559039E+02  0.00000000000E+00 0.  1.
         23    2    1    2    0    0  0.32895924248E+02 -0.99252993033E+02  0.47016859746E+03  0.48869068605E+03  0.82624319267E+02 0.  0.
         23    2    1    2    0    0 -0.32895924248E+02  0.99252993033E+02  0.48569965913E+03  0.51231268862E+03  0.12500733412E+03 0.  0.
          5    1    4    4  502    0 -0.58501289327E+02  0.29944557877E+02  0.36358960371E+03  0.36951125467E+03  0.47000000000E+01 0. -1.
         -5    1    4    4    0  502  0.25605365079E+02  0.69308435156E+02  0.12211005542E+03  0.14280143395E+03  0.47000000000E+01 0. -1.
        -11    1    3    3    0    0 -0.20467268009E+02 -0.15536422564E+02  0.42618953916E+02  0.49766100095E+02  0.00000000000E+00 0. -1.
         11    1    3    3    0    0  0.53363192256E+02 -0.83716570469E+02  0.42754964355E+03  0.43892458596E+03  0.00000000000E+00 0.  1.
<mgrwt>
<rscale>  0 0.15497689E+03</rscale>
<asrwt>0</asrwt>
<pdfrwt beam="1">  1        1 0.15052855E+00 0.16297280E+03</pdfrwt>
<pdfrwt beam="2">  1       -1 0.34719329E-02 0.16297280E+03</pdfrwt>
<totfact> 0.49550680E+03</totfact>
</mgrwt>
</event>
<event>
 8    1  0.7550631E-006  0.1417450E+03  0.7546771E-02  0.1224958E+00
         -1   -1    0    0    0  501 -0.00000000000E+00  0.00000000000E+00  0.44668628332E+03  0.44668628332E+03  0.00000000000E+00 0.  1.
          1   -1    0    0  501    0  0.00000000000E+00 -0.00000000000E+00 -0.46825246243E+02  0.46825246243E+02  0.00000000000E+00 0. -1.
         23    2    1    2    0    0  0.62672592866E+01 -0.66568158832E+02  0.30545972264E+03  0.32320813706E+03  0.81775665041E+02 0.  0.
         23    2    1    2    0    0 -0.62672592866E+01  0.66568158832E+02  0.94401314437E+02  0.17030339251E+03  0.12498415509E+03 0.  0.
          5    1    4    4  502    0 -0.47011593915E+02  0.70714773072E+02  0.96993890576E+02  0.12899834845E+03  0.47000000000E+01 0. -1.
         -5    1    4    4    0  502  0.40744334629E+02 -0.41466142396E+01 -0.25925761391E+01  0.41305044063E+02  0.47000000000E+01 0. -1.
        -11    1    3    3    0    0  0.21108127608E+02 -0.14694533288E+02  0.19693972264E+02  0.32393439200E+02  0.00000000000E+00 0. -1.
         11    1    3    3    0    0 -0.14840868321E+02 -0.51873625544E+02  0.28576575038E+03  0.29081469786E+03  0.00000000000E+00 0.  1.
<mgrwt>
<rscale>  0 0.13169775E+03</rscale>
<asrwt>0</asrwt>
<pdfrwt beam="2">  1        1 0.72038843E-02 0.14174497E+03</pdfrwt>
<pdfrwt beam="1">  1       -1 0.68720964E-01 0.14174497E+03</pdfrwt>
<totfact> 0.21713084E+03</totfact>
</mgrwt>
</event>
<event>
 8    1  0.7550631E-006  0.1876562E+03  0.7546771E-02  0.1165316E+00
          2   -1    0    0  501    0  0.00000000000E+00  0.00000000000E+00  0.24531664393E+03  0.24531664393E+03  0.00000000000E+00 0. -1.
         -2   -1    0    0    0  501 -0.00000000000E+00 -0.00000000000E+00 -0.12955183525E+03  0.12955183525E+03  0.00000000000E+00 0.  1.
         23    2    1    2    0    0  0.99147329000E+02 -0.98794212250E+02  0.66271384913E+02  0.18079519200E+03  0.93297994451E+02 0.  0.
         23    2    1    2    0    0 -0.99147329000E+02  0.98794212250E+02  0.49493423768E+02  0.19407328719E+03  0.12499741031E+03 0.  0.
          5    1    4    4  502    0  0.90801958669E+01 -0.13534269486E+02 -0.17387685328E+02  0.24290903824E+02  0.47000000000E+01 0. -1.
         -5    1    4    4    0  502 -0.10822752487E+03  0.11232848174E+03  0.66881109096E+02  0.16978238337E+03  0.47000000000E+01 0. -1.
        -11    1    3    3    0    0  0.10442763471E+03 -0.44390937556E+02  0.42084417217E+02  0.12102390012E+03  0.00000000000E+00 0.  1.
         11    1    3    3    0    0 -0.52803057108E+01 -0.54403274694E+02  0.24186967696E+02  0.59771291873E+02  0.00000000000E+00 0. -1.
<mgrwt>
<rscale>  0 0.18259374E+03</rscale>
<asrwt>0</asrwt>
<pdfrwt beam="1">  1        2 0.37741022E-01 0.18765618E+03</pdfrwt>
<pdfrwt beam="2">  1       -2 0.19931052E-01 0.18765618E+03</pdfrwt>
<totfact> 0.28281255E+03</totfact>
</mgrwt>
</event>
<event>
 7    1  0.7550631E-006  0.2779695E+03  0.7546771E-02  0.1096803E+00
         -2   -1    0    0    0  501 -0.00000000000E+00  0.00000000000E+00  0.15935115249E+02  0.15935115249E+02  0.00000000000E+00 0.  1.
          2   -1    0    0  501    0  0.00000000000E+00 -0.00000000000E+00 -0.12122130947E+04  0.12122130947E+04  0.00000000000E+00 0. -1.
         23    2    1    2    0    0 -0.93277514265E+01  0.29718288330E+02 -0.24976389871E+03  0.26733902488E+03  0.90099753155E+02 0.  0.
          5    1    1    2  502    0  0.31517940867E+01 -0.63190065499E+02 -0.90364643150E+03  0.90587078623E+03  0.47000000000E+01 0. -1.
         -5    1    1    2    0  502  0.61759573398E+01  0.33471777169E+02 -0.42867649276E+02  0.54938398869E+02  0.47000000000E+01 0.  1.
        -11    1    3    3    0    0  0.40350028617E+02  0.18330440273E+02 -0.11199257439E+03  0.12044279376E+03  0.00000000000E+00 0.  1.
         11    1    3    3    0    0 -0.49677780044E+02  0.11387848057E+02 -0.13777132433E+03  0.14689623113E+03  0.00000000000E+00 0. -1.
<mgrwt>
<rscale>  0 0.27796946E+03</rscale>
<asrwt>0</asrwt>
<pdfrwt beam="2">  1        2 0.18649437E+00 0.27796946E+03</pdfrwt>
<pdfrwt beam="1">  1       -2 0.24515556E-02 0.27796946E+03</pdfrwt>
<totfact> 0.11239429E+04</totfact>
</mgrwt>
</event>
<event>
 8    1  0.7550631E-006  0.1514705E+03  0.7546771E-02  0.1210257E+00
         -2   -1    0    0    0  501 -0.00000000000E+00  0.00000000000E+00  0.42845509944E+02  0.42845509944E+02  0.00000000000E+00 0.  1.
          2   -1    0    0  501    0  0.00000000000E+00 -0.00000000000E+00 -0.77261218684E+03  0.77261218684E+03  0.00000000000E+00 0. -1.
         23    2    1    2    0    0  0.58437363175E+02  0.62454900188E+02 -0.67214234133E+02  0.13581143772E+03  0.81310844132E+02 0.  0.
         23    2    1    2    0    0 -0.58437363175E+02 -0.62454900188E+02 -0.66255244276E+03  0.67964625906E+03  0.12501103181E+03 0.  0.
          5    1    4    4  502    0  0.22045453312E+02 -0.16806831346E+02 -0.33178538996E+02  0.43489964837E+02  0.47000000000E+01 0. -1.
         -5    1    4    4    0  502 -0.80482816487E+02 -0.45648068842E+02 -0.62937390377E+03  0.63615629423E+03  0.47000000000E+01 0. -1.
        -11    1    3    3    0    0  0.27297837923E+02  0.24054728408E+02 -0.77226758727E+02  0.85368461258E+02  0.00000000000E+00 0. -1.
         11    1    3    3    0    0  0.31139525252E+02  0.38400171780E+02  0.10012524595E+02  0.50442976463E+02  0.00000000000E+00 0.  1.
<mgrwt>
<rscale>  0 0.14230761E+03</rscale>
<asrwt>0</asrwt>
<pdfrwt beam="2">  1        2 0.11886341E+00 0.15147045E+03</pdfrwt>
<pdfrwt beam="1">  1       -2 0.65916171E-02 0.15147045E+03</pdfrwt>
<totfact> 0.46356399E+03</totfact>
</mgrwt>
</event>
<event>
 8    1  0.7550631E-006  0.1281424E+03  0.7546771E-02  0.1245749E+00
         -2   -1    0    0    0  501 -0.00000000000E+00  0.00000000000E+00  0.41639433242E+02  0.41639433242E+02  0.00000000000E+00 0.  1.
          2   -1    0    0  501    0  0.00000000000E+00 -0.00000000000E+00 -0.32735198879E+03  0.32735198879E+03  0.00000000000E+00 0. -1.
         23    2    1    2    0    0  0.20248755085E+02 -0.19815423879E+02 -0.65099423062E+02  0.11386279349E+03  0.89017626074E+02 0.  0.
         23    2    1    2    0    0 -0.20248755085E+02  0.19815423879E+02 -0.22061313249E+03  0.25512862854E+03  0.12497119577E+03 0.  0.
          5    1    4    4  502    0 -0.11185982426E+02 -0.34171699897E+02 -0.10212787022E+02  0.37672566882E+02  0.47000000000E+01 0. -1.
         -5    1    4    4    0  502 -0.90627726588E+01  0.53987123776E+02 -0.21040034546E+03  0.21745606166E+03  0.47000000000E+01 0. -1.
        -11    1    3    3    0    0  0.37046815393E+02 -0.37729974485E+02 -0.71075905312E+02  0.88587819825E+02  0.00000000000E+00 0. -1.
         11    1    3    3    0    0 -0.16798060308E+02  0.17914550606E+02  0.59764822504E+01  0.25274973663E+02  0.00000000000E+00 0.  1.
<mgrwt>
<rscale>  0 0.11840674E+03</rscale>
<asrwt>0</asrwt>
<pdfrwt beam="2">  1        2 0.50361844E-01 0.12814235E+03</pdfrwt>
<pdfrwt beam="1">  1       -2 0.64060666E-02 0.12814235E+03</pdfrwt>
<totfact> 0.12484258E+04</totfact>
</mgrwt>
</event>
<event>
 8    1  0.7550631E-006  0.2376379E+03  0.7546771E-02  0.1124205E+00
          2   -1    0    0  501    0  0.00000000000E+00  0.00000000000E+00  0.40952837784E+03  0.40952837784E+03  0.00000000000E+00 0.  1.
         -2   -1    0    0    0  501 -0.00000000000E+00 -0.00000000000E+00 -0.12905925962E+03  0.12905925962E+03  0.00000000000E+00 0. -1.
         23    2    1    2    0    0  0.18332794623E+03  0.85065294259E+02  0.12074381294E+03  0.25225929273E+03  0.90611490725E+02 0.  0.
         23    2    1    2    0    0 -0.18332794623E+03 -0.85065294259E+02  0.15972530528E+03  0.28632834472E+03  0.12500603060E+03 0.  0.
          5    1    4    4  502    0 -0.68807005869E+02 -0.36755256880E+02 -0.68369425977E+01  0.78448624902E+02  0.47000000000E+01 0. -1.
         -5    1    4    4    0  502 -0.11452094036E+03 -0.48310037379E+02  0.16656224788E+03  0.20787971982E+03  0.47000000000E+01 0. -1.
        -11    1    3    3    0    0  0.49503857258E+02  0.43316967506E+02  0.85200138086E+02  0.10763853904E+03  0.00000000000E+00 0.  1.
         11    1    3    3    0    0  0.13382408897E+03  0.41748326753E+02  0.35543674849E+02  0.14462075369E+03  0.00000000000E+00 0. -1.
<mgrwt>
<rscale>  0 0.23349247E+03</rscale>
<asrwt>0</asrwt>
<pdfrwt beam="1">  1        2 0.63004365E-01 0.23763785E+03</pdfrwt>
<pdfrwt beam="2">  1       -2 0.19855271E-01 0.23763785E+03</pdfrwt>
<totfact> 0.16499311E+03</totfact>
</mgrwt>
</event>
<event>
 8    1  0.7550631E-006  0.1354690E+03  0.7546771E-02  0.1230825E+00
          4   -1    0    0  501    0  0.00000000000E+00  0.00000000000E+00  0.57598056803E+03  0.57598056803E+03  0.00000000000E+00 0.  1.
         -4   -1    0    0    0  501 -0.00000000000E+00 -0.00000000000E+00 -0.29688288423E+02  0.29688288423E+02  0.00000000000E+00 0. -1.
         23    2    1    2    0    0 -0.41667257925E+02  0.31466715837E+02  0.13330655963E+03  0.17103216399E+03  0.93568411815E+02 0.  0.
         23    2    1    2    0    0  0.41667257925E+02 -0.31466715837E+02  0.41298571998E+03  0.43463669247E+03  0.12500213975E+03 0.  0.
          5    1    4    4  502    0  0.15226659718E+02  0.37581306544E+02  0.27506078053E+03  0.27807324351E+03  0.47000000000E+01 0.  1.
         -5    1    4    4    0  502  0.26440598207E+02 -0.69048022381E+02  0.13792493945E+03  0.15656344896E+03  0.47000000000E+01 0.  1.
        -11    1    3    3    0    0 -0.50811097094E+02  0.14619800927E+02  0.20658909687E+02  0.56765277384E+02  0.00000000000E+00 0. -1.
         11    1    3    3    0    0  0.91438391688E+01  0.16846914911E+02  0.11264764994E+03  0.11426688660E+03  0.00000000000E+00 0.  1.
<mgrwt>
<rscale>  0 0.12775536E+03</rscale>
<asrwt>0</asrwt>
<pdfrwt beam="1">  1        4 0.88612387E-01 0.13546900E+03</pdfrwt>
<pdfrwt beam="2">  1       -4 0.45674294E-02 0.13546900E+03</pdfrwt>
<totfact> 0.51831860E+02</totfact>
</mgrwt>
</event>
<event>
 8    1  0.7550631E-006  0.1813555E+03  0.7546771E-02  0.1172203E+00
         -2   -1    0    0    0  501 -0.00000000000E+00  0.00000000000E+00  0.29688647892E+03  0.29688647892E+03  0.00000000000E+00 0.  1.
          2   -1    0    0  501    0  0.00000000000E+00 -0.00000000000E+00 -0.11357485744E+03  0.11357485744E+03  0.00000000000E+00 0. -1.
         23    2    1    2    0    0 -0.11259513850E+02 -0.13091234254E+03  0.16327440866E+03  0.22800223968E+03  0.89786806905E+02 0.  0.
         23    2    1    2    0    0  0.11259513850E+02  0.13091234254E+03  0.20037212810E+02  0.18245909668E+03  0.12500005593E+03 0.  0.
          5    1    4    4  502    0 -0.43482873748E+02  0.69260442456E+02 -0.28427465298E+02  0.86706285712E+02  0.47000000000E+01 0. -1.
         -5    1    4    4    0  502  0.54742387599E+02  0.61651900085E+02  0.48464678109E+02  0.95752810968E+02  0.47000000000E+01 0. -1.
        -11    1    3    3    0    0  0.11285005285E+02 -0.52923812918E+02  0.12898426864E+03  0.13987574084E+03  0.00000000000E+00 0.  1.
         11    1    3    3    0    0 -0.22544519135E+02 -0.77988529624E+02  0.34290140021E+02  0.88126498844E+02  0.00000000000E+00 0. -1.
<mgrwt>
<rscale>  0 0.17552743E+03</rscale>
<asrwt>0</asrwt>
<pdfrwt beam="2">  1        2 0.17473055E-01 0.18135554E+03</pdfrwt>
<pdfrwt beam="1">  1       -2 0.45674843E-01 0.18135554E+03</pdfrwt>
<totfact> 0.14744428E+03</totfact>
</mgrwt>
</event>
<event>
 8    1  0.7550631E-006  0.1842711E+03  0.7546771E-02  0.1169135E+00
         -2   -1    0    0    0  501 -0.00000000000E+00  0.00000000000E+00  0.48202244526E+02  0.48202244526E+02  0.00000000000E+00 0. -1.
          2   -1    0    0  501    0  0.00000000000E+00 -0.00000000000E+00 -0.63889787444E+03  0.63889787444E+03  0.00000000000E+00 0.  1.
         23    2    1    2    0    0  0.12818239295E+03 -0.43587905919E+02 -0.22590303520E+03  0.27840770739E+03  0.90266487788E+02 0.  0.
         23    2    1    2    0    0 -0.12818239295E+03  0.43587905919E+02 -0.36479259472E+03  0.40869241158E+03  0.12500087486E+03 0.  0.
          5    1    4    4  502    0  0.80093874974E+01  0.17016009004E+02 -0.11187618623E+01  0.19417427188E+02  0.47000000000E+01 0. -1.
         -5    1    4    4    0  502 -0.13619178045E+03  0.26571896916E+02 -0.36367383286E+03  0.38927498439E+03  0.47000000000E+01 0. -1.
        -11    1    3    3    0    0  0.47570033802E+02 -0.34626510094E+02 -0.29297432371E+02  0.65728554379E+02  0.00000000000E+00 0. -1.
         11    1    3    3    0    0  0.80612359148E+02 -0.89613958255E+01 -0.19660560283E+03  0.21267915301E+03  0.00000000000E+00 0.  1.
<mgrwt>
<rscale>  0 0.17863025E+03</rscale>
<asrwt>0</asrwt>
<pdfrwt beam="2">  1        2 0.98291988E-01 0.18427113E+03</pdfrwt>
<pdfrwt beam="1">  1       -2 0.74157294E-02 0.18427113E+03</pdfrwt>
<totfact> 0.48960974E+03</totfact>
</mgrwt>
</event>
<event>
 8    1  0.7550631E-006  0.1493338E+03  0.7546771E-02  0.1210517E+00
          3   -1    0    0  501    0  0.00000000000E+00  0.00000000000E+00  0.74648083912E+03  0.74648083912E+03  0.00000000000E+00 0. -1.
         -3   -1    0    0    0  501 -0.00000000000E+00 -0.00000000000E+00 -0.25543126708E+02  0.25543126708E+02  0.00000000000E+00 0.  1.
         23    2    1    2    0    0 -0.38621833618E+02 -0.71991482116E+02  0.25792864390E+03  0.28552834795E+03  0.91240520680E+02 0.  0.
         23    2    1    2    0    0  0.38621833618E+02  0.71991482116E+02  0.46300906851E+03  0.48649561787E+03  0.12500467653E+03 0.  0.
          5    1    4    4  502    0  0.57669380269E+01 -0.12830654932E+02  0.22498833713E+00  0.14833202619E+02  0.47000000000E+01 0. -1.
         -5    1    4    4    0  502  0.32854895591E+02  0.84822137048E+02  0.46278408017E+03  0.47166241525E+03  0.47000000000E+01 0. -1.
        -11    1    3    3    0    0  0.20363257125E+02 -0.57901216024E+02  0.11751817497E+03  0.13258104882E+03  0.00000000000E+00 0. -1.
         11    1    3    3    0    0 -0.58985090743E+02 -0.14090266092E+02  0.14041046893E+03  0.15294729914E+03  0.00000000000E+00 0.  1.
<mgrwt>
<rscale>  0 0.14211088E+03</rscale>
<asrwt>0</asrwt>
<pdfrwt beam="1">  1        3 0.11484319E+00 0.14933382E+03</pdfrwt>
<pdfrwt beam="2">  1       -3 0.39297124E-02 0.14933382E+03</pdfrwt>
<totfact> 0.51669939E+02</totfact>
</mgrwt>
</event>
<event>
 8    1  0.7550631E-006  0.2014904E+03  0.7546771E-02  0.1152438E+00
         -2   -1    0    0    0  501 -0.00000000000E+00  0.00000000000E+00  0.52202844207E+02  0.52202844207E+02  0.00000000000E+00 0.  1.
          2   -1    0    0  501    0  0.00000000000E+00 -0.00000000000E+00 -0.71726105765E+03  0.71726105765E+03  0.00000000000E+00 0. -1.
         23    2    1    2    0    0 -0.95979604816E+02  0.12553636195E+03 -0.27802111223E+03  0.33311988271E+03  0.93282660245E+02 0.  0.
         23    2    1    2    0    0  0.95979604816E+02 -0.12553636195E+03 -0.38703710122E+03  0.43634401914E+03  0.12500769021E+03 0.  0.
          5    1    4    4  502    0  0.80475387284E+02 -0.30530282552E+02 -0.27682737077E+03  0.28993769903E+03  0.47000000000E+01 0. -1.
         -5    1    4    4    0  502  0.15504217532E+02 -0.95006079401E+02 -0.11020973045E+03  0.14640632012E+03  0.47000000000E+01 0. -1.
        -11    1    3    3    0    0 -0.10088009722E+03  0.13713889265E+03 -0.26523573612E+03  0.31517275518E+03  0.00000000000E+00 0. -1.
         11    1    3    3    0    0  0.49004924048E+01 -0.11602530700E+02 -0.12785376105E+02  0.17947127531E+02  0.00000000000E+00 0.  1.
<mgrwt>
<rscale>  0 0.19683449E+03</rscale>
<asrwt>0</asrwt>
<pdfrwt beam="2">  1        2 0.11034785E+00 0.20149041E+03</pdfrwt>
<pdfrwt beam="1">  1       -2 0.80312069E-02 0.20149041E+03</pdfrwt>
<totfact> 0.37805240E+03</totfact>
</mgrwt>
</event>
<event>
 8    1  0.7550631E-006  0.1457625E+03  0.7546771E-02  0.1215522E+00
         -2   -1    0    0    0  501 -0.00000000000E+00  0.00000000000E+00  0.77802555636E+02  0.77802555636E+02  0.00000000000E+00 0.  1.
          2   -1    0    0  501    0  0.00000000000E+00 -0.00000000000E+00 -0.26992008504E+03  0.26992008504E+03  0.00000000000E+00 0. -1.
         23    2    1    2    0    0 -0.74961304119E+02  0.14787924611E+01 -0.16594402700E+02  0.11956681194E+03  0.91648591770E+02 0.  0.
         23    2    1    2    0    0  0.74961304119E+02 -0.14787924611E+01 -0.17552312671E+03  0.22815582874E+03  0.12500132094E+03 0.  0.
          5    1    4    4  502    0 -0.11222202736E+02  0.45765833778E+02 -0.58359491224E+02  0.75155635794E+02  0.47000000000E+01 0. -1.
         -5    1    4    4    0  502  0.86183506855E+02 -0.47244626239E+02 -0.11716363548E+03  0.15300019295E+03  0.47000000000E+01 0. -1.
        -11    1    3    3    0    0 -0.39349870460E+02  0.19347518085E+02  0.33771711971E+02  0.55346791151E+02  0.00000000000E+00 0.  1.
         11    1    3    3    0    0 -0.35611433659E+02 -0.17868725624E+02 -0.50366114671E+02  0.64220020785E+02  0.00000000000E+00 0. -1.
<mgrwt>
<rscale>  0 0.13838251E+03</rscale>
<asrwt>0</asrwt>
<pdfrwt beam="2">  1        2 0.41526167E-01 0.14576253E+03</pdfrwt>
<pdfrwt beam="1">  1       -2 0.11969624E-01 0.14576253E+03</pdfrwt>
<totfact> 0.58419189E+03</totfact>
</mgrwt>
</event>
<event>
 8    1  0.7550631E-006  0.1923531E+03  0.7546771E-02  0.1161439E+00
          2   -1    0    0  501    0  0.00000000000E+00  0.00000000000E+00  0.49744335579E+03  0.49744335579E+03  0.00000000000E+00 0. -1.
         -2   -1    0    0    0  501 -0.00000000000E+00 -0.00000000000E+00 -0.66785042484E+02  0.66785042484E+02  0.00000000000E+00 0.  1.
         23    2    1    2    0    0 -0.10021707243E+01  0.14619913857E+03  0.17858599478E+03  0.24714771823E+03  0.88395953701E+02 0.  0.
         23    2    1    2    0    0  0.10021707243E+01 -0.14619913857E+03  0.25207231852E+03  0.31708068004E+03  0.12499804568E+03 0.  0.
          5    1    4    4  502    0 -0.19389578878E+01 -0.10096867206E+03  0.25198813162E+03  0.27151158497E+03  0.47000000000E+01 0.  1.
         -5    1    4    4    0  502  0.29411286121E+01 -0.45230466510E+02  0.84186905252E-01  0.45569095072E+02  0.47000000000E+01 0.  1.
        -11    1    3    3    0    0  0.12852941928E+02  0.25641206672E+02 -0.28998942894E+01  0.28828440518E+02  0.00000000000E+00 0.  1.
         11    1    3    3    0    0 -0.13855112653E+02  0.12055793190E+03  0.18148588907E+03  0.21831927771E+03  0.00000000000E+00 0. -1.
<mgrwt>
<rscale>  0 0.18673547E+03</rscale>
<asrwt>0</asrwt>
<pdfrwt beam="1">  1        2 0.76529745E-01 0.19235307E+03</pdfrwt>
<pdfrwt beam="2">  1       -2 0.10274622E-01 0.19235307E+03</pdfrwt>
<totfact> 0.39118890E+03</totfact>
</mgrwt>
</event>
<event>
 8    1  0.7550631E-006  0.1438547E+03  0.7546771E-02  0.1218394E+00
          1   -1    0    0  501    0  0.00000000000E+00  0.00000000000E+00  0.35145344494E+03  0.35145344494E+03  0.00000000000E+00 0. -1.
         -1   -1    0    0    0  501 -0.00000000000E+00 -0.00000000000E+00 -0.54099832624E+02  0.54099832624E+02  0.00000000000E+00 0.  1.
         23    2    1    2    0    0 -0.70092814066E+02  0.12577075906E+02  0.66813158182E+02  0.13381246379E+03  0.91490939100E+02 0.  0.
         23    2    1    2    0    0  0.70092814066E+02 -0.12577075906E+02  0.23054045414E+03  0.27174081378E+03  0.12499193357E+03 0.  0.
          5    1    4    4  502    0  0.92419469987E+02  0.27880164630E+02  0.16835197112E+03  0.19412145217E+03  0.47000000000E+01 0.  1.
         -5    1    4    4    0  502 -0.22326655921E+02 -0.40457240536E+02  0.62188483016E+02  0.77619361607E+02  0.47000000000E+01 0.  1.
        -11    1    3    3    0    0 -0.47983844826E+02  0.17706829790E+00  0.88356733707E+02  0.10054547781E+03  0.00000000000E+00 0. -1.
         11    1    3    3    0    0 -0.22108969240E+02  0.12400007608E+02 -0.21543575525E+02  0.33266985976E+02  0.00000000000E+00 0.  1.
<mgrwt>
<rscale>  0 0.13630133E+03</rscale>
<asrwt>0</asrwt>
<pdfrwt beam="1">  1        1 0.54069759E-01 0.14385468E+03</pdfrwt>
<pdfrwt beam="2">  1       -1 0.83230514E-02 0.14385468E+03</pdfrwt>
<totfact> 0.55757411E+03</totfact>
</mgrwt>
</event>
<event>
 8    1  0.7550631E-006  0.1352634E+03  0.7546771E-02  0.1232134E+00
          1   -1    0    0  501    0  0.00000000000E+00  0.00000000000E+00  0.75134538843E+02  0.75134538843E+02  0.00000000000E+00 0. -1.
         -1   -1    0    0    0  501 -0.00000000000E+00 -0.00000000000E+00 -0.20693796724E+03  0.20693796724E+03  0.00000000000E+00 0.  1.
         23    2    1    2    0    0 -0.22479477497E+02 -0.46547652513E+02 -0.96105457059E+02  0.14217778320E+03  0.91138643262E+02 0.  0.
         23    2    1    2    0    0  0.22479477497E+02  0.46547652513E+02 -0.35697971336E+02  0.13989472288E+03  0.12499670984E+03 0.  0.
          5    1    4    4  502    0 -0.13687067759E+02  0.50244754521E+02 -0.71550214289E+02  0.88619379063E+02  0.47000000000E+01 0. -1.
         -5    1    4    4    0  502  0.36166545256E+02 -0.36971020080E+01  0.35852242954E+02  0.51275343820E+02  0.47000000000E+01 0. -1.
        -11    1    3    3    0    0 -0.35338346014E+02  0.14653304006E+02 -0.56228420082E+02  0.68008479194E+02  0.00000000000E+00 0.  1.
         11    1    3    3    0    0  0.12858868517E+02 -0.61200956519E+02 -0.39877036977E+02  0.74169304004E+02  0.00000000000E+00 0. -1.
<mgrwt>
<rscale>  0 0.12689717E+03</rscale>
<asrwt>0</asrwt>
<pdfrwt beam="1">  1        1 0.11559160E-01 0.13526340E+03</pdfrwt>
<pdfrwt beam="2">  1       -1 0.31836610E-01 0.13526340E+03</pdfrwt>
<totfact> 0.46488102E+03</totfact>
</mgrwt>
</event>
<event>
 8    1  0.7550631E-006  0.1567193E+03  0.7546771E-02  0.1199600E+00
         -2   -1    0    0    0  501 -0.00000000000E+00  0.00000000000E+00  0.24848382605E+02  0.24848382605E+02  0.00000000000E+00 0.  1.
          2   -1    0    0  501    0  0.00000000000E+00 -0.00000000000E+00 -0.92569032417E+03  0.92569032417E+03  0.00000000000E+00 0. -1.
         23    2    1    2    0    0  0.82850077499E+02 -0.45513264356E+02 -0.28312366874E+03  0.31325007635E+03  0.95031605071E+02 0.  0.
         23    2    1    2    0    0 -0.82850077499E+02  0.45513264356E+02 -0.61771827283E+03  0.63728863043E+03  0.12500136522E+03 0.  0.
          5    1    4    4  502    0 -0.59059769213E+02 -0.37572897142E+02 -0.27287906556E+03  0.28175317809E+03  0.47000000000E+01 0. -1.
         -5    1    4    4    0  502 -0.23790308286E+02  0.83086161497E+02 -0.34483920727E+03  0.35553545234E+03  0.47000000000E+01 0. -1.
        -11    1    3    3    0    0  0.82509237350E+02 -0.10628834691E+02 -0.11735584271E+03  0.14385110425E+03  0.00000000000E+00 0. -1.
         11    1    3    3    0    0  0.34084014912E+00 -0.34884429665E+02 -0.16576782603E+03  0.16939897211E+03  0.00000000000E+00 0.  1.
<mgrwt>
<rscale>  0 0.15071277E+03</rscale>
<asrwt>0</asrwt>
<pdfrwt beam="2">  1        2 0.14241390E+00 0.15671928E+03</pdfrwt>
<pdfrwt beam="1">  1       -2 0.38228281E-02 0.15671928E+03</pdfrwt>
<totfact> 0.83737856E+03</totfact>
</mgrwt>
</event>
<event>
 8    1  0.7550631E-006  0.2760793E+03  0.7546771E-02  0.1099801E+00
          1   -1    0    0  501    0  0.00000000000E+00  0.00000000000E+00  0.47431471223E+03  0.47431471223E+03  0.00000000000E+00 0. -1.
         -1   -1    0    0    0  501 -0.00000000000E+00 -0.00000000000E+00 -0.20509268163E+03  0.20509268163E+03  0.00000000000E+00 0.  1.
         23    2    1    2    0    0  0.18828182560E+03 -0.15856764388E+03 -0.39350642566E+02  0.26535800594E+03  0.90954135203E+02 0.  0.
         23    2    1    2    0    0 -0.18828182560E+03  0.15856764388E+03  0.30857267317E+03  0.41404938792E+03  0.12500422984E+03 0.  0.
          5    1    4    4  502    0 -0.57004417547E+02 -0.12587457376E+02  0.47823070664E+02  0.75611399873E+02  0.47000000000E+01 0. -1.
         -5    1    4    4    0  502 -0.13127740805E+03  0.17115510126E+03  0.26074960250E+03  0.33843798805E+03  0.47000000000E+01 0. -1.
        -11    1    3    3    0    0  0.83393485119E+02 -0.12692143035E+03 -0.34249319932E+02  0.15568088758E+03  0.00000000000E+00 0. -1.
         11    1    3    3    0    0  0.10488834048E+03 -0.31646213532E+02 -0.51013226350E+01  0.10967711836E+03  0.00000000000E+00 0.  1.
<mgrwt>
<rscale>  0 0.27260031E+03</rscale>
<asrwt>0</asrwt>
<pdfrwt beam="1">  1        1 0.72971494E-01 0.27607934E+03</pdfrwt>
<pdfrwt beam="2">  1       -1 0.31552720E-01 0.27607934E+03</pdfrwt>
<totfact> 0.45642862E+02</totfact>
</mgrwt>
</event>
<event>
 7    1  0.7550631E-006  0.1706503E+03  0.7546771E-02  0.1199269E+00
          1   -1    0    0  501    0  0.00000000000E+00  0.00000000000E+00  0.31725244892E+03  0.31725244892E+03  0.00000000000E+00 0. -1.
         -1   -1    0    0    0  501 -0.00000000000E+00 -0.00000000000E+00 -0.92814201846E+02  0.92814201846E+02  0.00000000000E+00 0.  1.
         23    2    1    2    0    0  0.40125469537E+02 -0.26942884198E+02 -0.25304973817E+02  0.10758821824E+03  0.92730311601E+02 0.  0.
          5    1    1    2  502    0 -0.88904474914E+02  0.36720719494E+02  0.22890180765E+03  0.24833554809E+03  0.47000000000E+01 0. -1.
         -5    1    1    2    0  502  0.48779005377E+02 -0.97778352961E+01  0.20841413233E+02  0.54142884428E+02  0.47000000000E+01 0.  1.
        -11    1    3    3    0    0  0.54621398431E+02 -0.35441560016E+02 -0.46886206766E+02  0.80236635821E+02  0.00000000000E+00 0.  1.
         11    1    3    3    0    0 -0.14495928894E+02  0.84986758181E+01  0.21581232949E+02  0.27351582418E+02  0.00000000000E+00 0. -1.
<mgrwt>
<rscale>  0 0.15098440E+03</rscale>
<asrwt>0</asrwt>
<pdfrwt beam="1">  1        1 0.48808069E-01 0.17065030E+03</pdfrwt>
<pdfrwt beam="2">  1       -1 0.14279108E-01 0.17065030E+03</pdfrwt>
<totfact> 0.27817773E+03</totfact>
</mgrwt>
</event>
<event>
 8    1  0.7550631E-006  0.1394717E+03  0.7546771E-02  0.1226868E+00
         -2   -1    0    0    0  501 -0.00000000000E+00  0.00000000000E+00  0.47153023870E+02  0.47153023870E+02  0.00000000000E+00 0.  1.
          2   -1    0    0  501    0  0.00000000000E+00 -0.00000000000E+00 -0.52990170823E+03  0.52990170823E+03  0.00000000000E+00 0. -1.
         23    2    1    2    0    0 -0.57391503254E+02  0.23036736903E+02 -0.41620532691E+02  0.11440324300E+03  0.86783393428E+02 0.  0.
         23    2    1    2    0    0  0.57391503254E+02 -0.23036736903E+02 -0.44112815167E+03  0.46265148910E+03  0.12501151258E+03 0.  0.
          5    1    4    4  502    0  0.47166827471E+02  0.14393648390E+02 -0.40918705555E+03  0.41217474832E+03  0.47000000000E+01 0. -1.
         -5    1    4    4    0  502  0.10224675783E+02 -0.37430385293E+02 -0.31941096126E+02  0.50476740780E+02  0.47000000000E+01 0. -1.
        -11    1    3    3    0    0 -0.55212016070E+02  0.41856832529E+02 -0.57222743861E+02  0.89859910766E+02  0.00000000000E+00 0. -1.
         11    1    3    3    0    0 -0.21794871835E+01 -0.18820095627E+02  0.15602211170E+02  0.24543332235E+02  0.00000000000E+00 0.  1.
<mgrwt>
<rscale>  0 0.13039680E+03</rscale>
<asrwt>0</asrwt>
<pdfrwt beam="2">  1        2 0.81523344E-01 0.13947170E+03</pdfrwt>
<pdfrwt beam="1">  1       -2 0.72543110E-02 0.13947170E+03</pdfrwt>
<totfact> 0.61834420E+03</totfact>
</mgrwt>
</event>
<event>
 8    1  0.7550631E-006  0.1313313E+03  0.7546771E-02  0.1233558E+00
         -2   -1    0    0    0  501 -0.00000000000E+00  0.00000000000E+00  0.16329512675E+03  0.16329512675E+03  0.00000000000E+00 0.  1.
          2   -1    0    0  501    0  0.00000000000E+00 -0.00000000000E+00 -0.92955665086E+02  0.92955665086E+02  0.00000000000E+00 0. -1.
         23    2    1    2    0    0  0.35275698670E+02  0.19473880814E+02  0.54980786134E+02  0.12402445573E+03  0.10361260456E+03 0.  0.
         23    2    1    2    0    0 -0.35275698670E+02 -0.19473880814E+02  0.15358675527E+02  0.13222633610E+03  0.12499723235E+03 0.  0.
          5    1    4    4  502    0 -0.68115903061E+02 -0.46867372189E+02  0.27939706598E+02  0.87401624873E+02  0.47000000000E+01 0.  1.
         -5    1    4    4    0  502  0.32840204391E+02  0.27393491375E+02 -0.12581031071E+02  0.44824711231E+02  0.47000000000E+01 0.  1.
        -11    1    3    3    0    0  0.21716902911E+02  0.34168883917E+02  0.81387850222E+02  0.90901697806E+02  0.00000000000E+00 0.  1.
         11    1    3    3    0    0  0.13558795759E+02 -0.14695003103E+02 -0.26407064088E+02  0.33122757922E+02  0.00000000000E+00 0. -1.
<mgrwt>
<rscale>  0 0.12597226E+03</rscale>
<asrwt>0</asrwt>
<pdfrwt beam="2">  1        2 0.14300872E-01 0.13133132E+03</pdfrwt>
<pdfrwt beam="1">  1       -2 0.25122327E-01 0.13133132E+03</pdfrwt>
<totfact> 0.55159339E+03</totfact>
</mgrwt>
</event>
<event>
 8    1  0.7550631E-006  0.2097207E+03  0.7546771E-02  0.1145590E+00
         -1   -1    0    0    0  501 -0.00000000000E+00  0.00000000000E+00  0.29686107617E+02  0.29686107617E+02  0.00000000000E+00 0.  1.
          1   -1    0    0  501    0  0.00000000000E+00 -0.00000000000E+00 -0.20620569632E+04  0.20620569632E+04  0.00000000000E+00 0. -1.
         23    2    1    2    0    0  0.14331772049E+03 -0.88420004159E+02 -0.37392293798E+03  0.42008752541E+03  0.91088414849E+02 0.  0.
         23    2    1    2    0    0 -0.14331772049E+03  0.88420004159E+02 -0.16584479176E+04  0.16716555454E+04  0.12499880373E+03 0.  0.
          5    1    4    4  502    0 -0.13146049915E+03  0.24405544520E+02 -0.13350009016E+04  0.13416881123E+04  0.47000000000E+01 0.  1.
         -5    1    4    4    0  502 -0.11857221332E+02  0.64014459640E+02 -0.32344701599E+03  0.32996743308E+03  0.47000000000E+01 0.  1.
        -11    1    3    3    0    0  0.12598070374E+03 -0.44313864785E+02 -0.20516047324E+03  0.24479721425E+03  0.00000000000E+00 0.  1.
         11    1    3    3    0    0  0.17337016742E+02 -0.44106139374E+02 -0.16876246474E+03  0.17529031116E+03  0.00000000000E+00 0. -1.
<mgrwt>
<rscale>  0 0.20499716E+03</rscale>
<asrwt>0</asrwt>
<pdfrwt beam="2">  1        1 0.31723956E+00 0.20972069E+03</pdfrwt>
<pdfrwt beam="1">  1       -1 0.45670931E-02 0.20972069E+03</pdfrwt>
<totfact> 0.62545198E+02</totfact>
</mgrwt>
</event>
<event>
 8    1  0.7550631E-006  0.1552017E+03  0.7546771E-02  0.1202731E+00
          2   -1    0    0  501    0  0.00000000000E+00  0.00000000000E+00  0.26215497537E+03  0.26215497537E+03  0.00000000000E+00 0.  1.
         -2   -1    0    0    0  501 -0.00000000000E+00 -0.00000000000E+00 -0.77041095183E+02  0.77041095183E+02  0.00000000000E+00 0. -1.
         23    2    1    2    0    0 -0.47465617581E+02  0.78807834019E+02  0.80117785444E+02  0.15181480782E+03  0.90361589035E+02 0.  0.
         23    2    1    2    0    0  0.47465617581E+02 -0.78807834019E+02  0.10499609474E+03  0.18738126274E+03  0.12499559256E+03 0.  0.
          5    1    4    4  502    0  0.27961197635E+02 -0.56341569545E+02 -0.14019821257E+02  0.64613051468E+02  0.47000000000E+01 0. -1.
         -5    1    4    4    0  502  0.19504419946E+02 -0.22466264475E+02  0.11901591600E+03  0.12276821127E+03  0.47000000000E+01 0. -1.
        -11    1    3    3    0    0 -0.44085170525E+02  0.17116713756E+02  0.76484745304E+02  0.89924415007E+02  0.00000000000E+00 0.  1.
         11    1    3    3    0    0 -0.33804470555E+01  0.61691120263E+02  0.36330401399E+01  0.61890392810E+02  0.00000000000E+00 0. -1.
<mgrwt>
<rscale>  0 0.14817678E+03</rscale>
<asrwt>0</asrwt>
<pdfrwt beam="1">  1        2 0.40331534E-01 0.15520167E+03</pdfrwt>
<pdfrwt beam="2">  1       -2 0.11852476E-01 0.15520167E+03</pdfrwt>
<totfact> 0.61454768E+03</totfact>
</mgrwt>
</event>
<event>
 7    1  0.7550631E-006  0.1542588E+03  0.7546771E-02  0.1212786E+00
          3   -1    0    0  501    0  0.00000000000E+00  0.00000000000E+00  0.54224066773E+02  0.54224066773E+02  0.00000000000E+00 0. -1.
         -3   -1    0    0    0  501 -0.00000000000E+00 -0.00000000000E+00 -0.50634476210E+03  0.50634476210E+03  0.00000000000E+00 0.  1.
         23    2    1    2    0    0  0.25853607967E+02 -0.30280458508E+02 -0.37194408799E+03  0.38671810177E+03  0.98097759597E+02 0.  0.
          5    1    1    2  502    0  0.23521868085E+02  0.70024472636E+02 -0.32855417395E+01  0.74091766282E+02  0.47000000000E+01 0. -1.
         -5    1    1    2    0  502 -0.49375476052E+02 -0.39744014129E+02 -0.76891065604E+02  0.99758960821E+02  0.47000000000E+01 0.  1.
        -11    1    3    3    0    0  0.45678140356E+01 -0.64954443528E+02 -0.22206218721E+03  0.23141209918E+03  0.00000000000E+00 0.  1.
         11    1    3    3    0    0  0.21285793931E+02  0.34673985020E+02 -0.14988190078E+03  0.15530600259E+03  0.00000000000E+00 0. -1.
<mgrwt>
<rscale>  0 0.14040446E+03</rscale>
<asrwt>0</asrwt>
<pdfrwt beam="1">  1        3 0.83421639E-02 0.15425883E+03</pdfrwt>
<pdfrwt beam="2">  1       -3 0.77899196E-01 0.15425883E+03</pdfrwt>
<totfact> 0.37221085E+02</totfact>
</mgrwt>
</event>
<event>
 8    1  0.7550631E-006  0.1258464E+03  0.7546771E-02  0.1248954E+00
          2   -1    0    0  501    0  0.00000000000E+00  0.00000000000E+00  0.57366766472E+03  0.57366766472E+03  0.00000000000E+00 0. -1.
         -2   -1    0    0    0  501 -0.00000000000E+00 -0.00000000000E+00 -0.21496270397E+02  0.21496270397E+02  0.00000000000E+00 0.  1.
         23    2    1    2    0    0  0.36899850599E+01  0.14137447129E+02  0.18133567535E+03  0.20355642888E+03  0.91318723065E+02 0.  0.
         23    2    1    2    0    0 -0.36899850599E+01 -0.14137447129E+02  0.37083571898E+03  0.39160750624E+03  0.12499530021E+03 0.  0.
          5    1    4    4  502    0  0.36506200430E+01  0.14088707500E+01  0.37353161943E+03  0.37358168138E+03  0.47000000000E+01 0.  1.
         -5    1    4    4    0  502 -0.73406051028E+01 -0.15546317879E+02 -0.26959004550E+01  0.18025824867E+02  0.47000000000E+01 0.  1.
        -11    1    3    3    0    0  0.29051537416E+02 -0.29168681860E+02  0.66173828738E+02  0.77934456035E+02  0.00000000000E+00 0.  1.
         11    1    3    3    0    0 -0.25361552357E+02  0.43306128989E+02  0.11516184661E+03  0.12562197284E+03  0.00000000000E+00 0. -1.
<mgrwt>
<rscale>  0 0.11651792E+03</rscale>
<asrwt>0</asrwt>
<pdfrwt beam="1">  1        2 0.88256552E-01 0.12584637E+03</pdfrwt>
<pdfrwt beam="2">  1       -2 0.33071190E-02 0.12584637E+03</pdfrwt>
<totfact> 0.18261906E+04</totfact>
</mgrwt>
</event>
<event>
 8    1  0.7550631E-006  0.1309185E+03  0.7546771E-02  0.1240391E+00
          1   -1    0    0  501    0  0.00000000000E+00  0.00000000000E+00  0.10895634710E+04  0.10895634710E+04  0.00000000000E+00 0. -1.
         -1   -1    0    0    0  501 -0.00000000000E+00 -0.00000000000E+00 -0.12408953804E+02  0.12408953804E+02  0.00000000000E+00 0.  1.
         23    2    1    2    0    0  0.35997688067E+02  0.14846483277E+02  0.36184839975E+03  0.37478435870E+03  0.89514241940E+02 0.  0.
         23    2    1    2    0    0 -0.35997688067E+02 -0.14846483277E+02  0.71530611749E+03  0.72718806615E+03  0.12499356072E+03 0.  0.
          5    1    4    4  502    0  0.32552651747E+02  0.33311739716E+02  0.23728598825E+03  0.24185962325E+03  0.47000000000E+01 0.  1.
         -5    1    4    4    0  502 -0.68550339814E+02 -0.48158222993E+02  0.47802012923E+03  0.48532844289E+03  0.47000000000E+01 0.  1.
        -11    1    3    3    0    0  0.47326422335E+02  0.45047653862E+02  0.23842888735E+03  0.24721936755E+03  0.00000000000E+00 0.  1.
         11    1    3    3    0    0 -0.11328734267E+02 -0.30201170585E+02  0.12341951240E+03  0.12756499115E+03  0.00000000000E+00 0. -1.
<mgrwt>
<rscale>  0 0.12165553E+03</rscale>
<asrwt>0</asrwt>
<pdfrwt beam="1">  1        1 0.16762507E+00 0.13091845E+03</pdfrwt>
<pdfrwt beam="2">  1       -1 0.19090707E-02 0.13091845E+03</pdfrwt>
<totfact> 0.97226820E+03</totfact>
</mgrwt>
</event>
<event>
 8    1  0.7550631E-006  0.1246311E+03  0.7546771E-02  0.1245799E+00
         -2   -1    0    0    0  501 -0.00000000000E+00  0.00000000000E+00  0.74564878315E+02  0.74564878315E+02  0.00000000000E+00 0.  1.
          2   -1    0    0  501    0  0.00000000000E+00 -0.00000000000E+00 -0.17235612967E+03  0.17235612967E+03  0.00000000000E+00 0. -1.
         23    2    1    2    0    0 -0.19185450327E+01  0.31341599653E+02 -0.34511194892E+02  0.10714518360E+03  0.96452532951E+02 0.  0.
         23    2    1    2    0    0  0.19185450327E+01 -0.31341599653E+02 -0.63280056461E+02  0.13977582438E+03  0.12061069128E+03 0.  0.
          5    1    4    4  502    0  0.18260830006E+02 -0.23924523496E+02 -0.96791560750E+02  0.10147185309E+03  0.47000000000E+01 0. -1.
         -5    1    4    4    0  502 -0.16342284973E+02 -0.74170761575E+01  0.33511504289E+02  0.38303971290E+02  0.47000000000E+01 0.  1.
        -11    1    3    3    0    0 -0.49132731909E+02  0.13956539916E+02 -0.15784335428E+02  0.53459850319E+02  0.00000000000E+00 0.  1.
         11    1    3    3    0    0  0.47214186876E+02  0.17385059738E+02 -0.18726859464E+02  0.53685333284E+02  0.00000000000E+00 0. -1.
<mgrwt>
<rscale>  0 0.11837688E+03</rscale>
<asrwt>0</asrwt>
<pdfrwt beam="2">  1        2 0.26516328E-01 0.12463112E+03</pdfrwt>
<pdfrwt beam="1">  1       -2 0.11471520E-01 0.12463112E+03</pdfrwt>
<totfact> 0.10016787E+04</totfact>
</mgrwt>
</event>
<event>
 8    1  0.7550631E-006  0.1558117E+03  0.7546771E-02  0.1198418E+00
          1   -1    0    0  501    0  0.00000000000E+00  0.00000000000E+00  0.39583887915E+03  0.39583887915E+03  0.00000000000E+00 0. -1.
         -1   -1    0    0    0  501 -0.00000000000E+00 -0.00000000000E+00 -0.55525370867E+02  0.55525370867E+02  0.00000000000E+00 0.  1.
         23    2    1    2    0    0 -0.76993847238E+02 -0.52198784770E+02  0.17706296114E+03  0.22569185944E+03  0.10455982769E+03 0.  0.
         23    2    1    2    0    0  0.76993847238E+02  0.52198784770E+02  0.16325054714E+03  0.22567239057E+03  0.12499808431E+03 0.  0.
          5    1    4    4  502    0  0.54161002187E+02  0.13853900009E+02  0.17114740570E+03  0.18010793759E+03  0.47000000000E+01 0. -1.
         -5    1    4    4    0  502  0.22832845051E+02  0.38344884762E+02 -0.78968585625E+01  0.45564452983E+02  0.47000000000E+01 0. -1.
        -11    1    3    3    0    0 -0.50923193326E+02 -0.10190075829E+02  0.16745875683E+03  0.17532667938E+03  0.00000000000E+00 0. -1.
         11    1    3    3    0    0 -0.26070653913E+02 -0.42008708941E+02  0.96042043123E+01  0.50365180063E+02  0.00000000000E+00 0.  1.
<mgrwt>
<rscale>  0 0.15168476E+03</rscale>
<asrwt>0</asrwt>
<pdfrwt beam="1">  1        1 0.60898287E-01 0.15581170E+03</pdfrwt>
<pdfrwt beam="2">  1       -1 0.85423650E-02 0.15581170E+03</pdfrwt>
<totfact> 0.46357554E+03</totfact>
</mgrwt>
</event>
<event>
 8    1  0.7550631E-006  0.1452731E+03  0.7546771E-02  0.1217818E+00
         -2   -1    0    0    0  501 -0.00000000000E+00  0.00000000000E+00  0.54631854994E+02  0.54631854994E+02  0.00000000000E+00 0. -1.
          2   -1    0    0  501    0  0.00000000000E+00 -0.00000000000E+00 -0.32510815250E+03  0.32510815250E+03  0.00000000000E+00 0.  1.
         23    2    1    2    0    0 -0.39938380969E+02 -0.62324258906E+02 -0.75897577356E+02  0.13691260237E+03  0.86632735821E+02 0.  0.
         23    2    1    2    0    0  0.39938380969E+02  0.62324258906E+02 -0.19457872015E+03  0.24282740513E+03  0.12499953129E+03 0.  0.
          5    1    4    4  502    0  0.11487748980E+01  0.92713638443E+01  0.17699769134E+02  0.20558445921E+02  0.47000000000E+01 0.  1.
         -5    1    4    4    0  502  0.38789606071E+02  0.53052895062E+02 -0.21227848929E+03  0.22226895921E+03  0.47000000000E+01 0.  1.
        -11    1    3    3    0    0  0.33758332123E+01 -0.23210292426E+02 -0.74960220666E+02  0.78543927879E+02  0.00000000000E+00 0.  1.
         11    1    3    3    0    0 -0.43314214182E+02 -0.39113966480E+02 -0.93735669008E+00  0.58368674488E+02  0.00000000000E+00 0. -1.
<mgrwt>
<rscale>  0 0.13671543E+03</rscale>
<asrwt>0</asrwt>
<pdfrwt beam="2">  1        2 0.50016639E-01 0.14527309E+03</pdfrwt>
<pdfrwt beam="1">  1       -2 0.84049008E-02 0.14527309E+03</pdfrwt>
<totfact> 0.83645643E+03</totfact>
</mgrwt>
</event>
<event>
 8    1  0.7550631E-006  0.1640788E+03  0.7546771E-02  0.1191226E+00
         -1   -1    0    0    0  501 -0.00000000000E+00  0.00000000000E+00  0.11070787559E+03  0.11070787559E+03  0.00000000000E+00 0.  1.
          1   -1    0    0  501    0  0.00000000000E+00 -0.00000000000E+00 -0.23006063703E+03  0.23006063703E+03  0.00000000000E+00 0. -1.
         23    2    1    2    0    0  0.79667284090E+02 -0.70356373571E+02 -0.42857904552E+01  0.14036325479E+03  0.91578271646E+02 0.  0.
         23    2    1    2    0    0 -0.79667284090E+02  0.70356373571E+02 -0.11506697098E+03  0.20040525784E+03  0.12499985641E+03 0.  0.
          5    1    4    4  502    0 -0.39886582428E+02  0.91772550235E+02 -0.11812072305E+03  0.15487974577E+03  0.47000000000E+01 0. -1.
         -5    1    4    4    0  502 -0.39780701662E+02 -0.21416176664E+02  0.30537520694E+01  0.45525512071E+02  0.47000000000E+01 0. -1.
        -11    1    3    3    0    0  0.33087534829E+02 -0.14332820034E+02  0.40982382442E+02  0.54587272892E+02  0.00000000000E+00 0. -1.
         11    1    3    3    0    0  0.46579749261E+02 -0.56023553538E+02 -0.45268172898E+02  0.85775981893E+02  0.00000000000E+00 0.  1.
<mgrwt>
<rscale>  0 0.15778006E+03</rscale>
<asrwt>0</asrwt>
<pdfrwt beam="2">  1        1 0.35393944E-01 0.16407882E+03</pdfrwt>
<pdfrwt beam="1">  1       -1 0.17031981E-01 0.16407882E+03</pdfrwt>
<totfact> 0.31363506E+03</totfact>
</mgrwt>
</event>
<event>
 7    1  0.7550631E-006  0.1911898E+03  0.7546771E-02  0.1184940E+00
          1   -1    0    0  501    0  0.00000000000E+00  0.00000000000E+00  0.48330226064E+03  0.48330226064E+03  0.00000000000E+00 0. -1.
         -1   -1    0    0    0  501 -0.00000000000E+00 -0.00000000000E+00 -0.46015863835E+02  0.46015863835E+02  0.00000000000E+00 0.  1.
         23    2    1    2    0    0 -0.31462212854E+02 -0.27721082842E+02  0.10769810619E+03  0.14829060287E+03  0.92913355068E+02 0.  0.
          5    1    1    2  502    0  0.11198080445E+02  0.72320006885E+01  0.34683056945E+03  0.34711847076E+03  0.47000000000E+01 0. -1.
         -5    1    1    2    0  502  0.20264132409E+02  0.20489082154E+02 -0.17242278835E+02  0.33909050846E+02  0.47000000000E+01 0.  1.
        -11    1    3    3    0    0 -0.52676003224E+02 -0.48899914337E+02  0.73178098495E+02  0.10257191154E+03  0.00000000000E+00 0.  1.
         11    1    3    3    0    0  0.21213790370E+02  0.21178831494E+02  0.34520007693E+02  0.45718691325E+02  0.00000000000E+00 0. -1.
<mgrwt>
<rscale>  0 0.16337358E+03</rscale>
<asrwt>0</asrwt>
<pdfrwt beam="1">  1        1 0.74354190E-01 0.19118978E+03</pdfrwt>
<pdfrwt beam="2">  1       -1 0.70793640E-02 0.19118978E+03</pdfrwt>
<totfact> 0.48132961E+03</totfact>
</mgrwt>
</event>
<event>
 8    1  0.7550631E-006  0.1398659E+03  0.7546771E-02  0.1226050E+00
         -1   -1    0    0    0  501 -0.00000000000E+00  0.00000000000E+00  0.92577248763E+02  0.92577248763E+02  0.00000000000E+00 0.  1.
          1   -1    0    0  501    0  0.00000000000E+00 -0.00000000000E+00 -0.27896198403E+03  0.27896198403E+03  0.00000000000E+00 0. -1.
         23    2    1    2    0    0  0.36783456439E+02 -0.50964446257E+02  0.32058638351E+02  0.11215538321E+03  0.87181857284E+02 0.  0.
         23    2    1    2    0    0 -0.36783456439E+02  0.50964446257E+02 -0.21844337362E+03  0.25938384958E+03  0.12494829530E+03 0.  0.
          5    1    4    4  502    0 -0.43581763431E+02 -0.25972051072E+02 -0.39638855297E+02  0.64554212797E+02  0.47000000000E+01 0. -1.
         -5    1    4    4    0  502  0.67983069918E+01  0.76936497329E+02 -0.17880451832E+03  0.19482963679E+03  0.47000000000E+01 0. -1.
        -11    1    3    3    0    0  0.46502363342E+00 -0.65853915070E+02  0.31252725816E+02  0.72895042684E+02  0.00000000000E+00 0.  1.
         11    1    3    3    0    0  0.36318432806E+02  0.14889468813E+02  0.80591253532E+00  0.39260340523E+02  0.00000000000E+00 0. -1.
<mgrwt>
<rscale>  0 0.13095187E+03</rscale>
<asrwt>0</asrwt>
<pdfrwt beam="2">  1        1 0.42917228E-01 0.13986591E+03</pdfrwt>
<pdfrwt beam="1">  1       -1 0.14242654E-01 0.13986591E+03</pdfrwt>
<totfact> 0.32499116E+03</totfact>
</mgrwt>
</event>
<event>
 8    1  0.7550631E-006  0.1316414E+03  0.7546771E-02  0.1238002E+00
          1   -1    0    0  501    0  0.00000000000E+00  0.00000000000E+00  0.15780884978E+04  0.15780884978E+04  0.00000000000E+00 0. -1.
         -1   -1    0    0    0  501 -0.00000000000E+00 -0.00000000000E+00 -0.10925091954E+02  0.10925091954E+02  0.00000000000E+00 0.  1.
         23    2    1    2    0    0 -0.23677248204E+02  0.33828249184E+02  0.33493947572E+03  0.34977782491E+03  0.91951682294E+02 0.  0.
         23    2    1    2    0    0  0.23677248204E+02 -0.33828249184E+02  0.12322239302E+04  0.12392357649E+04  0.12499801748E+03 0.  0.
          5    1    4    4  502    0 -0.22625583237E+02  0.30957561796E+02  0.18567971685E+03  0.18965583276E+03  0.47000000000E+01 0. -1.
         -5    1    4    4    0  502  0.46302831442E+02 -0.64785810980E+02  0.10465442133E+04  0.10495799321E+04  0.47000000000E+01 0. -1.
        -11    1    3    3    0    0  0.69164445148E+01 -0.24865638484E+02  0.40760737469E+02  0.48244946896E+02  0.00000000000E+00 0. -1.
         11    1    3    3    0    0 -0.30593692719E+02  0.58693887668E+02  0.29417873825E+03  0.30153287802E+03  0.00000000000E+00 0.  1.
<mgrwt>
<rscale>  0 0.12314210E+03</rscale>
<asrwt>0</asrwt>
<pdfrwt beam="1">  1        1 0.24278266E+00 0.13164143E+03</pdfrwt>
<pdfrwt beam="2">  1       -1 0.16807846E-02 0.13164143E+03</pdfrwt>
<totfact> 0.55163608E+03</totfact>
</mgrwt>
</event>
<event>
 8    1  0.7550631E-006  0.1551778E+03  0.7546771E-02  0.1201948E+00
         -1   -1    0    0    0  501 -0.00000000000E+00  0.00000000000E+00  0.51741564267E+02  0.51741564267E+02  0.00000000000E+00 0.  1.
          1   -1    0    0  501    0  0.00000000000E+00 -0.00000000000E+00 -0.39885085482E+03  0.39885085482E+03  0.00000000000E+00 0. -1.
         23    2    1    2    0    0  0.90669036481E+02 -0.15346318313E+02 -0.14118562989E+03  0.19274614104E+03  0.93601865034E+02 0.  0.
         23    2    1    2    0    0 -0.90669036481E+02  0.15346318313E+02 -0.20592366066E+03  0.25784627804E+03  0.12499506157E+03 0.  0.
          5    1    4    4  502    0 -0.50596291540E+02  0.70567250901E+01 -0.36611594644E+01  0.51432248398E+02  0.47000000000E+01 0.  1.
         -5    1    4    4    0  502 -0.40072744940E+02  0.82895932234E+01 -0.20226250120E+03  0.20641402964E+03  0.47000000000E+01 0.  1.
        -11    1    3    3    0    0  0.25126204231E+02  0.23599279800E+02 -0.10067126992E+03  0.10640938274E+03  0.00000000000E+00 0. -1.
         11    1    3    3    0    0  0.65542832249E+02 -0.38945598113E+02 -0.40514359966E+02  0.86336758308E+02  0.00000000000E+00 0.  1.
<mgrwt>
<rscale>  0 0.14880553E+03</rscale>
<asrwt>0</asrwt>
<pdfrwt beam="2">  1        1 0.61361670E-01 0.15517780E+03</pdfrwt>
<pdfrwt beam="1">  1       -1 0.79602406E-02 0.15517780E+03</pdfrwt>
<totfact> 0.51089088E+03</totfact>
</mgrwt>
</event>
<event>
 8    1  0.7550631E-006  0.1269200E+03  0.7546771E-02  0.1247265E+00
         -2   -1    0    0    0  501 -0.00000000000E+00  0.00000000000E+00  0.98234799770E+02  0.98234799770E+02  0.00000000000E+00 0.  1.
          2   -1    0    0  501    0  0.00000000000E+00 -0.00000000000E+00 -0.12982881046E+03  0.12982881046E+03  0.00000000000E+00 0. -1.
         23    2    1    2    0    0 -0.69776367809E+01  0.20798667853E+02  0.11640431872E+02  0.93981902034E+02  0.90641195139E+02 0.  0.
         23    2    1    2    0    0  0.69776367809E+01 -0.20798667853E+02 -0.43234442558E+02  0.13408170819E+03  0.12500966142E+03 0.  0.
          5    1    4    4  502    0  0.46203470589E+01 -0.67898023493E+02  0.24425505822E+01  0.68260861807E+02  0.47000000000E+01 0.  1.
         -5    1    4    4    0  502  0.23572897220E+01  0.47099355641E+02 -0.45676993140E+02  0.65820846386E+02  0.47000000000E+01 0.  1.
        -11    1    3    3    0    0  0.18465216398E+02  0.33668399048E+02 -0.26284865766E+02  0.46534067944E+02  0.00000000000E+00 0. -1.
         11    1    3    3    0    0 -0.25442853179E+02 -0.12869731196E+02  0.37925297637E+02  0.47447834090E+02  0.00000000000E+00 0.  1.
<mgrwt>
<rscale>  0 0.11750852E+03</rscale>
<asrwt>0</asrwt>
<pdfrwt beam="2">  1        2 0.19973663E-01 0.12692000E+03</pdfrwt>
<pdfrwt beam="1">  1       -2 0.15113046E-01 0.12692000E+03</pdfrwt>
<totfact> 0.88185258E+03</totfact>
</mgrwt>
</event>
<event>
 8    1  0.7550631E-006  0.1251839E+03  0.7546771E-02  0.1250503E+00
         -1   -1    0    0    0  501 -0.00000000000E+00  0.00000000000E+00  0.11857213520E+02  0.11857213520E+02  0.00000000000E+00 0.  1.
          1   -1    0    0  501    0  0.00000000000E+00 -0.00000000000E+00 -0.15845827013E+04  0.15845827013E+04  0.00000000000E+00 0. -1.
         23    2    1    2    0    0 -0.67769702117E+01 -0.63429548991E+00 -0.22251349828E+03  0.24043717399E+03  0.90837481591E+02 0.  0.
         23    2    1    2    0    0  0.67769702117E+01  0.63429548991E+00 -0.13502119895E+04  0.13560027408E+04  0.12499874761E+03 0.  0.
          5    1    4    4  502    0 -0.80784484814E+01 -0.26936722174E+02 -0.72596489937E+02  0.77994799074E+02  0.47000000000E+01 0.  1.
         -5    1    4    4    0  502  0.14855418693E+02  0.27571017664E+02 -0.12776154996E+04  0.12780079418E+04  0.47000000000E+01 0.  1.
        -11    1    3    3    0    0  0.31984931182E+02 -0.14073965164E+02 -0.38876516303E+02  0.52273280345E+02  0.00000000000E+00 0.  1.
         11    1    3    3    0    0 -0.38761901394E+02  0.13439669675E+02 -0.18363698198E+03  0.18816389364E+03  0.00000000000E+00 0. -1.
<mgrwt>
<rscale>  0 0.11561965E+03</rscale>
<asrwt>0</asrwt>
<pdfrwt beam="2">  1        1 0.24378205E+00 0.12518393E+03</pdfrwt>
<pdfrwt beam="1">  1       -1 0.18241860E-02 0.12518393E+03</pdfrwt>
<totfact> 0.48500006E+03</totfact>
</mgrwt>
</event>
<event>
 8    1  0.7550631E-006  0.1418181E+03  0.7546771E-02  0.1221356E+00
         -2   -1    0    0    0  501 -0.00000000000E+00  0.00000000000E+00  0.33844004025E+03  0.33844004025E+03  0.00000000000E+00 0.  1.
          2   -1    0    0  501    0  0.00000000000E+00 -0.00000000000E+00 -0.51382025877E+02  0.51382025877E+02  0.00000000000E+00 0. -1.
         23    2    1    2    0    0  0.54947935978E+02 -0.38323302008E+02  0.17669860548E+03  0.21012353422E+03  0.91877915243E+02 0.  0.
         23    2    1    2    0    0 -0.54947935978E+02  0.38323302008E+02  0.11035940889E+03  0.17969853191E+03  0.12499764835E+03 0.  0.
          5    1    4    4  502    0  0.23050607477E+02  0.41549178282E+02  0.84983704132E+02  0.97478124156E+02  0.47000000000E+01 0. -1.
         -5    1    4    4    0  502 -0.77998543454E+02 -0.32258762744E+01  0.25375704763E+02  0.82220407752E+02  0.47000000000E+01 0. -1.
        -11    1    3    3    0    0 -0.18374077479E+02 -0.14741446221E+02  0.94860304377E+02  0.97741466668E+02  0.00000000000E+00 0. -1.
         11    1    3    3    0    0  0.73322013457E+02 -0.23581855787E+02  0.81838301101E+02  0.11238206755E+03  0.00000000000E+00 0.  1.
<mgrwt>
<rscale>  0 0.13419811E+03</rscale>
<asrwt>0</asrwt>
<pdfrwt beam="2">  1        2 0.79049273E-02 0.14181806E+03</pdfrwt>
<pdfrwt beam="1">  1       -2 0.52067697E-01 0.14181806E+03</pdfrwt>
<totfact> 0.29380337E+03</totfact>
</mgrwt>
</event>
<event>
 8    1  0.7550631E-006  0.1306543E+03  0.7546771E-02  0.1237414E+00
          1   -1    0    0  501    0  0.00000000000E+00  0.00000000000E+00  0.66164720319E+02  0.66164720319E+02  0.00000000000E+00 0. -1.
         -1   -1    0    0    0  501 -0.00000000000E+00 -0.00000000000E+00 -0.20920452234E+03  0.20920452234E+03  0.00000000000E+00 0.  1.
         23    2    1    2    0    0  0.50155536077E+02 -0.64101719122E+01 -0.70532315337E+02  0.12594411319E+03  0.91271266215E+02 0.  0.
         23    2    1    2    0    0 -0.50155536077E+02  0.64101719122E+01 -0.72507486685E+02  0.14942512947E+03  0.12047350576E+03 0.  0.
          5    1    4    4  502    0  0.61267046817E+01  0.37750382335E+02  0.14407525241E+02  0.41137509165E+02  0.47000000000E+01 0. -1.
         -5    1    4    4    0  502 -0.56282240758E+02 -0.31340210423E+02 -0.86915011926E+02  0.10828762031E+03  0.47000000000E+01 0.  1.
        -11    1    3    3    0    0  0.67722272469E+02  0.88640954456E+01 -0.21396492546E+02  0.71572957670E+02  0.00000000000E+00 0. -1.
         11    1    3    3    0    0 -0.17566736392E+02 -0.15274267358E+02 -0.49135822791E+02  0.54371155516E+02  0.00000000000E+00 0.  1.
<mgrwt>
<rscale>  0 0.12351132E+03</rscale>
<asrwt>0</asrwt>
<pdfrwt beam="1">  1        1 0.10179188E-01 0.13065425E+03</pdfrwt>
<pdfrwt beam="2">  1       -1 0.32185311E-01 0.13065425E+03</pdfrwt>
<totfact> 0.53847632E+03</totfact>
</mgrwt>
</event>
<event>
 8    1  0.7550631E-006  0.2190417E+03  0.7546771E-02  0.1138038E+00
         -2   -1    0    0    0  501 -0.00000000000E+00  0.00000000000E+00  0.25395615178E+02  0.25395615178E+02  0.00000000000E+00 0.  1.
          2   -1    0    0  501    0  0.00000000000E+00 -0.00000000000E+00 -0.18143980865E+04  0.18143980865E+04  0.00000000000E+00 0. -1.
         23    2    1    2    0    0 -0.76452737295E+02 -0.16281286551E+03 -0.67378978174E+03  0.70327329777E+03  0.90816359482E+02 0.  0.
         23    2    1    2    0    0  0.76452737295E+02  0.16281286551E+03 -0.11152126896E+04  0.11365204039E+04  0.12500494111E+03 0.  0.
          5    1    4    4  502    0  0.10979309951E+03  0.12962631816E+03 -0.92792522563E+03  0.94335826780E+03  0.47000000000E+01 0. -1.
         -5    1    4    4    0  502 -0.33340362212E+02  0.33186547348E+02 -0.18728746396E+03  0.19316213613E+03  0.47000000000E+01 0. -1.
        -11    1    3    3    0    0 -0.69825859072E+02 -0.12072848212E+03 -0.61532679508E+03  0.63093429273E+03  0.00000000000E+00 0. -1.
         11    1    3    3    0    0 -0.66268782233E+01 -0.42084383395E+02 -0.58462986660E+02  0.72339005038E+02  0.00000000000E+00 0.  1.
<mgrwt>
<rscale>  0 0.21451704E+03</rscale>
<asrwt>0</asrwt>
<pdfrwt beam="2">  1        2 0.27913822E+00 0.21904174E+03</pdfrwt>
<pdfrwt beam="1">  1       -2 0.39070169E-02 0.21904174E+03</pdfrwt>
<totfact> 0.26508477E+03</totfact>
</mgrwt>
</event>
<event>
 8    1  0.7550631E-006  0.1280309E+03  0.7546771E-02  0.1250968E+00
          2   -1    0    0  501    0  0.00000000000E+00  0.00000000000E+00  0.24833353402E+03  0.24833353402E+03  0.00000000000E+00 0. -1.
         -2   -1    0    0    0  501 -0.00000000000E+00 -0.00000000000E+00 -0.58864558653E+02  0.58864558653E+02  0.00000000000E+00 0.  1.
         23    2    1    2    0    0 -0.96447679790E+01  0.25931128095E+02  0.74918139177E+01  0.84695062962E+02  0.79697436977E+02 0.  0.
         23    2    1    2    0    0  0.96447679790E+01 -0.25931128095E+02  0.18197716145E+03  0.22250302971E+03  0.12500586381E+03 0.  0.
          5    1    4    4  502    0 -0.40393559404E+02  0.11514655546E+02  0.14201818917E+03  0.14817382694E+03  0.47000000000E+01 0. -1.
         -5    1    4    4    0  502  0.50038327383E+02 -0.37445783641E+02  0.39958972284E+02  0.74329202779E+02  0.47000000000E+01 0. -1.
        -11    1    3    3    0    0  0.11747486830E+02  0.42311486172E+02  0.26893623243E+02  0.51493031374E+02  0.00000000000E+00 0. -1.
         11    1    3    3    0    0 -0.21392254809E+02 -0.16380358077E+02 -0.19401809325E+02  0.33202031589E+02  0.00000000000E+00 0.  1.
<mgrwt>
<rscale>  0 0.11535175E+03</rscale>
<asrwt>0</asrwt>
<pdfrwt beam="1">  1        2 0.38205158E-01 0.12803090E+03</pdfrwt>
<pdfrwt beam="2">  1       -2 0.90560861E-02 0.12803090E+03</pdfrwt>
<totfact> 0.98228940E+03</totfact>
</mgrwt>
</event>
<event>
 7    1  0.7550631E-006  0.3232785E+03  0.7546771E-02  0.1079666E+00
          2   -1    0    0  501    0  0.00000000000E+00  0.00000000000E+00  0.48644703889E+03  0.48644703889E+03  0.00000000000E+00 0.  1.
         -2   -1    0    0    0  501 -0.00000000000E+00 -0.00000000000E+00 -0.18868856020E+03  0.18868856020E+03  0.00000000000E+00 0. -1.
         23    2    1    2    0    0 -0.11387097120E+03  0.22116072028E+03  0.17773664350E+03  0.33029618766E+03  0.12500637927E+03 0.  0.
          5    1    3    3  502    0 -0.10574402984E+03  0.23175192670E+03  0.14159555238E+03  0.29148266814E+03  0.47000000000E+01 0.  1.
         -5    1    3    3    0  502 -0.81269413650E+01 -0.10591206414E+02  0.36141091127E+02  0.38813519515E+02  0.47000000000E+01 0.  1.
        -11    1    1    2    0    0  0.73995831847E+02 -0.18927461607E+03 -0.11707675577E+02  0.20356161988E+03  0.00000000000E+00 0. -1.
         11    1    1    2    0    0  0.39875139357E+02 -0.31886104212E+02  0.13172951077E+03  0.14127779156E+03  0.00000000000E+00 0.  1.
<mgrwt>
<rscale>  0 0.31142179E+03</rscale>
<asrwt>0</asrwt>
<pdfrwt beam="1">  1        2 0.74838005E-01 0.32327848E+03</pdfrwt>
<pdfrwt beam="2">  1       -2 0.29029009E-01 0.32327848E+03</pdfrwt>
<totfact> 0.69952948E+02</totfact>
</mgrwt>
</event>
<event>
 8    1  0.7550631E-006  0.1440875E+03  0.7546771E-02  0.1218329E+00
          2   -1    0    0  501    0  0.00000000000E+00  0.00000000000E+00  0.10513226814E+04  0.10513226814E+04  0.00000000000E+00 0.  1.
         -2   -1    0    0    0  501 -0.00000000000E+00 -0.00000000000E+00 -0.16060681642E+02  0.16060681642E+02  0.00000000000E+00 0. -1.
         23    2    1    2    0    0 -0.66181880612E+02 -0.27503915717E+02  0.43708887172E+03  0.45210106266E+03  0.90621092367E+02 0.  0.
         23    2    1    2    0    0  0.66181880612E+02  0.27503915717E+02  0.59817312808E+03  0.61528230042E+03  0.12499884539E+03 0.  0.
          5    1    4    4  502    0  0.30943062045E+02  0.31243331912E+00  0.24192550923E+02  0.39559325367E+02  0.47000000000E+01 0. -1.
         -5    1    4    4    0  502  0.35238818566E+02  0.27191482397E+02  0.57398057715E+03  0.57572297505E+03  0.47000000000E+01 0. -1.
        -11    1    3    3    0    0 -0.83803163934E+02 -0.13767425572E+01  0.32938367203E+03  0.33988008047E+03  0.00000000000E+00 0. -1.
         11    1    3    3    0    0  0.17621283322E+02 -0.26127173159E+02  0.10770519969E+03  0.11222098219E+03  0.00000000000E+00 0.  1.
<mgrwt>
<rscale>  0 0.13634827E+03</rscale>
<asrwt>0</asrwt>
<pdfrwt beam="1">  1        2 0.16174190E+00 0.14408754E+03</pdfrwt>
<pdfrwt beam="2">  1       -2 0.24708749E-02 0.14408754E+03</pdfrwt>
<totfact> 0.13323500E+04</totfact>
</mgrwt>
</event>
<event>
 8    1  0.7550631E-006  0.1321940E+03  0.7546771E-02  0.1237340E+00
          1   -1    0    0  501    0  0.00000000000E+00  0.00000000000E+00  0.13454880736E+04  0.13454880736E+04  0.00000000000E+00 0. -1.
         -1   -1    0    0    0  501 -0.00000000000E+00 -0.00000000000E+00 -0.12560180482E+02  0.12560180482E+02  0.00000000000E+00 0.  1.
         23    2    1    2    0    0 -0.42264923588E+02  0.77185904238E+01  0.29587118310E+03  0.31260008786E+03  0.91286130043E+02 0.  0.
         23    2    1    2    0    0  0.42264923588E+02 -0.77185904238E+01  0.10370567100E+04  0.10454481662E+04  0.12501739101E+03 0.  0.
          5    1    4    4  502    0  0.85733783701E+02 -0.16595434979E+02  0.70816397712E+03  0.71354327032E+03  0.47000000000E+01 0.  1.
         -5    1    4    4    0  502 -0.43468860113E+02  0.88768445548E+01  0.32889273290E+03  0.33190489590E+03  0.47000000000E+01 0.  1.
        -11    1    3    3    0    0  0.19774753389E+02  0.25497306910E+02  0.60810262877E+02  0.68840697283E+02  0.00000000000E+00 0.  1.
         11    1    3    3    0    0 -0.62039676976E+02 -0.17778716486E+02  0.23506092022E+03  0.24375939057E+03  0.00000000000E+00 0. -1.
<mgrwt>
<rscale>  0 0.12355838E+03</rscale>
<asrwt>0</asrwt>
<pdfrwt beam="1">  1        1 0.20699805E+00 0.13219398E+03</pdfrwt>
<pdfrwt beam="2">  1       -1 0.19323365E-02 0.13219398E+03</pdfrwt>
<totfact> 0.63977660E+03</totfact>
</mgrwt>
</event>
<event>
 8    1  0.7550631E-006  0.1282125E+03  0.7546771E-02  0.1244716E+00
         -4   -1    0    0    0  501 -0.00000000000E+00  0.00000000000E+00  0.38827304902E+02  0.38827304902E+02  0.00000000000E+00 0. -1.
          4   -1    0    0  501    0  0.00000000000E+00 -0.00000000000E+00 -0.32151193508E+03  0.32151193508E+03  0.00000000000E+00 0.  1.
         23    2    1    2    0    0 -0.47679253603E+01 -0.27012285849E+02 -0.12300811921E+03  0.15555880450E+03  0.91187430976E+02 0.  0.
         23    2    1    2    0    0  0.47679253603E+01  0.27012285849E+02 -0.15967651097E+03  0.20478043548E+03  0.12524392960E+03 0.  0.
          5    1    4    4  502    0  0.33656498086E+02 -0.70957202034E+01 -0.15585420536E+03  0.15967383141E+03  0.47000000000E+01 0.  1.
         -5    1    4    4    0  502 -0.28888572725E+02  0.34108006052E+02 -0.38223056163E+01  0.45106604075E+02  0.47000000000E+01 0.  1.
        -11    1    3    3    0    0 -0.44724504766E+02 -0.22316968816E+02 -0.42708517767E+02  0.65744550448E+02  0.00000000000E+00 0. -1.
         11    1    3    3    0    0  0.39956579406E+02 -0.46953170332E+01 -0.80299601439E+02  0.89814254053E+02  0.00000000000E+00 0.  1.
<mgrwt>
<rscale>  0 0.11902383E+03</rscale>
<asrwt>0</asrwt>
<pdfrwt beam="2">  1        4 0.49463375E-01 0.12821247E+03</pdfrwt>
<pdfrwt beam="1">  1       -4 0.59734315E-02 0.12821247E+03</pdfrwt>
<totfact> 0.11562862E+03</totfact>
</mgrwt>
</event>
<event>
 8    1  0.7550631E-006  0.1708566E+03  0.7546771E-02  0.1184532E+00
         -2   -1    0    0    0  501 -0.00000000000E+00  0.00000000000E+00  0.15459623500E+03  0.15459623500E+03  0.00000000000E+00 0.  1.
          2   -1    0    0  501    0  0.00000000000E+00 -0.00000000000E+00 -0.16049111626E+03  0.16049111626E+03  0.00000000000E+00 0. -1.
         23    2    1    2    0    0  0.61723882068E+02 -0.98785697888E+02 -0.33400232690E+00  0.14414027987E+03  0.84899098935E+02 0.  0.
         23    2    1    2    0    0 -0.61723882068E+02  0.98785697888E+02 -0.55608789325E+01  0.17094707138E+03  0.12499410431E+03 0.  0.
          5    1    4    4  502    0  0.16688370085E+02 -0.10558332747E+02 -0.27866709851E+02  0.34476420992E+02  0.47000000000E+01 0. -1.
         -5    1    4    4    0  502 -0.78412252153E+02  0.10934403064E+03  0.22305830919E+02  0.13647065038E+03  0.47000000000E+01 0. -1.
        -11    1    3    3    0    0  0.75657592047E+02 -0.97266931015E+02 -0.14662392982E+02  0.12409638541E+03  0.00000000000E+00 0. -1.
         11    1    3    3    0    0 -0.13933709979E+02 -0.15187668726E+01  0.14328390655E+02  0.20043894466E+02  0.00000000000E+00 0.  1.
<mgrwt>
<rscale>  0 0.16374569E+03</rscale>
<asrwt>0</asrwt>
<pdfrwt beam="2">  1        2 0.24690941E-01 0.17085660E+03</pdfrwt>
<pdfrwt beam="1">  1       -2 0.23784036E-01 0.17085660E+03</pdfrwt>
<totfact> 0.33014470E+03</totfact>
</mgrwt>
</event>
<event>
 8    1  0.7550631E-006  0.1990133E+03  0.7546771E-02  0.1154801E+00
         -2   -1    0    0    0  501 -0.00000000000E+00  0.00000000000E+00  0.11829306334E+03  0.11829306334E+03  0.00000000000E+00 0.  1.
          2   -1    0    0  501    0  0.00000000000E+00 -0.00000000000E+00 -0.30761305367E+03  0.30761305367E+03  0.00000000000E+00 0. -1.
         23    2    1    2    0    0  0.59864418533E+02 -0.14282043836E+03 -0.66348342139E+02  0.19196523471E+03  0.92016969165E+02 0.  0.
         23    2    1    2    0    0 -0.59864418533E+02  0.14282043836E+03 -0.12297164819E+03  0.23394088230E+03  0.12499953574E+03 0.  0.
          5    1    4    4  502    0 -0.78887967812E+02  0.75568450310E+02 -0.12207700244E+03  0.16388650546E+03  0.47000000000E+01 0. -1.
         -5    1    4    4    0  502  0.19023549279E+02  0.67251988047E+02 -0.89464574713E+00  0.70054376840E+02  0.47000000000E+01 0. -1.
        -11    1    3    3    0    0  0.14667798632E+02 -0.88553619181E+02  0.71390271166E+01  0.90043619957E+02  0.00000000000E+00 0.  1.
         11    1    3    3    0    0  0.45196619900E+02 -0.54266819176E+02 -0.73487369256E+02  0.10192161475E+03  0.00000000000E+00 0. -1.
<mgrwt>
<rscale>  0 0.19411588E+03</rscale>
<asrwt>0</asrwt>
<pdfrwt beam="2">  1        2 0.47325085E-01 0.19901334E+03</pdfrwt>
<pdfrwt beam="1">  1       -2 0.18198933E-01 0.19901334E+03</pdfrwt>
<totfact> 0.25934548E+03</totfact>
</mgrwt>
</event>
<event>
 8    1  0.7550631E-006  0.1410912E+03  0.7546771E-02  0.1222424E+00
         -3   -1    0    0    0  501 -0.00000000000E+00  0.00000000000E+00  0.58849105493E+02  0.58849105493E+02  0.00000000000E+00 0.  1.
          3   -1    0    0  501    0  0.00000000000E+00 -0.00000000000E+00 -0.41858907991E+03  0.41858907991E+03  0.00000000000E+00 0. -1.
         23    2    1    2    0    0  0.34785649289E+02 -0.55410126220E+02 -0.27121214855E+02  0.11613225144E+03  0.92037036274E+02 0.  0.
         23    2    1    2    0    0 -0.34785649289E+02  0.55410126220E+02 -0.33261875956E+03  0.36130593396E+03  0.12500566074E+03 0.  0.
          5    1    4    4  502    0  0.25919216584E+02 -0.17296201170E+02 -0.27619084766E+02  0.41903081110E+02  0.47000000000E+01 0.  1.
         -5    1    4    4    0  502 -0.60704865872E+02  0.72706327390E+02 -0.30499967479E+03  0.31940285285E+03  0.47000000000E+01 0.  1.
        -11    1    3    3    0    0  0.43657618370E+02 -0.69447288468E+02 -0.43463962124E+02  0.92833342722E+02  0.00000000000E+00 0. -1.
         11    1    3    3    0    0 -0.88719690813E+01  0.14037162248E+02  0.16342747269E+02  0.23298908722E+02  0.00000000000E+00 0.  1.
<mgrwt>
<rscale>  0 0.13345003E+03</rscale>
<asrwt>0</asrwt>
<pdfrwt beam="2">  1        3 0.64398317E-01 0.14109124E+03</pdfrwt>
<pdfrwt beam="1">  1       -3 0.90537090E-02 0.14109124E+03</pdfrwt>
<totfact> 0.48241951E+02</totfact>
</mgrwt>
</event>
<event>
 8    1  0.7550631E-006  0.1271020E+03  0.7546771E-02  0.1246365E+00
         -2   -1    0    0    0  501 -0.00000000000E+00  0.00000000000E+00  0.96804877999E+01  0.96804877999E+01  0.00000000000E+00 0.  1.
          2   -1    0    0  501    0  0.00000000000E+00 -0.00000000000E+00 -0.17437322133E+04  0.17437322133E+04  0.00000000000E+00 0. -1.
         23    2    1    2    0    0 -0.19450247962E+02  0.12385845164E+02 -0.32043443602E+03  0.33409287801E+03  0.91695703516E+02 0.  0.
         23    2    1    2    0    0  0.19450247962E+02 -0.12385845164E+02 -0.14136172895E+04  0.14193198231E+04  0.12499279096E+03 0.  0.
          5    1    4    4  502    0  0.35649022065E+02 -0.62488303800E+02 -0.94016728088E+03  0.94292748762E+03  0.47000000000E+01 0. -1.
         -5    1    4    4    0  502 -0.16198774103E+02  0.50102458636E+02 -0.47345000861E+03  0.47639233548E+03  0.47000000000E+01 0. -1.
        -11    1    3    3    0    0 -0.47307346656E+01 -0.36042533796E+02 -0.73187746596E+02  0.81718359900E+02  0.00000000000E+00 0.  1.
         11    1    3    3    0    0 -0.14719513296E+02  0.48428378960E+02 -0.24724668942E+03  0.25237451811E+03  0.00000000000E+00 0. -1.
<mgrwt>
<rscale>  0 0.11804033E+03</rscale>
<asrwt>0</asrwt>
<pdfrwt beam="2">  1        2 0.26826646E+00 0.12710200E+03</pdfrwt>
<pdfrwt beam="1">  1       -2 0.14893060E-02 0.12710200E+03</pdfrwt>
<totfact> 0.11761740E+04</totfact>
</mgrwt>
</event>
<event>
 8    1  0.7550631E-006  0.1437573E+03  0.7546771E-02  0.1218598E+00
         -1   -1    0    0    0  501 -0.00000000000E+00  0.00000000000E+00  0.26618288968E+02  0.26618288968E+02  0.00000000000E+00 0.  1.
          1   -1    0    0  501    0  0.00000000000E+00 -0.00000000000E+00 -0.13123715798E+04  0.13123715798E+04  0.00000000000E+00 0. -1.
         23    2    1    2    0    0  0.45080797346E+02  0.54848614604E+02 -0.12872470324E+03  0.17306477678E+03  0.91327536508E+02 0.  0.
         23    2    1    2    0    0 -0.45080797346E+02 -0.54848614604E+02 -0.11570285876E+04  0.11659250920E+04  0.12500207522E+03 0.  0.
          5    1    4    4  502    0 -0.85679789338E+02 -0.56688241306E+02 -0.83104914101E+03  0.83738840915E+03  0.47000000000E+01 0.  1.
         -5    1    4    4    0  502  0.40598991992E+02  0.18396267027E+01 -0.32597944660E+03  0.32853668285E+03  0.47000000000E+01 0.  1.
        -11    1    3    3    0    0  0.67751598441E+02  0.42338126523E+02 -0.12280115420E+03  0.14650228504E+03  0.00000000000E+00 0. -1.
         11    1    3    3    0    0 -0.22670801095E+02  0.12510488081E+02 -0.59235490419E+01  0.26562491743E+02  0.00000000000E+00 0.  1.
<mgrwt>
<rscale>  0 0.13615545E+03</rscale>
<asrwt>0</asrwt>
<pdfrwt beam="2">  1        1 0.20190333E+00 0.14375732E+03</pdfrwt>
<pdfrwt beam="1">  1       -1 0.40951212E-02 0.14375732E+03</pdfrwt>
<totfact> 0.22616909E+03</totfact>
</mgrwt>
</event>
<event>
 8    1  0.7550631E-006  0.1537324E+03  0.7546771E-02  0.1204595E+00
          3   -1    0    0  501    0  0.00000000000E+00  0.00000000000E+00  0.86143176448E+03  0.86143176448E+03  0.00000000000E+00 0. -1.
         -3   -1    0    0    0  501 -0.00000000000E+00 -0.00000000000E+00 -0.26015547688E+02  0.26015547688E+02  0.00000000000E+00 0.  1.
         23    2    1    2    0    0 -0.77100556701E+02  0.45420230150E+02  0.23145404661E+03  0.26422669429E+03  0.90759446535E+02 0.  0.
         23    2    1    2    0    0  0.77100556701E+02 -0.45420230150E+02  0.60396217019E+03  0.62322061788E+03  0.12500456944E+03 0.  0.
          5    1    4    4  502    0  0.49349283575E+02 -0.26544675957E+02  0.57747944807E+03  0.58021080182E+03  0.47000000000E+01 0. -1.
         -5    1    4    4    0  502  0.27751273126E+02 -0.18875554193E+02  0.26482722119E+02  0.43009816054E+02  0.47000000000E+01 0. -1.
        -11    1    3    3    0    0 -0.28619350510E+02  0.18528075603E+02  0.94128961236E+01  0.35368904742E+02  0.00000000000E+00 0.  1.
         11    1    3    3    0    0 -0.48481206191E+02  0.26892154547E+02  0.22204115049E+03  0.22885778955E+03  0.00000000000E+00 0. -1.
<mgrwt>
<rscale>  0 0.14669427E+03</rscale>
<asrwt>0</asrwt>
<pdfrwt beam="1">  1        3 0.13252794E+00 0.15373235E+03</pdfrwt>
<pdfrwt beam="2">  1       -3 0.40023926E-02 0.15373235E+03</pdfrwt>
<totfact> 0.35868694E+02</totfact>
</mgrwt>
</event>
<event>
 8    1  0.7550631E-006  0.5974532E+03  0.7546771E-02  0.9912201E-01
         -1   -1    0    0    0  501 -0.00000000000E+00  0.00000000000E+00  0.79472399356E+03  0.79472399356E+03  0.00000000000E+00 0.  1.
          1   -1    0    0  501    0  0.00000000000E+00 -0.00000000000E+00 -0.51047173081E+03  0.51047173081E+03  0.00000000000E+00 0. -1.
         23    2    1    2    0    0 -0.14095713127E+03 -0.56987293573E+03  0.37194532937E+03  0.70134111161E+03  0.94403130624E+02 0.  0.
         23    2    1    2    0    0  0.14095713127E+03  0.56987293573E+03 -0.87693066615E+02  0.60385461276E+03  0.11102361772E+03 0.  0.
          5    1    4    4  502    0  0.14176068106E+03  0.52407497542E+03 -0.10793772646E+03  0.55355515837E+03  0.47000000000E+01 0. -1.
         -5    1    4    4    0  502 -0.80354979077E+00  0.45797960303E+02  0.20244659848E+02  0.50299454396E+02  0.47000000000E+01 0.  1.
        -11    1    3    3    0    0 -0.10304388952E+03 -0.47360602503E+03  0.34341569598E+03  0.59401603544E+03  0.00000000000E+00 0.  1.
         11    1    3    3    0    0 -0.37913241748E+02 -0.96266910695E+02  0.28529633389E+02  0.10732507618E+03  0.00000000000E+00 0. -1.
<mgrwt>
<rscale>  0 0.59673584E+03</rscale>
<asrwt>0</asrwt>
<pdfrwt beam="2">  1        1 0.78534113E-01 0.59745319E+03</pdfrwt>
<pdfrwt beam="1">  1       -1 0.12226523E+00 0.59745319E+03</pdfrwt>
<totfact> 0.26540117E+01</totfact>
</mgrwt>
</event>
<event>
 8    1  0.7550631E-006  0.2987199E+03  0.7546771E-02  0.1087505E+00
          2   -1    0    0  501    0  0.00000000000E+00  0.00000000000E+00  0.36658850052E+03  0.36658850052E+03  0.00000000000E+00 0. -1.
         -2   -1    0    0    0  501 -0.00000000000E+00 -0.00000000000E+00 -0.23722296644E+03  0.23722296644E+03  0.00000000000E+00 0.  1.
         23    2    1    2    0    0 -0.21620796231E+03  0.16389705860E+03  0.10241733106E+03  0.30387848358E+03  0.90800298986E+02 0.  0.
         23    2    1    2    0    0  0.21620796231E+03 -0.16389705860E+03  0.26948203014E+02  0.29993298338E+03  0.12500184035E+03 0.  0.
          5    1    4    4  502    0  0.57262745542E+02 -0.12106896896E+03  0.14139880906E+02  0.13475438213E+03  0.47000000000E+01 0.  1.
         -5    1    4    4    0  502  0.15894521677E+03 -0.42828089640E+02  0.12808322108E+02  0.16517860125E+03  0.47000000000E+01 0.  1.
        -11    1    3    3    0    0 -0.16690167270E+02  0.38354573558E+02 -0.95565238169E+01  0.42906434760E+02  0.00000000000E+00 0.  1.
         11    1    3    3    0    0 -0.19951779504E+03  0.12554248504E+03  0.11197385488E+03  0.26097204882E+03  0.00000000000E+00 0. -1.
<mgrwt>
<rscale>  0 0.29551351E+03</rscale>
<asrwt>0</asrwt>
<pdfrwt beam="1">  1        2 0.56398231E-01 0.29871992E+03</pdfrwt>
<pdfrwt beam="2">  1       -2 0.36495841E-01 0.29871992E+03</pdfrwt>
<totfact> 0.62588979E+02</totfact>
</mgrwt>
</event>
<event>
 8    1  0.7550631E-006  0.1259913E+03  0.7546771E-02  0.1263901E+00
         -2   -1    0    0    0  501 -0.00000000000E+00  0.00000000000E+00  0.63508788644E+02  0.63508788644E+02  0.00000000000E+00 0.  1.
          2   -1    0    0  501    0  0.00000000000E+00 -0.00000000000E+00 -0.15087419989E+03  0.15087419989E+03  0.00000000000E+00 0. -1.
         23    2    1    2    0    0 -0.15713402971E+02  0.11440519258E+01 -0.19629178776E+02  0.71337524480E+02  0.66749665555E+02 0.  0.
         23    2    1    2    0    0  0.15713402971E+02 -0.11440519258E+01 -0.67736232466E+02  0.14304546405E+03  0.12500235081E+03 0.  0.
          5    1    4    4  502    0 -0.20717417985E+02  0.13866661096E+02  0.28974056390E+02  0.38510799026E+02  0.47000000000E+01 0. -1.
         -5    1    4    4    0  502  0.36430820956E+02 -0.15010713022E+02 -0.96710288856E+02  0.10453466502E+03  0.47000000000E+01 0. -1.
        -11    1    3    3    0    0 -0.23915989799E+02  0.26273705022E+02  0.41644320607E+01  0.35771841412E+02  0.00000000000E+00 0.  1.
         11    1    3    3    0    0  0.82025868286E+01 -0.25129653096E+02 -0.23793610837E+02  0.35565683067E+02  0.00000000000E+00 0. -1.
<mgrwt>
<rscale>  0 0.10822082E+03</rscale>
<asrwt>0</asrwt>
<pdfrwt beam="2">  1        2 0.23211415E-01 0.12599130E+03</pdfrwt>
<pdfrwt beam="1">  1       -2 0.97705830E-02 0.12599130E+03</pdfrwt>
<totfact> 0.14950248E+04</totfact>
</mgrwt>
</event>
<event>
 8    1  0.7550631E-006  0.2013699E+03  0.7546771E-02  0.1152920E+00
          2   -1    0    0  501    0  0.00000000000E+00  0.00000000000E+00  0.12055262065E+03  0.12055262065E+03  0.00000000000E+00 0. -1.
         -2   -1    0    0    0  501 -0.00000000000E+00 -0.00000000000E+00 -0.39290931462E+03  0.39290931462E+03  0.00000000000E+00 0.  1.
         23    2    1    2    0    0 -0.70466975448E+01 -0.15771680342E+03 -0.25250714401E+03  0.31111608341E+03  0.90050616618E+02 0.  0.
         23    2    1    2    0    0  0.70466975448E+01  0.15771680342E+03 -0.19849549954E+02  0.20234585185E+03  0.12500237239E+03 0.  0.
          5    1    4    4  502    0  0.61030451715E+02  0.65123805716E+02  0.12607314830E+02  0.90259960640E+02  0.47000000000E+01 0. -1.
         -5    1    4    4    0  502 -0.53983754170E+02  0.92592997702E+02 -0.32456864784E+02  0.11208589121E+03  0.47000000000E+01 0. -1.
        -11    1    3    3    0    0 -0.17230039911E+02 -0.21927922202E+02 -0.45879054574E+01  0.28262288017E+02  0.00000000000E+00 0. -1.
         11    1    3    3    0    0  0.10183342366E+02 -0.13578888122E+03 -0.24791923856E+03  0.28285379540E+03  0.00000000000E+00 0.  1.
<mgrwt>
<rscale>  0 0.19627501E+03</rscale>
<asrwt>0</asrwt>
<pdfrwt beam="1">  1        2 0.18546558E-01 0.20136991E+03</pdfrwt>
<pdfrwt beam="2">  1       -2 0.60447585E-01 0.20136991E+03</pdfrwt>
<totfact> 0.78556711E+02</totfact>
</mgrwt>
</event>
<event>
 8    1  0.7550631E-006  0.1723651E+03  0.7546771E-02  0.1180993E+00
         -1   -1    0    0    0  501 -0.00000000000E+00  0.00000000000E+00  0.12708113431E+03  0.12708113431E+03  0.00000000000E+00 0.  1.
          1   -1    0    0  501    0  0.00000000000E+00 -0.00000000000E+00 -0.34619108722E+03  0.34619108722E+03  0.00000000000E+00 0. -1.
         23    2    1    2    0    0  0.75338065482E+02 -0.91711752793E+02  0.44478736617E+02  0.15832981485E+03  0.94884680255E+02 0.  0.
         23    2    1    2    0    0 -0.75338065482E+02  0.91711752793E+02 -0.26358868953E+03  0.31494240669E+03  0.12499140998E+03 0.  0.
          5    1    4    4  502    0 -0.28716445399E+02  0.91584114631E+02 -0.24733250232E+03  0.26534457031E+03  0.47000000000E+01 0.  1.
         -5    1    4    4    0  502 -0.46621620083E+02  0.12763816224E+00 -0.16256187217E+02  0.49597836379E+02  0.47000000000E+01 0.  1.
        -11    1    3    3    0    0  0.31447063206E+01 -0.75838508681E+02  0.35740629824E+02  0.83897325327E+02  0.00000000000E+00 0.  1.
         11    1    3    3    0    0  0.72193359161E+02 -0.15873244112E+02  0.87381067931E+01  0.74432489519E+02  0.00000000000E+00 0. -1.
<mgrwt>
<rscale>  0 0.16701862E+03</rscale>
<asrwt>0</asrwt>
<pdfrwt beam="2">  1        1 0.53260166E-01 0.17236508E+03</pdfrwt>
<pdfrwt beam="1">  1       -1 0.19550944E-01 0.17236508E+03</pdfrwt>
<totfact> 0.15134744E+03</totfact>
</mgrwt>
</event>
<event>
 8    1  0.7550631E-006  0.1966517E+03  0.7546771E-02  0.1156684E+00
          2   -1    0    0  501    0  0.00000000000E+00  0.00000000000E+00  0.17907294469E+04  0.17907294469E+04  0.00000000000E+00 0. -1.
         -2   -1    0    0    0  501 -0.00000000000E+00 -0.00000000000E+00 -0.23667963135E+02  0.23667963135E+02  0.00000000000E+00 0.  1.
         23    2    1    2    0    0 -0.13195117507E+03 -0.75058417112E+02  0.47544853656E+03  0.50789984899E+03  0.94159795603E+02 0.  0.
         23    2    1    2    0    0  0.13195117507E+03  0.75058417112E+02  0.12916129472E+04  0.13064975610E+04  0.12500797191E+03 0.  0.
          5    1    4    4  502    0  0.59360160456E+02  0.75122276381E+02  0.10447930469E+04  0.10491813885E+04  0.47000000000E+01 0. -1.
         -5    1    4    4    0  502  0.72591014613E+02 -0.63859269248E-01  0.24681990025E+03  0.25731617252E+03  0.47000000000E+01 0. -1.
        -11    1    3    3    0    0 -0.79351988808E+01 -0.34525690342E+02  0.20000228690E+03  0.20311549779E+03  0.00000000000E+00 0.  1.
         11    1    3    3    0    0 -0.12401597619E+03 -0.40532726770E+02  0.27544624965E+03  0.30478435120E+03  0.00000000000E+00 0. -1.
<mgrwt>
<rscale>  0 0.19198427E+03</rscale>
<asrwt>0</asrwt>
<pdfrwt beam="1">  1        2 0.27549673E+00 0.19665165E+03</pdfrwt>
<pdfrwt beam="2">  1       -2 0.36412265E-02 0.19665165E+03</pdfrwt>
<totfact> 0.30312997E+03</totfact>
</mgrwt>
</event>
<event>
 8    1  0.7550631E-006  0.1359517E+03  0.7546771E-02  0.1231461E+00
         -2   -1    0    0    0  501 -0.00000000000E+00  0.00000000000E+00  0.55782166047E+03  0.55782166047E+03  0.00000000000E+00 0.  1.
          2   -1    0    0  501    0  0.00000000000E+00 -0.00000000000E+00 -0.39407372231E+02  0.39407372231E+02  0.00000000000E+00 0. -1.
         23    2    1    2    0    0 -0.45311328318E+02 -0.28378813823E+02  0.41058231461E+03  0.42370498598E+03  0.89942228813E+02 0.  0.
         23    2    1    2    0    0  0.45311328318E+02  0.28378813823E+02  0.10783197362E+03  0.17352404672E+03  0.12499754680E+03 0.  0.
          5    1    4    4  502    0  0.57320582880E+02  0.70947528957E+02  0.68759104157E+02  0.11432018847E+03  0.47000000000E+01 0. -1.
         -5    1    4    4    0  502 -0.12009254562E+02 -0.42568715134E+02  0.39072869464E+02  0.59203858248E+02  0.47000000000E+01 0. -1.
        -11    1    3    3    0    0 -0.67095139401E+02 -0.10185769920E+01  0.31109042175E+03  0.31824526035E+03  0.00000000000E+00 0.  1.
         11    1    3    3    0    0  0.21783811083E+02 -0.27360236831E+02  0.99491892867E+02  0.10545972563E+03  0.00000000000E+00 0. -1.
<mgrwt>
<rscale>  0 0.12733731E+03</rscale>
<asrwt>0</asrwt>
<pdfrwt beam="2">  1        2 0.60626731E-02 0.13595168E+03</pdfrwt>
<pdfrwt beam="1">  1       -2 0.85818711E-01 0.13595168E+03</pdfrwt>
<totfact> 0.14349648E+03</totfact>
</mgrwt>
</event>
<event>
 8    1  0.7550631E-006  0.1526615E+03  0.7546771E-02  0.1205604E+00
         -2   -1    0    0    0  501 -0.00000000000E+00  0.00000000000E+00  0.11030638793E+03  0.11030638793E+03  0.00000000000E+00 0.  1.
          2   -1    0    0  501    0  0.00000000000E+00 -0.00000000000E+00 -0.18112096333E+03  0.18112096333E+03  0.00000000000E+00 0. -1.
         23    2    1    2    0    0  0.14749597571E+02 -0.86399594613E+02 -0.12356869684E+02  0.12795609744E+03  0.92399296891E+02 0.  0.
         23    2    1    2    0    0 -0.14749597571E+02  0.86399594613E+02 -0.58457705715E+02  0.16347125382E+03  0.12499242733E+03 0.  0.
          5    1    4    4  502    0 -0.61518783068E+02  0.97125104785E+01 -0.19308866018E+02  0.65374428004E+02  0.47000000000E+01 0. -1.
         -5    1    4    4    0  502  0.46769185497E+02  0.76687084134E+02 -0.39148839697E+02  0.98096825814E+02  0.47000000000E+01 0. -1.
        -11    1    3    3    0    0 -0.15554166439E+02 -0.20937131034E+02  0.33516298627E+02  0.42469257389E+02  0.00000000000E+00 0.  1.
         11    1    3    3    0    0  0.30303764010E+02 -0.65462463579E+02 -0.45873168311E+02  0.85486840051E+02  0.00000000000E+00 0. -1.
<mgrwt>
<rscale>  0 0.14589951E+03</rscale>
<asrwt>0</asrwt>
<pdfrwt beam="2">  1        2 0.27864763E-01 0.15266155E+03</pdfrwt>
<pdfrwt beam="1">  1       -2 0.16970214E-01 0.15266155E+03</pdfrwt>
<totfact> 0.50981215E+03</totfact>
</mgrwt>
</event>
<event>
 8    1  0.7550631E-006  0.1752168E+03  0.7546771E-02  0.1179535E+00
         -1   -1    0    0    0  501 -0.00000000000E+00  0.00000000000E+00  0.59385127364E+03  0.59385127364E+03  0.00000000000E+00 0.  1.
          1   -1    0    0  501    0  0.00000000000E+00 -0.00000000000E+00 -0.76077944537E+02  0.76077944537E+02  0.00000000000E+00 0. -1.
         23    2    1    2    0    0  0.61620311540E+02 -0.10618982633E+03  0.46272694514E+03  0.48626914915E+03  0.85253255879E+02 0.  0.
         23    2    1    2    0    0 -0.61620311540E+02  0.10618982633E+03  0.55046383961E+02  0.18366006903E+03  0.12501029781E+03 0.  0.
          5    1    4    4  502    0 -0.21881144373E+01  0.63915471048E+02 -0.30614221343E+02  0.71058397340E+02  0.47000000000E+01 0. -1.
         -5    1    4    4    0  502 -0.59432197103E+02  0.42274355284E+02  0.85660605304E+02  0.11260167169E+03  0.47000000000E+01 0. -1.
        -11    1    3    3    0    0  0.69068942772E+02 -0.64856191374E+02  0.21420711743E+03  0.23422539054E+03  0.00000000000E+00 0. -1.
         11    1    3    3    0    0 -0.74486312321E+01 -0.41333634958E+02  0.24851982771E+03  0.25204375860E+03  0.00000000000E+00 0.  1.
<mgrwt>
<rscale>  0 0.16839171E+03</rscale>
<asrwt>0</asrwt>
<pdfrwt beam="2">  1        1 0.11704300E-01 0.17521677E+03</pdfrwt>
<pdfrwt beam="1">  1       -1 0.91361731E-01 0.17521677E+03</pdfrwt>
<totfact> 0.63652904E+02</totfact>
</mgrwt>
</event>
<event>
 8    1  0.7550631E-006  0.1358621E+03  0.7546771E-02  0.1231122E+00
          1   -1    0    0  501    0  0.00000000000E+00  0.00000000000E+00  0.14568832951E+04  0.14568832951E+04  0.00000000000E+00 0. -1.
         -1   -1    0    0    0  501 -0.00000000000E+00 -0.00000000000E+00 -0.10879585266E+02  0.10879585266E+02  0.00000000000E+00 0.  1.
         23    2    1    2    0    0 -0.87122781793E+01 -0.52514744907E+02  0.43279384355E+03  0.44548466680E+03  0.91172227767E+02 0.  0.
         23    2    1    2    0    0  0.87122781793E+01  0.52514744907E+02  0.10132098663E+04  0.10222782135E+04  0.12499924228E+03 0.  0.
          5    1    4    4  502    0  0.14743256545E+02 -0.60500908976E+01  0.15189405073E+02  0.22511668971E+02  0.47000000000E+01 0. -1.
         -5    1    4    4    0  502 -0.60309783655E+01  0.58564835804E+02  0.99802046119E+03  0.99976654457E+03  0.47000000000E+01 0. -1.
        -11    1    3    3    0    0 -0.11508454046E+02 -0.73814688255E+02  0.39508245574E+03  0.40208357284E+03  0.00000000000E+00 0.  1.
         11    1    3    3    0    0  0.27961758672E+01  0.21299943348E+02  0.37711387806E+02  0.43401093954E+02  0.00000000000E+00 0. -1.
<mgrwt>
<rscale>  0 0.12755986E+03</rscale>
<asrwt>0</asrwt>
<pdfrwt beam="1">  1        1 0.22413574E+00 0.13586211E+03</pdfrwt>
<pdfrwt beam="2">  1       -1 0.16737835E-02 0.13586211E+03</pdfrwt>
<totfact> 0.66547844E+03</totfact>
</mgrwt>
</event>
<event>
 8    1  0.7550631E-006  0.1335671E+03  0.7546771E-02  0.1234657E+00
         -4   -1    0    0    0  501 -0.00000000000E+00  0.00000000000E+00  0.52011871626E+03  0.52011871626E+03  0.00000000000E+00 0.  1.
          4   -1    0    0  501    0  0.00000000000E+00 -0.00000000000E+00 -0.27614774633E+02  0.27614774633E+02  0.00000000000E+00 0. -1.
         23    2    1    2    0    0  0.46291374106E+02  0.85100105410E+01  0.25693220597E+03  0.27693059006E+03  0.91984138053E+02 0.  0.
         23    2    1    2    0    0 -0.46291374106E+02 -0.85100105410E+01  0.23557173566E+03  0.27080290083E+03  0.12499942744E+03 0.  0.
          5    1    4    4  502    0  0.35809992142E+02 -0.14618500309E+02  0.29582870311E+02  0.48921286822E+02  0.47000000000E+01 0.  1.
         -5    1    4    4    0  502 -0.82101366248E+02  0.61084897677E+01  0.20598886535E+03  0.22188161401E+03  0.47000000000E+01 0.  1.
        -11    1    3    3    0    0 -0.87912549595E+01  0.29829978573E+02  0.16323162839E+03  0.16616762107E+03  0.00000000000E+00 0.  1.
         11    1    3    3    0    0  0.55082629065E+02 -0.21319968032E+02  0.93700577574E+02  0.11076296899E+03  0.00000000000E+00 0. -1.
<mgrwt>
<rscale>  0 0.12526440E+03</rscale>
<asrwt>0</asrwt>
<pdfrwt beam="2">  1        4 0.42484272E-02 0.13356709E+03</pdfrwt>
<pdfrwt beam="1">  1       -4 0.80018257E-01 0.13356709E+03</pdfrwt>
<totfact> 0.72851780E+02</totfact>
</mgrwt>
</event>
<event>
 7    1  0.7550631E-006  0.1352857E+03  0.7546771E-02  0.1231206E+00
          4   -1    0    0  501    0  0.00000000000E+00  0.00000000000E+00  0.24470061967E+03  0.24470061967E+03  0.00000000000E+00 0. -1.
         -4   -1    0    0    0  501 -0.00000000000E+00 -0.00000000000E+00 -0.12480435694E+03  0.12480435694E+03  0.00000000000E+00 0.  1.
         23    2    1    2    0    0  0.29746072655E+01  0.41201963566E+02 -0.76283262800E+02  0.13120133168E+03  0.98428670418E+02 0.  0.
          5    1    1    2  502    0 -0.56599062721E+02 -0.55267215953E+02  0.12419413563E+03  0.14732342782E+03  0.47000000000E+01 0. -1.
         -5    1    1    2    0  502  0.53624455455E+02  0.14065252387E+02  0.71985389895E+02  0.90980217113E+02  0.47000000000E+01 0.  1.
        -11    1    3    3    0    0 -0.16243839384E+02  0.27257806421E+02 -0.95513700417E+02  0.10064649669E+03  0.00000000000E+00 0.  1.
         11    1    3    3    0    0  0.19218446650E+02  0.13944157145E+02  0.19230437616E+02  0.30554834986E+02  0.00000000000E+00 0. -1.
<mgrwt>
<rscale>  0 0.12750481E+03</rscale>
<asrwt>0</asrwt>
<pdfrwt beam="1">  1        4 0.37646249E-01 0.13528570E+03</pdfrwt>
<pdfrwt beam="2">  1       -4 0.19200670E-01 0.13528570E+03</pdfrwt>
<totfact> 0.27719641E+02</totfact>
</mgrwt>
</event>
<event>
 8    1  0.7550631E-006  0.1864343E+03  0.7546771E-02  0.1166901E+00
         -2   -1    0    0    0  501 -0.00000000000E+00  0.00000000000E+00  0.45979125824E+02  0.45979125824E+02  0.00000000000E+00 0.  1.
          2   -1    0    0  501    0  0.00000000000E+00 -0.00000000000E+00 -0.67736402370E+03  0.67736402370E+03  0.00000000000E+00 0. -1.
         23    2    1    2    0    0  0.58287279850E+02  0.12543487445E+03 -0.32577842051E+03  0.36535842518E+03  0.90685637549E+02 0.  0.
         23    2    1    2    0    0 -0.58287279850E+02 -0.12543487445E+03 -0.30560647736E+03  0.35798472434E+03  0.12500571641E+03 0.  0.
          5    1    4    4  502    0 -0.53754780267E+02 -0.36308623293E+01 -0.15508139432E+03  0.16424094625E+03  0.47000000000E+01 0. -1.
         -5    1    4    4    0  502 -0.45324995834E+01 -0.12180401213E+03 -0.15052508305E+03  0.19374377809E+03  0.47000000000E+01 0. -1.
        -11    1    3    3    0    0  0.27610495397E+01  0.85248820413E+02 -0.11148788176E+03  0.14037283411E+03  0.00000000000E+00 0.  1.
         11    1    3    3    0    0  0.55526230310E+02  0.40186054042E+02 -0.21429053875E+03  0.22498559107E+03  0.00000000000E+00 0. -1.
<mgrwt>
<rscale>  0 0.18093573E+03</rscale>
<asrwt>0</asrwt>
<pdfrwt beam="2">  1        2 0.10420984E+00 0.18643429E+03</pdfrwt>
<pdfrwt beam="1">  1       -2 0.70737124E-02 0.18643429E+03</pdfrwt>
<totfact> 0.49179559E+03</totfact>
</mgrwt>
</event>
<event>
 8    1  0.7550631E-006  0.1317310E+03  0.7546771E-02  0.1241890E+00
          2   -1    0    0  501    0  0.00000000000E+00  0.00000000000E+00  0.20683730381E+02  0.20683730381E+02  0.00000000000E+00 0. -1.
         -2   -1    0    0    0  501 -0.00000000000E+00 -0.00000000000E+00 -0.67255689838E+03  0.67255689838E+03  0.00000000000E+00 0.  1.
         23    2    1    2    0    0 -0.39566550805E+02 -0.12682678272E+02 -0.37903032920E+03  0.39026165593E+03  0.83149307657E+02 0.  0.
         23    2    1    2    0    0  0.39566550805E+02  0.12682678272E+02 -0.27284283880E+03  0.30297897284E+03  0.12500672392E+03 0.  0.
          5    1    4    4  502    0 -0.28345709089E+02  0.34532291308E+02 -0.18153374403E+03  0.18700948796E+03  0.47000000000E+01 0. -1.
         -5    1    4    4    0  502  0.67912259894E+02 -0.21849613036E+02 -0.91309094773E+02  0.11596948487E+03  0.47000000000E+01 0. -1.
        -11    1    3    3    0    0 -0.59089114453E+02  0.10955241565E+02 -0.28813612899E+03  0.29433649042E+03  0.00000000000E+00 0.  1.
         11    1    3    3    0    0  0.19522563648E+02 -0.23637919837E+02 -0.90894200209E+02  0.95925165506E+02  0.00000000000E+00 0. -1.
<mgrwt>
<rscale>  0 0.12073443E+03</rscale>
<asrwt>0</asrwt>
<pdfrwt beam="1">  1        2 0.31821122E-02 0.13173095E+03</pdfrwt>
<pdfrwt beam="2">  1       -2 0.10347030E+00 0.13173095E+03</pdfrwt>
<totfact> 0.21867696E+03</totfact>
</mgrwt>
</event>
<event>
 8    1  0.7550631E-006  0.1403159E+03  0.7546771E-02  0.1224420E+00
         -2   -1    0    0    0  501 -0.00000000000E+00  0.00000000000E+00  0.16412010525E+02  0.16412010525E+02  0.00000000000E+00 0.  1.
          2   -1    0    0  501    0  0.00000000000E+00 -0.00000000000E+00 -0.11076043067E+04  0.11076043067E+04  0.00000000000E+00 0. -1.
         23    2    1    2    0    0  0.34529973566E+02  0.53585458779E+02 -0.28179194310E+03  0.30254356123E+03  0.89789680792E+02 0.  0.
         23    2    1    2    0    0 -0.34529973566E+02 -0.53585458779E+02 -0.80940035304E+03  0.82147275597E+03  0.12499934728E+03 0.  0.
          5    1    4    4  502    0 -0.67732903566E+02  0.87826024420E+01 -0.34799776452E+03  0.35466803414E+03  0.47000000000E+01 0.  1.
         -5    1    4    4    0  502  0.33202930000E+02 -0.62368061221E+02 -0.46140258853E+03  0.46680472183E+03  0.47000000000E+01 0.  1.
        -11    1    3    3    0    0 -0.14500343505E+02  0.32696496551E+02 -0.34929919748E+02  0.49994201084E+02  0.00000000000E+00 0.  1.
         11    1    3    3    0    0  0.49030317070E+02  0.20888962228E+02 -0.24686202335E+03  0.25254936014E+03  0.00000000000E+00 0. -1.
<mgrwt>
<rscale>  0 0.13206705E+03</rscale>
<asrwt>0</asrwt>
<pdfrwt beam="2">  1        2 0.17040070E+00 0.14031592E+03</pdfrwt>
<pdfrwt beam="1">  1       -2 0.25249242E-02 0.14031592E+03</pdfrwt>
<totfact> 0.11958181E+04</totfact>
</mgrwt>
</event>
<event>
 8    1  0.7550631E-006  0.1386540E+03  0.7546771E-02  0.1226309E+00
          1   -1    0    0  501    0  0.00000000000E+00  0.00000000000E+00  0.10333060950E+03  0.10333060950E+03  0.00000000000E+00 0. -1.
         -1   -1    0    0    0  501 -0.00000000000E+00 -0.00000000000E+00 -0.15224165094E+03  0.15224165094E+03  0.00000000000E+00 0.  1.
         23    2    1    2    0    0 -0.59624265351E+02 -0.68141282324E+01 -0.39419195880E+02  0.11659372016E+03  0.91862599652E+02 0.  0.
         23    2    1    2    0    0  0.59624265351E+02  0.68141282324E+01 -0.94918455594E+01  0.13897854027E+03  0.12499381649E+03 0.  0.
          5    1    4    4  502    0 -0.93621195632E+01  0.53354033857E+02  0.41034375276E+01  0.54527336365E+02  0.47000000000E+01 0. -1.
         -5    1    4    4    0  502  0.68986384915E+02 -0.46539905625E+02 -0.13595283087E+02  0.84451203907E+02  0.47000000000E+01 0. -1.
        -11    1    3    3    0    0 -0.27617286821E+02  0.10340819922E+02  0.27585688932E+02  0.40380902936E+02  0.00000000000E+00 0. -1.
         11    1    3    3    0    0 -0.32006978530E+02 -0.17154948154E+02 -0.67004884812E+02  0.76212817225E+02  0.00000000000E+00 0.  1.
<mgrwt>
<rscale>  0 0.13077619E+03</rscale>
<asrwt>0</asrwt>
<pdfrwt beam="1">  1        1 0.15897017E-01 0.13865403E+03</pdfrwt>
<pdfrwt beam="2">  1       -1 0.23421792E-01 0.13865403E+03</pdfrwt>
<totfact> 0.51185121E+03</totfact>
</mgrwt>
</event>
<event>
 8    1  0.7550631E-006  0.1407784E+03  0.7546771E-02  0.1221442E+00
          2   -1    0    0  501    0  0.00000000000E+00  0.00000000000E+00  0.46739332658E+03  0.46739332658E+03  0.00000000000E+00 0. -1.
         -2   -1    0    0    0  501 -0.00000000000E+00 -0.00000000000E+00 -0.36913749494E+02  0.36913749494E+02  0.00000000000E+00 0.  1.
         23    2    1    2    0    0 -0.55855906101E+02 -0.32773569498E+02  0.24827276731E+03  0.27405097504E+03  0.96283855496E+02 0.  0.
         23    2    1    2    0    0  0.55855906101E+02  0.32773569498E+02  0.18220680978E+03  0.23025610103E+03  0.12499824571E+03 0.  0.
          5    1    4    4  502    0  0.59992324312E+02 -0.99651327396E+01  0.22827727380E+02  0.65127398108E+02  0.47000000000E+01 0. -1.
         -5    1    4    4    0  502 -0.41364182114E+01  0.42738702238E+02  0.15937908240E+03  0.16512870293E+03  0.47000000000E+01 0. -1.
        -11    1    3    3    0    0 -0.88916900011E+00  0.27048571385E+02  0.26544606082E+02  0.37908204225E+02  0.00000000000E+00 0.  1.
         11    1    3    3    0    0 -0.54966737101E+02 -0.59822140883E+02  0.22172816123E+03  0.23614277081E+03  0.00000000000E+00 0. -1.
<mgrwt>
<rscale>  0 0.13413775E+03</rscale>
<asrwt>0</asrwt>
<pdfrwt beam="1">  1        2 0.71906662E-01 0.14077837E+03</pdfrwt>
<pdfrwt beam="2">  1       -2 0.56790387E-02 0.14077837E+03</pdfrwt>
<totfact> 0.10312924E+04</totfact>
</mgrwt>
</event>
<event>
 8    1  0.7550631E-006  0.1430884E+03  0.7546771E-02  0.1219745E+00
          2   -1    0    0  501    0  0.00000000000E+00  0.00000000000E+00  0.39037686432E+03  0.39037686432E+03  0.00000000000E+00 0.  1.
         -2   -1    0    0    0  501 -0.00000000000E+00 -0.00000000000E+00 -0.43177213182E+02  0.43177213182E+02  0.00000000000E+00 0. -1.
         23    2    1    2    0    0 -0.45581024637E+02 -0.52649998484E+02  0.18171469649E+03  0.21478580420E+03  0.90901367526E+02 0.  0.
         23    2    1    2    0    0  0.45581024637E+02  0.52649998484E+02  0.16548495464E+03  0.21876827330E+03  0.12499854015E+03 0.  0.
          5    1    4    4  502    0 -0.32784675702E+02 -0.11181897095E+02  0.16455079973E+02  0.38635856927E+02  0.47000000000E+01 0. -1.
         -5    1    4    4    0  502  0.78365700339E+02  0.63831895580E+02  0.14902987467E+03  0.18013241637E+03  0.47000000000E+01 0. -1.
        -11    1    3    3    0    0  0.15320864609E+02  0.11399714624E+02  0.68760942500E+02  0.71363503272E+02  0.00000000000E+00 0.  1.
         11    1    3    3    0    0 -0.60901889246E+02 -0.64049713108E+02  0.11295375399E+03  0.14342230093E+03  0.00000000000E+00 0. -1.
<mgrwt>
<rscale>  0 0.13533647E+03</rscale>
<asrwt>0</asrwt>
<pdfrwt beam="1">  1        2 0.60057977E-01 0.14308839E+03</pdfrwt>
<pdfrwt beam="2">  1       -2 0.66426484E-02 0.14308839E+03</pdfrwt>
<totfact> 0.98781210E+03</totfact>
</mgrwt>
</event>
<event>
 8    1  0.7550631E-006  0.1591437E+03  0.7546771E-02  0.1198967E+00
         -1   -1    0    0    0  501 -0.00000000000E+00  0.00000000000E+00  0.69463311128E+02  0.69463311128E+02  0.00000000000E+00 0.  1.
          1   -1    0    0  501    0  0.00000000000E+00 -0.00000000000E+00 -0.35040797803E+03  0.35040797803E+03  0.00000000000E+00 0. -1.
         23    2    1    2    0    0 -0.96398389223E+02  0.20200044311E+02 -0.49302579169E+02  0.13882901458E+03  0.84510707856E+02 0.  0.
         23    2    1    2    0    0  0.96398389223E+02 -0.20200044311E+02 -0.23164208773E+03  0.28104227457E+03  0.12500404815E+03 0.  0.
          5    1    4    4  502    0 -0.82022943034E+01 -0.44659195485E+02 -0.37351239583E+02  0.58982425108E+02  0.47000000000E+01 0. -1.
         -5    1    4    4    0  502  0.10460068353E+03  0.24459151174E+02 -0.19429084815E+03  0.22205984947E+03  0.47000000000E+01 0. -1.
        -11    1    3    3    0    0 -0.29627567003E+02 -0.30524261370E+02 -0.31946774430E+02  0.53198868928E+02  0.00000000000E+00 0.  1.
         11    1    3    3    0    0 -0.66770822221E+02  0.50724305681E+02 -0.17355804739E+02  0.85630145655E+02  0.00000000000E+00 0. -1.
<mgrwt>
<rscale>  0 0.15123198E+03</rscale>
<asrwt>0</asrwt>
<pdfrwt beam="2">  1        1 0.53908919E-01 0.15914366E+03</pdfrwt>
<pdfrwt beam="1">  1       -1 0.10686663E-01 0.15914366E+03</pdfrwt>
<totfact> 0.38423189E+03</totfact>
</mgrwt>
</event>
<event>
 8    1  0.7550631E-006  0.1316099E+03  0.7546771E-02  0.1239292E+00
         -2   -1    0    0    0  501 -0.00000000000E+00  0.00000000000E+00  0.26002843419E+03  0.26002843419E+03  0.00000000000E+00 0.  1.
          2   -1    0    0  501    0  0.00000000000E+00 -0.00000000000E+00 -0.12823410705E+03  0.12823410705E+03  0.00000000000E+00 0. -1.
         23    2    1    2    0    0 -0.24370127672E+02  0.32682000424E+02  0.21233336459E+03  0.23396510964E+03  0.89399096964E+02 0.  0.
         23    2    1    2    0    0  0.24370127672E+02 -0.32682000424E+02 -0.80539037441E+02  0.15429743160E+03  0.12513650376E+03 0.  0.
          5    1    4    4  502    0 -0.23536391853E+02 -0.45862676911E+02  0.82755431485E+01  0.52420620840E+02  0.47000000000E+01 0. -1.
         -5    1    4    4    0  502  0.47906519525E+02  0.13180676487E+02 -0.88814580590E+02  0.10187681076E+03  0.47000000000E+01 0. -1.
        -11    1    3    3    0    0 -0.24953756075E+02 -0.20194946894E+02  0.14413824475E+03  0.14766976475E+03  0.00000000000E+00 0.  1.
         11    1    3    3    0    0  0.58362840300E+00  0.52876947318E+02  0.68195119833E+02  0.86295344885E+02  0.00000000000E+00 0. -1.
<mgrwt>
<rscale>  0 0.12233648E+03</rscale>
<asrwt>0</asrwt>
<pdfrwt beam="2">  1        2 0.19728324E-01 0.13160988E+03</pdfrwt>
<pdfrwt beam="1">  1       -2 0.40004375E-01 0.13160988E+03</pdfrwt>
<totfact> 0.16355993E+03</totfact>
</mgrwt>
</event>
<event>
 8    1  0.7550631E-006  0.1326993E+03  0.7546771E-02  0.1236010E+00
         -2   -1    0    0    0  501 -0.00000000000E+00  0.00000000000E+00  0.14254954745E+02  0.14254954745E+02  0.00000000000E+00 0. -1.
          2   -1    0    0  501    0  0.00000000000E+00 -0.00000000000E+00 -0.10231633542E+04  0.10231633542E+04  0.00000000000E+00 0.  1.
         23    2    1    2    0    0 -0.44380871666E+02 -0.41434451755E+01 -0.32579551953E+03  0.34153591652E+03  0.92288849918E+02 0.  0.
         23    2    1    2    0    0  0.44380871666E+02  0.41434451755E+01 -0.68311287994E+03  0.69588239244E+03  0.12498906937E+03 0.  0.
          5    1    4    4  502    0  0.96470419897E+01 -0.42060693151E+02 -0.53594166726E+03  0.53769668776E+03  0.47000000000E+01 0.  1.
         -5    1    4    4    0  502  0.34733829676E+02  0.46204138327E+02 -0.14717121268E+03  0.15818570468E+03  0.47000000000E+01 0.  1.
        -11    1    3    3    0    0 -0.42013613737E+02  0.39951171286E+02 -0.19885587043E+03  0.20713497298E+03  0.00000000000E+00 0.  1.
         11    1    3    3    0    0 -0.23672579286E+01 -0.44094616462E+02 -0.12693964910E+03  0.13440094354E+03  0.00000000000E+00 0. -1.
<mgrwt>
<rscale>  0 0.12440020E+03</rscale>
<asrwt>0</asrwt>
<pdfrwt beam="2">  1        2 0.15740980E+00 0.13269927E+03</pdfrwt>
<pdfrwt beam="1">  1       -2 0.21930693E-02 0.13269927E+03</pdfrwt>
<totfact> 0.16385555E+04</totfact>
</mgrwt>
</event>
<event>
 8    1  0.7550631E-006  0.1500184E+03  0.7546771E-02  0.1209485E+00
         -1   -1    0    0    0  501 -0.00000000000E+00  0.00000000000E+00  0.16761456513E+03  0.16761456513E+03  0.00000000000E+00 0. -1.
          1   -1    0    0  501    0  0.00000000000E+00 -0.00000000000E+00 -0.18949601372E+03  0.18949601372E+03  0.00000000000E+00 0.  1.
         23    2    1    2    0    0 -0.82767810246E+02  0.55462382928E+01  0.10386316900E+03  0.16136269635E+03  0.91482734576E+02 0.  0.
         23    2    1    2    0    0  0.82767810246E+02 -0.55462382928E+01 -0.12574461759E+03  0.19574788250E+03  0.12499701388E+03 0.  0.
          5    1    4    4  502    0  0.87417918801E+02 -0.51653591217E+02 -0.71643162287E+02  0.12435762428E+03  0.47000000000E+01 0.  1.
         -5    1    4    4    0  502 -0.46501085551E+01  0.46107352924E+02 -0.54101455301E+02  0.71390258222E+02  0.47000000000E+01 0.  1.
        -11    1    3    3    0    0 -0.33436445763E+02  0.21705523170E+02  0.10189444099E+03  0.10941481959E+03  0.00000000000E+00 0. -1.
         11    1    3    3    0    0 -0.49331364483E+02 -0.16159284877E+02  0.19687280095E+01  0.51947876756E+02  0.00000000000E+00 0.  1.
<mgrwt>
<rscale>  0 0.14289547E+03</rscale>
<asrwt>0</asrwt>
<pdfrwt beam="2">  1        1 0.29153233E-01 0.15001841E+03</pdfrwt>
<pdfrwt beam="1">  1       -1 0.25786856E-01 0.15001841E+03</pdfrwt>
<totfact> 0.20330276E+03</totfact>
</mgrwt>
</event>
<event>
 8    1  0.7550631E-006  0.1947010E+03  0.7546771E-02  0.1158974E+00
         -2   -1    0    0    0  501 -0.00000000000E+00  0.00000000000E+00  0.88646367686E+02  0.88646367686E+02  0.00000000000E+00 0.  1.
          2   -1    0    0  501    0  0.00000000000E+00 -0.00000000000E+00 -0.40413384403E+03  0.40413384403E+03  0.00000000000E+00 0. -1.
         23    2    1    2    0    0 -0.68444376635E+02 -0.13266165463E+03 -0.95091444841E+02  0.19870049954E+03  0.90309237251E+02 0.  0.
         23    2    1    2    0    0  0.68444376635E+02  0.13266165463E+03 -0.22039603151E+03  0.29407971218E+03  0.12499887644E+03 0.  0.
          5    1    4    4  502    0  0.10519997917E+03  0.94624966085E+02 -0.15815202808E+03  0.21226180487E+03  0.47000000000E+01 0. -1.
         -5    1    4    4    0  502 -0.36755602535E+02  0.38036688543E+02 -0.62244003432E+02  0.81817907308E+02  0.47000000000E+01 0. -1.
        -11    1    3    3    0    0 -0.17226084178E+02 -0.15206101870E+02  0.16897899113E+02  0.28521965301E+02  0.00000000000E+00 0.  1.
         11    1    3    3    0    0 -0.51218292457E+02 -0.11745555276E+03 -0.11198934395E+03  0.17017853424E+03  0.00000000000E+00 0. -1.
<mgrwt>
<rscale>  0 0.18943306E+03</rscale>
<asrwt>0</asrwt>
<pdfrwt beam="2">  1        2 0.62174438E-01 0.19470097E+03</pdfrwt>
<pdfrwt beam="1">  1       -2 0.13637903E-01 0.19470097E+03</pdfrwt>
<totfact> 0.31162636E+03</totfact>
</mgrwt>
</event>
<event>
 7    1  0.7550631E-006  0.1490593E+03  0.7546771E-02  0.1220012E+00
         -3   -1    0    0    0  501 -0.00000000000E+00  0.00000000000E+00  0.83924356461E+02  0.83924356461E+02  0.00000000000E+00 0.  1.
          3   -1    0    0  501    0  0.00000000000E+00 -0.00000000000E+00 -0.19019975252E+03  0.19019975252E+03  0.00000000000E+00 0. -1.
         23    2    1    2    0    0 -0.97898242976E+01 -0.49787699448E+02 -0.22780315356E+02  0.10327298820E+03  0.87015582789E+02 0.  0.
          5    1    1    2  502    0 -0.30951127233E+02  0.19468364018E+02 -0.10810804045E+03  0.11422096079E+03  0.47000000000E+01 0.  1.
         -5    1    1    2    0  502  0.40740951531E+02  0.30319335430E+02  0.24612959747E+02  0.56630159986E+02  0.47000000000E+01 0. -1.
        -11    1    3    3    0    0 -0.28139172445E+02 -0.60887424690E+02 -0.37891909048E+02  0.77038226113E+02  0.00000000000E+00 0. -1.
         11    1    3    3    0    0  0.18349348148E+02  0.11099725242E+02  0.15111593692E+02  0.26234762088E+02  0.00000000000E+00 0.  1.
<mgrwt>
<rscale>  0 0.13514754E+03</rscale>
<asrwt>0</asrwt>
<pdfrwt beam="2">  1        3 0.29261500E-01 0.14905931E+03</pdfrwt>
<pdfrwt beam="1">  1       -3 0.12911440E-01 0.14905931E+03</pdfrwt>
<totfact> 0.12609811E+03</totfact>
</mgrwt>
</event>
<event>
 8    1  0.7550631E-006  0.1648244E+03  0.7546771E-02  0.1190164E+00
         -1   -1    0    0    0  501 -0.00000000000E+00  0.00000000000E+00  0.77807308715E+03  0.77807308715E+03  0.00000000000E+00 0.  1.
          1   -1    0    0  501    0  0.00000000000E+00 -0.00000000000E+00 -0.46401646929E+02  0.46401646929E+02  0.00000000000E+00 0. -1.
         23    2    1    2    0    0  0.10534171881E+03 -0.21094870502E+02  0.59111234830E+03  0.60785539994E+03  0.92371573759E+02 0.  0.
         23    2    1    2    0    0 -0.10534171881E+03  0.21094870502E+02  0.14055909191E+03  0.21661933413E+03  0.12500082526E+03 0.  0.
          5    1    4    4  502    0 -0.10046677219E+03 -0.29148017180E+02  0.57913127704E+02  0.11966285798E+03  0.47000000000E+01 0.  1.
         -5    1    4    4    0  502 -0.48749466235E+01  0.50242887682E+02  0.82645964211E+02  0.96956476151E+02  0.47000000000E+01 0.  1.
        -11    1    3    3    0    0 -0.11790504293E+02 -0.16556064473E+02  0.46132137144E+02  0.50411242196E+02  0.00000000000E+00 0. -1.
         11    1    3    3    0    0  0.11713222311E+03 -0.45388060297E+01  0.54498021116E+03  0.55744415775E+03  0.00000000000E+00 0.  1.
<mgrwt>
<rscale>  0 0.15870710E+03</rscale>
<asrwt>0</asrwt>
<pdfrwt beam="2">  1        1 0.71387155E-02 0.16482438E+03</pdfrwt>
<pdfrwt beam="1">  1       -1 0.11970354E+00 0.16482438E+03</pdfrwt>
<totfact> 0.67239631E+02</totfact>
</mgrwt>
</event>
<event>
 8    1  0.7550631E-006  0.1460630E+03  0.7546771E-02  0.1212739E+00
         -1   -1    0    0    0  501 -0.00000000000E+00  0.00000000000E+00  0.21017116994E+02  0.21017116994E+02  0.00000000000E+00 0.  1.
          1   -1    0    0  501    0  0.00000000000E+00 -0.00000000000E+00 -0.19821909278E+04  0.19821909278E+04  0.00000000000E+00 0. -1.
         23    2    1    2    0    0  0.63009811518E+02 -0.41763037027E+02 -0.19848663311E+03  0.23447955256E+03  0.99344498771E+02 0.  0.
         23    2    1    2    0    0 -0.63009811518E+02  0.41763037027E+02 -0.17626871777E+04  0.17687284922E+04  0.12498001928E+03 0.  0.
          5    1    4    4  502    0 -0.73799470075E+02 -0.14972977328E+02 -0.62013702740E+03  0.62470999239E+03  0.47000000000E+01 0.  1.
         -5    1    4    4    0  502  0.10789658557E+02  0.56736014355E+02 -0.11425501503E+04  0.11440184998E+04  0.47000000000E+01 0.  1.
        -11    1    3    3    0    0  0.52505234763E+02 -0.68049271949E+02 -0.99295363684E+02  0.13132810948E+03  0.00000000000E+00 0.  1.
         11    1    3    3    0    0  0.10504576755E+02  0.26286234922E+02 -0.99191269423E+02  0.10315144308E+03  0.00000000000E+00 0. -1.
<mgrwt>
<rscale>  0 0.14043941E+03</rscale>
<asrwt>0</asrwt>
<pdfrwt beam="2">  1        1 0.30495258E+00 0.14606298E+03</pdfrwt>
<pdfrwt beam="1">  1       -1 0.32334013E-02 0.14606298E+03</pdfrwt>
<totfact> 0.11822835E+03</totfact>
</mgrwt>
</event>
<event>
 8    1  0.7550631E-006  0.2155431E+03  0.7546771E-02  0.1139859E+00
          1   -1    0    0  501    0  0.00000000000E+00  0.00000000000E+00  0.77714491772E+02  0.77714491772E+02  0.00000000000E+00 0. -1.
         -1   -1    0    0    0  501 -0.00000000000E+00 -0.00000000000E+00 -0.79629469626E+03  0.79629469626E+03  0.00000000000E+00 0.  1.
         23    2    1    2    0    0  0.61994387405E+02  0.16417083818E+03 -0.58834968314E+03  0.62217829022E+03  0.10077255077E+03 0.  0.
         23    2    1    2    0    0 -0.61994387405E+02 -0.16417083818E+03 -0.13023052135E+03  0.25183089781E+03  0.12515368242E+03 0.  0.
          5    1    4    4  502    0 -0.96325263472E+02 -0.14799577614E+03 -0.99263974084E+02  0.20262461028E+03  0.47000000000E+01 0. -1.
         -5    1    4    4    0  502  0.34330876068E+02 -0.16175062038E+02 -0.30966547266E+02  0.49206287536E+02  0.47000000000E+01 0. -1.
        -11    1    3    3    0    0  0.81996144759E+02  0.82997380255E+02 -0.38575209579E+03  0.40300944442E+03  0.00000000000E+00 0. -1.
         11    1    3    3    0    0 -0.20001757355E+02  0.81173457928E+02 -0.20259758736E+03  0.21916884581E+03  0.00000000000E+00 0.  1.
<mgrwt>
<rscale>  0 0.21216948E+03</rscale>
<asrwt>0</asrwt>
<pdfrwt beam="1">  1        1 0.11956076E-01 0.21554306E+03</pdfrwt>
<pdfrwt beam="2">  1       -1 0.12250688E+00 0.21554306E+03</pdfrwt>
<totfact> 0.31857445E+02</totfact>
</mgrwt>
</event>
<event>
 8    1  0.7550631E-006  0.1284592E+03  0.7546771E-02  0.1243434E+00
          3   -1    0    0  501    0  0.00000000000E+00  0.00000000000E+00  0.39617568807E+03  0.39617568807E+03  0.00000000000E+00 0. -1.
         -3   -1    0    0    0  501 -0.00000000000E+00 -0.00000000000E+00 -0.39074092446E+02  0.39074092446E+02  0.00000000000E+00 0.  1.
         23    2    1    2    0    0 -0.27938483273E+02  0.97814758278E+01  0.67113774228E+02  0.11808312112E+03  0.92537174612E+02 0.  0.
         23    2    1    2    0    0  0.27938483273E+02 -0.97814758278E+01  0.28998782139E+03  0.31716665939E+03  0.12500206862E+03 0.  0.
          5    1    4    4  502    0  0.18315725994E+02  0.52266217549E+02  0.76318776723E+02  0.94413288239E+02  0.47000000000E+01 0. -1.
         -5    1    4    4    0  502  0.96227572782E+01 -0.62047693377E+02  0.21366904467E+03  0.22275337115E+03  0.47000000000E+01 0. -1.
        -11    1    3    3    0    0 -0.30366512204E+02 -0.85583429481E+01 -0.14267510946E+02  0.34625599865E+02  0.00000000000E+00 0.  1.
         11    1    3    3    0    0  0.24280289312E+01  0.18339818776E+02  0.81381285174E+02  0.83457521254E+02  0.00000000000E+00 0. -1.
<mgrwt>
<rscale>  0 0.11979581E+03</rscale>
<asrwt>0</asrwt>
<pdfrwt beam="1">  1        3 0.60950103E-01 0.12845915E+03</pdfrwt>
<pdfrwt beam="2">  1       -3 0.60113991E-02 0.12845915E+03</pdfrwt>
<totfact> 0.10341533E+03</totfact>
</mgrwt>
</event>
<event>
 8    1  0.7550631E-006  0.1275734E+03  0.7546771E-02  0.1245616E+00
          1   -1    0    0  501    0  0.00000000000E+00  0.00000000000E+00  0.20476330608E+03  0.20476330608E+03  0.00000000000E+00 0. -1.
         -1   -1    0    0    0  501 -0.00000000000E+00 -0.00000000000E+00 -0.61703015169E+02  0.61703015169E+02  0.00000000000E+00 0.  1.
         23    2    1    2    0    0 -0.16502710939E+02 -0.19422001825E+02  0.42412596913E+02  0.10397035639E+03  0.91440981011E+02 0.  0.
         23    2    1    2    0    0  0.16502710939E+02  0.19422001825E+02  0.10064769400E+03  0.16249596485E+03  0.12500170664E+03 0.  0.
          5    1    4    4  502    0 -0.41156121525E+02  0.89929860713E+01  0.94278424324E+02  0.10336929636E+03  0.47000000000E+01 0. -1.
         -5    1    4    4    0  502  0.57658832464E+02  0.10429015753E+02  0.63692696712E+01  0.59126668491E+02  0.47000000000E+01 0. -1.
        -11    1    3    3    0    0 -0.49101812032E+02 -0.63331621054E+01  0.80298710220E+00  0.49515065136E+02  0.00000000000E+00 0.  1.
         11    1    3    3    0    0  0.32599101093E+02 -0.13088839719E+02  0.41609609811E+02  0.54455291257E+02  0.00000000000E+00 0. -1.
<mgrwt>
<rscale>  0 0.11848595E+03</rscale>
<asrwt>0</asrwt>
<pdfrwt beam="1">  1        1 0.31502047E-01 0.12757343E+03</pdfrwt>
<pdfrwt beam="2">  1       -1 0.94927717E-02 0.12757343E+03</pdfrwt>
<totfact> 0.88480499E+03</totfact>
</mgrwt>
</event>
<event>
 8    1  0.7550631E-006  0.1643299E+03  0.7546771E-02  0.1190224E+00
         -2   -1    0    0    0  501 -0.00000000000E+00  0.00000000000E+00  0.21613214914E+02  0.21613214914E+02  0.00000000000E+00 0.  1.
          2   -1    0    0  501    0  0.00000000000E+00 -0.00000000000E+00 -0.11539741459E+04  0.11539741459E+04  0.00000000000E+00 0. -1.
         23    2    1    2    0    0 -0.26542187522E+02 -0.10331513658E+03 -0.66567463808E+03  0.68081426982E+03  0.94904378390E+02 0.  0.
         23    2    1    2    0    0  0.26542187522E+02  0.10331513658E+03 -0.46668629286E+03  0.49477309095E+03  0.12500324164E+03 0.  0.
          5    1    4    4  502    0  0.47133281410E+02  0.46835546209E+02 -0.39730464333E+03  0.40285007660E+03  0.47000000000E+01 0. -1.
         -5    1    4    4    0  502 -0.20591093888E+02  0.56479590372E+02 -0.69381649534E+02  0.91923014355E+02  0.47000000000E+01 0. -1.
        -11    1    3    3    0    0  0.32944020326E+02 -0.57064336142E+02 -0.26134600855E+03  0.26952436461E+03  0.00000000000E+00 0.  1.
         11    1    3    3    0    0 -0.59486207848E+02 -0.46250800439E+02 -0.40432862953E+03  0.41128990521E+03  0.00000000000E+00 0. -1.
<mgrwt>
<rscale>  0 0.15865443E+03</rscale>
<asrwt>0</asrwt>
<pdfrwt beam="2">  1        2 0.17753450E+00 0.16432990E+03</pdfrwt>
<pdfrwt beam="1">  1       -2 0.33251096E-02 0.16432990E+03</pdfrwt>
<totfact> 0.75607896E+03</totfact>
</mgrwt>
</event>
<event>
 8    1  0.7550631E-006  0.1387406E+03  0.7546771E-02  0.1227133E+00
          3   -1    0    0  501    0  0.00000000000E+00  0.00000000000E+00  0.39911675531E+03  0.39911675531E+03  0.00000000000E+00 0. -1.
         -3   -1    0    0    0  501 -0.00000000000E+00 -0.00000000000E+00 -0.39332331909E+02  0.39332331909E+02  0.00000000000E+00 0.  1.
         23    2    1    2    0    0 -0.53440630311E+02  0.27739844884E+02  0.11838081335E+03  0.16001660223E+03  0.89251868637E+02 0.  0.
         23    2    1    2    0    0  0.53440630311E+02 -0.27739844884E+02  0.24140361005E+03  0.27843248500E+03  0.12499418304E+03 0.  0.
          5    1    4    4  502    0 -0.30688871402E+02 -0.21245927247E+02  0.22627302185E+02  0.43900809294E+02  0.47000000000E+01 0.  1.
         -5    1    4    4    0  502  0.84129501713E+02 -0.64939176378E+01  0.21877630786E+03  0.23453167570E+03  0.47000000000E+01 0.  1.
        -11    1    3    3    0    0 -0.38645251628E+02  0.50108398085E+02  0.11717550966E+03  0.13317059396E+03  0.00000000000E+00 0. -1.
         11    1    3    3    0    0 -0.14795378683E+02 -0.22368553200E+02  0.12053036929E+01  0.26846008263E+02  0.00000000000E+00 0.  1.
<mgrwt>
<rscale>  0 0.13021743E+03</rscale>
<asrwt>0</asrwt>
<pdfrwt beam="1">  1        3 0.61402575E-01 0.13874057E+03</pdfrwt>
<pdfrwt beam="2">  1       -3 0.60511283E-02 0.13874057E+03</pdfrwt>
<totfact> 0.10203065E+03</totfact>
</mgrwt>
</event>
<event>
 8    1  0.7550631E-006  0.3342258E+03  0.7546771E-02  0.1070546E+00
         -1   -1    0    0    0  501 -0.00000000000E+00  0.00000000000E+00  0.15678591994E+03  0.15678591994E+03  0.00000000000E+00 0.  1.
          1   -1    0    0  501    0  0.00000000000E+00 -0.00000000000E+00 -0.75577848302E+03  0.75577848302E+03  0.00000000000E+00 0. -1.
         23    2    1    2    0    0  0.19781383741E+03  0.23864434281E+03 -0.15852400547E+03  0.35964539896E+03  0.90186008094E+02 0.  0.
         23    2    1    2    0    0 -0.19781383741E+03 -0.23864434281E+03 -0.44046855761E+03  0.55291900399E+03  0.12500175242E+03 0.  0.
          5    1    4    4  502    0 -0.40108145895E+01  0.98201172576E+01 -0.35292608997E+00  0.11607579138E+02  0.47000000000E+01 0.  1.
         -5    1    4    4    0  502 -0.19380302282E+03 -0.24846446007E+03 -0.44011563152E+03  0.54131142486E+03  0.47000000000E+01 0.  1.
        -11    1    3    3    0    0  0.32017613649E+02  0.51336333861E+02  0.51335785101E+01  0.60719851666E+02  0.00000000000E+00 0.  1.
         11    1    3    3    0    0  0.16579622377E+03  0.18730800895E+03 -0.16365758398E+03  0.29892554730E+03  0.00000000000E+00 0. -1.
<mgrwt>
<rscale>  0 0.33133798E+03</rscale>
<asrwt>0</asrwt>
<pdfrwt beam="2">  1        1 0.11627361E+00 0.33422578E+03</pdfrwt>
<pdfrwt beam="1">  1       -1 0.24120911E-01 0.33422578E+03</pdfrwt>
<totfact> 0.37219843E+02</totfact>
</mgrwt>
</event>
<event>
 8    1  0.7550631E-006  0.1426994E+03  0.7546771E-02  0.1221172E+00
          2   -1    0    0  501    0  0.00000000000E+00  0.00000000000E+00  0.87227654095E+03  0.87227654095E+03  0.00000000000E+00 0. -1.
         -2   -1    0    0    0  501 -0.00000000000E+00 -0.00000000000E+00 -0.28714846122E+02  0.28714846122E+02  0.00000000000E+00 0.  1.
         23    2    1    2    0    0 -0.68418870026E+02  0.75364509535E+01  0.12278234091E+03  0.16622204513E+03  0.88409983485E+02 0.  0.
         23    2    1    2    0    0  0.68418870026E+02 -0.75364509535E+01  0.72077935392E+03  0.73476934194E+03  0.12500067581E+03 0.  0.
          5    1    4    4  502    0 -0.11396173048E+02 -0.20461889059E+02  0.26088449610E+02  0.35373137648E+02  0.47000000000E+01 0. -1.
         -5    1    4    4    0  502  0.79815043074E+02  0.12925438105E+02  0.69469090431E+03  0.69939620430E+03  0.47000000000E+01 0. -1.
        -11    1    3    3    0    0 -0.50550027533E+02 -0.20904113093E+02  0.20252122903E+02  0.58330401248E+02  0.00000000000E+00 0.  1.
         11    1    3    3    0    0 -0.17868842494E+02  0.28440564046E+02  0.10253021801E+03  0.10789164388E+03  0.00000000000E+00 0. -1.
<mgrwt>
<rscale>  0 0.13432766E+03</rscale>
<asrwt>0</asrwt>
<pdfrwt beam="1">  1        2 0.13419637E+00 0.14269937E+03</pdfrwt>
<pdfrwt beam="2">  1       -2 0.44176693E-02 0.14269937E+03</pdfrwt>
<totfact> 0.72623766E+03</totfact>
</mgrwt>
</event>
<event>
 8    1  0.7550631E-006  0.1329639E+03  0.7546771E-02  0.1236227E+00
          2   -1    0    0  501    0  0.00000000000E+00  0.00000000000E+00  0.35470197085E+03  0.35470197085E+03  0.00000000000E+00 0. -1.
         -2   -1    0    0    0  501 -0.00000000000E+00 -0.00000000000E+00 -0.50288663895E+02  0.50288663895E+02  0.00000000000E+00 0.  1.
         23    2    1    2    0    0  0.45099153543E+02  0.45645711810E+01  0.40001008990E+02  0.10902904041E+03  0.90733025809E+02 0.  0.
         23    2    1    2    0    0 -0.45099153543E+02 -0.45645711810E+01  0.26441229797E+03  0.29596159434E+03  0.12499853217E+03 0.  0.
          5    1    4    4  502    0 -0.53161198730E+02  0.49974641385E+02  0.11138211858E+03  0.13323529626E+03  0.47000000000E+01 0. -1.
         -5    1    4    4    0  502  0.80620451868E+01 -0.54539212566E+02  0.15303017939E+03  0.16272629807E+03  0.47000000000E+01 0. -1.
        -11    1    3    3    0    0  0.68433672291E+02  0.14692118071E+02  0.44855199033E+02  0.83132512996E+02  0.00000000000E+00 0. -1.
         11    1    3    3    0    0 -0.23334518749E+02 -0.10127546890E+02 -0.48541900428E+01  0.25896527416E+02  0.00000000000E+00 0.  1.
<mgrwt>
<rscale>  0 0.12426183E+03</rscale>
<asrwt>0</asrwt>
<pdfrwt beam="1">  1        2 0.54569532E-01 0.13296391E+03</pdfrwt>
<pdfrwt beam="2">  1       -2 0.77367177E-02 0.13296391E+03</pdfrwt>
<totfact> 0.86151587E+03</totfact>
</mgrwt>
</event>
<event>
 7    1  0.7550631E-006  0.1295311E+03  0.7546771E-02  0.1281719E+00
          2   -1    0    0  501    0  0.00000000000E+00  0.00000000000E+00  0.11320523592E+02  0.11320523592E+02  0.00000000000E+00 0. -1.
         -2   -1    0    0    0  501 -0.00000000000E+00 -0.00000000000E+00 -0.68394582257E+03  0.68394582257E+03  0.00000000000E+00 0.  1.
         23    2    1    2    0    0  0.22209994569E+02  0.36740980772E+02 -0.45488407686E+03  0.47296704469E+03  0.12220932230E+03 0.  0.
          5    1    3    3  502    0  0.36318837233E+02  0.18691531530E+02 -0.39797073491E+02  0.57221747154E+02  0.47000000000E+01 0. -1.
         -5    1    3    3    0  502 -0.14108842664E+02  0.18049449242E+02 -0.41508700337E+03  0.41574529754E+03  0.47000000000E+01 0.  1.
        -11    1    1    2    0    0 -0.21066101103E+02 -0.23920923322E+02 -0.15927246008E+03  0.16243062435E+03  0.00000000000E+00 0. -1.
         11    1    1    2    0    0 -0.11438934658E+01 -0.12820057451E+02 -0.58468762039E+02  0.59868677116E+02  0.00000000000E+00 0.  1.
<mgrwt>
<rscale>  0 0.99326429E+02</rscale>
<asrwt>0</asrwt>
<pdfrwt beam="1">  1        2 0.17416196E-02 0.12953109E+03</pdfrwt>
<pdfrwt beam="2">  1       -2 0.10522240E+00 0.12953109E+03</pdfrwt>
<totfact> 0.47526010E+03</totfact>
</mgrwt>
</event>
<event>
 8    1  0.7550631E-006  0.1457095E+03  0.7546771E-02  0.1216359E+00
          2   -1    0    0  501    0  0.00000000000E+00  0.00000000000E+00  0.55304046978E+03  0.55304046978E+03  0.00000000000E+00 0.  1.
         -2   -1    0    0    0  501 -0.00000000000E+00 -0.00000000000E+00 -0.31935961771E+02  0.31935961771E+02  0.00000000000E+00 0. -1.
         23    2    1    2    0    0  0.50439327991E+01 -0.74695354120E+02  0.18441135525E+03  0.21810652230E+03  0.89208014998E+02 0.  0.
         23    2    1    2    0    0 -0.50439327991E+01  0.74695354120E+02  0.33669315276E+03  0.36686990925E+03  0.12500565593E+03 0.  0.
          5    1    4    4  502    0  0.16326980141E+02 -0.91279622142E+01  0.79484073532E-01  0.19286946166E+02  0.47000000000E+01 0.  1.
         -5    1    4    4    0  502 -0.21370912940E+02  0.83823316334E+02  0.33661366868E+03  0.34758296308E+03  0.47000000000E+01 0.  1.
        -11    1    3    3    0    0 -0.26507736769E+02 -0.33577093133E+01  0.12858835023E+02  0.29652722616E+02  0.00000000000E+00 0. -1.
         11    1    3    3    0    0  0.31551669568E+02 -0.71337644807E+02  0.17155252023E+03  0.18845379969E+03  0.00000000000E+00 0.  1.
<mgrwt>
<rscale>  0 0.13777168E+03</rscale>
<asrwt>0</asrwt>
<pdfrwt beam="1">  1        2 0.85083142E-01 0.14570948E+03</pdfrwt>
<pdfrwt beam="2">  1       -2 0.49132253E-02 0.14570948E+03</pdfrwt>
<totfact> 0.10680560E+04</totfact>
</mgrwt>
</event>
<event>
 8    1  0.7550631E-006  0.2075658E+03  0.7546771E-02  0.1147306E+00
          1   -1    0    0  501    0  0.00000000000E+00  0.00000000000E+00  0.91977011080E+03  0.91977011080E+03  0.00000000000E+00 0. -1.
         -1   -1    0    0    0  501 -0.00000000000E+00 -0.00000000000E+00 -0.85404511187E+02  0.85404511187E+02  0.00000000000E+00 0.  1.
         23    2    1    2    0    0 -0.11522048710E+03 -0.11909119136E+03  0.53177183641E+02  0.19688081162E+03  0.92063937655E+02 0.  0.
         23    2    1    2    0    0  0.11522048710E+03  0.11909119136E+03  0.78118841597E+03  0.80829381037E+03  0.12500028052E+03 0.  0.
          5    1    4    4  502    0  0.12504469899E+03  0.47293102376E+02  0.54604706845E+03  0.56219418819E+03  0.47000000000E+01 0.  1.
         -5    1    4    4    0  502 -0.98242118927E+01  0.71798088983E+02  0.23514134752E+03  0.24609962218E+03  0.47000000000E+01 0.  1.
        -11    1    3    3    0    0 -0.68488976192E+02 -0.34082634900E+02 -0.15460310092E+02  0.78047338518E+02  0.00000000000E+00 0.  1.
         11    1    3    3    0    0 -0.46731510903E+02 -0.85008556458E+02  0.68637493733E+02  0.11883347310E+03  0.00000000000E+00 0. -1.
<mgrwt>
<rscale>  0 0.20291088E+03</rscale>
<asrwt>0</asrwt>
<pdfrwt beam="1">  1        1 0.14150309E+00 0.20756575E+03</pdfrwt>
<pdfrwt beam="2">  1       -1 0.13139156E-01 0.20756575E+03</pdfrwt>
<totfact> 0.73618545E+02</totfact>
</mgrwt>
</event>
<event>
 8    1  0.7550631E-006  0.1572553E+03  0.7546771E-02  0.1200294E+00
          2   -1    0    0  501    0  0.00000000000E+00  0.00000000000E+00  0.35063957551E+03  0.35063957551E+03  0.00000000000E+00 0. -1.
         -2   -1    0    0    0  501 -0.00000000000E+00 -0.00000000000E+00 -0.59175578112E+02  0.59175578112E+02  0.00000000000E+00 0.  1.
         23    2    1    2    0    0 -0.88684978470E+02  0.35195034478E+02  0.13886698254E+03  0.19069172313E+03  0.89306094815E+02 0.  0.
         23    2    1    2    0    0  0.88684978470E+02 -0.35195034478E+02  0.15259701485E+03  0.21912343049E+03  0.12500205195E+03 0.  0.
          5    1    4    4  502    0  0.24723576305E+02 -0.52916698286E+02  0.69617785435E+01  0.59008376891E+02  0.47000000000E+01 0. -1.
         -5    1    4    4    0  502  0.63961402165E+02  0.17721663808E+02  0.14563523631E+03  0.16011505360E+03  0.47000000000E+01 0. -1.
        -11    1    3    3    0    0 -0.13689647421E+01 -0.17693198458E+02  0.57413092390E+02  0.60093148644E+02  0.00000000000E+00 0. -1.
         11    1    3    3    0    0 -0.87316013728E+02  0.52888232936E+02  0.81453890153E+02  0.13059857449E+03  0.00000000000E+00 0.  1.
<mgrwt>
<rscale>  0 0.15014563E+03</rscale>
<asrwt>0</asrwt>
<pdfrwt beam="1">  1        2 0.53944549E-01 0.15725530E+03</pdfrwt>
<pdfrwt beam="2">  1       -2 0.91039353E-02 0.15725530E+03</pdfrwt>
<totfact> 0.68489086E+03</totfact>
</mgrwt>
</event>
<event>
 8    1  0.7550631E-006  0.1320579E+03  0.7546771E-02  0.1241665E+00
         -2   -1    0    0    0  501 -0.00000000000E+00  0.00000000000E+00  0.11583471521E+02  0.11583471521E+02  0.00000000000E+00 0.  1.
          2   -1    0    0  501    0  0.00000000000E+00 -0.00000000000E+00 -0.10938433314E+04  0.10938433314E+04  0.00000000000E+00 0. -1.
         23    2    1    2    0    0  0.27239545753E+01 -0.42491153200E+02 -0.41495172889E+03  0.42517727427E+03  0.82327754856E+02 0.  0.
         23    2    1    2    0    0 -0.27239545753E+01  0.42491153200E+02 -0.66730813101E+03  0.68024952867E+03  0.12500544594E+03 0.  0.
          5    1    4    4  502    0  0.31013229310E+02 -0.28026388400E+02 -0.38464965810E+03  0.38694282306E+03  0.47000000000E+01 0.  1.
         -5    1    4    4    0  502 -0.33737183885E+02  0.70517541600E+02 -0.28265847291E+03  0.29330670561E+03  0.47000000000E+01 0.  1.
        -11    1    3    3    0    0 -0.29248907012E+01 -0.62350435148E+02 -0.37546750739E+03  0.38062052080E+03  0.00000000000E+00 0. -1.
         11    1    3    3    0    0  0.56488452765E+01  0.19859281948E+02 -0.39484221502E+02  0.44556753474E+02  0.00000000000E+00 0.  1.
<mgrwt>
<rscale>  0 0.12087243E+03</rscale>
<asrwt>0</asrwt>
<pdfrwt beam="2">  1        2 0.16828363E+00 0.13205786E+03</pdfrwt>
<pdfrwt beam="1">  1       -2 0.17820721E-02 0.13205786E+03</pdfrwt>
<totfact> 0.20134924E+04</totfact>
</mgrwt>
</event>
<event>
 8    1  0.7550631E-006  0.1605719E+03  0.7546771E-02  0.1196910E+00
         -3   -1    0    0    0  501 -0.00000000000E+00  0.00000000000E+00  0.81436645500E+02  0.81436645500E+02  0.00000000000E+00 0.  1.
          3   -1    0    0  501    0  0.00000000000E+00 -0.00000000000E+00 -0.27646890504E+03  0.27646890504E+03  0.00000000000E+00 0. -1.
         23    2    1    2    0    0 -0.24399150709E+02  0.97794031271E+02 -0.49227139412E+02  0.14101281727E+03  0.85453567932E+02 0.  0.
         23    2    1    2    0    0  0.24399150709E+02 -0.97794031271E+02 -0.14580512013E+03  0.21689273327E+03  0.12499733430E+03 0.  0.
          5    1    4    4  502    0 -0.21208530081E+01  0.24784959786E+02 -0.10925059399E+01  0.25339215029E+02  0.47000000000E+01 0.  1.
         -5    1    4    4    0  502  0.26520003717E+02 -0.12257899106E+03 -0.14471261419E+03  0.19155351824E+03  0.47000000000E+01 0.  1.
        -11    1    3    3    0    0  0.47076983397E+00  0.45875813881E+02  0.20789477803E+02  0.50368783099E+02  0.00000000000E+00 0. -1.
         11    1    3    3    0    0 -0.24869920543E+02  0.51918217390E+02 -0.70016617215E+02  0.90644034172E+02  0.00000000000E+00 0.  1.
<mgrwt>
<rscale>  0 0.15293669E+03</rscale>
<asrwt>0</asrwt>
<pdfrwt beam="2">  1        3 0.42533678E-01 0.16057187E+03</pdfrwt>
<pdfrwt beam="1">  1       -3 0.12528715E-01 0.16057187E+03</pdfrwt>
<totfact> 0.65999663E+02</totfact>
</mgrwt>
</event>
<event>
 8    1  0.7550631E-006  0.1522914E+03  0.7546771E-02  0.1206538E+00
         -1   -1    0    0    0  501 -0.00000000000E+00  0.00000000000E+00  0.21269457796E+03  0.21269457796E+03  0.00000000000E+00 0.  1.
          1   -1    0    0  501    0  0.00000000000E+00 -0.00000000000E+00 -0.10110599771E+03  0.10110599771E+03  0.00000000000E+00 0. -1.
         23    2    1    2    0    0  0.79964042627E+02 -0.34263688826E+02  0.10075175511E+03  0.16112407124E+03  0.90784369189E+02 0.  0.
         23    2    1    2    0    0 -0.79964042627E+02  0.34263688826E+02  0.10836825144E+02  0.15267650444E+03  0.12499771895E+03 0.  0.
          5    1    4    4  502    0 -0.65688040542E+02 -0.32059827369E+02  0.34111501529E+02  0.80798735991E+02  0.47000000000E+01 0. -1.
         -5    1    4    4    0  502 -0.14276002085E+02  0.66323516195E+02 -0.23274676385E+02  0.71877768446E+02  0.47000000000E+01 0. -1.
        -11    1    3    3    0    0  0.75578826487E+02 -0.83724481140E+01  0.10961555022E+03  0.13340849205E+03  0.00000000000E+00 0.  1.
         11    1    3    3    0    0  0.43852161406E+01 -0.25891240712E+02 -0.88637951075E+01  0.27715579191E+02  0.00000000000E+00 0. -1.
<mgrwt>
<rscale>  0 0.14516879E+03</rscale>
<asrwt>0</asrwt>
<pdfrwt beam="2">  1        1 0.15554769E-01 0.15229143E+03</pdfrwt>
<pdfrwt beam="1">  1       -1 0.32722243E-01 0.15229143E+03</pdfrwt>
<totfact> 0.30314188E+03</totfact>
</mgrwt>
</event>
<event>
 8    1  0.7550631E-006  0.1316567E+03  0.7546771E-02  0.1236217E+00
         -1   -1    0    0    0  501 -0.00000000000E+00  0.00000000000E+00  0.82662882497E+02  0.82662882497E+02  0.00000000000E+00 0. -1.
          1   -1    0    0  501    0  0.00000000000E+00 -0.00000000000E+00 -0.17034941846E+03  0.17034941846E+03  0.00000000000E+00 0.  1.
         23    2    1    2    0    0  0.40174641801E+02 -0.97383282073E+01 -0.26355348396E+02  0.10777109254E+03  0.95974825437E+02 0.  0.
         23    2    1    2    0    0 -0.40174641801E+02  0.97383282073E+01 -0.61331187564E+02  0.14524120841E+03  0.12499862869E+03 0.  0.
          5    1    4    4  502    0 -0.64437279264E+02 -0.40061052712E+02 -0.37225272573E+02  0.84645506800E+02  0.47000000000E+01 0. -1.
         -5    1    4    4    0  502  0.24262637462E+02  0.49799380920E+02 -0.24105914991E+02  0.60595701615E+02  0.47000000000E+01 0. -1.
        -11    1    3    3    0    0 -0.11693387253E+02 -0.16015284086E+02  0.26733630619E+02  0.33285306606E+02  0.00000000000E+00 0. -1.
         11    1    3    3    0    0  0.51868029054E+02  0.62769558789E+01 -0.53088979016E+02  0.74485785932E+02  0.00000000000E+00 0.  1.
<mgrwt>
<rscale>  0 0.12426824E+03</rscale>
<asrwt>0</asrwt>
<pdfrwt beam="2">  1        1 0.26207603E-01 0.13165673E+03</pdfrwt>
<pdfrwt beam="1">  1       -1 0.12717367E-01 0.13165673E+03</pdfrwt>
<totfact> 0.71226710E+03</totfact>
</mgrwt>
</event>
<event>
 8    1  0.7550631E-006  0.1250536E+03  0.7546771E-02  0.1250835E+00
         -2   -1    0    0    0  501 -0.00000000000E+00  0.00000000000E+00  0.66843651344E+02  0.66843651344E+02  0.00000000000E+00 0.  1.
          2   -1    0    0  501    0  0.00000000000E+00 -0.00000000000E+00 -0.17849199556E+03  0.17849199556E+03  0.00000000000E+00 0. -1.
         23    2    1    2    0    0 -0.35908900859E+01  0.83537479853E+00 -0.28428432314E+02  0.95122627320E+02  0.90700309381E+02 0.  0.
         23    2    1    2    0    0  0.35908900859E+01 -0.83537479853E+00 -0.83219911905E+02  0.15021301959E+03  0.12499922069E+03 0.  0.
          5    1    4    4  502    0  0.30469188151E+02 -0.23485418762E+02  0.18167427923E+02  0.42802824187E+02  0.47000000000E+01 0.  1.
         -5    1    4    4    0  502 -0.26878298066E+02  0.22650043963E+02 -0.10138733983E+03  0.10741019540E+03  0.47000000000E+01 0.  1.
        -11    1    3    3    0    0 -0.24854595271E+02  0.80326102404E+01  0.25626113046E+02  0.36591958177E+02  0.00000000000E+00 0.  1.
         11    1    3    3    0    0  0.21263705185E+02 -0.71972354419E+01 -0.54054545360E+02  0.58530669143E+02  0.00000000000E+00 0. -1.
<mgrwt>
<rscale>  0 0.11542873E+03</rscale>
<asrwt>0</asrwt>
<pdfrwt beam="2">  1        2 0.27460307E-01 0.12505358E+03</pdfrwt>
<pdfrwt beam="1">  1       -2 0.10283639E-01 0.12505358E+03</pdfrwt>
<totfact> 0.11461290E+04</totfact>
</mgrwt>
</event>
<event>
 7    1  0.7550631E-006  0.1288928E+03  0.7546771E-02  0.1281514E+00
         -1   -1    0    0    0  501 -0.00000000000E+00  0.00000000000E+00  0.14527144057E+02  0.14527144057E+02  0.00000000000E+00 0.  1.
          1   -1    0    0  501    0  0.00000000000E+00 -0.00000000000E+00 -0.93898869692E+03  0.93898869692E+03  0.00000000000E+00 0. -1.
         23    2    1    2    0    0  0.10080345455E+02  0.26434677768E+02 -0.88139959602E+03  0.89077415917E+03  0.12574954961E+03 0.  0.
          5    1    3    3  502    0 -0.48746990406E+02 -0.12476383079E+02 -0.52536204266E+03  0.52778716835E+03  0.47000000000E+01 0. -1.
         -5    1    3    3    0  502  0.58827335862E+02  0.38911060848E+02 -0.35603755336E+03  0.36298699082E+03  0.47000000000E+01 0.  1.
        -11    1    1    2    0    0 -0.17144219877E+02 -0.16954471919E+02 -0.44717413868E+02  0.50803794113E+02  0.00000000000E+00 0. -1.
         11    1    1    2    0    0  0.70638744212E+01 -0.94802058488E+01  0.16554570202E+01  0.11937887699E+02  0.00000000000E+00 0.  1.
<mgrwt>
<rscale>  0 0.99422907E+02</rscale>
<asrwt>0</asrwt>
<pdfrwt beam="2">  1        1 0.14445978E+00 0.12889280E+03</pdfrwt>
<pdfrwt beam="1">  1       -1 0.22349456E-02 0.12889280E+03</pdfrwt>
<totfact> 0.99582065E+03</totfact>
</mgrwt>
</event>
<event>
 8    1  0.7550631E-006  0.2126803E+03  0.7546771E-02  0.1143064E+00
         -2   -1    0    0    0  501 -0.00000000000E+00  0.00000000000E+00  0.14205591219E+03  0.14205591219E+03  0.00000000000E+00 0.  1.
          2   -1    0    0  501    0  0.00000000000E+00 -0.00000000000E+00 -0.40050033288E+03  0.40050033288E+03  0.00000000000E+00 0. -1.
         23    2    1    2    0    0 -0.14932385774E+03 -0.85494332208E+02  0.15633276822E+02  0.19563913921E+03  0.91778963359E+02 0.  0.
         23    2    1    2    0    0  0.14932385774E+03  0.85494332208E+02 -0.27407769752E+03  0.34691710586E+03  0.12500399486E+03 0.  0.
          5    1    4    4  502    0  0.66139761184E+02  0.19350518666E+02 -0.20690322579E+02  0.72104715730E+02  0.47000000000E+01 0. -1.
         -5    1    4    4    0  502  0.83184096559E+02  0.66143813542E+02 -0.25338737494E+03  0.27481239013E+03  0.47000000000E+01 0. -1.
        -11    1    3    3    0    0 -0.11585927167E+03 -0.23452484558E+02 -0.14269624844E+02  0.11906725854E+03  0.00000000000E+00 0. -1.
         11    1    3    3    0    0 -0.33464586076E+02 -0.62041847650E+02  0.29902901666E+02  0.76571880668E+02  0.00000000000E+00 0.  1.
<mgrwt>
<rscale>  0 0.20811892E+03</rscale>
<asrwt>0</asrwt>
<pdfrwt beam="2">  1        2 0.61615435E-01 0.21268026E+03</pdfrwt>
<pdfrwt beam="1">  1       -2 0.21854756E-01 0.21268026E+03</pdfrwt>
<totfact> 0.14302287E+03</totfact>
</mgrwt>
</event>
<event>
 8    1  0.7550631E-006  0.1925822E+03  0.7546771E-02  0.1160678E+00
          2   -1    0    0  501    0  0.00000000000E+00  0.00000000000E+00  0.11163035754E+04  0.11163035754E+04  0.00000000000E+00 0. -1.
         -2   -1    0    0    0  501 -0.00000000000E+00 -0.00000000000E+00 -0.33954369954E+02  0.33954369954E+02  0.00000000000E+00 0.  1.
         23    2    1    2    0    0  0.11053135527E+03 -0.96177785829E+02  0.31935932922E+03  0.36333897290E+03  0.92506654242E+02 0.  0.
         23    2    1    2    0    0 -0.11053135527E+03  0.96177785829E+02  0.76298987624E+03  0.78691897248E+03  0.12498228277E+03 0.  0.
          5    1    4    4  502    0 -0.60365254547E+01 -0.26792182661E+02  0.17347254229E+03  0.17569596928E+03  0.47000000000E+01 0. -1.
         -5    1    4    4    0  502 -0.10449482982E+03  0.12296996849E+03  0.58951733395E+03  0.61122300320E+03  0.47000000000E+01 0. -1.
        -11    1    3    3    0    0  0.77126805155E+02 -0.11074115101E+03  0.27144865384E+03  0.30314438519E+03  0.00000000000E+00 0.  1.
         11    1    3    3    0    0  0.33404550118E+02  0.14563365176E+02  0.47910675379E+02  0.60194587706E+02  0.00000000000E+00 0. -1.
<mgrwt>
<rscale>  0 0.18756303E+03</rscale>
<asrwt>0</asrwt>
<pdfrwt beam="1">  1        2 0.17173898E+00 0.19258224E+03</pdfrwt>
<pdfrwt beam="2">  1       -2 0.52237501E-02 0.19258224E+03</pdfrwt>
<totfact> 0.40569072E+03</totfact>
</mgrwt>
</event>
<event>
 8    1  0.7550631E-006  0.1260816E+03  0.7546771E-02  0.1248348E+00
          2   -1    0    0  501    0  0.00000000000E+00  0.00000000000E+00  0.11927625554E+04  0.11927625554E+04  0.00000000000E+00 0.  1.
         -2   -1    0    0    0  501 -0.00000000000E+00 -0.00000000000E+00 -0.10746210824E+02  0.10746210824E+02  0.00000000000E+00 0. -1.
         23    2    1    2    0    0 -0.14922302507E+02  0.69910591945E+01  0.35807921396E+03  0.36998073701E+03  0.91615895279E+02 0.  0.
         23    2    1    2    0    0  0.14922302507E+02 -0.69910591945E+01  0.82393713063E+03  0.83352802922E+03  0.12500012103E+03 0.  0.
          5    1    4    4  502    0 -0.44936394516E+02 -0.26697468364E+02  0.21464134574E+03  0.22096386960E+03  0.47000000000E+01 0. -1.
         -5    1    4    4    0  502  0.59858697024E+02  0.19706409170E+02  0.60929578489E+03  0.61256415962E+03  0.47000000000E+01 0. -1.
        -11    1    3    3    0    0 -0.34643776914E+02  0.40844720826E+02  0.19078679196E+03  0.19816175838E+03  0.00000000000E+00 0. -1.
         11    1    3    3    0    0  0.19721474407E+02 -0.33853661632E+02  0.16729242200E+03  0.17181897863E+03  0.00000000000E+00 0.  1.
<mgrwt>
<rscale>  0 0.11687190E+03</rscale>
<asrwt>0</asrwt>
<pdfrwt beam="1">  1        2 0.18350183E+00 0.12608164E+03</pdfrwt>
<pdfrwt beam="2">  1       -2 0.16532642E-02 0.12608164E+03</pdfrwt>
<totfact> 0.19676869E+04</totfact>
</mgrwt>
</event>
<event>
 8    1  0.7550631E-006  0.1252039E+03  0.7546771E-02  0.1251392E+00
          2   -1    0    0  501    0  0.00000000000E+00  0.00000000000E+00  0.50402007728E+03  0.50402007728E+03  0.00000000000E+00 0. -1.
         -2   -1    0    0    0  501 -0.00000000000E+00 -0.00000000000E+00 -0.22929878964E+02  0.22929878964E+02  0.00000000000E+00 0.  1.
         23    2    1    2    0    0  0.14106286096E+01 -0.69726441880E+01  0.18567773664E+03  0.20610023332E+03  0.89165445384E+02 0.  0.
         23    2    1    2    0    0 -0.14106286096E+01  0.69726441880E+01  0.29541246167E+03  0.32084972292E+03  0.12500165818E+03 0.  0.
          5    1    4    4  502    0  0.38148653801E+02 -0.20580956077E+02  0.34831812395E+02  0.55805382309E+02  0.47000000000E+01 0. -1.
         -5    1    4    4    0  502 -0.39559282411E+02  0.27553600265E+02  0.26058064928E+03  0.26504434061E+03  0.47000000000E+01 0. -1.
        -11    1    3    3    0    0  0.14316725967E+02  0.32374335271E+02  0.34787443940E+02  0.49630962942E+02  0.00000000000E+00 0.  1.
         11    1    3    3    0    0 -0.12906097357E+02 -0.39346979459E+02  0.15089029270E+03  0.15646927038E+03  0.00000000000E+00 0. -1.
<mgrwt>
<rscale>  0 0.11510841E+03</rscale>
<asrwt>0</asrwt>
<pdfrwt beam="1">  1        2 0.77541542E-01 0.12520392E+03</pdfrwt>
<pdfrwt beam="2">  1       -2 0.35276740E-02 0.12520392E+03</pdfrwt>
<totfact> 0.19158269E+04</totfact>
</mgrwt>
</event>
<event>
 8    1  0.7550631E-006  0.1389145E+03  0.7546771E-02  0.1225365E+00
         -1   -1    0    0    0  501 -0.00000000000E+00  0.00000000000E+00  0.30278777150E+02  0.30278777150E+02  0.00000000000E+00 0.  1.
          1   -1    0    0  501    0  0.00000000000E+00 -0.00000000000E+00 -0.51690101851E+03  0.51690101851E+03  0.00000000000E+00 0. -1.
         23    2    1    2    0    0 -0.14875437798E+02 -0.58733418158E+02 -0.21999050429E+03  0.24653097242E+03  0.93331695177E+02 0.  0.
         23    2    1    2    0    0  0.14875437798E+02  0.58733418158E+02 -0.26663173707E+03  0.30064882324E+03  0.12500535447E+03 0.  0.
          5    1    4    4  502    0 -0.11713316631E+02 -0.40811683789E+01 -0.21388323025E+03  0.21429415275E+03  0.47000000000E+01 0.  1.
         -5    1    4    4    0  502  0.26588754429E+02  0.62814586537E+02 -0.52748506822E+02  0.86354670493E+02  0.47000000000E+01 0.  1.
        -11    1    3    3    0    0  0.84792810011E+01 -0.26203392670E+02 -0.51855361162E+01  0.28025091945E+02  0.00000000000E+00 0.  1.
         11    1    3    3    0    0 -0.23354718799E+02 -0.32530025488E+02 -0.21480496817E+03  0.21850588047E+03  0.00000000000E+00 0. -1.
<mgrwt>
<rscale>  0 0.13141900E+03</rscale>
<asrwt>0</asrwt>
<pdfrwt beam="2">  1        1 0.79523228E-01 0.13891448E+03</pdfrwt>
<pdfrwt beam="1">  1       -1 0.46582737E-02 0.13891448E+03</pdfrwt>
<totfact> 0.80957066E+03</totfact>
</mgrwt>
</event>
<event>
 8    1  0.7550631E-006  0.2083363E+03  0.7546771E-02  0.1146655E+00
          1   -1    0    0  501    0  0.00000000000E+00  0.00000000000E+00  0.50883032404E+03  0.50883032404E+03  0.00000000000E+00 0. -1.
         -1   -1    0    0    0  501 -0.00000000000E+00 -0.00000000000E+00 -0.82323662268E+02  0.82323662268E+02  0.00000000000E+00 0.  1.
         23    2    1    2    0    0 -0.13808039075E+03 -0.93356987588E+02  0.13737928248E+03  0.23478530648E+03  0.92029079321E+02 0.  0.
         23    2    1    2    0    0  0.13808039075E+03  0.93356987588E+02  0.28912737929E+03  0.35636867983E+03  0.12498909179E+03 0.  0.
          5    1    4    4  502    0  0.53289145082E+02  0.25872335601E+02  0.21967071152E+03  0.22756630293E+03  0.47000000000E+01 0. -1.
         -5    1    4    4    0  502  0.84791245669E+02  0.67484651987E+02  0.69456667774E+02  0.12880237690E+03  0.47000000000E+01 0. -1.
        -11    1    3    3    0    0 -0.11463179742E+03 -0.10194192726E+03  0.81790540818E+02  0.17384561565E+03  0.00000000000E+00 0.  1.
         11    1    3    3    0    0 -0.23448593332E+02  0.85849396717E+01  0.55588741664E+02  0.60939690828E+02  0.00000000000E+00 0. -1.
<mgrwt>
<rscale>  0 0.20369893E+03</rscale>
<asrwt>0</asrwt>
<pdfrwt beam="1">  1        1 0.78281587E-01 0.20833625E+03</pdfrwt>
<pdfrwt beam="2">  1       -1 0.12665179E-01 0.20833625E+03</pdfrwt>
<totfact> 0.18443069E+03</totfact>
</mgrwt>
</event>
<event>
 8    1  0.7550631E-006  0.1471815E+03  0.7546771E-02  0.1213282E+00
          1   -1    0    0  501    0  0.00000000000E+00  0.00000000000E+00  0.92836069874E+03  0.92836069874E+03  0.00000000000E+00 0. -1.
         -1   -1    0    0    0  501 -0.00000000000E+00 -0.00000000000E+00 -0.21272711170E+02  0.21272711170E+02  0.00000000000E+00 0.  1.
         23    2    1    2    0    0  0.62180404353E+02 -0.46678171593E+02  0.26916621503E+03  0.29495289612E+03  0.92203607451E+02 0.  0.
         23    2    1    2    0    0 -0.62180404353E+02  0.46678171593E+02  0.63792177254E+03  0.65468051379E+03  0.12496852751E+03 0.  0.
          5    1    4    4  502    0 -0.89110028196E+02  0.12017947740E+02  0.53743544418E+03  0.54492565994E+03  0.47000000000E+01 0. -1.
         -5    1    4    4    0  502  0.26929623843E+02  0.34660223853E+02  0.10048632836E+03  0.10975485385E+03  0.47000000000E+01 0. -1.
        -11    1    3    3    0    0  0.63139149250E+02 -0.15466900789E+02  0.25000157375E+03  0.25831485452E+03  0.00000000000E+00 0.  1.
         11    1    3    3    0    0 -0.95874489713E+00 -0.31211270804E+02  0.19164641283E+02  0.36638041603E+02  0.00000000000E+00 0. -1.
<mgrwt>
<rscale>  0 0.14003470E+03</rscale>
<asrwt>0</asrwt>
<pdfrwt beam="1">  1        1 0.14282469E+00 0.14718148E+03</pdfrwt>
<pdfrwt beam="2">  1       -1 0.32727255E-02 0.14718148E+03</pdfrwt>
<totfact> 0.58683764E+03</totfact>
</mgrwt>
</event>
<event>
 8    1  0.7550631E-006  0.1347220E+03  0.7546771E-02  0.1231984E+00
         -4   -1    0    0    0  501 -0.00000000000E+00  0.00000000000E+00  0.11031830311E+03  0.11031830311E+03  0.00000000000E+00 0.  1.
          4   -1    0    0  501    0  0.00000000000E+00 -0.00000000000E+00 -0.13521372972E+03  0.13521372972E+03  0.00000000000E+00 0. -1.
         23    2    1    2    0    0  0.45772908116E+02 -0.20740837643E+02 -0.30607450188E+02  0.11068897434E+03  0.93754421598E+02 0.  0.
         23    2    1    2    0    0 -0.45772908116E+02  0.20740837643E+02  0.57120235756E+01  0.13484305849E+03  0.12499872698E+03 0.  0.
          5    1    4    4  502    0 -0.21846642612E+02  0.51507321435E+02 -0.44118785888E+02  0.71406142755E+02  0.47000000000E+01 0.  1.
         -5    1    4    4    0  502 -0.23926265505E+02 -0.30766483792E+02  0.49830809464E+02  0.63436915733E+02  0.47000000000E+01 0.  1.
        -11    1    3    3    0    0 -0.17919957497E+02  0.71709215596E+01  0.17561649966E+02  0.26095182357E+02  0.00000000000E+00 0.  1.
         11    1    3    3    0    0  0.63692865613E+02 -0.27911759202E+02 -0.48169100154E+02  0.84593791979E+02  0.00000000000E+00 0. -1.
<mgrwt>
<rscale>  0 0.12699508E+03</rscale>
<asrwt>0</asrwt>
<pdfrwt beam="2">  1        4 0.20802112E-01 0.13472202E+03</pdfrwt>
<pdfrwt beam="1">  1       -4 0.16972047E-01 0.13472202E+03</pdfrwt>
<totfact> 0.10486254E+03</totfact>
</mgrwt>
</event>
<event>
 8    1  0.7550631E-006  0.1789858E+03  0.7546771E-02  0.1174288E+00
         -3   -1    0    0    0  501 -0.00000000000E+00  0.00000000000E+00  0.20277242394E+03  0.20277242394E+03  0.00000000000E+00 0.  1.
          3   -1    0    0  501    0  0.00000000000E+00 -0.00000000000E+00 -0.14073212378E+03  0.14073212378E+03  0.00000000000E+00 0. -1.
         23    2    1    2    0    0  0.12729133812E+03 -0.14454540626E+02  0.42192341204E+02  0.16342162517E+03  0.92273589999E+02 0.  0.
         23    2    1    2    0    0 -0.12729133812E+03  0.14454540626E+02  0.19847958957E+02  0.18008292255E+03  0.12499559597E+03 0.  0.
          5    1    4    4  502    0 -0.25933702272E+02  0.60523757305E+02  0.18816599873E+02  0.68642818580E+02  0.47000000000E+01 0. -1.
         -5    1    4    4    0  502 -0.10135763585E+03 -0.46069216679E+02  0.10313590838E+01  0.11144010397E+03  0.47000000000E+01 0. -1.
        -11    1    3    3    0    0  0.48881679395E+02 -0.11905092944E+02  0.64556088919E+02  0.81845210214E+02  0.00000000000E+00 0.  1.
         11    1    3    3    0    0  0.78409658728E+02 -0.25494476823E+01 -0.22363747715E+02  0.81576414956E+02  0.00000000000E+00 0. -1.
<mgrwt>
<rscale>  0 0.17345885E+03</rscale>
<asrwt>0</asrwt>
<pdfrwt beam="2">  1        3 0.21651096E-01 0.17898580E+03</pdfrwt>
<pdfrwt beam="1">  1       -3 0.31195757E-01 0.17898580E+03</pdfrwt>
<totfact> 0.46816385E+02</totfact>
</mgrwt>
</event>
<event>
 8    1  0.7550631E-006  0.1321948E+03  0.7546771E-02  0.1238277E+00
         -2   -1    0    0    0  501 -0.00000000000E+00  0.00000000000E+00  0.19596343712E+02  0.19596343712E+02  0.00000000000E+00 0.  1.
          2   -1    0    0  501    0  0.00000000000E+00 -0.00000000000E+00 -0.10049177605E+04  0.10049177605E+04  0.00000000000E+00 0. -1.
         23    2    1    2    0    0  0.41420456977E+02  0.13533123552E+02 -0.15620119957E+03  0.18492146239E+03  0.88872565023E+02 0.  0.
         23    2    1    2    0    0 -0.41420456977E+02 -0.13533123552E+02 -0.82912021721E+03  0.83959264182E+03  0.12480652998E+03 0.  0.
          5    1    4    4  502    0 -0.43553633471E+02  0.32600712315E+02 -0.70439889803E+03  0.70651229499E+03  0.47000000000E+01 0. -1.
         -5    1    4    4    0  502  0.21331764945E+01 -0.46133835868E+02 -0.12472131919E+03  0.13308034683E+03  0.47000000000E+01 0.  1.
        -11    1    3    3    0    0 -0.25009998168E+02 -0.11978541037E+02 -0.47388252994E+02  0.54905664330E+02  0.00000000000E+00 0. -1.
         11    1    3    3    0    0  0.66430455145E+02  0.25511664589E+02 -0.10881294658E+03  0.13001579806E+03  0.00000000000E+00 0.  1.
<mgrwt>
<rscale>  0 0.12296972E+03</rscale>
<asrwt>0</asrwt>
<pdfrwt beam="2">  1        2 0.15460277E+00 0.13219482E+03</pdfrwt>
<pdfrwt beam="1">  1       -2 0.30148214E-02 0.13219482E+03</pdfrwt>
<totfact> 0.10548302E+04</totfact>
</mgrwt>
</event>
<event>
 8    1  0.7550631E-006  0.1339092E+03  0.7546771E-02  0.1234337E+00
          1   -1    0    0  501    0  0.00000000000E+00  0.00000000000E+00  0.27987910043E+03  0.27987910043E+03  0.00000000000E+00 0. -1.
         -1   -1    0    0    0  501 -0.00000000000E+00 -0.00000000000E+00 -0.87434808924E+02  0.87434808924E+02  0.00000000000E+00 0.  1.
         23    2    1    2    0    0  0.39785535659E+02  0.26896270115E+02 -0.30168656125E+02  0.10752902583E+03  0.91356693182E+02 0.  0.
         23    2    1    2    0    0 -0.39785535659E+02 -0.26896270115E+02  0.22261294763E+03  0.25978488353E+03  0.12500145224E+03 0.  0.
          5    1    4    4  502    0  0.36975200768E+02 -0.38069425884E+02  0.11796126768E+03  0.12943491543E+03  0.47000000000E+01 0.  1.
         -5    1    4    4    0  502 -0.76760736428E+02  0.11173155769E+02  0.10465167995E+03  0.13034996810E+03  0.47000000000E+01 0.  1.
        -11    1    3    3    0    0  0.18071543783E+02  0.59849390701E+02 -0.10353673674E+02  0.63369778447E+02  0.00000000000E+00 0. -1.
         11    1    3    3    0    0  0.21713991876E+02 -0.32953120586E+02 -0.19814982452E+02  0.44159247380E+02  0.00000000000E+00 0.  1.
<mgrwt>
<rscale>  0 0.12546955E+03</rscale>
<asrwt>0</asrwt>
<pdfrwt beam="1">  1        1 0.43058323E-01 0.13390915E+03</pdfrwt>
<pdfrwt beam="2">  1       -1 0.13451509E-01 0.13390915E+03</pdfrwt>
<totfact> 0.35310401E+03</totfact>
</mgrwt>
</event>
<event>
 8    1  0.7550631E-006  0.1291115E+03  0.7546771E-02  0.1243800E+00
          3   -1    0    0  501    0  0.00000000000E+00  0.00000000000E+00  0.45420736395E+03  0.45420736395E+03  0.00000000000E+00 0. -1.
         -3   -1    0    0    0  501 -0.00000000000E+00 -0.00000000000E+00 -0.31756933700E+02  0.31756933700E+02  0.00000000000E+00 0.  1.
         23    2    1    2    0    0  0.23442552217E+02 -0.22341462267E+02  0.96648184701E+02  0.13551188836E+03  0.89296730575E+02 0.  0.
         23    2    1    2    0    0 -0.23442552217E+02  0.22341462267E+02  0.32580224555E+03  0.35045240928E+03  0.12498437414E+03 0.  0.
          5    1    4    4  502    0  0.27524443647E+02 -0.30694602259E+02  0.20325631590E+03  0.20744872513E+03  0.47000000000E+01 0.  1.
         -5    1    4    4    0  502 -0.50966995864E+02  0.53036064526E+02  0.12254592965E+03  0.14300368415E+03  0.47000000000E+01 0.  1.
        -11    1    3    3    0    0  0.48804565766E+02 -0.40486776408E+02  0.70427847704E+02  0.94768910703E+02  0.00000000000E+00 0. -1.
         11    1    3    3    0    0 -0.25362013549E+02  0.18145314141E+02  0.26220336997E+02  0.40742977662E+02  0.00000000000E+00 0.  1.
<mgrwt>
<rscale>  0 0.11957496E+03</rscale>
<asrwt>0</asrwt>
<pdfrwt beam="1">  1        3 0.69878051E-01 0.12911153E+03</pdfrwt>
<pdfrwt beam="2">  1       -3 0.48856824E-02 0.12911153E+03</pdfrwt>
<totfact> 0.10814209E+03</totfact>
</mgrwt>
</event>
<event>
 8    1  0.7550631E-006  0.1344584E+03  0.7546771E-02  0.1231994E+00
          1   -1    0    0  501    0  0.00000000000E+00  0.00000000000E+00  0.10385452041E+04  0.10385452041E+04  0.00000000000E+00 0. -1.
         -1   -1    0    0    0  501 -0.00000000000E+00 -0.00000000000E+00 -0.22566478440E+02  0.22566478440E+02  0.00000000000E+00 0.  1.
         23    2    1    2    0    0 -0.49058246289E+02 -0.69467892523E+01  0.14707713320E+03  0.18186823423E+03  0.94812457513E+02 0.  0.
         23    2    1    2    0    0  0.49058246289E+02  0.69467892523E+01  0.86890159245E+03  0.87924344831E+03  0.12499637842E+03 0.  0.
          5    1    4    4  502    0 -0.22178798816E+02  0.27589052568E+01  0.61604650671E+03  0.61646970656E+03  0.47000000000E+01 0. -1.
         -5    1    4    4    0  502  0.71237045105E+02  0.41878839954E+01  0.25285508574E+03  0.26277374175E+03  0.47000000000E+01 0. -1.
        -11    1    3    3    0    0 -0.22378043140E+02  0.38264473478E+02  0.29900698911E+02  0.53469603895E+02  0.00000000000E+00 0.  1.
         11    1    3    3    0    0 -0.26680203149E+02 -0.45211262730E+02  0.11717643429E+03  0.12839863033E+03  0.00000000000E+00 0. -1.
<mgrwt>
<rscale>  0 0.12698867E+03</rscale>
<asrwt>0</asrwt>
<pdfrwt beam="1">  1        1 0.15977615E+00 0.13445841E+03</pdfrwt>
<pdfrwt beam="2">  1       -1 0.34717667E-02 0.13445841E+03</pdfrwt>
<totfact> 0.44470767E+03</totfact>
</mgrwt>
</event>
<event>
 8    1  0.7550631E-006  0.1359671E+03  0.7546771E-02  0.1232566E+00
         -1   -1    0    0    0  501 -0.00000000000E+00  0.00000000000E+00  0.13895155099E+03  0.13895155099E+03  0.00000000000E+00 0.  1.
          1   -1    0    0  501    0  0.00000000000E+00 -0.00000000000E+00 -0.10414506493E+03  0.10414506493E+03  0.00000000000E+00 0. -1.
         23    2    1    2    0    0  0.41246448336E+02  0.34066941143E+02  0.31874275801E+02  0.10709787836E+03  0.87133002430E+02 0.  0.
         23    2    1    2    0    0 -0.41246448336E+02 -0.34066941143E+02  0.29322102598E+01  0.13599873756E+03  0.12500093112E+03 0.  0.
          5    1    4    4  502    0  0.41273321763E+02  0.17188523566E+01 -0.14933094626E+02  0.44176111847E+02  0.47000000000E+01 0. -1.
         -5    1    4    4    0  502 -0.82519770099E+02 -0.35785793500E+02  0.17865304886E+02  0.91822625710E+02  0.47000000000E+01 0. -1.
        -11    1    3    3    0    0  0.55774012829E+02  0.25887374812E+02  0.52306314671E+02  0.80726991993E+02  0.00000000000E+00 0.  1.
         11    1    3    3    0    0 -0.14527564493E+02  0.81795663313E+01 -0.20432038870E+02  0.26370886369E+02  0.00000000000E+00 0. -1.
<mgrwt>
<rscale>  0 0.12661515E+03</rscale>
<asrwt>0</asrwt>
<pdfrwt beam="2">  1        1 0.16022318E-01 0.13596712E+03</pdfrwt>
<pdfrwt beam="1">  1       -1 0.21377162E-01 0.13596712E+03</pdfrwt>
<totfact> 0.58697180E+03</totfact>
</mgrwt>
</event>
<event>
 8    1  0.7550631E-006  0.2900370E+03  0.7546771E-02  0.1092135E+00
         -2   -1    0    0    0  501 -0.00000000000E+00  0.00000000000E+00  0.13745546013E+03  0.13745546013E+03  0.00000000000E+00 0.  1.
          2   -1    0    0  501    0  0.00000000000E+00 -0.00000000000E+00 -0.73671017313E+03  0.73671017313E+03  0.00000000000E+00 0. -1.
         23    2    1    2    0    0  0.61533446210E+02 -0.25437721105E+03 -0.94939664898E+02  0.29239667957E+03  0.89376438465E+02 0.  0.
         23    2    1    2    0    0 -0.61533446210E+02  0.25437721105E+03 -0.50431504809E+03  0.58176895369E+03  0.12500926861E+03 0.  0.
          5    1    4    4  502    0 -0.46860108190E+02  0.24074570026E+02 -0.14856703318E+03  0.15770132533E+03  0.47000000000E+01 0.  1.
         -5    1    4    4    0  502 -0.14673338020E+02  0.23030264102E+03 -0.35574801491E+03  0.42406762836E+03  0.47000000000E+01 0.  1.
        -11    1    3    3    0    0  0.38619469204E+02 -0.16942844054E+03 -0.10625828905E+03  0.20368672970E+03  0.00000000000E+00 0. -1.
         11    1    3    3    0    0  0.22913977006E+02 -0.84948770508E+02  0.11318624157E+02  0.88709949869E+02  0.00000000000E+00 0.  1.
<mgrwt>
<rscale>  0 0.28660590E+03</rscale>
<asrwt>0</asrwt>
<pdfrwt beam="2">  1        2 0.11334003E+00 0.29003698E+03</pdfrwt>
<pdfrwt beam="1">  1       -2 0.21146993E-01 0.29003698E+03</pdfrwt>
<totfact> 0.75352324E+02</totfact>
</mgrwt>
</event>
<event>
 8    1  0.7550631E-006  0.1330270E+03  0.7546771E-02  0.1235902E+00
         -2   -1    0    0    0  501 -0.00000000000E+00  0.00000000000E+00  0.11464629633E+02  0.11464629633E+02  0.00000000000E+00 0. -1.
          2   -1    0    0  501    0  0.00000000000E+00 -0.00000000000E+00 -0.15323933209E+04  0.15323933209E+04  0.00000000000E+00 0.  1.
         23    2    1    2    0    0  0.41653342579E+02  0.18301953411E+02 -0.32661932696E+03  0.34216288245E+03  0.91243032241E+02 0.  0.
         23    2    1    2    0    0 -0.41653342579E+02 -0.18301953411E+02 -0.11943093643E+04  0.12016950681E+04  0.12500486611E+03 0.  0.
          5    1    4    4  502    0  0.39184855935E+02  0.11224436651E+01 -0.63439237337E+03  0.63561976543E+03  0.47000000000E+01 0. -1.
         -5    1    4    4    0  502 -0.80838198514E+02 -0.19424397076E+02 -0.55991699092E+03  0.56607530264E+03  0.47000000000E+01 0. -1.
        -11    1    3    3    0    0  0.56823040829E+02 -0.15769950236E+02 -0.25115474711E+03  0.25798499239E+03  0.00000000000E+00 0.  1.
         11    1    3    3    0    0 -0.15169698250E+02  0.34071903647E+02 -0.75464579849E+02  0.84177890060E+02  0.00000000000E+00 0. -1.
<mgrwt>
<rscale>  0 0.12446843E+03</rscale>
<asrwt>0</asrwt>
<pdfrwt beam="2">  1        2 0.23575302E+00 0.13302699E+03</pdfrwt>
<pdfrwt beam="1">  1       -2 0.17637877E-02 0.13302699E+03</pdfrwt>
<totfact> 0.11854054E+04</totfact>
</mgrwt>
</event>
<event>
 7    1  0.7550631E-006  0.1454386E+03  0.7546771E-02  0.1217052E+00
          2   -1    0    0  501    0  0.00000000000E+00  0.00000000000E+00  0.51323978291E+02  0.51323978291E+02  0.00000000000E+00 0. -1.
         -2   -1    0    0    0  501 -0.00000000000E+00 -0.00000000000E+00 -0.33961182428E+03  0.33961182428E+03  0.00000000000E+00 0.  1.
         23    2    1    2    0    0 -0.42707287672E+02  0.54669120460E+02 -0.15808344454E+03  0.19572930875E+03  0.92233192034E+02 0.  0.
          5    1    1    2  502    0 -0.65582097157E+01  0.24272899145E+02 -0.90292808525E+02  0.93845964319E+02  0.47000000000E+01 0. -1.
         -5    1    1    2    0  502  0.49265497388E+02 -0.78942019604E+02 -0.39911592926E+02  0.10136052951E+03  0.47000000000E+01 0. -1.
        -11    1    3    3    0    0 -0.28785399065E+02  0.10106865660E+02 -0.14366298681E+03  0.14686661197E+03  0.00000000000E+00 0.  1.
         11    1    3    3    0    0 -0.13921888607E+02  0.44562254800E+02 -0.14420457734E+02  0.48862696779E+02  0.00000000000E+00 0. -1.
<mgrwt>
<rscale>  0 0.13726858E+03</rscale>
<asrwt>0</asrwt>
<pdfrwt beam="1">  1        2 0.78959966E-02 0.14543861E+03</pdfrwt>
<pdfrwt beam="2">  1       -2 0.52247973E-01 0.14543861E+03</pdfrwt>
<totfact> 0.29264470E+03</totfact>
</mgrwt>
</event>
<event>
 8    1  0.7550631E-006  0.1283631E+03  0.7546771E-02  0.1242043E+00
          1   -1    0    0  501    0  0.00000000000E+00  0.00000000000E+00  0.34716049085E+03  0.34716049085E+03  0.00000000000E+00 0. -1.
         -1   -1    0    0    0  501 -0.00000000000E+00 -0.00000000000E+00 -0.37869542154E+02  0.37869542154E+02  0.00000000000E+00 0.  1.
         23    2    1    2    0    0 -0.25813281153E+02  0.13623620651E+02  0.11970342283E+03  0.15607476528E+03  0.95804459169E+02 0.  0.
         23    2    1    2    0    0  0.25813281153E+02 -0.13623620651E+02  0.18958752587E+03  0.22895526772E+03  0.12500062452E+03 0.  0.
          5    1    4    4  502    0  0.53839852360E+02  0.24887556307E+02  0.16447413879E+03  0.17490555307E+03  0.47000000000E+01 0. -1.
         -5    1    4    4    0  502 -0.28026571206E+02 -0.38511176958E+02  0.25113387073E+02  0.54049714658E+02  0.47000000000E+01 0. -1.
        -11    1    3    3    0    0  0.38096189604E+01  0.48438713616E+02  0.35197408634E+02  0.59997331173E+02  0.00000000000E+00 0.  1.
         11    1    3    3    0    0 -0.29622900114E+02 -0.34815092965E+02  0.84506014193E+02  0.96077434105E+02  0.00000000000E+00 0. -1.
<mgrwt>
<rscale>  0 0.12064103E+03</rscale>
<asrwt>0</asrwt>
<pdfrwt beam="1">  1        1 0.53409304E-01 0.12836310E+03</pdfrwt>
<pdfrwt beam="2">  1       -1 0.58260836E-02 0.12836310E+03</pdfrwt>
<totfact> 0.95928562E+03</totfact>
</mgrwt>
</event>
<event>
 8    1  0.7550631E-006  0.1441551E+03  0.7546771E-02  0.1217756E+00
          2   -1    0    0  501    0  0.00000000000E+00  0.00000000000E+00  0.55286733197E+03  0.55286733197E+03  0.00000000000E+00 0. -1.
         -2   -1    0    0    0  501 -0.00000000000E+00 -0.00000000000E+00 -0.12452497362E+03  0.12452497362E+03  0.00000000000E+00 0.  1.
         23    2    1    2    0    0 -0.64649826257E+02  0.31207452753E+02 -0.84844404310E+02  0.14434320112E+03  0.92102560364E+02 0.  0.
         23    2    1    2    0    0  0.64649826257E+02 -0.31207452753E+02  0.51318676266E+03  0.53304910447E+03  0.12500875675E+03 0.  0.
          5    1    4    4  502    0  0.82737339283E+02  0.16657085316E+01  0.46218359956E+03  0.46955725061E+03  0.47000000000E+01 0.  1.
         -5    1    4    4    0  502 -0.18087513026E+02 -0.32873161285E+02  0.51003163093E+02  0.63491853854E+02  0.47000000000E+01 0.  1.
        -11    1    3    3    0    0 -0.12235051116E+02  0.70838141376E+01  0.20105047792E+02  0.24578239263E+02  0.00000000000E+00 0. -1.
         11    1    3    3    0    0 -0.52414775142E+02  0.24123638615E+02 -0.10494945210E+03  0.11976496186E+03  0.00000000000E+00 0.  1.
<mgrwt>
<rscale>  0 0.13676027E+03</rscale>
<asrwt>0</asrwt>
<pdfrwt beam="1">  1        2 0.85056511E-01 0.14415511E+03</pdfrwt>
<pdfrwt beam="2">  1       -2 0.19157689E-01 0.14415511E+03</pdfrwt>
<totfact> 0.12479202E+03</totfact>
</mgrwt>
</event>
<event>
 8    1  0.7550631E-006  0.1202080E+03  0.7546771E-02  0.1251831E+00
          2   -1    0    0  501    0  0.00000000000E+00  0.00000000000E+00  0.18709131768E+04  0.18709131768E+04  0.00000000000E+00 0. -1.
         -2   -1    0    0    0  501 -0.00000000000E+00 -0.00000000000E+00 -0.10954460494E+02  0.10954460494E+02  0.00000000000E+00 0.  1.
         23    2    1    2    0    0  0.38161494791E+02 -0.15306695227E+02  0.28077650926E+03  0.29811689649E+03  0.91365426803E+02 0.  0.
         23    2    1    2    0    0 -0.38161494791E+02  0.15306695227E+02  0.15791822071E+04  0.15837507408E+04  0.11295738733E+03 0.  0.
          5    1    4    4  502    0 -0.41947080181E+02 -0.33167340274E+02  0.12297054641E+04  0.12308766179E+04  0.47000000000E+01 0. -1.
         -5    1    4    4    0  502  0.37855853898E+01  0.48474035501E+02  0.34947674298E+03  0.35287412297E+03  0.47000000000E+01 0.  1.
        -11    1    3    3    0    0  0.85926750444E+01  0.21674182660E+02  0.14052294979E+02  0.27222623911E+02  0.00000000000E+00 0. -1.
         11    1    3    3    0    0  0.29568819747E+02 -0.36980877887E+02  0.26672421428E+03  0.27089427258E+03  0.00000000000E+00 0.  1.
<mgrwt>
<rscale>  0 0.11485694E+03</rscale>
<asrwt>0</asrwt>
<pdfrwt beam="1">  1        2 0.28783254E+00 0.12020801E+03</pdfrwt>
<pdfrwt beam="2">  1       -2 0.16853031E-02 0.12020801E+03</pdfrwt>
<totfact> 0.84635312E+03</totfact>
</mgrwt>
</event>
<event>
 8    1  0.7550631E-006  0.1488680E+03  0.7546771E-02  0.1210891E+00
         -1   -1    0    0    0  501 -0.00000000000E+00  0.00000000000E+00  0.10464549330E+03  0.10464549330E+03  0.00000000000E+00 0.  1.
          1   -1    0    0  501    0  0.00000000000E+00 -0.00000000000E+00 -0.22597512892E+03  0.22597512892E+03  0.00000000000E+00 0. -1.
         23    2    1    2    0    0 -0.58372255930E+02  0.55939611822E+02  0.21271264527E+02  0.12447336289E+03  0.92220339088E+02 0.  0.
         23    2    1    2    0    0  0.58372255930E+02 -0.55939611822E+02 -0.14260090015E+03  0.20614725933E+03  0.12500046149E+03 0.  0.
          5    1    4    4  502    0 -0.22880025055E+02  0.15209427266E+02 -0.71545121171E+02  0.76782918593E+02  0.47000000000E+01 0.  1.
         -5    1    4    4    0  502  0.81252280985E+02 -0.71149039088E+02 -0.71055778981E+02  0.12936434074E+03  0.47000000000E+01 0.  1.
        -11    1    3    3    0    0 -0.70533797414E+02  0.69903860455E+02  0.30363897668E+02  0.10384378925E+03  0.00000000000E+00 0.  1.
         11    1    3    3    0    0  0.12161541484E+02 -0.13964248633E+02 -0.90926331409E+01  0.20629573640E+02  0.00000000000E+00 0. -1.
<mgrwt>
<rscale>  0 0.14182772E+03</rscale>
<asrwt>0</asrwt>
<pdfrwt beam="2">  1        1 0.34765404E-01 0.14886798E+03</pdfrwt>
<pdfrwt beam="1">  1       -1 0.16099307E-01 0.14886798E+03</pdfrwt>
<totfact> 0.34906402E+03</totfact>
</mgrwt>
</event>
<event>
 8    1  0.7550631E-006  0.1334736E+03  0.7546771E-02  0.1244587E+00
         -2   -1    0    0    0  501 -0.00000000000E+00  0.00000000000E+00  0.27659460258E+02  0.27659460258E+02  0.00000000000E+00 0.  1.
          2   -1    0    0  501    0  0.00000000000E+00 -0.00000000000E+00 -0.56404792831E+03  0.56404792831E+03  0.00000000000E+00 0. -1.
         23    2    1    2    0    0  0.40183215320E+02  0.23930519806E+02 -0.80920157639E+02  0.11708480637E+03  0.70522474427E+02 0.  0.
         23    2    1    2    0    0 -0.40183215320E+02 -0.23930519806E+02 -0.45546831041E+03  0.47462258220E+03  0.12501141215E+03 0.  0.
          5    1    4    4  502    0 -0.51900456960E+02 -0.38474624546E+02 -0.10331314589E+03  0.12194117549E+03  0.47000000000E+01 0. -1.
         -5    1    4    4    0  502  0.11717241640E+02  0.14544104740E+02 -0.35215516453E+03  0.35268140671E+03  0.47000000000E+01 0. -1.
        -11    1    3    3    0    0  0.15550839243E+02  0.33482714058E+02 -0.82739959159E+02  0.90602547334E+02  0.00000000000E+00 0. -1.
         11    1    3    3    0    0  0.24632376077E+02 -0.95521942519E+01  0.18198015193E+01  0.26482259039E+02  0.00000000000E+00 0.  1.
<mgrwt>
<rscale>  0 0.11910135E+03</rscale>
<asrwt>0</asrwt>
<pdfrwt beam="2">  1        2 0.86776602E-01 0.13347364E+03</pdfrwt>
<pdfrwt beam="1">  1       -2 0.42553017E-02 0.13347364E+03</pdfrwt>
<totfact> 0.12875121E+04</totfact>
</mgrwt>
</event>
<event>
 8    1  0.7550631E-006  0.5926359E+03  0.7546771E-02  0.9923102E-01
         -2   -1    0    0    0  501 -0.00000000000E+00  0.00000000000E+00  0.29988135481E+03  0.29988135481E+03  0.00000000000E+00 0.  1.
          2   -1    0    0  501    0  0.00000000000E+00 -0.00000000000E+00 -0.11782339586E+04  0.11782339586E+04  0.00000000000E+00 0. -1.
         23    2    1    2    0    0 -0.33492276524E+03 -0.47484790625E+03 -0.35248706355E+03  0.68580735821E+03  0.91819441570E+02 0.  0.
         23    2    1    2    0    0  0.33492276524E+03  0.47484790625E+03 -0.52586554023E+03  0.79230795519E+03  0.11646259788E+03 0.  0.
          5    1    4    4  502    0  0.52123952211E+02  0.14807410373E+03 -0.10400236179E+03  0.18836514499E+03  0.47000000000E+01 0. -1.
         -5    1    4    4    0  502  0.28279881303E+03  0.32677380252E+03 -0.42186317844E+03  0.60394281020E+03  0.47000000000E+01 0. -1.
        -11    1    3    3    0    0 -0.29560167370E+03 -0.39998036722E+03 -0.33441845210E+03  0.59933325017E+03  0.00000000000E+00 0.  1.
         11    1    3    3    0    0 -0.39321091544E+02 -0.74867539032E+02 -0.18068611451E+02  0.86474108036E+02  0.00000000000E+00 0. -1.
<mgrwt>
<rscale>  0 0.59154633E+03</rscale>
<asrwt>0</asrwt>
<pdfrwt beam="2">  1        2 0.18126676E+00 0.59263592E+03</pdfrwt>
<pdfrwt beam="1">  1       -2 0.46135594E-01 0.59263592E+03</pdfrwt>
<totfact> 0.89590383E+01</totfact>
</mgrwt>
</event>
<event>
 8    1  0.7550631E-006  0.1355186E+03  0.7546771E-02  0.1231940E+00
          2   -1    0    0  501    0  0.00000000000E+00  0.00000000000E+00  0.50205369410E+03  0.50205369410E+03  0.00000000000E+00 0. -1.
         -2   -1    0    0    0  501 -0.00000000000E+00 -0.00000000000E+00 -0.28766311334E+02  0.28766311334E+02  0.00000000000E+00 0.  1.
         23    2    1    2    0    0  0.33156931417E+02 -0.40457726496E+02  0.19471385288E+03  0.22103218281E+03  0.90584389376E+02 0.  0.
         23    2    1    2    0    0 -0.33156931417E+02  0.40457726496E+02  0.27857352988E+03  0.30978782262E+03  0.12501629398E+03 0.  0.
          5    1    4    4  502    0 -0.20600161442E+02  0.76602970112E+02  0.10331798430E+03  0.13034215573E+03  0.47000000000E+01 0.  1.
         -5    1    4    4    0  502 -0.12556769975E+02 -0.36145243616E+02  0.17525554559E+03  0.17944566689E+03  0.47000000000E+01 0.  1.
        -11    1    3    3    0    0  0.38571774243E+02 -0.19882085096E+02  0.19498379787E+03  0.19975425029E+03  0.00000000000E+00 0. -1.
         11    1    3    3    0    0 -0.54148428259E+01 -0.20575641400E+02 -0.26994499365E+00  0.21277932516E+02  0.00000000000E+00 0.  1.
<mgrwt>
<rscale>  0 0.12702375E+03</rscale>
<asrwt>0</asrwt>
<pdfrwt beam="1">  1        2 0.77239023E-01 0.13551857E+03</pdfrwt>
<pdfrwt beam="2">  1       -2 0.44255867E-02 0.13551857E+03</pdfrwt>
<totfact> 0.13833670E+04</totfact>
</mgrwt>
</event>
<event>
 7    1  0.7550631E-006  0.1371625E+03  0.7546771E-02  0.1232186E+00
          1   -1    0    0  501    0  0.00000000000E+00  0.00000000000E+00  0.23440278033E+03  0.23440278033E+03  0.00000000000E+00 0. -1.
         -1   -1    0    0    0  501 -0.00000000000E+00 -0.00000000000E+00 -0.10993437762E+03  0.10993437762E+03  0.00000000000E+00 0.  1.
         23    2    1    2    0    0  0.42423102685E+02  0.94393218215E+00 -0.58103990956E+02  0.11598166824E+03  0.90967373010E+02 0.  0.
          5    1    1    2  502    0 -0.38903760657E+02  0.42405806489E+02  0.17458693502E+03  0.18388703841E+03  0.47000000000E+01 0. -1.
         -5    1    1    2    0  502 -0.35193420285E+01 -0.43349738671E+02  0.79854586397E+01  0.44468451298E+02  0.47000000000E+01 0.  1.
        -11    1    3    3    0    0  0.56892900890E+02 -0.14839790465E+02 -0.70055653039E+02  0.91459368440E+02  0.00000000000E+00 0.  1.
         11    1    3    3    0    0 -0.14469798205E+02  0.15783722647E+02  0.11951662083E+02  0.24522299795E+02  0.00000000000E+00 0. -1.
<mgrwt>
<rscale>  0 0.12686324E+03</rscale>
<asrwt>0</asrwt>
<pdfrwt beam="1">  1        1 0.36061966E-01 0.13716250E+03</pdfrwt>
<pdfrwt beam="2">  1       -1 0.16912981E-01 0.13716250E+03</pdfrwt>
<totfact> 0.30737176E+03</totfact>
</mgrwt>
</event>
<event>
 7    1  0.7550631E-006  0.1499826E+03  0.7546771E-02  0.1223218E+00
          1   -1    0    0  501    0  0.00000000000E+00  0.00000000000E+00  0.19333717145E+04  0.19333717145E+04  0.00000000000E+00 0. -1.
         -1   -1    0    0    0  501 -0.00000000000E+00 -0.00000000000E+00 -0.91204008279E+01  0.91204008279E+01  0.00000000000E+00 0.  1.
         23    2    1    2    0    0  0.29287373363E+01  0.96055424014E+01  0.38479933468E+03  0.39575128910E+03  0.91911429669E+02 0.  0.
          5    1    1    2  502    0 -0.50549603298E+02  0.15251605768E+02  0.22410397428E+03  0.23028798310E+03  0.47000000000E+01 0. -1.
         -5    1    1    2    0  502  0.47620865962E+02 -0.24857148169E+02  0.13153480047E+04  0.13164528431E+04  0.47000000000E+01 0.  1.
        -11    1    3    3    0    0 -0.29649147158E+01  0.49418983266E+02  0.16384720533E+03  0.17116346958E+03  0.00000000000E+00 0.  1.
         11    1    3    3    0    0  0.58936520521E+01 -0.39813440864E+02  0.22095212935E+03  0.22458781951E+03  0.00000000000E+00 0. -1.
<mgrwt>
<rscale>  0 0.13289765E+03</rscale>
<asrwt>0</asrwt>
<pdfrwt beam="1">  1        1 0.29744148E+00 0.14998263E+03</pdfrwt>
<pdfrwt beam="2">  1       -1 0.14031401E-02 0.14998263E+03</pdfrwt>
<totfact> 0.42549466E+03</totfact>
</mgrwt>
</event>
<event>
 8    1  0.7550631E-006  0.1291676E+03  0.7546771E-02  0.1243056E+00
          1   -1    0    0  501    0  0.00000000000E+00  0.00000000000E+00  0.40381581665E+03  0.40381581665E+03  0.00000000000E+00 0. -1.
         -1   -1    0    0    0  501 -0.00000000000E+00 -0.00000000000E+00 -0.31634744963E+02  0.31634744963E+02  0.00000000000E+00 0.  1.
         23    2    1    2    0    0 -0.11437369692E+02  0.30455456061E+02  0.14364500348E+03  0.17293768770E+03  0.90637787785E+02 0.  0.
         23    2    1    2    0    0  0.11437369692E+02 -0.30455456061E+02  0.22853606821E+03  0.26251287391E+03  0.12500370501E+03 0.  0.
          5    1    4    4  502    0  0.13432577962E+02 -0.63428115934E+02  0.21805733929E+03  0.22754044313E+03  0.47000000000E+01 0. -1.
         -5    1    4    4    0  502 -0.19952082697E+01  0.32972659873E+02  0.10478728923E+02  0.34972430784E+02  0.47000000000E+01 0. -1.
        -11    1    3    3    0    0 -0.38018918985E+02  0.32444092279E+02  0.13646790887E+03  0.14533254101E+03  0.00000000000E+00 0. -1.
         11    1    3    3    0    0  0.26581549293E+02 -0.19886362186E+01  0.71770946019E+01  0.27605146689E+02  0.00000000000E+00 0.  1.
<mgrwt>
<rscale>  0 0.12002481E+03</rscale>
<asrwt>0</asrwt>
<pdfrwt beam="1">  1        1 0.62125507E-01 0.12916762E+03</pdfrwt>
<pdfrwt beam="2">  1       -1 0.48668841E-02 0.12916762E+03</pdfrwt>
<totfact> 0.10367671E+04</totfact>
</mgrwt>
</event>
<event>
 8    1  0.7550631E-006  0.1317956E+03  0.7546771E-02  0.1236819E+00
         -1   -1    0    0    0  501 -0.00000000000E+00  0.00000000000E+00  0.42715178398E+03  0.42715178398E+03  0.00000000000E+00 0.  1.
          1   -1    0    0  501    0  0.00000000000E+00 -0.00000000000E+00 -0.33480168196E+02  0.33480168196E+02  0.00000000000E+00 0. -1.
         23    2    1    2    0    0  0.13226800514E+02  0.39623696970E+02  0.21755115945E+03  0.24065810013E+03  0.94036315147E+02 0.  0.
         23    2    1    2    0    0 -0.13226800514E+02 -0.39623696970E+02  0.17612045633E+03  0.21997385204E+03  0.12500037932E+03 0.  0.
          5    1    4    4  502    0  0.97609653059E+01 -0.72402678699E+02  0.52883795130E+02  0.90311738516E+02  0.47000000000E+01 0. -1.
         -5    1    4    4    0  502 -0.22987765820E+02  0.32778981729E+02  0.12323666120E+03  0.12966211353E+03  0.47000000000E+01 0. -1.
        -11    1    3    3    0    0  0.38400608120E+02 -0.15152763291E+02  0.10790608243E+03  0.11553326606E+03  0.00000000000E+00 0.  1.
         11    1    3    3    0    0 -0.25173807605E+02  0.54776460261E+02  0.10964507702E+03  0.12512483408E+03  0.00000000000E+00 0. -1.
<mgrwt>
<rscale>  0 0.12388721E+03</rscale>
<asrwt>0</asrwt>
<pdfrwt beam="2">  1        1 0.51507954E-02 0.13179560E+03</pdfrwt>
<pdfrwt beam="1">  1       -1 0.65715655E-01 0.13179560E+03</pdfrwt>
<totfact> 0.37212342E+03</totfact>
</mgrwt>
</event>
<event>
 8    1  0.7550631E-006  0.1253070E+03  0.7546771E-02  0.1249458E+00
          2   -1    0    0  501    0  0.00000000000E+00  0.00000000000E+00  0.15295251630E+03  0.15295251630E+03  0.00000000000E+00 0.  1.
         -2   -1    0    0    0  501 -0.00000000000E+00 -0.00000000000E+00 -0.77879373988E+02  0.77879373988E+02  0.00000000000E+00 0. -1.
         23    2    1    2    0    0  0.84057204576E+01 -0.24778981712E+01  0.26649224263E+02  0.96493767736E+02  0.92325889881E+02 0.  0.
         23    2    1    2    0    0 -0.84057204576E+01  0.24778981712E+01  0.48423918052E+02  0.13433812255E+03  0.12500023687E+03 0.  0.
          5    1    4    4  502    0  0.49566904155E+02  0.27037307900E+02  0.33339749900E+01  0.56754730157E+02  0.47000000000E+01 0. -1.
         -5    1    4    4    0  502 -0.57972624612E+02 -0.24559409729E+02  0.45089943062E+02  0.77583392398E+02  0.47000000000E+01 0. -1.
        -11    1    3    3    0    0 -0.13484522037E+02 -0.47289996149E+01 -0.31353845915E+02  0.34456631083E+02  0.00000000000E+00 0. -1.
         11    1    3    3    0    0  0.21890242495E+02  0.22511014437E+01  0.58003070177E+02  0.62037136653E+02  0.00000000000E+00 0.  1.
<mgrwt>
<rscale>  0 0.11622496E+03</rscale>
<asrwt>0</asrwt>
<pdfrwt beam="1">  1        2 0.23531156E-01 0.12530704E+03</pdfrwt>
<pdfrwt beam="2">  1       -2 0.11981442E-01 0.12530704E+03</pdfrwt>
<totfact> 0.10665389E+04</totfact>
</mgrwt>
</event>
<event>
 8    1  0.7550631E-006  0.1684636E+03  0.7546771E-02  0.1185809E+00
          2   -1    0    0  501    0  0.00000000000E+00  0.00000000000E+00  0.54934588143E+03  0.54934588143E+03  0.00000000000E+00 0.  1.
         -2   -1    0    0    0  501 -0.00000000000E+00 -0.00000000000E+00 -0.69397428799E+02  0.69397428799E+02  0.00000000000E+00 0. -1.
         23    2    1    2    0    0 -0.69087934619E+01  0.11275039210E+03  0.45963006843E+02  0.15320774698E+03  0.92734208307E+02 0.  0.
         23    2    1    2    0    0  0.69087934619E+01 -0.11275039210E+03  0.43398544579E+03  0.46553556325E+03  0.12497844274E+03 0.  0.
          5    1    4    4  502    0  0.48511552195E+02 -0.11663044676E+03  0.32807016390E+03  0.35157951341E+03  0.47000000000E+01 0.  1.
         -5    1    4    4    0  502 -0.41602758733E+02  0.38800546570E+01  0.10591528189E+03  0.11395604984E+03  0.47000000000E+01 0.  1.
        -11    1    3    3    0    0 -0.39452933508E+02  0.14846072631E+02  0.60539051259E+01  0.42586260721E+02  0.00000000000E+00 0. -1.
         11    1    3    3    0    0  0.32544140046E+02  0.97904319469E+02  0.39909101717E+02  0.11062148626E+03  0.00000000000E+00 0.  1.
<mgrwt>
<rscale>  0 0.16258475E+03</rscale>
<asrwt>0</asrwt>
<pdfrwt beam="1">  1        2 0.84514748E-01 0.16846363E+03</pdfrwt>
<pdfrwt beam="2">  1       -2 0.10676528E-01 0.16846363E+03</pdfrwt>
<totfact> 0.32776549E+03</totfact>
</mgrwt>
</event>
<event>
 8    1  0.7550631E-006  0.1530143E+03  0.7546771E-02  0.1205708E+00
          1   -1    0    0  501    0  0.00000000000E+00  0.00000000000E+00  0.11978526828E+03  0.11978526828E+03  0.00000000000E+00 0. -1.
         -1   -1    0    0    0  501 -0.00000000000E+00 -0.00000000000E+00 -0.18635951326E+03  0.18635951326E+03  0.00000000000E+00 0.  1.
         23    2    1    2    0    0 -0.81208741516E+02  0.34527576394E+02 -0.84809309510E+02  0.15204771984E+03  0.90215724238E+02 0.  0.
         23    2    1    2    0    0  0.81208741516E+02 -0.34527576394E+02  0.18235064524E+02  0.15409706170E+03  0.12500549434E+03 0.  0.
          5    1    4    4  502    0  0.80977376182E+02 -0.17691042080E+02  0.64182000764E+02  0.10493677928E+03  0.47000000000E+01 0.  1.
         -5    1    4    4    0  502  0.23136533347E+00 -0.16836534315E+02 -0.45946936240E+02  0.49160282418E+02  0.47000000000E+01 0.  1.
        -11    1    3    3    0    0 -0.86420454526E+02  0.52219285648E+02 -0.87246501785E+02  0.13344399884E+03  0.00000000000E+00 0.  1.
         11    1    3    3    0    0  0.52117130099E+01 -0.17691709254E+02  0.24371922749E+01  0.18603720999E+02  0.00000000000E+00 0. -1.
<mgrwt>
<rscale>  0 0.14581831E+03</rscale>
<asrwt>0</asrwt>
<pdfrwt beam="1">  1        1 0.18428503E-01 0.15301434E+03</pdfrwt>
<pdfrwt beam="2">  1       -1 0.28670694E-01 0.15301434E+03</pdfrwt>
<totfact> 0.30466829E+03</totfact>
</mgrwt>
</event>
<event>
 8    1  0.7550631E-006  0.1348023E+03  0.7546771E-02  0.1233400E+00
         -1   -1    0    0    0  501 -0.00000000000E+00  0.00000000000E+00  0.66481929340E+02  0.66481929340E+02  0.00000000000E+00 0.  1.
          1   -1    0    0  501    0  0.00000000000E+00 -0.00000000000E+00 -0.21832057940E+03  0.21832057940E+03  0.00000000000E+00 0. -1.
         23    2    1    2    0    0 -0.47937089469E+02  0.15763800794E+02 -0.43813933963E+02  0.11205701316E+03  0.89948048482E+02 0.  0.
         23    2    1    2    0    0  0.47937089469E+02 -0.15763800794E+02 -0.10802471609E+03  0.17274549558E+03  0.12500081998E+03 0.  0.
          5    1    4    4  502    0  0.44557665239E+02  0.29877949502E+02 -0.11426227147E+03  0.12631719629E+03  0.47000000000E+01 0. -1.
         -5    1    4    4    0  502  0.33794242299E+01 -0.45641750296E+02  0.62375553718E+01  0.46428299293E+02  0.47000000000E+01 0. -1.
        -11    1    3    3    0    0 -0.22552311944E+02 -0.36039701370E+02 -0.56523657068E+01  0.42888414367E+02  0.00000000000E+00 0.  1.
         11    1    3    3    0    0 -0.25384777525E+02  0.51803502164E+02 -0.38161568256E+02  0.69168598788E+02  0.00000000000E+00 0. -1.
<mgrwt>
<rscale>  0 0.12607414E+03</rscale>
<asrwt>0</asrwt>
<pdfrwt beam="2">  1        1 0.33587782E-01 0.13480233E+03</pdfrwt>
<pdfrwt beam="1">  1       -1 0.10227989E-01 0.13480233E+03</pdfrwt>
<totfact> 0.73239700E+03</totfact>
</mgrwt>
</event>
<event>
 8    1  0.7550631E-006  0.1475102E+03  0.7546771E-02  0.1212974E+00
         -3   -1    0    0    0  501 -0.00000000000E+00  0.00000000000E+00  0.13982304898E+03  0.13982304898E+03  0.00000000000E+00 0.  1.
          3   -1    0    0  501    0  0.00000000000E+00 -0.00000000000E+00 -0.13204336983E+03  0.13204336983E+03  0.00000000000E+00 0. -1.
         23    2    1    2    0    0 -0.42927894170E+02  0.65510553433E+02  0.25609385421E+02  0.12328258843E+03  0.91696888057E+02 0.  0.
         23    2    1    2    0    0  0.42927894170E+02 -0.65510553433E+02 -0.17829706272E+02  0.14858383039E+03  0.12499927807E+03 0.  0.
          5    1    4    4  502    0 -0.28863144542E+01  0.26519496465E+02 -0.34993246879E+02  0.44251913303E+02  0.47000000000E+01 0.  1.
         -5    1    4    4    0  502  0.45814208624E+02 -0.92030049898E+02  0.17163540607E+02  0.10433191708E+03  0.47000000000E+01 0.  1.
        -11    1    3    3    0    0 -0.17792466517E+02  0.55721576652E+02 -0.26798744768E+02  0.64340024017E+02  0.00000000000E+00 0. -1.
         11    1    3    3    0    0 -0.25135427653E+02  0.97889767812E+01  0.52408130189E+02  0.58942564413E+02  0.00000000000E+00 0.  1.
<mgrwt>
<rscale>  0 0.14026437E+03</rscale>
<asrwt>0</asrwt>
<pdfrwt beam="2">  1        3 0.20314365E-01 0.14751019E+03</pdfrwt>
<pdfrwt beam="1">  1       -3 0.21511238E-01 0.14751019E+03</pdfrwt>
<totfact> 0.10048286E+03</totfact>
</mgrwt>
</event>
<event>
 8    1  0.7550631E-006  0.2087233E+03  0.7546771E-02  0.1146381E+00
          2   -1    0    0  501    0  0.00000000000E+00  0.00000000000E+00  0.10715099379E+04  0.10715099379E+04  0.00000000000E+00 0. -1.
         -2   -1    0    0    0  501 -0.00000000000E+00 -0.00000000000E+00 -0.38020148269E+02  0.38020148269E+02  0.00000000000E+00 0.  1.
         23    2    1    2    0    0 -0.24287027097E+02  0.16538001274E+03  0.41240685523E+03  0.45431299756E+03  0.91544946377E+02 0.  0.
         23    2    1    2    0    0  0.24287027097E+02 -0.16538001274E+03  0.62108293443E+03  0.65521708865E+03  0.12500005406E+03 0.  0.
          5    1    4    4  502    0  0.46496452172E+02 -0.81978408388E+02  0.48433620932E+03  0.49344303943E+03  0.47000000000E+01 0. -1.
         -5    1    4    4    0  502 -0.22209425075E+02 -0.83401604350E+02  0.13674672511E+03  0.16177404922E+03  0.47000000000E+01 0. -1.
        -11    1    3    3    0    0 -0.45423676864E+02  0.32709425269E+02  0.11068351639E+03  0.12403248655E+03  0.00000000000E+00 0.  1.
         11    1    3    3    0    0  0.21136649767E+02  0.13267058747E+03  0.30172333885E+03  0.33028051100E+03  0.00000000000E+00 0. -1.
<mgrwt>
<rscale>  0 0.20403176E+03</rscale>
<asrwt>0</asrwt>
<pdfrwt beam="1">  1        2 0.16484766E+00 0.20872331E+03</pdfrwt>
<pdfrwt beam="2">  1       -2 0.58492544E-02 0.20872331E+03</pdfrwt>
<totfact> 0.36328093E+03</totfact>
</mgrwt>
</event>
<event>
 8    1  0.7550631E-006  0.1391832E+03  0.7546771E-02  0.1228984E+00
         -3   -1    0    0    0  501 -0.00000000000E+00  0.00000000000E+00  0.31477999950E+03  0.31477999950E+03  0.00000000000E+00 0.  1.
          3   -1    0    0  501    0  0.00000000000E+00 -0.00000000000E+00 -0.27663412379E+03  0.27663412379E+03  0.00000000000E+00 0. -1.
         23    2    1    2    0    0 -0.33077209600E+02  0.62106388705E+02  0.28781790597E+03  0.30556785948E+03  0.74707860596E+02 0.  0.
         23    2    1    2    0    0  0.33077209600E+02 -0.62106388705E+02 -0.24967203027E+03  0.28584626381E+03  0.12008604634E+03 0.  0.
          5    1    4    4  502    0  0.34792061939E+02 -0.68167422090E+02 -0.63635011976E+02  0.99643312658E+02  0.47000000000E+01 0. -1.
         -5    1    4    4    0  502 -0.17148523395E+01  0.60610333852E+01 -0.18603701829E+03  0.18620295115E+03  0.47000000000E+01 0.  1.
        -11    1    3    3    0    0 -0.27188299864E+02  0.77628181045E+02  0.26413851173E+03  0.27664867887E+03  0.00000000000E+00 0. -1.
         11    1    3    3    0    0 -0.58889097353E+01 -0.15521792341E+02  0.23679394245E+02  0.28919180610E+02  0.00000000000E+00 0.  1.
<mgrwt>
<rscale>  0 0.12897541E+03</rscale>
<asrwt>0</asrwt>
<pdfrwt beam="2">  1        3 0.42559096E-01 0.13918320E+03</pdfrwt>
<pdfrwt beam="1">  1       -3 0.48427692E-01 0.13918320E+03</pdfrwt>
<totfact> 0.55534608E+01</totfact>
</mgrwt>
</event>
<event>
 8    1  0.7550631E-006  0.1300818E+03  0.7546771E-02  0.1241292E+00
         -2   -1    0    0    0  501 -0.00000000000E+00  0.00000000000E+00  0.53829886175E+02  0.53829886175E+02  0.00000000000E+00 0.  1.
          2   -1    0    0  501    0  0.00000000000E+00 -0.00000000000E+00 -0.41383088255E+03  0.41383088255E+03  0.00000000000E+00 0. -1.
         23    2    1    2    0    0  0.33064302775E+02  0.50140456119E+01 -0.14876122403E+02  0.98834977406E+02  0.91807760945E+02 0.  0.
         23    2    1    2    0    0 -0.33064302775E+02 -0.50140456119E+01 -0.34512487398E+03  0.36882579132E+03  0.12570957377E+03 0.  0.
          5    1    4    4  502    0 -0.15383687644E+02 -0.40403945026E+02 -0.34109358806E+02  0.55269114136E+02  0.47000000000E+01 0.  1.
         -5    1    4    4    0  502 -0.17680615131E+02  0.35389899415E+02 -0.31101551517E+03  0.31355667719E+03  0.47000000000E+01 0.  1.
        -11    1    3    3    0    0 -0.29781359763E+02  0.58396492424E+01 -0.19072457770E+02  0.35843960970E+02  0.00000000000E+00 0. -1.
         11    1    3    3    0    0  0.62845662538E+02 -0.82560363050E+00  0.41963353669E+01  0.62991016437E+02  0.00000000000E+00 0.  1.
<mgrwt>
<rscale>  0 0.12110057E+03</rscale>
<asrwt>0</asrwt>
<pdfrwt beam="2">  1        2 0.63666289E-01 0.13008184E+03</pdfrwt>
<pdfrwt beam="1">  1       -2 0.82815211E-02 0.13008184E+03</pdfrwt>
<totfact> 0.65719976E+03</totfact>
</mgrwt>
</event>
<event>
 8    1  0.7550631E-006  0.1333907E+03  0.7546771E-02  0.1236457E+00
          2   -1    0    0  501    0  0.00000000000E+00  0.00000000000E+00  0.10350958188E+03  0.10350958188E+03  0.00000000000E+00 0. -1.
         -2   -1    0    0    0  501 -0.00000000000E+00 -0.00000000000E+00 -0.13386009309E+03  0.13386009309E+03  0.00000000000E+00 0.  1.
         23    2    1    2    0    0  0.45116550552E+02 -0.11511768935E+02  0.24079581895E+01  0.10001540369E+03  0.88483098698E+02 0.  0.
         23    2    1    2    0    0 -0.45116550552E+02  0.11511768935E+02 -0.32758469405E+02  0.13735427128E+03  0.12500021825E+03 0.  0.
          5    1    4    4  502    0  0.45130179734E+01  0.86812816001E+01 -0.72642270960E+02  0.73448767938E+02  0.47000000000E+01 0. -1.
         -5    1    4    4    0  502 -0.49629568526E+02  0.28304873348E+01  0.39883801555E+02  0.63905503340E+02  0.47000000000E+01 0. -1.
        -11    1    3    3    0    0  0.31889653346E+02 -0.34023718149E+02 -0.32195272980E+02  0.56666559711E+02  0.00000000000E+00 0.  1.
         11    1    3    3    0    0  0.13226897206E+02  0.22511949214E+02  0.34603231169E+02  0.43348843981E+02  0.00000000000E+00 0. -1.
<mgrwt>
<rscale>  0 0.12411647E+03</rscale>
<asrwt>0</asrwt>
<pdfrwt beam="1">  1        2 0.15924551E-01 0.13339070E+03</pdfrwt>
<pdfrwt beam="2">  1       -2 0.20593860E-01 0.13339070E+03</pdfrwt>
<totfact> 0.68568939E+03</totfact>
</mgrwt>
</event>
<event>
 8    1  0.7550631E-006  0.1130527E+03  0.7546771E-02  0.1264707E+00
         -1   -1    0    0    0  501 -0.00000000000E+00  0.00000000000E+00  0.54243530999E+02  0.54243530999E+02  0.00000000000E+00 0.  1.
          1   -1    0    0  501    0  0.00000000000E+00 -0.00000000000E+00 -0.23623990171E+03  0.23623990171E+03  0.00000000000E+00 0. -1.
         23    2    1    2    0    0 -0.63233197884E+01  0.24599114064E+02 -0.24487408900E+02  0.96602075647E+02  0.89929011108E+02 0.  0.
         23    2    1    2    0    0  0.63233197884E+01 -0.24599114064E+02 -0.15750896181E+03  0.19388135706E+03  0.11016263786E+03 0.  0.
          5    1    4    4  502    0 -0.35949929374E+02  0.29385858844E+01 -0.97251608439E+01  0.37652376584E+02  0.47000000000E+01 0. -1.
         -5    1    4    4    0  502  0.42273249162E+02 -0.27537699949E+02 -0.14778380096E+03  0.15622898047E+03  0.47000000000E+01 0.  1.
        -11    1    3    3    0    0  0.38513288061E+02  0.84656554384E+01 -0.28691285898E+02  0.48766080074E+02  0.00000000000E+00 0.  1.
         11    1    3    3    0    0 -0.44836607850E+02  0.16133458626E+02  0.42038769976E+01  0.47835995573E+02  0.00000000000E+00 0. -1.
<mgrwt>
<rscale>  0 0.10779581E+03</rscale>
<asrwt>0</asrwt>
<pdfrwt beam="2">  1        1 0.36344600E-01 0.11305268E+03</pdfrwt>
<pdfrwt beam="1">  1       -1 0.83451587E-02 0.11305268E+03</pdfrwt>
<totfact> 0.89268108E+03</totfact>
</mgrwt>
</event>
<event>
 8    1  0.7550631E-006  0.1308427E+03  0.7546771E-02  0.1240782E+00
          1   -1    0    0  501    0  0.00000000000E+00  0.00000000000E+00  0.88161894014E+02  0.88161894014E+02  0.00000000000E+00 0. -1.
         -1   -1    0    0    0  501 -0.00000000000E+00 -0.00000000000E+00 -0.19649084932E+03  0.19649084932E+03  0.00000000000E+00 0.  1.
         23    2    1    2    0    0  0.37504914751E+02  0.93436667277E+01 -0.11881497658E+03  0.15339054697E+03  0.88981675090E+02 0.  0.
         23    2    1    2    0    0 -0.37504914751E+02 -0.93436667277E+01  0.10486021274E+02  0.13126219636E+03  0.12500353921E+03 0.  0.
          5    1    4    4  502    0  0.46195550324E+02 -0.48130319314E+01  0.22962547246E+00  0.46683368280E+02  0.47000000000E+01 0.  1.
         -5    1    4    4    0  502 -0.83700465075E+02 -0.45306347963E+01  0.10256395801E+02  0.84578828085E+02  0.47000000000E+01 0.  1.
        -11    1    3    3    0    0  0.31509339756E+02  0.41585904336E+02 -0.10606698177E+03  0.11820503607E+03  0.00000000000E+00 0.  1.
         11    1    3    3    0    0  0.59955749952E+01 -0.32242237608E+02 -0.12747994812E+02  0.35185510899E+02  0.00000000000E+00 0. -1.
<mgrwt>
<rscale>  0 0.12141445E+03</rscale>
<asrwt>0</asrwt>
<pdfrwt beam="1">  1        1 0.13563368E-01 0.13084268E+03</pdfrwt>
<pdfrwt beam="2">  1       -1 0.30229362E-01 0.13084268E+03</pdfrwt>
<totfact> 0.41073812E+03</totfact>
</mgrwt>
</event>
<event>
 7    1  0.7550631E-006  0.6169476E+03  0.7546771E-02  0.9870856E-01
         -1   -1    0    0    0  501 -0.00000000000E+00  0.00000000000E+00  0.57224664614E+02  0.57224664614E+02  0.00000000000E+00 0.  1.
          1   -1    0    0  501    0  0.00000000000E+00 -0.00000000000E+00 -0.16628509203E+04  0.16628509203E+04  0.00000000000E+00 0. -1.
         23    2    1    2    0    0 -0.34739022565E+02  0.20097092818E+03 -0.38546215391E+03  0.44516997923E+03  0.89437825593E+02 0.  0.
          5    1    1    2  502    0  0.10855958129E+03  0.36423885367E+02 -0.50194334992E+03  0.51486027099E+03  0.47000000000E+01 0. -1.
         -5    1    1    2    0  502 -0.73820558729E+02 -0.23739481355E+03 -0.71822075187E+03  0.76004533471E+03  0.47000000000E+01 0.  1.
        -11    1    3    3    0    0  0.25921439493E+02  0.28795367603E+02 -0.49989758148E+02  0.63246107711E+02  0.00000000000E+00 0. -1.
         11    1    3    3    0    0 -0.60660462058E+02  0.17217556058E+03 -0.33547239576E+03  0.38192387152E+03  0.00000000000E+00 0.  1.
<mgrwt>
<rscale>  0 0.61694760E+03</rscale>
<asrwt>0</asrwt>
<pdfrwt beam="2">  1        1 0.25582321E+00 0.61694760E+03</pdfrwt>
<pdfrwt beam="1">  1       -1 0.88037947E-02 0.61694760E+03</pdfrwt>
<totfact> 0.40168424E+02</totfact>
</mgrwt>
</event>
<event>
 7    1  0.7550631E-006  0.1889569E+03  0.7546771E-02  0.1176932E+00
         -1   -1    0    0    0  501 -0.00000000000E+00  0.00000000000E+00  0.50378362737E+02  0.50378362737E+02  0.00000000000E+00 0.  1.
          1   -1    0    0  501    0  0.00000000000E+00 -0.00000000000E+00 -0.49379062874E+03  0.49379062874E+03  0.00000000000E+00 0. -1.
         23    2    1    2    0    0  0.13283510065E+02 -0.86298272900E+02 -0.18459413939E+03  0.22371376844E+03  0.91372919124E+02 0.  0.
          5    1    1    2  502    0 -0.72873656457E+02  0.17207403483E+02 -0.19521627457E+03  0.20913667396E+03  0.47000000000E+01 0. -1.
         -5    1    1    2    0  502  0.59590146392E+02  0.69090869418E+02 -0.63601852052E+02  0.11131854908E+03  0.47000000000E+01 0.  1.
        -11    1    3    3    0    0 -0.37162136971E+01 -0.10166623112E+03 -0.13463637595E+03  0.16875066377E+03  0.00000000000E+00 0. -1.
         11    1    3    3    0    0  0.16999723762E+02  0.15367958215E+02 -0.49957763433E+02  0.54963104669E+02  0.00000000000E+00 0.  1.
<mgrwt>
<rscale>  0 0.17088147E+03</rscale>
<asrwt>0</asrwt>
<pdfrwt beam="2">  1        1 0.75967787E-01 0.18895695E+03</pdfrwt>
<pdfrwt beam="1">  1       -1 0.77505175E-02 0.18895695E+03</pdfrwt>
<totfact> 0.40770624E+03</totfact>
</mgrwt>
</event>
<event>
 8    1  0.7550631E-006  0.2023190E+03  0.7546771E-02  0.1151980E+00
          1   -1    0    0  501    0  0.00000000000E+00  0.00000000000E+00  0.44418990988E+03  0.44418990988E+03  0.00000000000E+00 0. -1.
         -1   -1    0    0    0  501 -0.00000000000E+00 -0.00000000000E+00 -0.90147768403E+02  0.90147768403E+02  0.00000000000E+00 0.  1.
         23    2    1    2    0    0  0.15657109104E+03  0.28192849651E+02  0.97299844120E+02  0.20745912871E+03  0.90899323962E+02 0.  0.
         23    2    1    2    0    0 -0.15657109104E+03 -0.28192849651E+02  0.25674229736E+03  0.32687854958E+03  0.12499454228E+03 0.  0.
          5    1    4    4  502    0 -0.71250600163E+02 -0.52077573033E+02  0.20719397576E+03  0.22525575515E+03  0.47000000000E+01 0. -1.
         -5    1    4    4    0  502 -0.85320490878E+02  0.23884723382E+02  0.49548321603E+02  0.10162279443E+03  0.47000000000E+01 0. -1.
        -11    1    3    3    0    0  0.14559432640E+03  0.52180473673E+02  0.70902954469E+02  0.17014034990E+03  0.00000000000E+00 0.  1.
         11    1    3    3    0    0  0.10976764641E+02 -0.23987624022E+02  0.26396889651E+02  0.37318778804E+02  0.00000000000E+00 0. -1.
<mgrwt>
<rscale>  0 0.19736708E+03</rscale>
<asrwt>0</asrwt>
<pdfrwt beam="1">  1        1 0.68336908E-01 0.20231900E+03</pdfrwt>
<pdfrwt beam="2">  1       -1 0.13868888E-01 0.20231900E+03</pdfrwt>
<totfact> 0.19100462E+03</totfact>
</mgrwt>
</event>
<event>
 8    1  0.7550631E-006  0.1958925E+03  0.7546771E-02  0.1157784E+00
         -2   -1    0    0    0  501 -0.00000000000E+00  0.00000000000E+00  0.30475506785E+02  0.30475506785E+02  0.00000000000E+00 0.  1.
          2   -1    0    0  501    0  0.00000000000E+00 -0.00000000000E+00 -0.11510351612E+04  0.11510351612E+04  0.00000000000E+00 0. -1.
         23    2    1    2    0    0 -0.11225440414E+03  0.10074587448E+03 -0.46201292953E+03  0.49444614704E+03  0.90940985279E+02 0.  0.
         23    2    1    2    0    0  0.11225440414E+03 -0.10074587448E+03 -0.65854672493E+03  0.68706452098E+03  0.12499233817E+03 0.  0.
          5    1    4    4  502    0  0.10740879362E+03 -0.22210466269E+02 -0.47102480981E+03  0.48364906204E+03  0.47000000000E+01 0.  1.
         -5    1    4    4    0  502  0.48456105194E+01 -0.78535408213E+02 -0.18752191512E+03  0.20341545894E+03  0.47000000000E+01 0.  1.
        -11    1    3    3    0    0 -0.62787610586E+01  0.32484683849E+02 -0.30862736873E+02  0.45245840168E+02  0.00000000000E+00 0.  1.
         11    1    3    3    0    0 -0.10597564309E+03  0.68261190633E+02 -0.43115019265E+03  0.44920030688E+03  0.00000000000E+00 0. -1.
<mgrwt>
<rscale>  0 0.19075257E+03</rscale>
<asrwt>0</asrwt>
<pdfrwt beam="2">  1        2 0.17708236E+00 0.19589249E+03</pdfrwt>
<pdfrwt beam="1">  1       -2 0.46885387E-02 0.19589249E+03</pdfrwt>
<totfact> 0.45655409E+03</totfact>
</mgrwt>
</event>
<event>
 7    1  0.7550631E-006  0.2593346E+03  0.7546771E-02  0.1141032E+00
         -2   -1    0    0    0  501 -0.00000000000E+00  0.00000000000E+00  0.36385761797E+02  0.36385761797E+02  0.00000000000E+00 0.  1.
          2   -1    0    0  501    0  0.00000000000E+00 -0.00000000000E+00 -0.10640509355E+04  0.10640509355E+04  0.00000000000E+00 0. -1.
         23    2    1    2    0    0  0.50255658501E+02 -0.40034730787E+02 -0.16746115454E+03  0.20199061389E+03  0.92890036805E+02 0.  0.
          5    1    1    2  502    0  0.77420669521E+01  0.96173531237E+02 -0.77495472091E+03  0.78095210940E+03  0.47000000000E+01 0. -1.
         -5    1    1    2    0  502 -0.57997725453E+02 -0.56138800450E+02 -0.85249298201E+02  0.11749397396E+03  0.47000000000E+01 0.  1.
        -11    1    3    3    0    0  0.16209880322E+02  0.29547269428E+02 -0.68265901852E+02  0.76131693179E+02  0.00000000000E+00 0.  1.
         11    1    3    3    0    0  0.34045778179E+02 -0.69582000214E+02 -0.99195252692E+02  0.12585892071E+03  0.00000000000E+00 0. -1.
<mgrwt>
<rscale>  0 0.21067535E+03</rscale>
<asrwt>0</asrwt>
<pdfrwt beam="2">  1        2 0.16370016E+00 0.25933455E+03</pdfrwt>
<pdfrwt beam="1">  1       -2 0.55978089E-02 0.25933455E+03</pdfrwt>
<totfact> 0.39422494E+03</totfact>
</mgrwt>
</event>
<event>
 8    1  0.7550631E-006  0.1345325E+03  0.7546771E-02  0.1233504E+00
          2   -1    0    0  501    0  0.00000000000E+00  0.00000000000E+00  0.19675825692E+03  0.19675825692E+03  0.00000000000E+00 0. -1.
         -2   -1    0    0    0  501 -0.00000000000E+00 -0.00000000000E+00 -0.72749424566E+02  0.72749424566E+02  0.00000000000E+00 0.  1.
         23    2    1    2    0    0  0.46824555958E+02  0.16750997854E+02  0.40574549622E+02  0.11120333446E+03  0.90811632235E+02 0.  0.
         23    2    1    2    0    0 -0.46824555958E+02 -0.16750997854E+02  0.83434282730E+02  0.15830434702E+03  0.12500340708E+03 0.  0.
          5    1    4    4  502    0 -0.93043047189E+01  0.29020760711E+02  0.93170136566E+02  0.98140404453E+02  0.47000000000E+01 0.  1.
         -5    1    4    4    0  502 -0.37520251239E+02 -0.45771758565E+02 -0.97358538356E+01  0.60163942566E+02  0.47000000000E+01 0.  1.
        -11    1    3    3    0    0  0.59347379592E+02  0.76569620786E+01 -0.78627097049E+01  0.60353647252E+02  0.00000000000E+00 0.  1.
         11    1    3    3    0    0 -0.12522823634E+02  0.90940357753E+01  0.48437259327E+02  0.50849687212E+02  0.00000000000E+00 0. -1.
<mgrwt>
<rscale>  0 0.12600684E+03</rscale>
<asrwt>0</asrwt>
<pdfrwt beam="1">  1        2 0.30270501E-01 0.13453247E+03</pdfrwt>
<pdfrwt beam="2">  1       -2 0.11192219E-01 0.13453247E+03</pdfrwt>
<totfact> 0.90743262E+03</totfact>
</mgrwt>
</event>
<event>
 8    1  0.7550631E-006  0.1817827E+03  0.7546771E-02  0.1167880E+00
         -2   -1    0    0    0  501 -0.00000000000E+00  0.00000000000E+00  0.13389123460E+03  0.13389123460E+03  0.00000000000E+00 0.  1.
          2   -1    0    0  501    0  0.00000000000E+00 -0.00000000000E+00 -0.24534104992E+03  0.24534104992E+03  0.00000000000E+00 0. -1.
         23    2    1    2    0    0  0.93163152419E+02  0.93489157129E+02 -0.19545471926E+02  0.17553804247E+03  0.11407008114E+03 0.  0.
         23    2    1    2    0    0 -0.93163152419E+02 -0.93489157129E+02 -0.91904343398E+02  0.20369424205E+03  0.12500136175E+03 0.  0.
          5    1    4    4  502    0 -0.48901610789E+02 -0.86575447355E+01  0.22289978175E+02  0.54637475652E+02  0.47000000000E+01 0.  1.
         -5    1    4    4    0  502 -0.44261541630E+02 -0.84831612394E+02 -0.11419432157E+03  0.14905676640E+03  0.47000000000E+01 0.  1.
        -11    1    3    3    0    0  0.38278655439E+02  0.81890719736E+02  0.35339195357E+02  0.97057736269E+02  0.00000000000E+00 0.  1.
         11    1    3    3    0    0  0.54884496980E+02  0.11598437393E+02 -0.54884667283E+02  0.78480306202E+02  0.00000000000E+00 0. -1.
<mgrwt>
<rscale>  0 0.17992019E+03</rscale>
<asrwt>0</asrwt>
<pdfrwt beam="2">  1        2 0.37744777E-01 0.18178266E+03</pdfrwt>
<pdfrwt beam="1">  1       -2 0.20598651E-01 0.18178266E+03</pdfrwt>
<totfact> 0.26697652E+03</totfact>
</mgrwt>
</event>
<event>
 8    1  0.7550631E-006  0.1339199E+03  0.7546771E-02  0.1234464E+00
         -2   -1    0    0    0  501 -0.00000000000E+00  0.00000000000E+00  0.60896625010E+02  0.60896625010E+02  0.00000000000E+00 0.  1.
          2   -1    0    0  501    0  0.00000000000E+00 -0.00000000000E+00 -0.23079638466E+03  0.23079638466E+03  0.00000000000E+00 0. -1.
         23    2    1    2    0    0  0.46399045777E+02 -0.12337395450E+02 -0.80728936635E+02  0.13080180872E+03  0.91032242517E+02 0.  0.
         23    2    1    2    0    0 -0.46399045777E+02  0.12337395450E+02 -0.89170823015E+02  0.16089120095E+03  0.12501783909E+03 0.  0.
          5    1    4    4  502    0 -0.19750587334E+02 -0.35429455442E+02  0.14704391732E+02  0.43400934888E+02  0.47000000000E+01 0. -1.
         -5    1    4    4    0  502 -0.26648458443E+02  0.47766850893E+02 -0.10387521475E+03  0.11749026607E+03  0.47000000000E+01 0. -1.
        -11    1    3    3    0    0  0.69478930081E+02 -0.47961174451E+01 -0.80599945120E+02  0.10652077554E+03  0.00000000000E+00 0.  1.
         11    1    3    3    0    0 -0.23079884304E+02 -0.75412780050E+01 -0.12899151529E+00  0.24281033179E+02  0.00000000000E+00 0. -1.
<mgrwt>
<rscale>  0 0.12538797E+03</rscale>
<asrwt>0</asrwt>
<pdfrwt beam="2">  1        2 0.35507135E-01 0.13391991E+03</pdfrwt>
<pdfrwt beam="1">  1       -2 0.93687117E-02 0.13391991E+03</pdfrwt>
<totfact> 0.10109105E+04</totfact>
</mgrwt>
</event>
<event>
 8    1  0.7550631E-006  0.1329839E+03  0.7546771E-02  0.1236441E+00
         -1   -1    0    0    0  501 -0.00000000000E+00  0.00000000000E+00  0.66642742800E+02  0.66642742800E+02  0.00000000000E+00 0.  1.
          1   -1    0    0  501    0  0.00000000000E+00 -0.00000000000E+00 -0.22893829326E+03  0.22893829326E+03  0.00000000000E+00 0. -1.
         23    2    1    2    0    0  0.63539010793E+01  0.44941417837E+02 -0.24066779870E+02  0.10376887852E+03  0.90159121338E+02 0.  0.
         23    2    1    2    0    0 -0.63539010793E+01 -0.44941417837E+02 -0.13822877059E+03  0.19181215754E+03  0.12499843065E+03 0.  0.
          5    1    4    4  502    0 -0.43440665871E+02  0.14874921090E+01 -0.27571562337E+01  0.43806346511E+02  0.47000000000E+01 0.  1.
         -5    1    4    4    0  502  0.37086764792E+02 -0.46428909946E+02 -0.13547161436E+03  0.14800581103E+03  0.47000000000E+01 0.  1.
        -11    1    3    3    0    0  0.43756214115E+02  0.17389259999E+01 -0.10959014098E+02  0.45141224256E+02  0.00000000000E+00 0. -1.
         11    1    3    3    0    0 -0.37402313035E+02  0.43202491837E+02 -0.13107765772E+02  0.58627654267E+02  0.00000000000E+00 0.  1.
<mgrwt>
<rscale>  0 0.12412648E+03</rscale>
<asrwt>0</asrwt>
<pdfrwt beam="2">  1        1 0.35221276E-01 0.13298387E+03</pdfrwt>
<pdfrwt beam="1">  1       -1 0.10252730E-01 0.13298387E+03</pdfrwt>
<totfact> 0.68739966E+03</totfact>
</mgrwt>
</event>
<event>
 8    1  0.7550631E-006  0.1325301E+03  0.7546771E-02  0.1239690E+00
          4   -1    0    0  501    0  0.00000000000E+00  0.00000000000E+00  0.25794155497E+03  0.25794155497E+03  0.00000000000E+00 0. -1.
         -4   -1    0    0    0  501 -0.00000000000E+00 -0.00000000000E+00 -0.53245398708E+02  0.53245398708E+02  0.00000000000E+00 0.  1.
         23    2    1    2    0    0 -0.21479075678E+02  0.38466449766E+02  0.50920530652E+02  0.10818162263E+03  0.84671982280E+02 0.  0.
         23    2    1    2    0    0  0.21479075678E+02 -0.38466449766E+02  0.15377562561E+03  0.20300533105E+03  0.12499281161E+03 0.  0.
          5    1    4    4  502    0  0.41710350966E+02 -0.46064779295E+02  0.16629677182E+03  0.17759060670E+03  0.47000000000E+01 0. -1.
         -5    1    4    4    0  502 -0.20231275287E+02  0.75983295291E+01 -0.12521146212E+02  0.25414724351E+02  0.47000000000E+01 0. -1.
        -11    1    3    3    0    0 -0.19118736722E+02  0.10379392568E+01 -0.20166772722E+02  0.27808310516E+02  0.00000000000E+00 0.  1.
         11    1    3    3    0    0 -0.23603389565E+01  0.37428510509E+02  0.71087303374E+02  0.80373312113E+02  0.00000000000E+00 0. -1.
<mgrwt>
<rscale>  0 0.12208935E+03</rscale>
<asrwt>0</asrwt>
<pdfrwt beam="1">  1        4 0.39683315E-01 0.13253008E+03</pdfrwt>
<pdfrwt beam="2">  1       -4 0.81915999E-02 0.13253008E+03</pdfrwt>
<totfact> 0.10773142E+03</totfact>
</mgrwt>
</event>
<event>
 8    1  0.7550631E-006  0.1338384E+03  0.7546771E-02  0.1234054E+00
          2   -1    0    0  501    0  0.00000000000E+00  0.00000000000E+00  0.79132184296E+03  0.79132184296E+03  0.00000000000E+00 0. -1.
         -2   -1    0    0    0  501 -0.00000000000E+00 -0.00000000000E+00 -0.17925545713E+02  0.17925545713E+02  0.00000000000E+00 0.  1.
         23    2    1    2    0    0 -0.41246845135E+01 -0.47984309572E+02  0.36114521880E+03  0.37581496415E+03  0.92149396256E+02 0.  0.
         23    2    1    2    0    0  0.41246845135E+01  0.47984309572E+02  0.41225107845E+03  0.43343242452E+03  0.12487276708E+03 0.  0.
          5    1    4    4  502    0 -0.40225142658E+02  0.18854685364E+02  0.49043442611E+02  0.66339358794E+02  0.47000000000E+01 0.  1.
         -5    1    4    4    0  502  0.44349827171E+02  0.29129624209E+02  0.36320763584E+03  0.36709306573E+03  0.47000000000E+01 0.  1.
        -11    1    3    3    0    0  0.34694694740E+02 -0.12100748149E+01  0.67054258325E+02  0.75508010726E+02  0.00000000000E+00 0.  1.
         11    1    3    3    0    0 -0.38819379254E+02 -0.46774234757E+02  0.29409096048E+03  0.30030695343E+03  0.00000000000E+00 0. -1.
<mgrwt>
<rscale>  0 0.12565184E+03</rscale>
<asrwt>0</asrwt>
<pdfrwt beam="1">  1        2 0.12174179E+00 0.13383839E+03</pdfrwt>
<pdfrwt beam="2">  1       -2 0.27577769E-02 0.13383839E+03</pdfrwt>
<totfact> 0.16424167E+04</totfact>
</mgrwt>
</event>
<event>
 7    1  0.7550631E-006  0.1288146E+03  0.7546771E-02  0.1301721E+00
         -2   -1    0    0    0  501 -0.00000000000E+00  0.00000000000E+00  0.18605177115E+02  0.18605177115E+02  0.00000000000E+00 0.  1.
          2   -1    0    0  501    0  0.00000000000E+00 -0.00000000000E+00 -0.44992229086E+03  0.44992229086E+03  0.00000000000E+00 0. -1.
         23    2    1    2    0    0  0.26916820723E+02  0.66303050841E+01 -0.41210374416E+03  0.43176694097E+03  0.12579634010E+03 0.  0.
          5    1    3    3  502    0 -0.22351171543E+02  0.38695941645E+02 -0.31477997107E+03  0.31797086495E+03  0.47000000000E+01 0. -1.
         -5    1    3    3    0  502  0.49267992266E+02 -0.32065636561E+02 -0.97323773087E+02  0.11379607602E+03  0.47000000000E+01 0.  1.
        -11    1    1    2    0    0 -0.12963336158E+02  0.29721218061E+01 -0.13328671705E+02  0.18829101991E+02  0.00000000000E+00 0. -1.
         11    1    1    2    0    0 -0.13953484564E+02 -0.96024268902E+01 -0.58846978766E+01  0.17931425007E+02  0.00000000000E+00 0.  1.
<mgrwt>
<rscale>  0 0.90468585E+02</rscale>
<asrwt>0</asrwt>
<pdfrwt beam="2">  1        2 0.69218802E-01 0.12881458E+03</pdfrwt>
<pdfrwt beam="1">  1       -2 0.28623354E-02 0.12881458E+03</pdfrwt>
<totfact> 0.29552830E+04</totfact>
</mgrwt>
</event>
<event>
 8    1  0.7550631E-006  0.1421451E+03  0.7546771E-02  0.1221084E+00
          1   -1    0    0  501    0  0.00000000000E+00  0.00000000000E+00  0.24892150305E+03  0.24892150305E+03  0.00000000000E+00 0. -1.
         -1   -1    0    0    0  501 -0.00000000000E+00 -0.00000000000E+00 -0.12428912493E+03  0.12428912493E+03  0.00000000000E+00 0.  1.
         23    2    1    2    0    0 -0.44361072883E+01 -0.67527799325E+02 -0.69088378808E+02  0.13293378623E+03  0.91205837009E+02 0.  0.
         23    2    1    2    0    0  0.44361072883E+01  0.67527799325E+02  0.19372075693E+03  0.24027684176E+03  0.12500218515E+03 0.  0.
          5    1    4    4  502    0 -0.33002806922E+01 -0.21492134833E+02  0.12629133392E+03  0.12823569992E+03  0.47000000000E+01 0.  1.
         -5    1    4    4    0  502  0.77363879805E+01  0.89019934158E+02  0.67429423010E+02  0.11204114184E+03  0.47000000000E+01 0.  1.
        -11    1    3    3    0    0 -0.47602071095E+02 -0.30050321133E+02 -0.31337704349E+02  0.64428492817E+02  0.00000000000E+00 0. -1.
         11    1    3    3    0    0  0.43165963807E+02 -0.37477478192E+02 -0.37750674459E+02  0.68505293409E+02  0.00000000000E+00 0.  1.
<mgrwt>
<rscale>  0 0.13438940E+03</rscale>
<asrwt>0</asrwt>
<pdfrwt beam="1">  1        1 0.38295616E-01 0.14214510E+03</pdfrwt>
<pdfrwt beam="2">  1       -1 0.19121404E-01 0.14214510E+03</pdfrwt>
<totfact> 0.23505955E+03</totfact>
</mgrwt>
</event>
<event>
 8    1  0.7550631E-006  0.1297464E+03  0.7546771E-02  0.1240545E+00
         -2   -1    0    0    0  501 -0.00000000000E+00  0.00000000000E+00  0.14001436537E+02  0.14001436537E+02  0.00000000000E+00 0.  1.
          2   -1    0    0  501    0  0.00000000000E+00 -0.00000000000E+00 -0.99311408410E+03  0.99311408410E+03  0.00000000000E+00 0. -1.
         23    2    1    2    0    0  0.18076831530E+02 -0.29677688478E+02 -0.31629951282E+03  0.33172276103E+03  0.93739379901E+02 0.  0.
         23    2    1    2    0    0 -0.18076831530E+02  0.29677688478E+02 -0.66281313474E+03  0.67539275960E+03  0.12500636427E+03 0.  0.
          5    1    4    4  502    0 -0.14099879150E+02  0.71464073783E+02 -0.55195960675E+03  0.55676513712E+03  0.47000000000E+01 0.  1.
         -5    1    4    4    0  502 -0.39769523797E+01 -0.41786385305E+02 -0.11085352799E+03  0.11862762248E+03  0.47000000000E+01 0.  1.
        -11    1    3    3    0    0  0.55027358770E+02 -0.29639203441E+02 -0.21470202284E+03  0.22361451475E+03  0.00000000000E+00 0. -1.
         11    1    3    3    0    0 -0.36950527240E+02 -0.38485036696E-01 -0.10159748998E+03  0.10810824628E+03  0.00000000000E+00 0.  1.
<mgrwt>
<rscale>  0 0.12156042E+03</rscale>
<asrwt>0</asrwt>
<pdfrwt beam="2">  1        2 0.15278687E+00 0.12974640E+03</pdfrwt>
<pdfrwt beam="1">  1       -2 0.21540660E-02 0.12974640E+03</pdfrwt>
<totfact> 0.17496950E+04</totfact>
</mgrwt>
</event>
<event>
 8    1  0.7550631E-006  0.1263975E+03  0.7546771E-02  0.1248222E+00
         -2   -1    0    0    0  501 -0.00000000000E+00  0.00000000000E+00  0.51739535472E+02  0.51739535472E+02  0.00000000000E+00 0.  1.
          2   -1    0    0  501    0  0.00000000000E+00 -0.00000000000E+00 -0.23183970537E+03  0.23183970537E+03  0.00000000000E+00 0. -1.
         23    2    1    2    0    0  0.12699554650E+02 -0.13762058864E+02 -0.74056634469E+02  0.11858968692E+03  0.90710836075E+02 0.  0.
         23    2    1    2    0    0 -0.12699554650E+02  0.13762058864E+02 -0.10604353543E+03  0.16498955393E+03  0.12500259416E+03 0.  0.
          5    1    4    4  502    0 -0.59599495138E+02 -0.23188213917E+02 -0.70694029658E+02  0.95443852158E+02  0.47000000000E+01 0. -1.
         -5    1    4    4    0  502  0.46899940488E+02  0.36950272781E+02 -0.35349505772E+02  0.69545701770E+02  0.47000000000E+01 0. -1.
        -11    1    3    3    0    0  0.45637642663E+02 -0.28385172496E+02 -0.29586847179E+02  0.61350582487E+02  0.00000000000E+00 0.  1.
         11    1    3    3    0    0 -0.32938088013E+02  0.14623113632E+02 -0.44469787290E+02  0.57239104429E+02  0.00000000000E+00 0. -1.
<mgrwt>
<rscale>  0 0.11694568E+03</rscale>
<asrwt>0</asrwt>
<pdfrwt beam="2">  1        2 0.35667648E-01 0.12639747E+03</pdfrwt>
<pdfrwt beam="1">  1       -2 0.79599284E-02 0.12639747E+03</pdfrwt>
<totfact> 0.12893022E+04</totfact>
</mgrwt>
</event>
<event>
 8    1  0.7550631E-006  0.2421084E+03  0.7546771E-02  0.1121031E+00
         -2   -1    0    0    0  501 -0.00000000000E+00  0.00000000000E+00  0.21784669177E+02  0.21784669177E+02  0.00000000000E+00 0. -1.
          2   -1    0    0  501    0  0.00000000000E+00 -0.00000000000E+00 -0.25585330727E+04  0.25585330727E+04  0.00000000000E+00 0.  1.
         23    2    1    2    0    0  0.20228452965E+03 -0.45727055883E+02 -0.10726549452E+04  0.10963412838E+04  0.91463568313E+02 0.  0.
         23    2    1    2    0    0 -0.20228452965E+03  0.45727055883E+02 -0.14640934583E+04  0.14839764582E+04  0.12492589452E+03 0.  0.
          5    1    4    4  502    0 -0.14728011566E+03  0.85640305990E+02 -0.11516316212E+04  0.11641748904E+04  0.47000000000E+01 0. -1.
         -5    1    4    4    0  502 -0.55004413985E+02 -0.39913250108E+02 -0.31246183708E+03  0.31980156773E+03  0.47000000000E+01 0. -1.
        -11    1    3    3    0    0  0.12818287105E+03 -0.68973898115E+02 -0.60381627871E+03  0.62111379431E+03  0.00000000000E+00 0.  1.
         11    1    3    3    0    0  0.74101658603E+02  0.23246842232E+02 -0.46883866654E+03  0.47522748945E+03  0.00000000000E+00 0. -1.
<mgrwt>
<rscale>  0 0.23815076E+03</rscale>
<asrwt>0</asrwt>
<pdfrwt beam="2">  1        2 0.39362042E+00 0.24210839E+03</pdfrwt>
<pdfrwt beam="1">  1       -2 0.33514880E-02 0.24210839E+03</pdfrwt>
<totfact> 0.13408539E+03</totfact>
</mgrwt>
</event>
<event>
 8    1  0.7550631E-006  0.1253977E+03  0.7546771E-02  0.1249655E+00
          2   -1    0    0  501    0  0.00000000000E+00  0.00000000000E+00  0.73449643365E+02  0.73449643365E+02  0.00000000000E+00 0. -1.
         -2   -1    0    0    0  501 -0.00000000000E+00 -0.00000000000E+00 -0.20971691329E+03  0.20971691329E+03  0.00000000000E+00 0.  1.
         23    2    1    2    0    0 -0.97476993193E+01  0.16381447461E+01 -0.12767931887E+03  0.15747510813E+03  0.91644421842E+02 0.  0.
         23    2    1    2    0    0  0.97476993193E+01 -0.16381447461E+01 -0.85879510570E+01  0.12569144852E+03  0.12500754444E+03 0.  0.
          5    1    4    4  502    0 -0.54517279167E+01 -0.58978158782E+02  0.15643646758E+02  0.61440688754E+02  0.47000000000E+01 0. -1.
         -5    1    4    4    0  502  0.15199427236E+02  0.57340014036E+02 -0.24231597815E+02  0.64250759767E+02  0.47000000000E+01 0. -1.
        -11    1    3    3    0    0 -0.26485603252E+02 -0.38860797822E+02 -0.79329320436E+02  0.92221417620E+02  0.00000000000E+00 0. -1.
         11    1    3    3    0    0  0.16737903933E+02  0.40498942568E+02 -0.48349998432E+02  0.65253690513E+02  0.00000000000E+00 0.  1.
<mgrwt>
<rscale>  0 0.11611053E+03</rscale>
<asrwt>0</asrwt>
<pdfrwt beam="1">  1        2 0.11299945E-01 0.12539772E+03</pdfrwt>
<pdfrwt beam="2">  1       -2 0.32264140E-01 0.12539772E+03</pdfrwt>
<totfact> 0.46623252E+03</totfact>
</mgrwt>
</event>
<event>
 8    1  0.7550631E-006  0.1433750E+03  0.7546771E-02  0.1218704E+00
         -1   -1    0    0    0  501 -0.00000000000E+00  0.00000000000E+00  0.11300527057E+03  0.11300527057E+03  0.00000000000E+00 0.  1.
          1   -1    0    0  501    0  0.00000000000E+00 -0.00000000000E+00 -0.16850301788E+03  0.16850301788E+03  0.00000000000E+00 0. -1.
         23    2    1    2    0    0  0.37704642138E+02  0.59250836295E+02  0.22183592527E+02  0.11844146982E+03  0.92757578426E+02 0.  0.
         23    2    1    2    0    0 -0.37704642138E+02 -0.59250836295E+02 -0.77681339835E+02  0.16306681863E+03  0.12499638050E+03 0.  0.
          5    1    4    4  502    0  0.20785989981E+01 -0.12049499953E+01  0.32128312332E+02  0.32559037633E+02  0.47000000000E+01 0. -1.
         -5    1    4    4    0  502 -0.39783241136E+02 -0.58045886299E+02 -0.10980965217E+03  0.13050778100E+03  0.47000000000E+01 0. -1.
        -11    1    3    3    0    0  0.52696311062E+02  0.19201814518E+02 -0.18856949973E+02  0.59170900302E+02  0.00000000000E+00 0. -1.
         11    1    3    3    0    0 -0.14991668924E+02  0.40049021777E+02  0.41040542500E+02  0.59270569518E+02  0.00000000000E+00 0.  1.
<mgrwt>
<rscale>  0 0.13607944E+03</rscale>
<asrwt>0</asrwt>
<pdfrwt beam="2">  1        1 0.25923541E-01 0.14337502E+03</pdfrwt>
<pdfrwt beam="1">  1       -1 0.17385426E-01 0.14337502E+03</pdfrwt>
<totfact> 0.44478134E+03</totfact>
</mgrwt>
</event>
<event>
 8    1  0.7550631E-006  0.1820156E+03  0.7546771E-02  0.1168861E+00
          1   -1    0    0  501    0  0.00000000000E+00  0.00000000000E+00  0.21449760212E+03  0.21449760212E+03  0.00000000000E+00 0. -1.
         -1   -1    0    0    0  501 -0.00000000000E+00 -0.00000000000E+00 -0.17448197535E+03  0.17448197535E+03  0.00000000000E+00 0.  1.
         23    2    1    2    0    0 -0.14374067109E+03 -0.10404019958E+01 -0.61343178848E+02  0.18064506253E+03  0.90593543176E+02 0.  0.
         23    2    1    2    0    0  0.14374067109E+03  0.10404019958E+01  0.10135880561E+03  0.20833451494E+03  0.11165661503E+03 0.  0.
          5    1    4    4  502    0  0.12355366624E+03 -0.44937356347E+02  0.74836645437E+02  0.15135219832E+03  0.47000000000E+01 0. -1.
         -5    1    4    4    0  502  0.20187004848E+02  0.45977758343E+02  0.26522160177E+02  0.56982316620E+02  0.47000000000E+01 0.  1.
        -11    1    3    3    0    0 -0.33455869544E+02 -0.14101072185E+02  0.21409347930E+02  0.42148494902E+02  0.00000000000E+00 0. -1.
         11    1    3    3    0    0 -0.11028480154E+03  0.13060670190E+02 -0.82752526778E+02  0.13849656763E+03  0.00000000000E+00 0.  1.
<mgrwt>
<rscale>  0 0.17891081E+03</rscale>
<asrwt>0</asrwt>
<pdfrwt beam="1">  1        1 0.32999631E-01 0.18201556E+03</pdfrwt>
<pdfrwt beam="2">  1       -1 0.26843381E-01 0.18201556E+03</pdfrwt>
<totfact> 0.16388094E+03</totfact>
</mgrwt>
</event>
<event>
 8    1  0.7550631E-006  0.1364761E+03  0.7546771E-02  0.1229308E+00
          1   -1    0    0  501    0  0.00000000000E+00  0.00000000000E+00  0.34667223167E+03  0.34667223167E+03  0.00000000000E+00 0. -1.
         -1   -1    0    0    0  501 -0.00000000000E+00 -0.00000000000E+00 -0.65385843557E+02  0.65385843557E+02  0.00000000000E+00 0.  1.
         23    2    1    2    0    0 -0.37122857808E+02  0.40269870775E+02  0.10269063994E+02  0.10861760425E+03  0.93233905925E+02 0.  0.
         23    2    1    2    0    0  0.37122857808E+02 -0.40269870775E+02  0.27101732411E+03  0.30344047097E+03  0.12500384149E+03 0.  0.
          5    1    4    4  502    0  0.12020296715E+02  0.11179504383E+02 -0.77969861923E+01  0.18771037400E+02  0.47000000000E+01 0.  1.
         -5    1    4    4    0  502  0.25102561093E+02 -0.51449375158E+02  0.27881431031E+03  0.28466943357E+03  0.47000000000E+01 0.  1.
        -11    1    3    3    0    0  0.19383488590E+02 -0.15223180716E+02 -0.10423389716E+02  0.26760267454E+02  0.00000000000E+00 0. -1.
         11    1    3    3    0    0 -0.56506346398E+02  0.55493051491E+02  0.20692453710E+02  0.81857336798E+02  0.00000000000E+00 0.  1.
<mgrwt>
<rscale>  0 0.12875975E+03</rscale>
<asrwt>0</asrwt>
<pdfrwt beam="1">  1        1 0.53334188E-01 0.13647611E+03</pdfrwt>
<pdfrwt beam="2">  1       -1 0.10059361E-01 0.13647611E+03</pdfrwt>
<totfact> 0.42403916E+03</totfact>
</mgrwt>
</event>
<event>
 8    1  0.7550631E-006  0.1339864E+03  0.7546771E-02  0.1226679E+00
          1   -1    0    0  501    0  0.00000000000E+00  0.00000000000E+00  0.28247417083E+03  0.28247417083E+03  0.00000000000E+00 0. -1.
         -1   -1    0    0    0  501 -0.00000000000E+00 -0.00000000000E+00 -0.98188889088E+02  0.98188889088E+02  0.00000000000E+00 0.  1.
         23    2    1    2    0    0 -0.72868931791E+02 -0.14189954603E+02 -0.33260401952E+02  0.12516650338E+03  0.95127089722E+02 0.  0.
         23    2    1    2    0    0  0.72868931791E+02  0.14189954603E+02  0.21754568370E+03  0.25549655654E+03  0.11153981296E+03 0.  0.
          5    1    4    4  502    0  0.41338685930E+02  0.51595882957E+02  0.56420331707E+02  0.87042322593E+02  0.47000000000E+01 0. -1.
         -5    1    4    4    0  502  0.31530245860E+02 -0.37405928353E+02  0.16112535199E+03  0.16845423395E+03  0.47000000000E+01 0.  1.
        -11    1    3    3    0    0 -0.29464002636E+02 -0.94862237806E+01 -0.64459039298E+02  0.71505829414E+02  0.00000000000E+00 0. -1.
         11    1    3    3    0    0 -0.43404929154E+02 -0.47037308225E+01  0.31198637345E+02  0.53660673969E+02  0.00000000000E+00 0.  1.
<mgrwt>
<rscale>  0 0.13052458E+03</rscale>
<asrwt>0</asrwt>
<pdfrwt beam="1">  1        1 0.43457564E-01 0.13398644E+03</pdfrwt>
<pdfrwt beam="2">  1       -1 0.15105983E-01 0.13398644E+03</pdfrwt>
<totfact> 0.29129752E+03</totfact>
</mgrwt>
</event>
<event>
 8    1  0.7550631E-006  0.1423575E+03  0.7546771E-02  0.1220312E+00
         -2   -1    0    0    0  501 -0.00000000000E+00  0.00000000000E+00  0.33554484590E+03  0.33554484590E+03  0.00000000000E+00 0.  1.
          2   -1    0    0  501    0  0.00000000000E+00 -0.00000000000E+00 -0.49400944447E+02  0.49400944447E+02  0.00000000000E+00 0. -1.
         23    2    1    2    0    0  0.51682715136E+02  0.44402017392E+02  0.11971908056E+03  0.16594151033E+03  0.92527209020E+02 0.  0.
         23    2    1    2    0    0 -0.51682715136E+02 -0.44402017392E+02  0.16642482090E+03  0.21900428002E+03  0.12499204560E+03 0.  0.
          5    1    4    4  502    0 -0.69795555760E+02 -0.58406930870E+02  0.17228959291E+03  0.19490660071E+03  0.47000000000E+01 0.  1.
         -5    1    4    4    0  502  0.18112840624E+02  0.14004913478E+02 -0.58647720124E+01  0.24097679302E+02  0.47000000000E+01 0.  1.
        -11    1    3    3    0    0  0.26115731194E+02 -0.16727057080E+02  0.22769029344E+01  0.31096786672E+02  0.00000000000E+00 0. -1.
         11    1    3    3    0    0  0.25566983942E+02  0.61129074472E+02  0.11744217762E+03  0.13484472366E+03  0.00000000000E+00 0.  1.
<mgrwt>
<rscale>  0 0.13493454E+03</rscale>
<asrwt>0</asrwt>
<pdfrwt beam="2">  1        2 0.76001455E-02 0.14235749E+03</pdfrwt>
<pdfrwt beam="1">  1       -2 0.51622282E-01 0.14235749E+03</pdfrwt>
<totfact> 0.31414222E+03</totfact>
</mgrwt>
</event>
<event>
 8    1  0.7550631E-006  0.1297120E+03  0.7546771E-02  0.1239952E+00
         -1   -1    0    0    0  501 -0.00000000000E+00  0.00000000000E+00  0.77833260466E+02  0.77833260466E+02  0.00000000000E+00 0. -1.
          1   -1    0    0  501    0  0.00000000000E+00 -0.00000000000E+00 -0.18353997603E+03  0.18353997603E+03  0.00000000000E+00 0.  1.
         23    2    1    2    0    0 -0.33493876193E+02  0.85770762770E+01 -0.13350393839E+02  0.10214100761E+03  0.95179548429E+02 0.  0.
         23    2    1    2    0    0  0.33493876193E+02 -0.85770762770E+01 -0.92356321726E+02  0.15923222889E+03  0.12501922482E+03 0.  0.
          5    1    4    4  502    0 -0.33689352898E+02  0.22833826175E+01 -0.83813485183E+02  0.90481913294E+02  0.47000000000E+01 0. -1.
         -5    1    4    4    0  502  0.67183229091E+02 -0.10860458894E+02 -0.85428365425E+01  0.68750315597E+02  0.47000000000E+01 0. -1.
        -11    1    3    3    0    0 -0.95093676779E+01 -0.42318506272E+02 -0.14883449901E+02  0.45856309573E+02  0.00000000000E+00 0.  1.
         11    1    3    3    0    0 -0.23984508515E+02  0.50895582549E+02  0.15330560611E+01  0.56284698032E+02  0.00000000000E+00 0. -1.
<mgrwt>
<rscale>  0 0.12192697E+03</rscale>
<asrwt>0</asrwt>
<pdfrwt beam="2">  1        1 0.28236919E-01 0.12971204E+03</pdfrwt>
<pdfrwt beam="1">  1       -1 0.11974348E-01 0.12971204E+03</pdfrwt>
<totfact> 0.71140983E+03</totfact>
</mgrwt>
</event>
<event>
 8    1  0.7550631E-006  0.1277724E+03  0.7546771E-02  0.1244956E+00
         -2   -1    0    0    0  501 -0.00000000000E+00  0.00000000000E+00  0.16887266676E+03  0.16887266676E+03  0.00000000000E+00 0.  1.
          2   -1    0    0  501    0  0.00000000000E+00 -0.00000000000E+00 -0.96154778641E+02  0.96154778641E+02  0.00000000000E+00 0. -1.
         23    2    1    2    0    0 -0.26065249452E+02 -0.47960369058E+01  0.95507942325E+02  0.13523851329E+03  0.92007006424E+02 0.  0.
         23    2    1    2    0    0  0.26065249452E+02  0.47960369058E+01 -0.22790054210E+02  0.12978893211E+03  0.12499352434E+03 0.  0.
          5    1    4    4  502    0  0.98864785836E+00 -0.42761198260E+02 -0.52740003086E+02  0.68066845283E+02  0.47000000000E+01 0.  1.
         -5    1    4    4    0  502  0.25076601594E+02  0.47557235165E+02  0.29949948876E+02  0.61722086823E+02  0.47000000000E+01 0.  1.
        -11    1    3    3    0    0  0.69275699045E+01 -0.16605540992E+02 -0.12354875436E+02  0.21826089055E+02  0.00000000000E+00 0. -1.
         11    1    3    3    0    0 -0.32992819357E+02  0.11809504086E+02  0.10786281776E+03  0.11341242424E+03  0.00000000000E+00 0.  1.
<mgrwt>
<rscale>  0 0.11888039E+03</rscale>
<asrwt>0</asrwt>
<pdfrwt beam="2">  1        2 0.14793043E-01 0.12777238E+03</pdfrwt>
<pdfrwt beam="1">  1       -2 0.25980410E-01 0.12777238E+03</pdfrwt>
<totfact> 0.49889278E+03</totfact>
</mgrwt>
</event>
<event>
 8    1  0.7550631E-006  0.1499246E+03  0.7546771E-02  0.1212225E+00
         -1   -1    0    0    0  501 -0.00000000000E+00  0.00000000000E+00  0.47243028842E+02  0.47243028842E+02  0.00000000000E+00 0.  1.
          1   -1    0    0  501    0  0.00000000000E+00 -0.00000000000E+00 -0.39155977939E+03  0.39155977939E+03  0.00000000000E+00 0. -1.
         23    2    1    2    0    0  0.82174050077E+02  0.10004848765E+02 -0.10841502047E+03  0.15929068604E+03  0.82261986905E+02 0.  0.
         23    2    1    2    0    0 -0.82174050077E+02 -0.10004848765E+02 -0.23590173008E+03  0.27951212220E+03  0.12499891478E+03 0.  0.
          5    1    4    4  502    0 -0.17175936843E+02 -0.61264960863E+01  0.12547470385E+02  0.22629091316E+02  0.47000000000E+01 0.  1.
         -5    1    4    4    0  502 -0.64998113234E+02 -0.38783526784E+01 -0.24844920046E+03  0.25688303088E+03  0.47000000000E+01 0.  1.
        -11    1    3    3    0    0  0.96630739790E+02  0.24644579641E+01 -0.75839892406E+02  0.12286277998E+03  0.00000000000E+00 0.  1.
         11    1    3    3    0    0 -0.14456689713E+02  0.75403908006E+01 -0.32575128066E+02  0.36427906053E+02  0.00000000000E+00 0. -1.
<mgrwt>
<rscale>  0 0.14082370E+03</rscale>
<asrwt>0</asrwt>
<pdfrwt beam="2">  1        1 0.60239965E-01 0.14992465E+03</pdfrwt>
<pdfrwt beam="1">  1       -1 0.72681584E-02 0.14992465E+03</pdfrwt>
<totfact> 0.59875726E+03</totfact>
</mgrwt>
</event>
<event>
 8    1  0.7550631E-006  0.1149689E+03  0.7546771E-02  0.1260786E+00
          1   -1    0    0  501    0  0.00000000000E+00  0.00000000000E+00  0.61903493567E+02  0.61903493567E+02  0.00000000000E+00 0. -1.
         -1   -1    0    0    0  501 -0.00000000000E+00 -0.00000000000E+00 -0.20446172288E+03  0.20446172288E+03  0.00000000000E+00 0.  1.
         23    2    1    2    0    0 -0.12627728866E+02  0.27852476525E+02 -0.11186599363E+03  0.14737003313E+03  0.90932426276E+02 0.  0.
         23    2    1    2    0    0  0.12627728866E+02 -0.27852476525E+02 -0.30692235681E+02  0.11899518332E+03  0.11082698379E+03 0.  0.
          5    1    4    4  502    0  0.52132009835E+02  0.12775750644E+02 -0.30941240634E+02  0.62132251093E+02  0.47000000000E+01 0. -1.
         -5    1    4    4    0  502 -0.39504280968E+02 -0.40628227169E+02  0.24900495293E+00  0.56862932225E+02  0.47000000000E+01 0.  1.
        -11    1    3    3    0    0  0.38237194584E+02  0.91768113973E+01 -0.63764664868E+02  0.74914814308E+02  0.00000000000E+00 0.  1.
         11    1    3    3    0    0 -0.50864923450E+02  0.18675665128E+02 -0.48101328763E+02  0.72455218820E+02  0.00000000000E+00 0. -1.
<mgrwt>
<rscale>  0 0.10988333E+03</rscale>
<asrwt>0</asrwt>
<pdfrwt beam="1">  1        1 0.95236143E-02 0.11496887E+03</pdfrwt>
<pdfrwt beam="2">  1       -1 0.31455650E-01 0.11496887E+03</pdfrwt>
<totfact> 0.60564029E+03</totfact>
</mgrwt>
</event>
<event>
 8    1  0.7550631E-006  0.1548356E+03  0.7546771E-02  0.1202799E+00
          1   -1    0    0  501    0  0.00000000000E+00  0.00000000000E+00  0.59444036922E+03  0.59444036922E+03  0.00000000000E+00 0. -1.
         -1   -1    0    0    0  501 -0.00000000000E+00 -0.00000000000E+00 -0.36079234643E+02  0.36079234643E+02  0.00000000000E+00 0.  1.
         23    2    1    2    0    0  0.15805798992E+02 -0.90003782358E+02  0.18128992467E+03  0.22289629047E+03  0.92012039413E+02 0.  0.
         23    2    1    2    0    0 -0.15805798992E+02  0.90003782358E+02  0.37707120991E+03  0.40762331340E+03  0.12499425652E+03 0.  0.
          5    1    4    4  502    0 -0.20721570577E+02  0.59940727323E+02  0.54996897136E+02  0.84077481966E+02  0.47000000000E+01 0. -1.
         -5    1    4    4    0  502  0.49157715854E+01  0.30063055035E+02  0.32207431277E+03  0.32354583143E+03  0.47000000000E+01 0. -1.
        -11    1    3    3    0    0  0.13097424462E+01 -0.10481077100E+03  0.12629048468E+03  0.16412281884E+03  0.00000000000E+00 0.  1.
         11    1    3    3    0    0  0.14496056545E+02  0.14806988642E+02  0.54999439997E+02  0.58773471635E+02  0.00000000000E+00 0. -1.
<mgrwt>
<rscale>  0 0.14812242E+03</rscale>
<asrwt>0</asrwt>
<pdfrwt beam="1">  1        1 0.91452357E-01 0.15483562E+03</pdfrwt>
<pdfrwt beam="2">  1       -1 0.55506519E-02 0.15483562E+03</pdfrwt>
<totfact> 0.52090648E+03</totfact>
</mgrwt>
</event>
<event>
 8    1  0.7550631E-006  0.1729909E+03  0.7546771E-02  0.1181557E+00
          1   -1    0    0  501    0  0.00000000000E+00  0.00000000000E+00  0.91489639735E+03  0.91489639735E+03  0.00000000000E+00 0. -1.
         -1   -1    0    0    0  501 -0.00000000000E+00 -0.00000000000E+00 -0.34469620385E+02  0.34469620385E+02  0.00000000000E+00 0.  1.
         23    2    1    2    0    0 -0.54885793950E+02  0.10624475617E+03  0.21116271806E+03  0.25810614181E+03  0.87912958936E+02 0.  0.
         23    2    1    2    0    0  0.54885793950E+02 -0.10624475617E+03  0.66926405891E+03  0.69125987593E+03  0.12500174772E+03 0.  0.
          5    1    4    4  502    0 -0.18738701236E+02  0.79106713179E+01  0.24197418073E+03  0.24287303635E+03  0.47000000000E+01 0.  1.
         -5    1    4    4    0  502  0.73624495185E+02 -0.11415542749E+03  0.42728987818E+03  0.44838683958E+03  0.47000000000E+01 0.  1.
        -11    1    3    3    0    0 -0.13691776280E+02 -0.14999800618E+02  0.26416711344E+02  0.33321185371E+02  0.00000000000E+00 0. -1.
         11    1    3    3    0    0 -0.41194017670E+02  0.12124455679E+03  0.18474600671E+03  0.22478495643E+03  0.00000000000E+00 0.  1.
<mgrwt>
<rscale>  0 0.16649144E+03</rscale>
<asrwt>0</asrwt>
<pdfrwt beam="1">  1        1 0.14075327E+00 0.17299085E+03</pdfrwt>
<pdfrwt beam="2">  1       -1 0.53030192E-02 0.17299085E+03</pdfrwt>
<totfact> 0.29626063E+03</totfact>
</mgrwt>
</event>
<event>
 8    1  0.7550631E-006  0.1319929E+03  0.7546771E-02  0.1237780E+00
         -2   -1    0    0    0  501 -0.00000000000E+00  0.00000000000E+00  0.96993323116E+02  0.96993323116E+02  0.00000000000E+00 0.  1.
          2   -1    0    0  501    0  0.00000000000E+00 -0.00000000000E+00 -0.15376886864E+03  0.15376886864E+03  0.00000000000E+00 0. -1.
         23    2    1    2    0    0  0.10948159988E+02  0.40932652816E+02  0.13296412599E+02  0.10132252397E+03  0.91072031947E+02 0.  0.
         23    2    1    2    0    0 -0.10948159988E+02 -0.40932652816E+02 -0.70071958122E+02  0.14943966778E+03  0.12500716266E+03 0.  0.
          5    1    4    4  502    0  0.18845736294E+02 -0.67664260928E+02 -0.21129621189E+01  0.70428464361E+02  0.47000000000E+01 0. -1.
         -5    1    4    4    0  502 -0.29793896282E+02  0.26731608112E+02 -0.67958996003E+02  0.79011203418E+02  0.47000000000E+01 0. -1.
        -11    1    3    3    0    0  0.23220395659E+02  0.66810487455E+02  0.26916225405E+01  0.70781868020E+02  0.00000000000E+00 0.  1.
         11    1    3    3    0    0 -0.12272235671E+02 -0.25877834639E+02  0.10604790058E+02  0.30540655955E+02  0.00000000000E+00 0. -1.
<mgrwt>
<rscale>  0 0.12328110E+03</rscale>
<asrwt>0</asrwt>
<pdfrwt beam="2">  1        2 0.23656749E-01 0.13199294E+03</pdfrwt>
<pdfrwt beam="1">  1       -2 0.14922050E-01 0.13199294E+03</pdfrwt>
<totfact> 0.74737879E+03</totfact>
</mgrwt>
</event>
<event>
 8    1  0.7550631E-006  0.1352768E+03  0.7546771E-02  0.1232472E+00
         -1   -1    0    0    0  501 -0.00000000000E+00  0.00000000000E+00  0.31604490815E+03  0.31604490815E+03  0.00000000000E+00 0.  1.
          1   -1    0    0  501    0  0.00000000000E+00 -0.00000000000E+00 -0.45308486744E+02  0.45308486744E+02  0.00000000000E+00 0. -1.
         23    2    1    2    0    0 -0.45973218560E+01 -0.51516641396E+02  0.11472749053E+03  0.15486220532E+03  0.90248578075E+02 0.  0.
         23    2    1    2    0    0  0.45973218560E+01  0.51516641396E+02  0.15600893087E+03  0.20649118957E+03  0.12499890059E+03 0.  0.
          5    1    4    4  502    0 -0.46802415889E+02  0.58689197956E+02  0.56174813247E+02  0.93875384064E+02  0.47000000000E+01 0. -1.
         -5    1    4    4    0  502  0.51399737745E+02 -0.71725565599E+01  0.99834117621E+02  0.11261580550E+03  0.47000000000E+01 0. -1.
        -11    1    3    3    0    0 -0.29069346993E+02 -0.30094880777E+02  0.11496020912E+03  0.12233796820E+03  0.00000000000E+00 0.  1.
         11    1    3    3    0    0  0.24472025137E+02 -0.21421760619E+02 -0.23271858461E+00  0.32524237120E+02  0.00000000000E+00 0. -1.
<mgrwt>
<rscale>  0 0.12667635E+03</rscale>
<asrwt>0</asrwt>
<pdfrwt beam="2">  1        1 0.69705366E-02 0.13527685E+03</pdfrwt>
<pdfrwt beam="1">  1       -1 0.48622292E-01 0.13527685E+03</pdfrwt>
<totfact> 0.43481630E+03</totfact>
</mgrwt>
</event>
<event>
 8    1  0.7550631E-006  0.1395573E+03  0.7546771E-02  0.1226126E+00
         -2   -1    0    0    0  501 -0.00000000000E+00  0.00000000000E+00  0.12503481405E+02  0.12503481405E+02  0.00000000000E+00 0.  1.
          2   -1    0    0  501    0  0.00000000000E+00 -0.00000000000E+00 -0.12708867012E+04  0.12708867012E+04  0.00000000000E+00 0. -1.
         23    2    1    2    0    0 -0.53492715856E+02 -0.31466500195E+02 -0.43167070759E+03  0.44498108343E+03  0.88413537047E+02 0.  0.
         23    2    1    2    0    0  0.53492715856E+02  0.31466500195E+02 -0.82671251223E+03  0.83840909920E+03  0.12499851384E+03 0.  0.
          5    1    4    4  502    0 -0.52972604900E+01 -0.42860457927E+02 -0.21066236274E+03  0.21509486488E+03  0.47000000000E+01 0. -1.
         -5    1    4    4    0  502  0.58789976346E+02  0.74326958122E+02 -0.61605014949E+03  0.62331423432E+03  0.47000000000E+01 0. -1.
        -11    1    3    3    0    0  0.14507249786E+02 -0.11079760627E+02 -0.19380447710E+02  0.26623732746E+02  0.00000000000E+00 0.  1.
         11    1    3    3    0    0 -0.67999965641E+02 -0.20386739568E+02 -0.41229025988E+03  0.41835735068E+03  0.00000000000E+00 0. -1.
<mgrwt>
<rscale>  0 0.13090059E+03</rscale>
<asrwt>0</asrwt>
<pdfrwt beam="2">  1        2 0.19552117E+00 0.13955730E+03</pdfrwt>
<pdfrwt beam="1">  1       -2 0.19236112E-02 0.13955730E+03</pdfrwt>
<totfact> 0.14413507E+04</totfact>
</mgrwt>
</event>
<event>
 8    1  0.7550631E-006  0.1830668E+03  0.7546771E-02  0.1169936E+00
         -2   -1    0    0    0  501 -0.00000000000E+00  0.00000000000E+00  0.53498335284E+02  0.53498335284E+02  0.00000000000E+00 0.  1.
          2   -1    0    0  501    0  0.00000000000E+00 -0.00000000000E+00 -0.65131239575E+03  0.65131239575E+03  0.00000000000E+00 0. -1.
         23    2    1    2    0    0  0.11260749619E+03  0.72171234767E+02 -0.15183238577E+03  0.22271829312E+03  0.93065726216E+02 0.  0.
         23    2    1    2    0    0 -0.11260749619E+03 -0.72171234767E+02 -0.44598167469E+03  0.48209243791E+03  0.12499731678E+03 0.  0.
          5    1    4    4  502    0 -0.18624502718E+02 -0.48377001663E+02 -0.31387640553E+03  0.31816299964E+03  0.47000000000E+01 0. -1.
         -5    1    4    4    0  502 -0.93982993472E+02 -0.23794233103E+02 -0.13210526917E+03  0.16392943827E+03  0.47000000000E+01 0. -1.
        -11    1    3    3    0    0  0.87111039191E+02  0.90596263843E+02 -0.14228383403E+03  0.18984389797E+03  0.00000000000E+00 0.  1.
         11    1    3    3    0    0  0.25496456999E+02 -0.18425029076E+02 -0.95485517389E+01  0.32874395147E+02  0.00000000000E+00 0. -1.
<mgrwt>
<rscale>  0 0.17781404E+03</rscale>
<asrwt>0</asrwt>
<pdfrwt beam="2">  1        2 0.10020191E+00 0.18306683E+03</pdfrwt>
<pdfrwt beam="1">  1       -2 0.82305130E-02 0.18306683E+03</pdfrwt>
<totfact> 0.40702551E+03</totfact>
</mgrwt>
</event>
<event>
 8    1  0.7550631E-006  0.1448325E+03  0.7546771E-02  0.1217165E+00
          2   -1    0    0  501    0  0.00000000000E+00  0.00000000000E+00  0.12979446872E+03  0.12979446872E+03  0.00000000000E+00 0.  1.
         -2   -1    0    0    0  501 -0.00000000000E+00 -0.00000000000E+00 -0.13556190179E+03  0.13556190179E+03  0.00000000000E+00 0. -1.
         23    2    1    2    0    0 -0.52474725168E+02 -0.50970811960E+02 -0.25042239681E+02  0.11924692640E+03  0.90780478272E+02 0.  0.
         23    2    1    2    0    0  0.52474725168E+02  0.50970811960E+02  0.19274806606E+02  0.14610944410E+03  0.12499932413E+03 0.  0.
          5    1    4    4  502    0  0.28333794906E+02  0.42994518219E+01  0.68221252037E+02  0.74145252371E+02  0.47000000000E+01 0.  1.
         -5    1    4    4    0  502  0.24140930262E+02  0.46671360138E+02 -0.48946445431E+02  0.71964191730E+02  0.47000000000E+01 0.  1.
        -11    1    3    3    0    0 -0.45744330877E+02 -0.62829048055E+02  0.13033915061E+02  0.78803020429E+02  0.00000000000E+00 0.  1.
         11    1    3    3    0    0 -0.67303942911E+01  0.11858236095E+02 -0.38076154742E+02  0.40443905976E+02  0.00000000000E+00 0. -1.
<mgrwt>
<rscale>  0 0.13718695E+03</rscale>
<asrwt>0</asrwt>
<pdfrwt beam="1">  1        2 0.19968380E-01 0.14483249E+03</pdfrwt>
<pdfrwt beam="2">  1       -2 0.20855677E-01 0.14483249E+03</pdfrwt>
<totfact> 0.52054050E+03</totfact>
</mgrwt>
</event>
<event>
 8    1  0.7550631E-006  0.1341767E+03  0.7546771E-02  0.1237196E+00
         -2   -1    0    0    0  501 -0.00000000000E+00  0.00000000000E+00  0.55602422658E+02  0.55602422658E+02  0.00000000000E+00 0.  1.
          2   -1    0    0  501    0  0.00000000000E+00 -0.00000000000E+00 -0.24303447223E+03  0.24303447223E+03  0.00000000000E+00 0. -1.
         23    2    1    2    0    0 -0.38266182534E+02  0.30186012468E+02 -0.61747999029E+02  0.11478952795E+03  0.83596197694E+02 0.  0.
         23    2    1    2    0    0  0.38266182534E+02 -0.30186012468E+02 -0.12568405054E+03  0.18384736693E+03  0.12501151024E+03 0.  0.
          5    1    4    4  502    0  0.76283674731E+02 -0.91306763451E+01 -0.11577369442E+03  0.13902592061E+03  0.47000000000E+01 0. -1.
         -5    1    4    4    0  502 -0.38017492196E+02 -0.21055336122E+02 -0.99103561172E+01  0.44821446323E+02  0.47000000000E+01 0. -1.
        -11    1    3    3    0    0 -0.18784332196E+02  0.40156620030E+02 -0.76485446434E+02  0.88404913803E+02  0.00000000000E+00 0. -1.
         11    1    3    3    0    0 -0.19481850338E+02 -0.99706075625E+01  0.14737447405E+02  0.26384614149E+02  0.00000000000E+00 0.  1.
<mgrwt>
<rscale>  0 0.12364864E+03</rscale>
<asrwt>0</asrwt>
<pdfrwt beam="2">  1        2 0.37389918E-01 0.13417665E+03</pdfrwt>
<pdfrwt beam="1">  1       -2 0.85542190E-02 0.13417665E+03</pdfrwt>
<totfact> 0.11022984E+04</totfact>
</mgrwt>
</event>
<event>
 8    1  0.7550631E-006  0.1682188E+03  0.7546771E-02  0.1186998E+00
         -2   -1    0    0    0  501 -0.00000000000E+00  0.00000000000E+00  0.22485730436E+02  0.22485730436E+02  0.00000000000E+00 0.  1.
          2   -1    0    0  501    0  0.00000000000E+00 -0.00000000000E+00 -0.13022738420E+04  0.13022738420E+04  0.00000000000E+00 0. -1.
         23    2    1    2    0    0 -0.81054755492E+02  0.78120194338E+02 -0.32196410310E+03  0.35227594425E+03  0.88118210736E+02 0.  0.
         23    2    1    2    0    0  0.81054755492E+02 -0.78120194338E+02 -0.95782400844E+03  0.97248362816E+03  0.12499975096E+03 0.  0.
          5    1    4    4  502    0  0.70047820315E+02 -0.15623593147E+02 -0.78551122483E+03  0.78879703862E+03  0.47000000000E+01 0. -1.
         -5    1    4    4    0  502  0.11006935177E+02 -0.62496601191E+02 -0.17231278361E+03  0.18368658954E+03  0.47000000000E+01 0. -1.
        -11    1    3    3    0    0 -0.76104337207E+02  0.13227063544E+02 -0.19111180404E+03  0.20613235310E+03  0.00000000000E+00 0.  1.
         11    1    3    3    0    0 -0.49504182846E+01  0.64893130794E+02 -0.13085229906E+03  0.14614359115E+03  0.00000000000E+00 0. -1.
<mgrwt>
<rscale>  0 0.16151368E+03</rscale>
<asrwt>0</asrwt>
<pdfrwt beam="2">  1        2 0.20034989E+00 0.16821883E+03</pdfrwt>
<pdfrwt beam="1">  1       -2 0.34593419E-02 0.16821883E+03</pdfrwt>
<totfact> 0.59047872E+03</totfact>
</mgrwt>
</event>
<event>
 7    1  0.7550631E-006  0.1554382E+03  0.7546771E-02  0.1213267E+00
          1   -1    0    0  501    0  0.00000000000E+00  0.00000000000E+00  0.18652912089E+03  0.18652912089E+03  0.00000000000E+00 0. -1.
         -1   -1    0    0    0  501 -0.00000000000E+00 -0.00000000000E+00 -0.89731419516E+02  0.89731419516E+02  0.00000000000E+00 0.  1.
         23    2    1    2    0    0 -0.33977480480E+02 -0.35890418875E+02  0.27360074049E+02  0.10601774373E+03  0.89713973192E+02 0.  0.
          5    1    1    2  502    0 -0.44149432094E+02 -0.15099087355E+02  0.60293352490E+02  0.76384115808E+02  0.47000000000E+01 0. -1.
         -5    1    1    2    0  502  0.78126912574E+02  0.50989506230E+02  0.91442748383E+01  0.93858680878E+02  0.47000000000E+01 0.  1.
        -11    1    3    3    0    0 -0.32740088306E+02 -0.62635245957E+02  0.45109542306E+01  0.70819743903E+02  0.00000000000E+00 0. -1.
         11    1    3    3    0    0 -0.12373921737E+01  0.26744827082E+02  0.22849119819E+02  0.35197999823E+02  0.00000000000E+00 0.  1.
<mgrwt>
<rscale>  0 0.14004621E+03</rscale>
<asrwt>0</asrwt>
<pdfrwt beam="1">  1        1 0.28696788E-01 0.15543817E+03</pdfrwt>
<pdfrwt beam="2">  1       -1 0.13804834E-01 0.15543817E+03</pdfrwt>
<totfact> 0.56579190E+03</totfact>
</mgrwt>
</event>
<event>
 8    1  0.7550631E-006  0.1599535E+03  0.7546771E-02  0.1196731E+00
          2   -1    0    0  501    0  0.00000000000E+00  0.00000000000E+00  0.62891238401E+03  0.62891238401E+03  0.00000000000E+00 0. -1.
         -2   -1    0    0    0  501 -0.00000000000E+00 -0.00000000000E+00 -0.41988410030E+02  0.41988410030E+02  0.00000000000E+00 0.  1.
         23    2    1    2    0    0  0.76802557856E+02  0.63717108698E+02  0.13022193321E+03  0.18699802344E+03  0.89732970804E+02 0.  0.
         23    2    1    2    0    0 -0.76802557856E+02 -0.63717108698E+02  0.45670204078E+03  0.48390277060E+03  0.12500653787E+03 0.  0.
          5    1    4    4  502    0 -0.81654091468E+02  0.75315688894E+01  0.17601972953E+03  0.19423992990E+03  0.47000000000E+01 0.  1.
         -5    1    4    4    0  502  0.48515336121E+01 -0.71248677588E+02  0.28068231125E+03  0.28966284070E+03  0.47000000000E+01 0.  1.
        -11    1    3    3    0    0 -0.14903917151E+02  0.23485779228E+02  0.79080681720E+01  0.28917920302E+02  0.00000000000E+00 0.  1.
         11    1    3    3    0    0  0.91706475007E+02  0.40231329470E+02  0.12231386503E+03  0.15808010314E+03  0.00000000000E+00 0. -1.
<mgrwt>
<rscale>  0 0.15308624E+03</rscale>
<asrwt>0</asrwt>
<pdfrwt beam="1">  1        2 0.96755744E-01 0.15995355E+03</pdfrwt>
<pdfrwt beam="2">  1       -2 0.64597559E-02 0.15995355E+03</pdfrwt>
<totfact> 0.61273621E+03</totfact>
</mgrwt>
</event>
<event>
 8    1  0.7550631E-006  0.1842606E+03  0.7546771E-02  0.1168987E+00
         -1   -1    0    0    0  501 -0.00000000000E+00  0.00000000000E+00  0.14287201906E+03  0.14287201906E+03  0.00000000000E+00 0.  1.
          1   -1    0    0  501    0  0.00000000000E+00 -0.00000000000E+00 -0.26605309457E+03  0.26605309457E+03  0.00000000000E+00 0. -1.
         23    2    1    2    0    0  0.12540037539E+03  0.50998337861E+02  0.33912946715E+02  0.16678772990E+03  0.91334409065E+02 0.  0.
         23    2    1    2    0    0 -0.12540037539E+03 -0.50998337861E+02 -0.15709402222E+03  0.24213738373E+03  0.12500358463E+03 0.  0.
          5    1    4    4  502    0 -0.10297499573E+03 -0.17580536857E+02 -0.30070901519E+02  0.10880842863E+03  0.47000000000E+01 0. -1.
         -5    1    4    4    0  502 -0.22425379659E+02 -0.33417801004E+02 -0.12702312070E+03  0.13332895510E+03  0.47000000000E+01 0. -1.
        -11    1    3    3    0    0  0.66023261489E+02  0.68395678335E+02 -0.23093615267E+01  0.95091393003E+02  0.00000000000E+00 0. -1.
         11    1    3    3    0    0  0.59377113901E+02 -0.17397340474E+02  0.36222308241E+02  0.71696336901E+02  0.00000000000E+00 0.  1.
<mgrwt>
<rscale>  0 0.17878182E+03</rscale>
<asrwt>0</asrwt>
<pdfrwt beam="2">  1        1 0.40931245E-01 0.18426063E+03</pdfrwt>
<pdfrwt beam="1">  1       -1 0.21980311E-01 0.18426063E+03</pdfrwt>
<totfact> 0.17421303E+03</totfact>
</mgrwt>
</event>
<event>
 8    1  0.7550631E-006  0.1486600E+03  0.7546771E-02  0.1211783E+00
          2   -1    0    0  501    0  0.00000000000E+00  0.00000000000E+00  0.10022449028E+03  0.10022449028E+03  0.00000000000E+00 0. -1.
         -2   -1    0    0    0  501 -0.00000000000E+00 -0.00000000000E+00 -0.23349349608E+03  0.23349349608E+03  0.00000000000E+00 0.  1.
         23    2    1    2    0    0  0.68112855319E+02 -0.42857407119E+02 -0.13996061429E+03  0.18490744524E+03  0.90142505775E+02 0.  0.
         23    2    1    2    0    0 -0.68112855319E+02  0.42857407119E+02  0.66916084902E+01  0.14881054112E+03  0.12499472436E+03 0.  0.
          5    1    4    4  502    0 -0.40250341150E+02 -0.27721815476E+02  0.42348484699E+02  0.64838824576E+02  0.47000000000E+01 0.  1.
         -5    1    4    4    0  502 -0.27862514169E+02  0.70579222596E+02 -0.35656876209E+02  0.83971716542E+02  0.47000000000E+01 0.  1.
        -11    1    3    3    0    0 -0.19431735104E+02 -0.12164731029E+02 -0.94763662187E+01  0.24806743576E+02  0.00000000000E+00 0. -1.
         11    1    3    3    0    0  0.87544590423E+02 -0.30692676091E+02 -0.13048424807E+03  0.16010070166E+03  0.00000000000E+00 0.  1.
<mgrwt>
<rscale>  0 0.14115504E+03</rscale>
<asrwt>0</asrwt>
<pdfrwt beam="1">  1        2 0.15419152E-01 0.14866001E+03</pdfrwt>
<pdfrwt beam="2">  1       -2 0.35922076E-01 0.14866001E+03</pdfrwt>
<totfact> 0.26721644E+03</totfact>
</mgrwt>
</event>
<event>
 8    1  0.7550631E-006  0.1402752E+03  0.7546771E-02  0.1223593E+00
         -2   -1    0    0    0  501 -0.00000000000E+00  0.00000000000E+00  0.95770149824E+02  0.95770149824E+02  0.00000000000E+00 0.  1.
          2   -1    0    0  501    0  0.00000000000E+00 -0.00000000000E+00 -0.17154937593E+03  0.17154937593E+03  0.00000000000E+00 0. -1.
         23    2    1    2    0    0  0.57379246102E+01 -0.63407067779E+02 -0.10571187516E+02  0.11262880372E+03  0.92304482011E+02 0.  0.
         23    2    1    2    0    0 -0.57379246102E+01  0.63407067779E+02 -0.65208038586E+02  0.15469072203E+03  0.12499500455E+03 0.  0.
          5    1    4    4  502    0 -0.35994027689E+02 -0.16298896178E+02  0.98653732052E+01  0.40995605062E+02  0.47000000000E+01 0.  1.
         -5    1    4    4    0  502  0.30256103078E+02  0.79705963958E+02 -0.75073411791E+02  0.11369511697E+03  0.47000000000E+01 0.  1.
        -11    1    3    3    0    0 -0.28611157089E+01 -0.50140695198E+02 -0.49558996998E+02  0.70557561477E+02  0.00000000000E+00 0. -1.
         11    1    3    3    0    0  0.85990403191E+01 -0.13266372581E+02  0.38987809482E+02  0.42071242246E+02  0.00000000000E+00 0.  1.
<mgrwt>
<rscale>  0 0.13263791E+03</rscale>
<asrwt>0</asrwt>
<pdfrwt beam="2">  1        2 0.26392211E-01 0.14027520E+03</pdfrwt>
<pdfrwt beam="1">  1       -2 0.14733869E-01 0.14027520E+03</pdfrwt>
<totfact> 0.67912024E+03</totfact>
</mgrwt>
</event>
<event>
 8    1  0.7550631E-006  0.1289452E+03  0.7546771E-02  0.1243910E+00
          1   -1    0    0  501    0  0.00000000000E+00  0.00000000000E+00  0.35563736433E+03  0.35563736433E+03  0.00000000000E+00 0. -1.
         -1   -1    0    0    0  501 -0.00000000000E+00 -0.00000000000E+00 -0.37862242711E+02  0.37862242711E+02  0.00000000000E+00 0.  1.
         23    2    1    2    0    0  0.22886922478E+02  0.21881626416E+02  0.85903905517E+02  0.12818633906E+03  0.89719784567E+02 0.  0.
         23    2    1    2    0    0 -0.22886922478E+02 -0.21881626416E+02  0.23187121610E+03  0.26531326798E+03  0.12499701003E+03 0.  0.
          5    1    4    4  502    0 -0.30934774922E+02  0.20423486738E+02  0.92187118755E+01  0.38485760466E+02  0.47000000000E+01 0.  1.
         -5    1    4    4    0  502  0.80478524437E+01 -0.42305113154E+02  0.22265250422E+03  0.22682750751E+03  0.47000000000E+01 0.  1.
        -11    1    3    3    0    0  0.33958060587E+02  0.30191073985E+02  0.99125750166E+02  0.10904386811E+03  0.00000000000E+00 0. -1.
         11    1    3    3    0    0 -0.11071138109E+02 -0.83094475693E+01 -0.13221844649E+02  0.19142470944E+02  0.00000000000E+00 0.  1.
<mgrwt>
<rscale>  0 0.11950843E+03</rscale>
<asrwt>0</asrwt>
<pdfrwt beam="1">  1        1 0.54713438E-01 0.12894522E+03</pdfrwt>
<pdfrwt beam="2">  1       -1 0.58249607E-02 0.12894522E+03</pdfrwt>
<totfact> 0.93147325E+03</totfact>
</mgrwt>
</event>
<event>
 8    1  0.7550631E-006  0.3004286E+03  0.7546771E-02  0.1086623E+00
          2   -1    0    0  501    0  0.00000000000E+00  0.00000000000E+00  0.49752449138E+03  0.49752449138E+03  0.00000000000E+00 0. -1.
         -2   -1    0    0    0  501 -0.00000000000E+00 -0.00000000000E+00 -0.17500526947E+03  0.17500526947E+03  0.00000000000E+00 0.  1.
         23    2    1    2    0    0  0.11614075468E+03 -0.24727358985E+03  0.13158559519E+03  0.31656211695E+03  0.90906005801E+02 0.  0.
         23    2    1    2    0    0 -0.11614075468E+03  0.24727358985E+03  0.19093362671E+03  0.35596764390E+03  0.12499764222E+03 0.  0.
          5    1    4    4  502    0 -0.14139262361E+03  0.20715021584E+03  0.17449312931E+03  0.30557000526E+03  0.47000000000E+01 0. -1.
         -5    1    4    4    0  502  0.25251868933E+02  0.40123374008E+02  0.16440497402E+02  0.50397638648E+02  0.47000000000E+01 0. -1.
        -11    1    3    3    0    0  0.43873851877E+02 -0.19093403233E+03  0.82064462402E+02  0.21240361478E+03  0.00000000000E+00 0.  1.
         11    1    3    3    0    0  0.72266902801E+02 -0.56339557517E+02  0.49521132787E+02  0.10415850217E+03  0.00000000000E+00 0. -1.
<mgrwt>
<rscale>  0 0.29725086E+03</rscale>
<asrwt>0</asrwt>
<pdfrwt beam="1">  1        2 0.76542229E-01 0.30042855E+03</pdfrwt>
<pdfrwt beam="2">  1       -2 0.26923888E-01 0.30042855E+03</pdfrwt>
<totfact> 0.78154119E+02</totfact>
</mgrwt>
</event>
<event>
 8    1  0.7550631E-006  0.2274337E+03  0.7546771E-02  0.1130718E+00
          2   -1    0    0  501    0  0.00000000000E+00  0.00000000000E+00  0.12518851946E+03  0.12518851946E+03  0.00000000000E+00 0. -1.
         -2   -1    0    0    0  501 -0.00000000000E+00 -0.00000000000E+00 -0.41055642333E+03  0.41055642333E+03  0.00000000000E+00 0.  1.
         23    2    1    2    0    0  0.58182588176E+02  0.18087651412E+03 -0.19709828661E+03  0.29178259111E+03  0.10093472625E+03 0.  0.
         23    2    1    2    0    0 -0.58182588176E+02 -0.18087651412E+03 -0.88269617259E+02  0.24396235169E+03  0.12499830713E+03 0.  0.
          5    1    4    4  502    0 -0.68267995075E+02 -0.27686530304E+02 -0.27073454790E+02  0.78626490867E+02  0.47000000000E+01 0. -1.
         -5    1    4    4    0  502  0.10085406899E+02 -0.15318998381E+03 -0.61196162470E+02  0.16533586082E+03  0.47000000000E+01 0. -1.
        -11    1    3    3    0    0  0.32581329551E+02  0.11660369147E+03 -0.53453181232E+02  0.13234502818E+03  0.00000000000E+00 0. -1.
         11    1    3    3    0    0  0.25601258625E+02  0.64272822647E+02 -0.14364510538E+03  0.15943756293E+03  0.00000000000E+00 0.  1.
<mgrwt>
<rscale>  0 0.22429846E+03</rscale>
<asrwt>0</asrwt>
<pdfrwt beam="1">  1        2 0.19259772E-01 0.22743373E+03</pdfrwt>
<pdfrwt beam="2">  1       -2 0.63162527E-01 0.22743373E+03</pdfrwt>
<totfact> 0.68787733E+02</totfact>
</mgrwt>
</event>
<event>
 8    1  0.7550631E-006  0.1958487E+03  0.7546771E-02  0.1159230E+00
          1   -1    0    0  501    0  0.00000000000E+00  0.00000000000E+00  0.21185759458E+03  0.21185759458E+03  0.00000000000E+00 0. -1.
         -1   -1    0    0    0  501 -0.00000000000E+00 -0.00000000000E+00 -0.16035480814E+03  0.16035480814E+03  0.00000000000E+00 0.  1.
         23    2    1    2    0    0  0.14637192901E+03 -0.36138244478E+02  0.28944949177E+01  0.17042170197E+03  0.79400655438E+02 0.  0.
         23    2    1    2    0    0 -0.14637192901E+03  0.36138244478E+02  0.48608291521E+02  0.20179070075E+03  0.12500402628E+03 0.  0.
          5    1    4    4  502    0 -0.38857500559E+02 -0.46050044544E+02  0.15116743547E+02  0.62298618665E+02  0.47000000000E+01 0.  1.
         -5    1    4    4    0  502 -0.10751442845E+03  0.82188289022E+02  0.33491547974E+02  0.13949208208E+03  0.47000000000E+01 0.  1.
        -11    1    3    3    0    0  0.14519557891E+03 -0.11604791093E+02 -0.25606265778E+00  0.14565882355E+03  0.00000000000E+00 0.  1.
         11    1    3    3    0    0  0.11763501088E+01 -0.24533453385E+02  0.31505575754E+01  0.24762878419E+02  0.00000000000E+00 0. -1.
<mgrwt>
<rscale>  0 0.18914990E+03</rscale>
<asrwt>0</asrwt>
<pdfrwt beam="1">  1        1 0.32593476E-01 0.19584872E+03</pdfrwt>
<pdfrwt beam="2">  1       -1 0.24669970E-01 0.19584872E+03</pdfrwt>
<totfact> 0.19190622E+03</totfact>
</mgrwt>
</event>
<event>
 8    1  0.7550631E-006  0.1476233E+03  0.7546771E-02  0.1214304E+00
         -2   -1    0    0    0  501 -0.00000000000E+00  0.00000000000E+00  0.45211450621E+02  0.45211450621E+02  0.00000000000E+00 0.  1.
          2   -1    0    0  501    0  0.00000000000E+00 -0.00000000000E+00 -0.66288807110E+03  0.66288807110E+03  0.00000000000E+00 0. -1.
         23    2    1    2    0    0 -0.78533849292E+02  0.14247468863E+01 -0.60478174629E+02  0.13167715332E+03  0.86669877768E+02 0.  0.
         23    2    1    2    0    0  0.78533849292E+02 -0.14247468863E+01 -0.55719844585E+03  0.57642236840E+03  0.12499217313E+03 0.  0.
          5    1    4    4  502    0  0.54583671655E+02 -0.30873171869E+02 -0.51746133653E+03  0.52126850544E+03  0.47000000000E+01 0. -1.
         -5    1    4    4    0  502  0.23950177637E+02  0.29448424983E+02 -0.39737109317E+02  0.55153862963E+02  0.47000000000E+01 0. -1.
        -11    1    3    3    0    0 -0.66609953880E+02  0.28824553893E+02 -0.10343338708E+02  0.73312519523E+02  0.00000000000E+00 0.  1.
         11    1    3    3    0    0 -0.11923895412E+02 -0.27399807007E+02 -0.50134835921E+02  0.58364633800E+02  0.00000000000E+00 0. -1.
<mgrwt>
<rscale>  0 0.13927782E+03</rscale>
<asrwt>0</asrwt>
<pdfrwt beam="2">  1        2 0.10198278E+00 0.14762330E+03</pdfrwt>
<pdfrwt beam="1">  1       -2 0.69556080E-02 0.14762330E+03</pdfrwt>
<totfact> 0.51260960E+03</totfact>
</mgrwt>
</event>
<event>
 8    1  0.7550631E-006  0.2244822E+03  0.7546771E-02  0.1133573E+00
          2   -1    0    0  501    0  0.00000000000E+00  0.00000000000E+00  0.34196913647E+03  0.34196913647E+03  0.00000000000E+00 0. -1.
         -2   -1    0    0    0  501 -0.00000000000E+00 -0.00000000000E+00 -0.35208209969E+03  0.35208209969E+03  0.00000000000E+00 0.  1.
         23    2    1    2    0    0 -0.34307004325E+02  0.18329346288E+03 -0.27604944184E+03  0.34603620198E+03  0.93617811646E+02 0.  0.
         23    2    1    2    0    0  0.34307004325E+02 -0.18329346288E+03  0.26593647861E+03  0.34801503418E+03  0.12497515465E+03 0.  0.
          5    1    4    4  502    0  0.61611812927E+01 -0.15504712746E+03  0.26585771367E+03  0.30786358311E+03  0.47000000000E+01 0.  1.
         -5    1    4    4    0  502  0.28145823033E+02 -0.28246335424E+02  0.78764938763E-01  0.40151451070E+02  0.47000000000E+01 0.  1.
        -11    1    3    3    0    0  0.25907538506E+02  0.58328950364E+02 -0.51118362571E+02  0.81771351915E+02  0.00000000000E+00 0.  1.
         11    1    3    3    0    0 -0.60214542832E+02  0.12496451252E+03 -0.22493107927E+03  0.26426485006E+03  0.00000000000E+00 0. -1.
<mgrwt>
<rscale>  0 0.22041679E+03</rscale>
<asrwt>0</asrwt>
<pdfrwt beam="1">  1        2 0.52610636E-01 0.22448219E+03</pdfrwt>
<pdfrwt beam="2">  1       -2 0.54166477E-01 0.22448219E+03</pdfrwt>
<totfact> 0.31220385E+02</totfact>
</mgrwt>
</event>
<event>
 8    1  0.7550631E-006  0.2113028E+03  0.7546771E-02  0.1142897E+00
         -2   -1    0    0    0  501 -0.00000000000E+00  0.00000000000E+00  0.38714048796E+02  0.38714048796E+02  0.00000000000E+00 0.  1.
          2   -1    0    0  501    0  0.00000000000E+00 -0.00000000000E+00 -0.10967696135E+04  0.10967696135E+04  0.00000000000E+00 0. -1.
         23    2    1    2    0    0  0.39431523051E+02  0.16577797637E+03 -0.55671054047E+03  0.59142878570E+03  0.10403941670E+03 0.  0.
         23    2    1    2    0    0 -0.39431523051E+02 -0.16577797637E+03 -0.50134502428E+03  0.54405487664E+03  0.12494676053E+03 0.  0.
          5    1    4    4  502    0 -0.80908545992E+02 -0.12701211445E+03 -0.40514175144E+03  0.43225015765E+03  0.47000000000E+01 0. -1.
         -5    1    4    4    0  502  0.41477022941E+02 -0.38765861917E+02 -0.96203272836E+02  0.11180471898E+03  0.47000000000E+01 0. -1.
        -11    1    3    3    0    0  0.52967131686E+02  0.32394813882E+02 -0.23115594286E+03  0.23934914022E+03  0.00000000000E+00 0. -1.
         11    1    3    3    0    0 -0.13535608636E+02  0.13338316249E+03 -0.32555459761E+03  0.35207964548E+03  0.00000000000E+00 0.  1.
<mgrwt>
<rscale>  0 0.20832817E+03</rscale>
<asrwt>0</asrwt>
<pdfrwt beam="2">  1        2 0.16873379E+00 0.21130281E+03</pdfrwt>
<pdfrwt beam="1">  1       -2 0.59560075E-02 0.21130281E+03</pdfrwt>
<totfact> 0.34158388E+03</totfact>
</mgrwt>
</event>
<event>
 8    1  0.7550631E-006  0.1345648E+03  0.7546771E-02  0.1233007E+00
          2   -1    0    0  501    0  0.00000000000E+00  0.00000000000E+00  0.31059406895E+03  0.31059406895E+03  0.00000000000E+00 0.  1.
         -2   -1    0    0    0  501 -0.00000000000E+00 -0.00000000000E+00 -0.62434184626E+02  0.62434184626E+02  0.00000000000E+00 0. -1.
         23    2    1    2    0    0 -0.44878540270E+02 -0.21639242609E+02  0.17490480624E+02  0.10597758977E+03  0.91885757463E+02 0.  0.
         23    2    1    2    0    0  0.44878540270E+02  0.21639242609E+02  0.23066940370E+03  0.26705066381E+03  0.12500137214E+03 0.  0.
          5    1    4    4  502    0  0.53890266134E+01 -0.85087753821E+01  0.21421611283E+03  0.21450425139E+03  0.47000000000E+01 0.  1.
         -5    1    4    4    0  502  0.39489513657E+02  0.30148017991E+02  0.16453290873E+02  0.52546412420E+02  0.47000000000E+01 0.  1.
        -11    1    3    3    0    0 -0.31853234768E+02 -0.21449983892E+02 -0.34961008232E+02  0.51932672478E+02  0.00000000000E+00 0. -1.
         11    1    3    3    0    0 -0.13025305502E+02 -0.18925871685E+00  0.52451488856E+02  0.54044917296E+02  0.00000000000E+00 0.  1.
<mgrwt>
<rscale>  0 0.12632896E+03</rscale>
<asrwt>0</asrwt>
<pdfrwt beam="1">  1        2 0.47783702E-01 0.13456479E+03</pdfrwt>
<pdfrwt beam="2">  1       -2 0.96052594E-02 0.13456479E+03</pdfrwt>
<totfact> 0.70942566E+03</totfact>
</mgrwt>
</event>
<event>
 8    1  0.7550631E-006  0.1544192E+03  0.7546771E-02  0.1204111E+00
          2   -1    0    0  501    0  0.00000000000E+00  0.00000000000E+00  0.59286067977E+03  0.59286067977E+03  0.00000000000E+00 0. -1.
         -2   -1    0    0    0  501 -0.00000000000E+00 -0.00000000000E+00 -0.37908587811E+02  0.37908587811E+02  0.00000000000E+00 0.  1.
         23    2    1    2    0    0  0.90215005470E+02  0.87285863996E+01  0.36185237372E+03  0.38351883362E+03  0.89076483671E+02 0.  0.
         23    2    1    2    0    0 -0.90215005470E+02 -0.87285863996E+01  0.19309971824E+03  0.24725043396E+03  0.12502136008E+03 0.  0.
          5    1    4    4  502    0 -0.58116188675E+02  0.15108369016E+02  0.11598300725E+02  0.61338118492E+02  0.47000000000E+01 0.  1.
         -5    1    4    4    0  502 -0.32098816795E+02 -0.23836955415E+02  0.18150141752E+03  0.18591231547E+03  0.47000000000E+01 0.  1.
        -11    1    3    3    0    0  0.79697195188E+02  0.16280774636E+02  0.36152838043E+03  0.37056642644E+03  0.00000000000E+00 0. -1.
         11    1    3    3    0    0  0.10517810282E+02 -0.75521882363E+01  0.32399328912E+00  0.12952407187E+02  0.00000000000E+00 0.  1.
<mgrwt>
<rscale>  0 0.14707740E+03</rscale>
<asrwt>0</asrwt>
<pdfrwt beam="1">  1        2 0.91209328E-01 0.15441916E+03</pdfrwt>
<pdfrwt beam="2">  1       -2 0.58320909E-02 0.15441916E+03</pdfrwt>
<totfact> 0.76482835E+03</totfact>
</mgrwt>
</event>
<event>
 8    1  0.7550631E-006  0.1406754E+03  0.7546771E-02  0.1220618E+00
          2   -1    0    0  501    0  0.00000000000E+00  0.00000000000E+00  0.32933829356E+03  0.32933829356E+03  0.00000000000E+00 0. -1.
         -2   -1    0    0    0  501 -0.00000000000E+00 -0.00000000000E+00 -0.52628224204E+02  0.52628224204E+02  0.00000000000E+00 0.  1.
         23    2    1    2    0    0  0.64269121243E+02 -0.58383212636E+01  0.92496979665E+02  0.15018208000E+03  0.99168341541E+02 0.  0.
         23    2    1    2    0    0 -0.64269121243E+02  0.58383212636E+01  0.18421308969E+03  0.23178443777E+03  0.12499982895E+03 0.  0.
          5    1    4    4  502    0 -0.89133157507E+02  0.16509989850E+02  0.18302320239E+03  0.20429606493E+03  0.47000000000E+01 0. -1.
         -5    1    4    4    0  502  0.24864036264E+02 -0.10671668586E+02  0.11898873027E+01  0.27488372842E+02  0.47000000000E+01 0. -1.
        -11    1    3    3    0    0  0.86205396316E+01  0.36401510685E+02  0.65210908197E+02  0.75178761838E+02  0.00000000000E+00 0. -1.
         11    1    3    3    0    0  0.55648581611E+02 -0.42239831948E+02  0.27286071468E+02  0.75003318157E+02  0.00000000000E+00 0.  1.
<mgrwt>
<rscale>  0 0.13471798E+03</rscale>
<asrwt>0</asrwt>
<pdfrwt beam="1">  1        2 0.50667429E-01 0.14067538E+03</pdfrwt>
<pdfrwt beam="2">  1       -2 0.80966501E-02 0.14067538E+03</pdfrwt>
<totfact> 0.87231550E+03</totfact>
</mgrwt>
</event>
<event>
 8    1  0.7550631E-006  0.1756712E+03  0.7546771E-02  0.1178812E+00
         -2   -1    0    0    0  501 -0.00000000000E+00  0.00000000000E+00  0.13765191859E+02  0.13765191859E+02  0.00000000000E+00 0.  1.
          2   -1    0    0  501    0  0.00000000000E+00 -0.00000000000E+00 -0.21221642834E+04  0.21221642834E+04  0.00000000000E+00 0. -1.
         23    2    1    2    0    0 -0.36124813891E+02 -0.11801820032E+03 -0.66459111451E+03  0.68147361088E+03  0.86554231914E+02 0.  0.
         23    2    1    2    0    0  0.36124813891E+02  0.11801820032E+03 -0.14438079771E+04  0.14544558644E+04  0.12500835607E+03 0.  0.
          5    1    4    4  502    0 -0.16843846196E+01  0.10358897303E+03 -0.13210349246E+04  0.13250995716E+04  0.47000000000E+01 0.  1.
         -5    1    4    4    0  502  0.37809198511E+02  0.14429227290E+02 -0.12277305243E+03  0.12935629283E+03  0.47000000000E+01 0.  1.
        -11    1    3    3    0    0 -0.40644770216E+02 -0.93277587654E+01 -0.16669290565E+03  0.17182994275E+03  0.00000000000E+00 0.  1.
         11    1    3    3    0    0  0.45199563244E+01 -0.10869044155E+03 -0.49789820885E+03  0.50964366813E+03  0.00000000000E+00 0. -1.
<mgrwt>
<rscale>  0 0.16907848E+03</rscale>
<asrwt>0</asrwt>
<pdfrwt beam="2">  1        2 0.32648643E+00 0.17567125E+03</pdfrwt>
<pdfrwt beam="1">  1       -2 0.21177243E-02 0.17567125E+03</pdfrwt>
<totfact> 0.45442149E+03</totfact>
</mgrwt>
</event>
<event>
 8    1  0.7550631E-006  0.4133054E+03  0.7546771E-02  0.1040016E+00
          3   -1    0    0  501    0  0.00000000000E+00  0.00000000000E+00  0.91392434062E+03  0.91392434062E+03  0.00000000000E+00 0. -1.
         -3   -1    0    0    0  501 -0.00000000000E+00 -0.00000000000E+00 -0.20333597164E+03  0.20333597164E+03  0.00000000000E+00 0.  1.
         23    2    1    2    0    0  0.38603151154E+03 -0.78590386448E+02  0.17473302872E+03  0.44053117837E+03  0.91319828350E+02 0.  0.
         23    2    1    2    0    0 -0.38603151154E+03  0.78590386448E+02  0.53585534026E+03  0.67672913389E+03  0.12499839292E+03 0.  0.
          5    1    4    4  502    0 -0.15056081235E+03  0.38505587304E+02  0.11719303288E+03  0.19469857581E+03  0.47000000000E+01 0. -1.
         -5    1    4    4    0  502 -0.23547069919E+03  0.40084799144E+02  0.41866230738E+03  0.48203055807E+03  0.47000000000E+01 0. -1.
        -11    1    3    3    0    0  0.34528652632E+03 -0.45198872497E+02  0.17036008555E+03  0.38767032654E+03  0.00000000000E+00 0. -1.
         11    1    3    3    0    0  0.40744985222E+02 -0.33391513951E+02  0.43729431737E+01  0.52860851834E+02  0.00000000000E+00 0.  1.
<mgrwt>
<rscale>  0 0.41105982E+03</rscale>
<asrwt>0</asrwt>
<pdfrwt beam="1">  1        3 0.14060374E+00 0.41330543E+03</pdfrwt>
<pdfrwt beam="2">  1       -3 0.31282458E-01 0.41330543E+03</pdfrwt>
<totfact> 0.99990184E+00</totfact>
</mgrwt>
</event>
<event>
 8    1  0.7550631E-006  0.1974930E+03  0.7546771E-02  0.1156282E+00
         -2   -1    0    0    0  501 -0.00000000000E+00  0.00000000000E+00  0.25356817306E+02  0.25356817306E+02  0.00000000000E+00 0.  1.
          2   -1    0    0  501    0  0.00000000000E+00 -0.00000000000E+00 -0.26418282019E+04  0.26418282019E+04  0.00000000000E+00 0. -1.
         23    2    1    2    0    0  0.12852029961E+03  0.82828577179E+02 -0.35532766316E+03  0.39743296093E+03  0.91198517617E+02 0.  0.
         23    2    1    2    0    0 -0.12852029961E+03 -0.82828577179E+02 -0.22611437214E+04  0.22697520583E+04  0.12500174586E+03 0.  0.
          5    1    4    4  502    0 -0.12255584556E+02  0.25639188014E+02 -0.68401703668E+03  0.68462322761E+03  0.47000000000E+01 0. -1.
         -5    1    4    4    0  502 -0.11626471505E+03 -0.10846776519E+03 -0.15771266848E+04  0.15851288307E+04  0.47000000000E+01 0. -1.
        -11    1    3    3    0    0  0.74044714247E+02  0.95342626671E+02 -0.21851710330E+03  0.24964486897E+03  0.00000000000E+00 0.  1.
         11    1    3    3    0    0  0.54475585362E+02 -0.12514049492E+02 -0.13681055985E+03  0.14778809195E+03  0.00000000000E+00 0. -1.
<mgrwt>
<rscale>  0 0.19243672E+03</rscale>
<asrwt>0</asrwt>
<pdfrwt beam="2">  1        2 0.40643500E+00 0.19749298E+03</pdfrwt>
<pdfrwt beam="1">  1       -2 0.39010498E-02 0.19749298E+03</pdfrwt>
<totfact> 0.96877553E+02</totfact>
</mgrwt>
</event>
<event>
 8    1  0.7550631E-006  0.1331005E+03  0.7546771E-02  0.1235749E+00
         -2   -1    0    0    0  501 -0.00000000000E+00  0.00000000000E+00  0.38315323123E+02  0.38315323123E+02  0.00000000000E+00 0.  1.
          2   -1    0    0  501    0  0.00000000000E+00 -0.00000000000E+00 -0.36124621711E+03  0.36124621711E+03  0.00000000000E+00 0. -1.
         23    2    1    2    0    0  0.45618732832E+02 -0.36867793231E+01 -0.14566903760E+03  0.17789169438E+03  0.91276093739E+02 0.  0.
         23    2    1    2    0    0 -0.45618732832E+02  0.36867793231E+01 -0.17726185639E+03  0.22166984586E+03  0.12498437383E+03 0.  0.
          5    1    4    4  502    0 -0.58710483346E+02 -0.45726280092E+02 -0.13867624735E+03  0.15745159613E+03  0.47000000000E+01 0. -1.
         -5    1    4    4    0  502  0.13091750514E+02  0.49413059415E+02 -0.38585609047E+02  0.64218249725E+02  0.47000000000E+01 0. -1.
        -11    1    3    3    0    0 -0.25727488641E+02 -0.14038510715E+02 -0.52007377865E+02  0.59697159122E+02  0.00000000000E+00 0.  1.
         11    1    3    3    0    0  0.71346221473E+02  0.10351731392E+02 -0.93661659733E+02  0.11819453526E+03  0.00000000000E+00 0. -1.
<mgrwt>
<rscale>  0 0.12456600E+03</rscale>
<asrwt>0</asrwt>
<pdfrwt beam="2">  1        2 0.55576341E-01 0.13310054E+03</pdfrwt>
<pdfrwt beam="1">  1       -2 0.58946651E-02 0.13310054E+03</pdfrwt>
<totfact> 0.12797815E+04</totfact>
</mgrwt>
</event>
<event>
 8    1  0.7550631E-006  0.1349237E+03  0.7546771E-02  0.1232961E+00
          2   -1    0    0  501    0  0.00000000000E+00  0.00000000000E+00  0.11140802174E+04  0.11140802174E+04  0.00000000000E+00 0. -1.
         -2   -1    0    0    0  501 -0.00000000000E+00 -0.00000000000E+00 -0.16267349650E+02  0.16267349650E+02  0.00000000000E+00 0.  1.
         23    2    1    2    0    0 -0.47535696466E+02  0.17858335723E+02  0.23297664564E+03  0.25504984360E+03  0.90519294708E+02 0.  0.
         23    2    1    2    0    0  0.47535696466E+02 -0.17858335723E+02  0.86483622211E+03  0.87529772344E+03  0.12500340398E+03 0.  0.
          5    1    4    4  502    0  0.76052588332E+02  0.27200486965E+02  0.55615639335E+03  0.56201057512E+03  0.47000000000E+01 0.  1.
         -5    1    4    4    0  502 -0.28516891866E+02 -0.45058822689E+02  0.30867982876E+03  0.31328714833E+03  0.47000000000E+01 0.  1.
        -11    1    3    3    0    0 -0.68388865952E+02 -0.51690223342E+01  0.19016181213E+03  0.20215160294E+03  0.00000000000E+00 0. -1.
         11    1    3    3    0    0  0.20853169486E+02  0.23027358058E+02  0.42814833507E+02  0.52898240660E+02  0.00000000000E+00 0.  1.
<mgrwt>
<rscale>  0 0.12635861E+03</rscale>
<asrwt>0</asrwt>
<pdfrwt beam="1">  1        2 0.17139690E+00 0.13492373E+03</pdfrwt>
<pdfrwt beam="2">  1       -2 0.25026701E-02 0.13492373E+03</pdfrwt>
<totfact> 0.11984964E+04</totfact>
</mgrwt>
</event>
<event>
 8    1  0.7550631E-006  0.1667220E+03  0.7546771E-02  0.1187100E+00
          1   -1    0    0  501    0  0.00000000000E+00  0.00000000000E+00  0.23400079190E+03  0.23400079190E+03  0.00000000000E+00 0. -1.
         -1   -1    0    0    0  501 -0.00000000000E+00 -0.00000000000E+00 -0.11673458474E+03  0.11673458474E+03  0.00000000000E+00 0.  1.
         23    2    1    2    0    0 -0.20189551369E+02  0.10843988205E+03 -0.67341591131E+00  0.14651494950E+03  0.96433142296E+02 0.  0.
         23    2    1    2    0    0  0.20189551369E+02 -0.10843988205E+03  0.11793962307E+03  0.20422042714E+03  0.12501760743E+03 0.  0.
          5    1    4    4  502    0 -0.25696460912E+02  0.17261511631E+02  0.12190896145E+02  0.33600235654E+02  0.47000000000E+01 0.  1.
         -5    1    4    4    0  502  0.45886012281E+02 -0.12570139368E+03  0.10574872693E+03  0.17062019149E+03  0.47000000000E+01 0.  1.
        -11    1    3    3    0    0 -0.35519666976E+02  0.20806675578E+02 -0.32059978811E+02  0.52176687630E+02  0.00000000000E+00 0.  1.
         11    1    3    3    0    0  0.15330115607E+02  0.87633206473E+02  0.31386562900E+02  0.94338261866E+02  0.00000000000E+00 0. -1.
<mgrwt>
<rscale>  0 0.16142249E+03</rscale>
<asrwt>0</asrwt>
<pdfrwt beam="1">  1        1 0.36000122E-01 0.16672201E+03</pdfrwt>
<pdfrwt beam="2">  1       -1 0.17959167E-01 0.16672201E+03</pdfrwt>
<totfact> 0.28237550E+03</totfact>
</mgrwt>
</event>
<event>
 8    1  0.7550631E-006  0.1719979E+03  0.7546771E-02  0.1181959E+00
          2   -1    0    0  501    0  0.00000000000E+00  0.00000000000E+00  0.87088678248E+03  0.87088678248E+03  0.00000000000E+00 0. -1.
         -2   -1    0    0    0  501 -0.00000000000E+00 -0.00000000000E+00 -0.43918464930E+02  0.43918464930E+02  0.00000000000E+00 0.  1.
         23    2    1    2    0    0 -0.56033119295E+02  0.10401064599E+03  0.13422248818E+03  0.20102652162E+03  0.91858919666E+02 0.  0.
         23    2    1    2    0    0  0.56033119295E+02 -0.10401064599E+03  0.69274582936E+03  0.71377872579E+03  0.12500144142E+03 0.  0.
          5    1    4    4  502    0  0.18284392988E+02 -0.12434510362E+03  0.56889287306E+03  0.58262956915E+03  0.47000000000E+01 0. -1.
         -5    1    4    4    0  502  0.37748726307E+02  0.20334457631E+02  0.12385295630E+03  0.13114915665E+03  0.47000000000E+01 0. -1.
        -11    1    3    3    0    0 -0.65748095100E+02  0.51388944838E+02  0.11909029357E+03  0.14541710245E+03  0.00000000000E+00 0. -1.
         11    1    3    3    0    0  0.97149758048E+01  0.52621701148E+02  0.15132194613E+02  0.55609419170E+02  0.00000000000E+00 0.  1.
<mgrwt>
<rscale>  0 0.16611685E+03</rscale>
<asrwt>0</asrwt>
<pdfrwt beam="1">  1        2 0.13398257E+00 0.17199792E+03</pdfrwt>
<pdfrwt beam="2">  1       -2 0.67566876E-02 0.17199792E+03</pdfrwt>
<totfact> 0.38525322E+03</totfact>
</mgrwt>
</event>
<event>
 8    1  0.7550631E-006  0.1296326E+03  0.7546771E-02  0.1240401E+00
         -1   -1    0    0    0  501 -0.00000000000E+00  0.00000000000E+00  0.25826173767E+03  0.25826173767E+03  0.00000000000E+00 0.  1.
          1   -1    0    0  501    0  0.00000000000E+00 -0.00000000000E+00 -0.54707065331E+02  0.54707065331E+02  0.00000000000E+00 0. -1.
         23    2    1    2    0    0 -0.71183537611E-01 -0.34333800446E+02  0.12858403993E+03  0.16321832298E+03  0.94485716971E+02 0.  0.
         23    2    1    2    0    0  0.71183537611E-01  0.34333800446E+02  0.74970632407E+02  0.14975048002E+03  0.12500318245E+03 0.  0.
          5    1    4    4  502    0  0.59298678749E+02  0.10107825757E+02  0.57273671152E+02  0.83191735468E+02  0.47000000000E+01 0.  1.
         -5    1    4    4    0  502 -0.59227495211E+02  0.24225974689E+02  0.17696961255E+02  0.66558744552E+02  0.47000000000E+01 0.  1.
        -11    1    3    3    0    0  0.21915651843E+02  0.82015899811E+01  0.10900453327E+03  0.11148789238E+03  0.00000000000E+00 0.  1.
         11    1    3    3    0    0 -0.21986835380E+02 -0.42535390427E+02  0.19579506656E+02  0.51730430597E+02  0.00000000000E+00 0. -1.
<mgrwt>
<rscale>  0 0.12164942E+03</rscale>
<asrwt>0</asrwt>
<pdfrwt beam="2">  1        1 0.84164717E-02 0.12963260E+03</pdfrwt>
<pdfrwt beam="1">  1       -1 0.39732574E-01 0.12963260E+03</pdfrwt>
<totfact> 0.48234623E+03</totfact>
</mgrwt>
</event>
<event>
 8    1  0.7550631E-006  0.1381984E+03  0.7546771E-02  0.1227428E+00
         -1   -1    0    0    0  501 -0.00000000000E+00  0.00000000000E+00  0.12575495143E+02  0.12575495143E+02  0.00000000000E+00 0.  1.
          1   -1    0    0  501    0  0.00000000000E+00 -0.00000000000E+00 -0.16568845359E+04  0.16568845359E+04  0.00000000000E+00 0. -1.
         23    2    1    2    0    0  0.49700535433E+02 -0.31707769979E+02 -0.31709170893E+03  0.33506704023E+03  0.90814336281E+02 0.  0.
         23    2    1    2    0    0 -0.49700535433E+02  0.31707769979E+02 -0.13272173319E+04  0.13343929909E+04  0.12499312837E+03 0.  0.
          5    1    4    4  502    0  0.83329297511E+01 -0.88139297610E+01 -0.13447922603E+02  0.18709882373E+02  0.47000000000E+01 0. -1.
         -5    1    4    4    0  502 -0.58033465184E+02  0.40521699740E+02 -0.13137694093E+04  0.13156831085E+04  0.47000000000E+01 0. -1.
        -11    1    3    3    0    0  0.43609673927E+02 -0.60766990443E+02 -0.18236700844E+03  0.19710950396E+03  0.00000000000E+00 0.  1.
         11    1    3    3    0    0  0.60908615057E+01  0.29059220464E+02 -0.13472470050E+03  0.13795753626E+03  0.00000000000E+00 0. -1.
<mgrwt>
<rscale>  0 0.13001879E+03</rscale>
<asrwt>0</asrwt>
<pdfrwt beam="2">  1        1 0.25490530E+00 0.13819844E+03</pdfrwt>
<pdfrwt beam="1">  1       -1 0.19346917E-02 0.13819844E+03</pdfrwt>
<totfact> 0.40156210E+03</totfact>
</mgrwt>
</event>
<event>
 8    1  0.7550631E-006  0.1228588E+03  0.7546771E-02  0.1247707E+00
         -2   -1    0    0    0  501 -0.00000000000E+00  0.00000000000E+00  0.33957294673E+02  0.33957294673E+02  0.00000000000E+00 0.  1.
          2   -1    0    0  501    0  0.00000000000E+00 -0.00000000000E+00 -0.37518111604E+03  0.37518111604E+03  0.00000000000E+00 0. -1.
         23    2    1    2    0    0 -0.11892513563E+02 -0.46095386906E+02 -0.13589379877E+03  0.16985884406E+03  0.90103750139E+02 0.  0.
         23    2    1    2    0    0  0.11892513563E+02  0.46095386906E+02 -0.20533002259E+03  0.23927956665E+03  0.11326109775E+03 0.  0.
          5    1    4    4  502    0 -0.25315874297E+02 -0.68812160039E+01 -0.30325666909E+01  0.26824076608E+02  0.47000000000E+01 0. -1.
         -5    1    4    4    0  502  0.37208387861E+02  0.52976602910E+02 -0.20229745590E+03  0.21245549004E+03  0.47000000000E+01 0.  1.
        -11    1    3    3    0    0  0.27070343854E+02 -0.52580335740E+02 -0.10155771903E+03  0.11752219160E+03  0.00000000000E+00 0.  1.
         11    1    3    3    0    0 -0.38962857417E+02  0.64849488337E+01 -0.34336079742E+02  0.52336652468E+02  0.00000000000E+00 0. -1.
<mgrwt>
<rscale>  0 0.11724791E+03</rscale>
<asrwt>0</asrwt>
<pdfrwt beam="2">  1        2 0.57720171E-01 0.12285883E+03</pdfrwt>
<pdfrwt beam="1">  1       -2 0.52241992E-02 0.12285883E+03</pdfrwt>
<totfact> 0.14649647E+04</totfact>
</mgrwt>
</event>
<event>
 8    1  0.7550631E-006  0.1317763E+03  0.7546771E-02  0.1236284E+00
          3   -1    0    0  501    0  0.00000000000E+00  0.00000000000E+00  0.24562684177E+03  0.24562684177E+03  0.00000000000E+00 0. -1.
         -3   -1    0    0    0  501 -0.00000000000E+00 -0.00000000000E+00 -0.57083379959E+02  0.57083379959E+02  0.00000000000E+00 0.  1.
         23    2    1    2    0    0  0.32118326276E+02  0.26636515022E+02  0.69680404686E+02  0.12524639424E+03  0.95342590997E+02 0.  0.
         23    2    1    2    0    0 -0.32118326276E+02 -0.26636515022E+02  0.11886305712E+03  0.17746382749E+03  0.12499557153E+03 0.  0.
          5    1    4    4  502    0  0.30946372273E+02  0.21735196113E+01 -0.83839301091E+01  0.32477414128E+02  0.47000000000E+01 0. -1.
         -5    1    4    4    0  502 -0.63064698549E+02 -0.28810034633E+02  0.12724698723E+03  0.14498641336E+03  0.47000000000E+01 0. -1.
        -11    1    3    3    0    0  0.21988818827E+02 -0.28448132783E+02  0.13995722822E+00  0.35955861834E+02  0.00000000000E+00 0. -1.
         11    1    3    3    0    0  0.10129507450E+02  0.55084647805E+02  0.69540447458E+02  0.89290532407E+02  0.00000000000E+00 0.  1.
<mgrwt>
<rscale>  0 0.12422613E+03</rscale>
<asrwt>0</asrwt>
<pdfrwt beam="1">  1        3 0.37788745E-01 0.13177626E+03</pdfrwt>
<pdfrwt beam="2">  1       -3 0.87820585E-02 0.13177626E+03</pdfrwt>
<totfact> 0.14516808E+03</totfact>
</mgrwt>
</event>
<event>
 8    1  0.7550631E-006  0.1311917E+03  0.7546771E-02  0.1238405E+00
         -2   -1    0    0    0  501 -0.00000000000E+00  0.00000000000E+00  0.20263040203E+03  0.20263040203E+03  0.00000000000E+00 0.  1.
          2   -1    0    0  501    0  0.00000000000E+00 -0.00000000000E+00 -0.12675818826E+03  0.12675818826E+03  0.00000000000E+00 0. -1.
         23    2    1    2    0    0  0.16378337518E+02 -0.36312443981E+02  0.14837834433E+03  0.17949393358E+03  0.92817539283E+02 0.  0.
         23    2    1    2    0    0 -0.16378337518E+02  0.36312443981E+02 -0.72506130556E+02  0.14989465670E+03  0.12499770243E+03 0.  0.
          5    1    4    4  502    0 -0.29348456799E+02  0.31206608358E+02 -0.10539522576E+03  0.11386583304E+03  0.47000000000E+01 0. -1.
         -5    1    4    4    0  502  0.12970119280E+02  0.51058356231E+01  0.32889095200E+02  0.36028823665E+02  0.47000000000E+01 0. -1.
        -11    1    3    3    0    0  0.27069745512E+02 -0.49647226180E+02  0.15186421919E+03  0.16205048367E+03  0.00000000000E+00 0.  1.
         11    1    3    3    0    0 -0.10691407994E+02  0.13334782199E+02 -0.34858748566E+01  0.17443449908E+02  0.00000000000E+00 0. -1.
<mgrwt>
<rscale>  0 0.12288961E+03</rscale>
<asrwt>0</asrwt>
<pdfrwt beam="2">  1        2 0.19501260E-01 0.13119173E+03</pdfrwt>
<pdfrwt beam="1">  1       -2 0.31173908E-01 0.13119173E+03</pdfrwt>
<totfact> 0.26274844E+03</totfact>
</mgrwt>
</event>
<event>
 8    1  0.7550631E-006  0.1451890E+03  0.7546771E-02  0.1220237E+00
         -1   -1    0    0    0  501 -0.00000000000E+00  0.00000000000E+00  0.18368951033E+03  0.18368951033E+03  0.00000000000E+00 0.  1.
          1   -1    0    0  501    0  0.00000000000E+00 -0.00000000000E+00 -0.94684313868E+02  0.94684313868E+02  0.00000000000E+00 0. -1.
         23    2    1    2    0    0 -0.69728241867E+02 -0.24334531486E+02  0.76299216303E+02  0.13262987379E+03  0.79466444978E+02 0.  0.
         23    2    1    2    0    0  0.69728241867E+02  0.24334531486E+02  0.12705980156E+02  0.14574395040E+03  0.12500264001E+03 0.  0.
          5    1    4    4  502    0  0.61985092242E+02  0.13386476399E+02  0.65370512345E+02  0.91196180265E+02  0.47000000000E+01 0. -1.
         -5    1    4    4    0  502  0.77431496242E+01  0.10948055087E+02 -0.52664532189E+02  0.54547770137E+02  0.47000000000E+01 0. -1.
        -11    1    3    3    0    0 -0.74340763465E+02  0.15789050845E+01  0.75974758345E+02  0.10630713033E+03  0.00000000000E+00 0.  1.
         11    1    3    3    0    0  0.46125215983E+01 -0.25913436570E+02  0.32445795820E+00  0.26322743461E+02  0.00000000000E+00 0. -1.
<mgrwt>
<rscale>  0 0.13498743E+03</rscale>
<asrwt>0</asrwt>
<pdfrwt beam="2">  1        1 0.14566818E-01 0.14518904E+03</pdfrwt>
<pdfrwt beam="1">  1       -1 0.28259925E-01 0.14518904E+03</pdfrwt>
<totfact> 0.42161281E+03</totfact>
</mgrwt>
</event>
<event>
 8    1  0.7550631E-006  0.1954300E+03  0.7546771E-02  0.1158739E+00
         -2   -1    0    0    0  501 -0.00000000000E+00  0.00000000000E+00  0.98075349588E+03  0.98075349588E+03  0.00000000000E+00 0. -1.
          2   -1    0    0  501    0  0.00000000000E+00 -0.00000000000E+00 -0.36994858639E+02  0.36994858639E+02  0.00000000000E+00 0.  1.
         23    2    1    2    0    0  0.13956524245E+03 -0.55580400373E+02  0.57236455978E+03  0.59807413187E+03  0.86740072143E+02 0.  0.
         23    2    1    2    0    0 -0.13956524245E+03  0.55580400373E+02  0.37139407747E+03  0.41967422265E+03  0.12500101830E+03 0.  0.
          5    1    4    4  502    0 -0.12790867728E+03  0.11662751914E+02  0.16973178456E+03  0.21290283745E+03  0.47000000000E+01 0. -1.
         -5    1    4    4    0  502 -0.11656565177E+02  0.43917648458E+02  0.20166229291E+03  0.20677138520E+03  0.47000000000E+01 0. -1.
        -11    1    3    3    0    0  0.10327875456E+03 -0.66565144049E+02  0.51395940998E+03  0.52844270706E+03  0.00000000000E+00 0. -1.
         11    1    3    3    0    0  0.36286487890E+02  0.10984743676E+02  0.58405149800E+02  0.69631424803E+02  0.00000000000E+00 0.  1.
<mgrwt>
<rscale>  0 0.18969195E+03</rscale>
<asrwt>0</asrwt>
<pdfrwt beam="2">  1        2 0.56915175E-02 0.19543002E+03</pdfrwt>
<pdfrwt beam="1">  1       -2 0.15088513E+00 0.19543002E+03</pdfrwt>
<totfact> 0.41066320E+02</totfact>
</mgrwt>
</event>
<event>
 8    1  0.7550631E-006  0.1469072E+03  0.7546771E-02  0.1211788E+00
         -2   -1    0    0    0  501 -0.00000000000E+00  0.00000000000E+00  0.52753657050E+02  0.52753657050E+02  0.00000000000E+00 0.  1.
          2   -1    0    0  501    0  0.00000000000E+00 -0.00000000000E+00 -0.12396995759E+04  0.12396995759E+04  0.00000000000E+00 0. -1.
         23    2    1    2    0    0 -0.80066372773E+02 -0.19281498363E+02 -0.33385090046E+02  0.12957563670E+03  0.94302074002E+02 0.  0.
         23    2    1    2    0    0  0.80066372773E+02  0.19281498363E+02 -0.11535608288E+04  0.11628775962E+04  0.12165244708E+03 0.  0.
          5    1    4    4  502    0  0.10861840065E+03  0.14684546738E+02 -0.10329285263E+04  0.10387381880E+04  0.47000000000E+01 0. -1.
         -5    1    4    4    0  502 -0.28552027879E+02  0.45969516251E+01 -0.12063230249E+03  0.12413940819E+03  0.47000000000E+01 0.  1.
        -11    1    3    3    0    0 -0.84974433320E+02 -0.45511486146E+02 -0.35693084381E+02  0.10279078734E+03  0.00000000000E+00 0.  1.
         11    1    3    3    0    0  0.49080605471E+01  0.26229987784E+02  0.23079943350E+01  0.26784849361E+02  0.00000000000E+00 0. -1.
<mgrwt>
<rscale>  0 0.14115107E+03</rscale>
<asrwt>0</asrwt>
<pdfrwt beam="2">  1        2 0.19072298E+00 0.14690718E+03</pdfrwt>
<pdfrwt beam="1">  1       -2 0.81159484E-02 0.14690718E+03</pdfrwt>
<totfact> 0.17536645E+03</totfact>
</mgrwt>
</event>
<event>
 8    1  0.7550631E-006  0.1279201E+03  0.7546771E-02  0.1250298E+00
         -3   -1    0    0    0  501 -0.00000000000E+00  0.00000000000E+00  0.43760095036E+03  0.43760095036E+03  0.00000000000E+00 0.  1.
          3   -1    0    0  501    0  0.00000000000E+00 -0.00000000000E+00 -0.28902905371E+02  0.28902905371E+02  0.00000000000E+00 0. -1.
         23    2    1    2    0    0 -0.25174446484E+02  0.10371819884E+02  0.23959057533E+03  0.25446402508E+03  0.81283263151E+02 0.  0.
         23    2    1    2    0    0  0.25174446484E+02 -0.10371819884E+02  0.16910746965E+03  0.21203983065E+03  0.12498890385E+03 0.  0.
          5    1    4    4  502    0  0.24680903795E+02 -0.13725391914E+02 -0.11853612962E+02  0.30985989343E+02  0.47000000000E+01 0.  1.
         -5    1    4    4    0  502  0.49354268911E+00  0.33535720300E+01  0.18096108261E+03  0.18105384130E+03  0.47000000000E+01 0.  1.
        -11    1    3    3    0    0 -0.51232375354E+02  0.17366736543E+01  0.19875450279E+03  0.20525867752E+03  0.00000000000E+00 0.  1.
         11    1    3    3    0    0  0.26057928871E+02  0.86351462294E+01  0.40836072546E+02  0.49205347560E+02  0.00000000000E+00 0. -1.
<mgrwt>
<rscale>  0 0.11573839E+03</rscale>
<asrwt>0</asrwt>
<pdfrwt beam="2">  1        3 0.44466011E-02 0.12792011E+03</pdfrwt>
<pdfrwt beam="1">  1       -3 0.67323218E-01 0.12792011E+03</pdfrwt>
<totfact> 0.13530950E+03</totfact>
</mgrwt>
</event>
<event>
 8    1  0.7550631E-006  0.1255781E+03  0.7546771E-02  0.1249128E+00
         -3   -1    0    0    0  501 -0.00000000000E+00  0.00000000000E+00  0.11012736528E+02  0.11012736528E+02  0.00000000000E+00 0.  1.
          3   -1    0    0  501    0  0.00000000000E+00 -0.00000000000E+00 -0.12720702664E+04  0.12720702664E+04  0.00000000000E+00 0. -1.
         23    2    1    2    0    0 -0.10521863679E+02 -0.59151447304E+01 -0.30436570971E+03  0.31818451284E+03  0.91963038270E+02 0.  0.
         23    2    1    2    0    0  0.10521863679E+02  0.59151447304E+01 -0.95669182012E+03  0.96489849005E+03  0.12499663543E+03 0.  0.
          5    1    4    4  502    0 -0.20218661477E+02 -0.11741039449E+02 -0.34088743737E+02  0.41602628869E+02  0.47000000000E+01 0.  1.
         -5    1    4    4    0  502  0.30740525156E+02  0.17656184180E+02 -0.92260307638E+03  0.92329586118E+03  0.47000000000E+01 0.  1.
        -11    1    3    3    0    0 -0.32815279609E+02 -0.40048517244E+02 -0.18076104737E+03  0.18803000440E+03  0.00000000000E+00 0. -1.
         11    1    3    3    0    0  0.22293415930E+02  0.34133372513E+02 -0.12360466234E+03  0.13015450844E+03  0.00000000000E+00 0.  1.
<mgrwt>
<rscale>  0 0.11641690E+03</rscale>
<asrwt>0</asrwt>
<pdfrwt beam="2">  1        3 0.19570309E+00 0.12557809E+03</pdfrwt>
<pdfrwt beam="1">  1       -3 0.16942674E-02 0.12557809E+03</pdfrwt>
<totfact> 0.48544602E+02</totfact>
</mgrwt>
</event>
<event>
 8    1  0.7550631E-006  0.1293605E+03  0.7546771E-02  0.1242773E+00
         -1   -1    0    0    0  501 -0.00000000000E+00  0.00000000000E+00  0.35181218934E+02  0.35181218934E+02  0.00000000000E+00 0. -1.
          1   -1    0    0  501    0  0.00000000000E+00 -0.00000000000E+00 -0.36227640342E+03  0.36227640342E+03  0.00000000000E+00 0.  1.
         23    2    1    2    0    0 -0.11669076415E+02  0.31157872025E+02 -0.14152788309E+03  0.17125114674E+03  0.90497697394E+02 0.  0.
         23    2    1    2    0    0  0.11669076415E+02 -0.31157872025E+02 -0.18556730140E+03  0.22620647562E+03  0.12500866342E+03 0.  0.
          5    1    4    4  502    0 -0.15666502524E+02 -0.28584287283E+02  0.52654381734E+01  0.33351396073E+02  0.47000000000E+01 0.  1.
         -5    1    4    4    0  502  0.27335578939E+02 -0.25735847420E+01 -0.19083273957E+03  0.19285507955E+03  0.47000000000E+01 0.  1.
        -11    1    3    3    0    0 -0.37241146717E+02 -0.49299404679E+01 -0.11184319253E+03  0.11798350324E+03  0.00000000000E+00 0.  1.
         11    1    3    3    0    0  0.25572070303E+02  0.36087812493E+02 -0.29684690562E+02  0.53267643498E+02  0.00000000000E+00 0. -1.
<mgrwt>
<rscale>  0 0.12019685E+03</rscale>
<asrwt>0</asrwt>
<pdfrwt beam="2">  1        1 0.55734831E-01 0.12936053E+03</pdfrwt>
<pdfrwt beam="1">  1       -1 0.54124952E-02 0.12936053E+03</pdfrwt>
<totfact> 0.10152612E+04</totfact>
</mgrwt>
</event>
<event>
 8    1  0.7550631E-006  0.1634358E+03  0.7546771E-02  0.1192139E+00
         -1   -1    0    0    0  501 -0.00000000000E+00  0.00000000000E+00  0.64088546921E+02  0.64088546921E+02  0.00000000000E+00 0.  1.
          1   -1    0    0  501    0  0.00000000000E+00 -0.00000000000E+00 -0.76012036908E+03  0.76012036908E+03  0.00000000000E+00 0. -1.
         23    2    1    2    0    0 -0.45425124225E+02 -0.94988085490E+02 -0.35267723500E+02  0.14353243885E+03  0.90948174167E+02 0.  0.
         23    2    1    2    0    0  0.45425124225E+02  0.94988085490E+02 -0.66076409866E+03  0.68067647715E+03  0.12500037671E+03 0.  0.
          5    1    4    4  502    0  0.18463875027E+01  0.97951073036E+02 -0.58443304176E+03  0.59260601766E+03  0.47000000000E+01 0. -1.
         -5    1    4    4    0  502  0.43578736722E+02 -0.29629875458E+01 -0.76331056894E+02  0.88070459497E+02  0.47000000000E+01 0. -1.
        -11    1    3    3    0    0 -0.14439101953E+02  0.26464899346E+01 -0.38338517174E+02  0.41052813220E+02  0.00000000000E+00 0. -1.
         11    1    3    3    0    0 -0.30986022272E+02 -0.97634575425E+02  0.30707936743E+01  0.10247962563E+03  0.00000000000E+00 0.  1.
<mgrwt>
<rscale>  0 0.15698831E+03</rscale>
<asrwt>0</asrwt>
<pdfrwt beam="2">  1        1 0.11694158E+00 0.16343584E+03</pdfrwt>
<pdfrwt beam="1">  1       -1 0.98597774E-02 0.16343584E+03</pdfrwt>
<totfact> 0.15457246E+03</totfact>
</mgrwt>
</event>
<event>
 8    1  0.7550631E-006  0.1355590E+03  0.7546771E-02  0.1231948E+00
         -1   -1    0    0    0  501 -0.00000000000E+00  0.00000000000E+00  0.18536025096E+02  0.18536025096E+02  0.00000000000E+00 0.  1.
          1   -1    0    0  501    0  0.00000000000E+00 -0.00000000000E+00 -0.77732861315E+03  0.77732861315E+03  0.00000000000E+00 0. -1.
         23    2    1    2    0    0  0.51450195168E+02 -0.10138232040E+02 -0.32503604116E+03  0.34141883536E+03  0.90379681100E+02 0.  0.
         23    2    1    2    0    0 -0.51450195168E+02  0.10138232040E+02 -0.43375654690E+03  0.45444580289E+03  0.12500535770E+03 0.  0.
          5    1    4    4  502    0  0.37523292485E+02  0.12759674758E+02 -0.77078260747E+02  0.86798358617E+02  0.47000000000E+01 0.  1.
         -5    1    4    4    0  502 -0.88973487654E+02 -0.26214427182E+01 -0.35667828615E+03  0.36764744427E+03  0.47000000000E+01 0.  1.
        -11    1    3    3    0    0 -0.11137383855E+02 -0.21388493920E+02 -0.25065227079E+02  0.34781814211E+02  0.00000000000E+00 0.  1.
         11    1    3    3    0    0  0.62587579023E+02  0.11250261880E+02 -0.29997081408E+03  0.30663702115E+03  0.00000000000E+00 0. -1.
<mgrwt>
<rscale>  0 0.12701825E+03</rscale>
<asrwt>0</asrwt>
<pdfrwt beam="2">  1        1 0.11958903E+00 0.13555901E+03</pdfrwt>
<pdfrwt beam="1">  1       -1 0.28516959E-02 0.13555901E+03</pdfrwt>
<totfact> 0.94096003E+03</totfact>
</mgrwt>
</event>
<event>
 8    1  0.7550631E-006  0.2651671E+03  0.7546771E-02  0.1105748E+00
          1   -1    0    0  501    0  0.00000000000E+00  0.00000000000E+00  0.14250459145E+04  0.14250459145E+04  0.00000000000E+00 0. -1.
         -1   -1    0    0    0  501 -0.00000000000E+00 -0.00000000000E+00 -0.47390585861E+02  0.47390585861E+02  0.00000000000E+00 0.  1.
         23    2    1    2    0    0 -0.23387641838E+03 -0.15120074152E+01  0.70813551621E+03  0.75231820352E+03  0.99127719593E+02 0.  0.
         23    2    1    2    0    0  0.23387641838E+03  0.15120074152E+01  0.66951981246E+03  0.72011829687E+03  0.12495245884E+03 0.  0.
          5    1    4    4  502    0  0.75101371683E+02  0.46696009263E+02  0.34250369079E+03  0.35376772255E+03  0.47000000000E+01 0. -1.
         -5    1    4    4    0  502  0.15877504670E+03 -0.45184001848E+02  0.32701612167E+03  0.36635057433E+03  0.47000000000E+01 0. -1.
        -11    1    3    3    0    0 -0.49567439312E+02 -0.13880259336E+02  0.63524258327E+02  0.81761384744E+02  0.00000000000E+00 0.  1.
         11    1    3    3    0    0 -0.18430897907E+03  0.12368251921E+02  0.64461125788E+03  0.67055681878E+03  0.00000000000E+00 0. -1.
<mgrwt>
<rscale>  0 0.26233558E+03</rscale>
<asrwt>0</asrwt>
<pdfrwt beam="1">  1        1 0.21923780E+00 0.26516708E+03</pdfrwt>
<pdfrwt beam="2">  1       -1 0.72908605E-02 0.26516708E+03</pdfrwt>
<totfact> 0.79844694E+02</totfact>
</mgrwt>
</event>
<event>
 7    1  0.7550631E-006  0.1313739E+03  0.7546771E-02  0.1242983E+00
         -4   -1    0    0    0  501 -0.00000000000E+00  0.00000000000E+00  0.26055624757E+03  0.26055624757E+03  0.00000000000E+00 0.  1.
          4   -1    0    0  501    0  0.00000000000E+00 -0.00000000000E+00 -0.47816470730E+02  0.47816470730E+02  0.00000000000E+00 0. -1.
         23    2    1    2    0    0  0.24544589006E+02  0.93117259387E+01  0.93892133199E+02  0.13121778268E+03  0.87824989182E+02 0.  0.
          5    1    1    2  502    0 -0.69430471009E+02  0.23716688476E+02  0.82249287081E+02  0.11031820721E+03  0.47000000000E+01 0. -1.
         -5    1    1    2    0  502  0.44885882002E+02 -0.33028414414E+02  0.36598356562E+02  0.66836728413E+02  0.47000000000E+01 0.  1.
        -11    1    3    3    0    0 -0.13360716598E+02  0.37469573180E+02  0.63924686275E+02  0.75291720512E+02  0.00000000000E+00 0. -1.
         11    1    3    3    0    0  0.37905305604E+02 -0.28157847242E+02  0.29967446923E+02  0.55926062166E+02  0.00000000000E+00 0.  1.
<mgrwt>
<rscale>  0 0.12006934E+03</rscale>
<asrwt>0</asrwt>
<pdfrwt beam="2">  1        4 0.73563803E-02 0.13137393E+03</pdfrwt>
<pdfrwt beam="1">  1       -4 0.40085576E-01 0.13137393E+03</pdfrwt>
<totfact> 0.12590943E+03</totfact>
</mgrwt>
</event>
<event>
 8    1  0.7550631E-006  0.1340104E+03  0.7546771E-02  0.1236031E+00
          1   -1    0    0  501    0  0.00000000000E+00  0.00000000000E+00  0.69026081122E+02  0.69026081122E+02  0.00000000000E+00 0. -1.
         -1   -1    0    0    0  501 -0.00000000000E+00 -0.00000000000E+00 -0.23858265262E+03  0.23858265262E+03  0.00000000000E+00 0.  1.
         23    2    1    2    0    0 -0.43256428277E+02  0.21501148849E+02 -0.13769329747E+03  0.16986237034E+03  0.86950346177E+02 0.  0.
         23    2    1    2    0    0  0.43256428277E+02 -0.21501148849E+02 -0.31863274030E+02  0.13774636340E+03  0.12500149763E+03 0.  0.
          5    1    4    4  502    0  0.52927669218E+02  0.28097048607E+02 -0.55454594353E+02  0.81780708875E+02  0.47000000000E+01 0. -1.
         -5    1    4    4    0  502 -0.96712409401E+01 -0.49598197456E+02  0.23591320323E+02  0.55965654528E+02  0.47000000000E+01 0. -1.
        -11    1    3    3    0    0 -0.51189778999E+02  0.45389957342E+02 -0.71099563248E+02  0.98670104872E+02  0.00000000000E+00 0.  1.
         11    1    3    3    0    0  0.79333507217E+01 -0.23888808493E+02 -0.66593734218E+02  0.71192265465E+02  0.00000000000E+00 0. -1.
<mgrwt>
<rscale>  0 0.12438678E+03</rscale>
<asrwt>0</asrwt>
<pdfrwt beam="1">  1        1 0.10619397E-01 0.13401042E+03</pdfrwt>
<pdfrwt beam="2">  1       -1 0.36705023E-01 0.13401042E+03</pdfrwt>
<totfact> 0.40734337E+03</totfact>
</mgrwt>
</event>
<event>
 8    1  0.7550631E-006  0.1356505E+03  0.7546771E-02  0.1231585E+00
         -2   -1    0    0    0  501 -0.00000000000E+00  0.00000000000E+00  0.36943518901E+03  0.36943518901E+03  0.00000000000E+00 0.  1.
          2   -1    0    0  501    0  0.00000000000E+00 -0.00000000000E+00 -0.40095514590E+02  0.40095514590E+02  0.00000000000E+00 0. -1.
         23    2    1    2    0    0 -0.52635717409E+02  0.22087502171E+01  0.17438436807E+03  0.20358843454E+03  0.90900745449E+02 0.  0.
         23    2    1    2    0    0  0.52635717409E+02 -0.22087502171E+01  0.15495530634E+03  0.20594226906E+03  0.12500269556E+03 0.  0.
          5    1    4    4  502    0  0.68613599197E+02  0.34574596937E+02  0.45830217034E+02  0.89586424985E+02  0.47000000000E+01 0. -1.
         -5    1    4    4    0  502 -0.15977881789E+02 -0.36783347154E+02  0.10912508931E+03  0.11635584408E+03  0.47000000000E+01 0. -1.
        -11    1    3    3    0    0 -0.64452591478E+02 -0.17351167038E+02  0.69962129509E+02  0.96694876344E+02  0.00000000000E+00 0. -1.
         11    1    3    3    0    0  0.11816874069E+02  0.19559917255E+02  0.10442223857E+03  0.10689355819E+03  0.00000000000E+00 0.  1.
<mgrwt>
<rscale>  0 0.12725626E+03</rscale>
<asrwt>0</asrwt>
<pdfrwt beam="2">  1        2 0.61685410E-02 0.13565055E+03</pdfrwt>
<pdfrwt beam="1">  1       -2 0.56836181E-01 0.13565055E+03</pdfrwt>
<totfact> 0.33666647E+03</totfact>
</mgrwt>
</event>
<event>
 7    1  0.7550631E-006  0.3599531E+03  0.7546771E-02  0.1058602E+00
          3   -1    0    0  501    0  0.00000000000E+00  0.00000000000E+00  0.13236595381E+03  0.13236595381E+03  0.00000000000E+00 0. -1.
         -3   -1    0    0    0  501 -0.00000000000E+00 -0.00000000000E+00 -0.24471216958E+03  0.24471216958E+03  0.00000000000E+00 0.  1.
         23    2    1    2    0    0  0.15816560667E+02  0.47462540565E+02 -0.49472185684E+02  0.11625947371E+03  0.92552210797E+02 0.  0.
          5    1    1    2  502    0  0.30398213735E+02  0.95562982544E+02 -0.42685767870E+02  0.10908941200E+03  0.47000000000E+01 0. -1.
         -5    1    1    2    0  502 -0.46214774402E+02 -0.14302552311E+03 -0.20188262216E+02  0.15172923767E+03  0.47000000000E+01 0.  1.
        -11    1    3    3    0    0  0.14771014950E+02  0.16755725234E+02 -0.73776771830E+02  0.77084040322E+02  0.00000000000E+00 0.  1.
         11    1    3    3    0    0  0.10455457171E+01  0.30706815331E+02  0.24304586146E+02  0.39175433390E+02  0.00000000000E+00 0. -1.
<mgrwt>
<rscale>  0 0.35995311E+03</rscale>
<asrwt>0</asrwt>
<pdfrwt beam="1">  1        3 0.20363993E-01 0.35995311E+03</pdfrwt>
<pdfrwt beam="2">  1       -3 0.37648025E-01 0.35995311E+03</pdfrwt>
<totfact> 0.39373374E+02</totfact>
</mgrwt>
</event>
<event>
 8    1  0.7550631E-006  0.1415398E+03  0.7546771E-02  0.1217856E+00
          1   -1    0    0  501    0  0.00000000000E+00  0.00000000000E+00  0.83083707939E+02  0.83083707939E+02  0.00000000000E+00 0. -1.
         -1   -1    0    0    0  501 -0.00000000000E+00 -0.00000000000E+00 -0.21816706713E+03  0.21816706713E+03  0.00000000000E+00 0.  1.
         23    2    1    2    0    0 -0.20877724474E+02  0.63023820238E+02 -0.90708396625E+02  0.15291784685E+03  0.10367243304E+03 0.  0.
         23    2    1    2    0    0  0.20877724474E+02 -0.63023820238E+02 -0.44374962564E+02  0.14833292821E+03  0.12500255595E+03 0.  0.
          5    1    4    4  502    0  0.20211225741E+01 -0.25827577663E+02 -0.85568124570E+02  0.89527329050E+02  0.47000000000E+01 0.  1.
         -5    1    4    4    0  502  0.18856601899E+02 -0.37196242574E+02  0.41193162005E+02  0.58805599162E+02  0.47000000000E+01 0.  1.
        -11    1    3    3    0    0 -0.80561714544E+01 -0.81907257998E+01  0.18580498663E+02  0.21845475920E+02  0.00000000000E+00 0. -1.
         11    1    3    3    0    0 -0.12821553019E+02  0.71214546037E+02 -0.10928889529E+03  0.13107237093E+03  0.00000000000E+00 0.  1.
<mgrwt>
<rscale>  0 0.13668836E+03</rscale>
<asrwt>0</asrwt>
<pdfrwt beam="1">  1        1 0.12782109E-01 0.14153982E+03</pdfrwt>
<pdfrwt beam="2">  1       -1 0.33564164E-01 0.14153982E+03</pdfrwt>
<totfact> 0.37340867E+03</totfact>
</mgrwt>
</event>
<event>
 8    1  0.7550631E-006  0.1416217E+03  0.7546771E-02  0.1218012E+00
          1   -1    0    0  501    0  0.00000000000E+00  0.00000000000E+00  0.44127621225E+03  0.44127621225E+03  0.00000000000E+00 0. -1.
         -1   -1    0    0    0  501 -0.00000000000E+00 -0.00000000000E+00 -0.11656248391E+03  0.11656248391E+03  0.00000000000E+00 0.  1.
         23    2    1    2    0    0 -0.39761728280E+02 -0.70892624869E+02 -0.68188472015E+02  0.14019189505E+03  0.91637003582E+02 0.  0.
         23    2    1    2    0    0  0.39761728280E+02  0.70892624869E+02  0.39290220036E+03  0.41764680110E+03  0.11597392866E+03 0.  0.
          5    1    4    4  502    0  0.71021161704E+02  0.72947432030E+02  0.34853925702E+03  0.36313501199E+03  0.47000000000E+01 0. -1.
         -5    1    4    4    0  502 -0.31259433424E+02 -0.20548071608E+01  0.44362943335E+02  0.54511789108E+02  0.47000000000E+01 0.  1.
        -11    1    3    3    0    0 -0.54558775299E+02 -0.64771012784E+02 -0.16762364352E+02  0.86330301273E+02  0.00000000000E+00 0.  1.
         11    1    3    3    0    0  0.14797047018E+02 -0.61216120852E+01 -0.51426107663E+02  0.53861593779E+02  0.00000000000E+00 0. -1.
<mgrwt>
<rscale>  0 0.13657576E+03</rscale>
<asrwt>0</asrwt>
<pdfrwt beam="1">  1        1 0.67888647E-01 0.14162172E+03</pdfrwt>
<pdfrwt beam="2">  1       -1 0.17932690E-01 0.14162172E+03</pdfrwt>
<totfact> 0.12736400E+03</totfact>
</mgrwt>
</event>
<event>
 8    1  0.7550631E-006  0.1488264E+03  0.7546771E-02  0.1210187E+00
         -1   -1    0    0    0  501 -0.00000000000E+00  0.00000000000E+00  0.41952485839E+03  0.41952485839E+03  0.00000000000E+00 0.  1.
          1   -1    0    0  501    0  0.00000000000E+00 -0.00000000000E+00 -0.46540559075E+02  0.46540559075E+02  0.00000000000E+00 0. -1.
         23    2    1    2    0    0 -0.52732004632E+02  0.61219181906E+02  0.12268575750E+03  0.17486334752E+03  0.94852214871E+02 0.  0.
         23    2    1    2    0    0  0.52732004632E+02 -0.61219181906E+02  0.25029854181E+03  0.29120206994E+03  0.12498333074E+03 0.  0.
          5    1    4    4  502    0  0.30233201774E+02  0.61535420524E+01  0.24148198015E+00  0.31209948459E+02  0.47000000000E+01 0.  1.
         -5    1    4    4    0  502  0.22498802858E+02 -0.67372723958E+02  0.25005705983E+03  0.25999212148E+03  0.47000000000E+01 0.  1.
        -11    1    3    3    0    0 -0.91528279908E+01  0.49779512148E+02  0.11940390094E+03  0.12968834045E+03  0.00000000000E+00 0.  1.
         11    1    3    3    0    0 -0.43579176641E+02  0.11439669758E+02  0.32818565626E+01  0.45175007066E+02  0.00000000000E+00 0. -1.
<mgrwt>
<rscale>  0 0.14236074E+03</rscale>
<asrwt>0</asrwt>
<pdfrwt beam="2">  1        1 0.71600863E-02 0.14882636E+03</pdfrwt>
<pdfrwt beam="1">  1       -1 0.64542283E-01 0.14882636E+03</pdfrwt>
<totfact> 0.24799776E+03</totfact>
</mgrwt>
</event>
<event>
 8    1  0.7550631E-006  0.1388284E+03  0.7546771E-02  0.1223533E+00
          1   -1    0    0  501    0  0.00000000000E+00  0.00000000000E+00  0.44386471698E+02  0.44386471698E+02  0.00000000000E+00 0. -1.
         -1   -1    0    0    0  501 -0.00000000000E+00 -0.00000000000E+00 -0.36608734752E+03  0.36608734752E+03  0.00000000000E+00 0.  1.
         23    2    1    2    0    0 -0.19087019800E+02  0.57305293775E+02 -0.15622519085E+03  0.19447493770E+03  0.98822973649E+02 0.  0.
         23    2    1    2    0    0  0.19087019800E+02 -0.57305293775E+02 -0.16547568498E+03  0.21599888152E+03  0.12500041391E+03 0.  0.
          5    1    4    4  502    0 -0.15946631645E+02 -0.67655072755E+02 -0.30435099372E+02  0.76025582564E+02  0.47000000000E+01 0.  1.
         -5    1    4    4    0  502  0.35033651446E+02  0.10349778980E+02 -0.13504058561E+03  0.13997329895E+03  0.47000000000E+01 0.  1.
        -11    1    3    3    0    0  0.36908328927E+02  0.26681818426E+02 -0.34864646847E+02  0.57355799867E+02  0.00000000000E+00 0. -1.
         11    1    3    3    0    0 -0.55995348727E+02  0.30623475349E+02 -0.12136054400E+03  0.13711913784E+03  0.00000000000E+00 0.  1.
<mgrwt>
<rscale>  0 0.13267962E+03</rscale>
<asrwt>0</asrwt>
<pdfrwt beam="1">  1        1 0.68286882E-02 0.13882836E+03</pdfrwt>
<pdfrwt beam="2">  1       -1 0.56321128E-01 0.13882836E+03</pdfrwt>
<totfact> 0.34149855E+03</totfact>
</mgrwt>
</event>
<event>
 8    1  0.7550631E-006  0.1319026E+03  0.7546771E-02  0.1237742E+00
         -2   -1    0    0    0  501 -0.00000000000E+00  0.00000000000E+00  0.17614685899E+02  0.17614685899E+02  0.00000000000E+00 0.  1.
          2   -1    0    0  501    0  0.00000000000E+00 -0.00000000000E+00 -0.83432973900E+03  0.83432973900E+03  0.00000000000E+00 0. -1.
         23    2    1    2    0    0 -0.12629723526E+02  0.40174340956E+02 -0.23895174669E+03  0.25931575524E+03  0.91505388253E+02 0.  0.
         23    2    1    2    0    0  0.12629723526E+02 -0.40174340956E+02 -0.57776330641E+03  0.59262866967E+03  0.12499925714E+03 0.  0.
          5    1    4    4  502    0  0.34969284965E+02  0.36554640688E+02 -0.18904696264E+03  0.19575478725E+03  0.47000000000E+01 0.  1.
         -5    1    4    4    0  502 -0.22339561439E+02 -0.76728981644E+02 -0.38871634377E+03  0.39687388242E+03  0.47000000000E+01 0.  1.
        -11    1    3    3    0    0 -0.49232835082E+01 -0.28746795286E+02 -0.97656145987E+02  0.10191829968E+03  0.00000000000E+00 0.  1.
         11    1    3    3    0    0 -0.77064400181E+01  0.68921136242E+02 -0.14129560070E+03  0.15739745556E+03  0.00000000000E+00 0. -1.
<mgrwt>
<rscale>  0 0.12330503E+03</rscale>
<asrwt>0</asrwt>
<pdfrwt beam="2">  1        2 0.12835840E+00 0.13190262E+03</pdfrwt>
<pdfrwt beam="1">  1       -2 0.27099521E-02 0.13190262E+03</pdfrwt>
<totfact> 0.15754788E+04</totfact>
</mgrwt>
</event>
<event>
 8    1  0.7550631E-006  0.1409836E+03  0.7546771E-02  0.1222393E+00
         -2   -1    0    0    0  501 -0.00000000000E+00  0.00000000000E+00  0.80437446809E+02  0.80437446809E+02  0.00000000000E+00 0.  1.
          2   -1    0    0  501    0  0.00000000000E+00 -0.00000000000E+00 -0.20149946628E+03  0.20149946628E+03  0.00000000000E+00 0. -1.
         23    2    1    2    0    0 -0.44847315403E+02  0.47334469484E+02 -0.46255033620E+02  0.12233601063E+03  0.92599879377E+02 0.  0.
         23    2    1    2    0    0  0.44847315403E+02 -0.47334469484E+02 -0.74806985846E+02  0.15960090246E+03  0.12499811692E+03 0.  0.
          5    1    4    4  502    0  0.86249962035E+02 -0.43010383278E+02 -0.65680323305E+02  0.11672593495E+03  0.47000000000E+01 0. -1.
         -5    1    4    4    0  502 -0.41402646632E+02 -0.43240862062E+01 -0.91266625412E+01  0.42874967507E+02  0.47000000000E+01 0. -1.
        -11    1    3    3    0    0 -0.23225630912E+02  0.67519639847E+01  0.26745478646E+02  0.36060221532E+02  0.00000000000E+00 0.  1.
         11    1    3    3    0    0 -0.21621684491E+02  0.40582505500E+02 -0.73000512266E+02  0.86275789095E+02  0.00000000000E+00 0. -1.
<mgrwt>
<rscale>  0 0.13347200E+03</rscale>
<asrwt>0</asrwt>
<pdfrwt beam="2">  1        2 0.30999918E-01 0.14098356E+03</pdfrwt>
<pdfrwt beam="1">  1       -2 0.12374992E-01 0.14098356E+03</pdfrwt>
<totfact> 0.75600690E+03</totfact>
</mgrwt>
</event>
<event>
 8    1  0.7550631E-006  0.1610421E+03  0.7546771E-02  0.1195176E+00
         -2   -1    0    0    0  501 -0.00000000000E+00  0.00000000000E+00  0.14130846631E+02  0.14130846631E+02  0.00000000000E+00 0.  1.
          2   -1    0    0  501    0  0.00000000000E+00 -0.00000000000E+00 -0.15618928985E+04  0.15618928985E+04  0.00000000000E+00 0. -1.
         23    2    1    2    0    0  0.73475298409E+02 -0.70075512719E+02 -0.72072761065E+03  0.73345593543E+03  0.90554533340E+02 0.  0.
         23    2    1    2    0    0 -0.73475298409E+02  0.70075512719E+02 -0.82703444122E+03  0.84256780970E+03  0.12500140007E+03 0.  0.
          5    1    4    4  502    0 -0.10631257783E+03  0.65955010418E+02 -0.70538245566E+03  0.71640695583E+03  0.47000000000E+01 0. -1.
         -5    1    4    4    0  502  0.32837279423E+02  0.41205023010E+01 -0.12165198556E+03  0.12616085388E+03  0.47000000000E+01 0. -1.
        -11    1    3    3    0    0  0.92592578931E+02 -0.53081478395E+02 -0.63795722233E+03  0.64682335034E+03  0.00000000000E+00 0.  1.
         11    1    3    3    0    0 -0.19117280522E+02 -0.16994034325E+02 -0.82770388316E+02  0.86632585089E+02  0.00000000000E+00 0. -1.
<mgrwt>
<rscale>  0 0.15439325E+03</rscale>
<asrwt>0</asrwt>
<pdfrwt beam="2">  1        2 0.24029109E+00 0.16104207E+03</pdfrwt>
<pdfrwt beam="1">  1       -2 0.21739776E-02 0.16104207E+03</pdfrwt>
<totfact> 0.85080597E+03</totfact>
</mgrwt>
</event>
<event>
 8    1  0.7550631E-006  0.1293305E+03  0.7546771E-02  0.1243939E+00
         -1   -1    0    0    0  501 -0.00000000000E+00  0.00000000000E+00  0.30863358154E+02  0.30863358154E+02  0.00000000000E+00 0.  1.
          1   -1    0    0  501    0  0.00000000000E+00 -0.00000000000E+00 -0.48101509416E+03  0.48101509416E+03  0.00000000000E+00 0. -1.
         23    2    1    2    0    0 -0.33188557591E+02 -0.18703539487E+01 -0.94579709566E+02  0.13351640991E+03  0.88183511354E+02 0.  0.
         23    2    1    2    0    0  0.33188557591E+02  0.18703539487E+01 -0.35557202644E+03  0.37836204241E+03  0.12498556143E+03 0.  0.
          5    1    4    4  502    0  0.15698262170E+02 -0.36083708994E+02 -0.32232859298E+03  0.32475572565E+03  0.47000000000E+01 0. -1.
         -5    1    4    4    0  502  0.17490295421E+02  0.37954062943E+02 -0.33243433465E+02  0.53606316758E+02  0.47000000000E+01 0. -1.
        -11    1    3    3    0    0 -0.16276575750E+01 -0.28584474777E+02  0.17531260593E+01  0.28684402006E+02  0.00000000000E+00 0.  1.
         11    1    3    3    0    0 -0.31560900016E+02  0.26714120829E+02 -0.96332835625E+02  0.10483200790E+03  0.00000000000E+00 0. -1.
<mgrwt>
<rscale>  0 0.11949102E+03</rscale>
<asrwt>0</asrwt>
<pdfrwt beam="2">  1        1 0.74002316E-01 0.12933046E+03</pdfrwt>
<pdfrwt beam="1">  1       -1 0.47482094E-02 0.12933046E+03</pdfrwt>
<totfact> 0.86036484E+03</totfact>
</mgrwt>
</event>
<event>
 8    1  0.7550631E-006  0.1265812E+03  0.7546771E-02  0.1251918E+00
         -2   -1    0    0    0  501 -0.00000000000E+00  0.00000000000E+00  0.91043178925E+02  0.91043178925E+02  0.00000000000E+00 0.  1.
          2   -1    0    0  501    0  0.00000000000E+00 -0.00000000000E+00 -0.28233656616E+03  0.28233656616E+03  0.00000000000E+00 0. -1.
         23    2    1    2    0    0  0.16900664727E+02  0.10564177192E+02  0.51231052798E+02  0.99809080810E+02  0.83306647594E+02 0.  0.
         23    2    1    2    0    0 -0.16900664727E+02 -0.10564177192E+02 -0.24252444003E+03  0.27357066427E+03  0.12500228010E+03 0.  0.
          5    1    4    4  502    0 -0.89786605374E+01  0.52986149755E+02 -0.16097374358E+03  0.16977274379E+03  0.47000000000E+01 0. -1.
         -5    1    4    4    0  502 -0.79220041894E+01 -0.63550326947E+02 -0.81550696445E+02  0.10379792048E+03  0.47000000000E+01 0. -1.
        -11    1    3    3    0    0 -0.10440376347E+02  0.83621577987E+01  0.66896884429E+02  0.68221113210E+02  0.00000000000E+00 0.  1.
         11    1    3    3    0    0  0.27341041074E+02  0.22020193931E+01 -0.15665831631E+02  0.31587967600E+02  0.00000000000E+00 0. -1.
<mgrwt>
<rscale>  0 0.11480703E+03</rscale>
<asrwt>0</asrwt>
<pdfrwt beam="2">  1        2 0.43436394E-01 0.12658122E+03</pdfrwt>
<pdfrwt beam="1">  1       -2 0.14006643E-01 0.12658122E+03</pdfrwt>
<totfact> 0.42901004E+03</totfact>
</mgrwt>
</event>
<event>
 8    1  0.7550631E-006  0.1368292E+03  0.7546771E-02  0.1228942E+00
         -2   -1    0    0    0  501 -0.00000000000E+00  0.00000000000E+00  0.24419759145E+02  0.24419759145E+02  0.00000000000E+00 0.  1.
          2   -1    0    0  501    0  0.00000000000E+00 -0.00000000000E+00 -0.32938951358E+04  0.32938951358E+04  0.00000000000E+00 0. -1.
         23    2    1    2    0    0  0.27276979234E+02 -0.48514822344E+02 -0.10442565309E+03  0.15030890030E+03  0.92684016444E+02 0.  0.
         23    2    1    2    0    0 -0.27276979234E+02  0.48514822344E+02 -0.31650497236E+04  0.31680059947E+04  0.12499803143E+03 0.  0.
          5    1    4    4  502    0  0.38619258324E+02  0.33214304604E+02 -0.21917188440E+04  0.21923157205E+04  0.47000000000E+01 0.  1.
         -5    1    4    4    0  502 -0.65896237557E+02  0.15300517740E+02 -0.97333087958E+03  0.97569027417E+03  0.47000000000E+01 0.  1.
        -11    1    3    3    0    0  0.44179538695E+02  0.11500813609E+02 -0.47488662263E+02  0.65873161427E+02  0.00000000000E+00 0.  1.
         11    1    3    3    0    0 -0.16902559461E+02 -0.60015635953E+02 -0.56936990829E+02  0.84435738878E+02  0.00000000000E+00 0. -1.
<mgrwt>
<rscale>  0 0.12900360E+03</rscale>
<asrwt>0</asrwt>
<pdfrwt beam="2">  1        2 0.50675358E+00 0.13682920E+03</pdfrwt>
<pdfrwt beam="1">  1       -2 0.37568824E-02 0.13682920E+03</pdfrwt>
<totfact> 0.43759652E+02</totfact>
</mgrwt>
</event>
<event>
 8    1  0.7550631E-006  0.1254170E+03  0.7546771E-02  0.1248850E+00
         -3   -1    0    0    0  501 -0.00000000000E+00  0.00000000000E+00  0.29393036081E+02  0.29393036081E+02  0.00000000000E+00 0.  1.
          3   -1    0    0  501    0  0.00000000000E+00 -0.00000000000E+00 -0.53054090955E+03  0.53054090955E+03  0.00000000000E+00 0. -1.
         23    2    1    2    0    0  0.10734087749E+01 -0.10120866785E+02 -0.89201100628E+02  0.12931861611E+03  0.93074615062E+02 0.  0.
         23    2    1    2    0    0 -0.10734087749E+01  0.10120866785E+02 -0.41194677284E+03  0.43061532952E+03  0.12500333680E+03 0.  0.
          5    1    4    4  502    0  0.28591106016E+02 -0.16827895507E+02 -0.37310475995E+03  0.37460630174E+03  0.47000000000E+01 0.  1.
         -5    1    4    4    0  502 -0.29664514791E+02  0.26948762292E+02 -0.38842012894E+02  0.56009027777E+02  0.47000000000E+01 0.  1.
        -11    1    3    3    0    0 -0.31980105529E+02  0.85243169480E+01 -0.78916467438E+00  0.33106100796E+02  0.00000000000E+00 0.  1.
         11    1    3    3    0    0  0.33053514304E+02 -0.18645183733E+02 -0.88411935954E+02  0.96212515316E+02  0.00000000000E+00 0. -1.
<mgrwt>
<rscale>  0 0.11657900E+03</rscale>
<asrwt>0</asrwt>
<pdfrwt beam="2">  1        3 0.81621681E-01 0.12541698E+03</pdfrwt>
<pdfrwt beam="1">  1       -3 0.45220054E-02 0.12541698E+03</pdfrwt>
<totfact> 0.87156909E+02</totfact>
</mgrwt>
</event>
<event>
 8    1  0.7550631E-006  0.1460601E+03  0.7546771E-02  0.1215184E+00
         -1   -1    0    0    0  501 -0.00000000000E+00  0.00000000000E+00  0.24381182095E+02  0.24381182095E+02  0.00000000000E+00 0.  1.
          1   -1    0    0  501    0  0.00000000000E+00 -0.00000000000E+00 -0.93610183955E+03  0.93610183955E+03  0.00000000000E+00 0. -1.
         23    2    1    2    0    0  0.59450343339E+02  0.46752212123E+02 -0.18856892767E+03  0.22272832650E+03  0.91266391839E+02 0.  0.
         23    2    1    2    0    0 -0.59450343339E+02 -0.46752212123E+02 -0.72315172979E+03  0.73775469515E+03  0.12495380452E+03 0.  0.
          5    1    4    4  502    0 -0.83699929006E+02 -0.72169662081E+02 -0.54743686575E+03  0.55850098498E+03  0.47000000000E+01 0.  1.
         -5    1    4    4    0  502  0.24249585666E+02  0.25417449958E+02 -0.17571486404E+03  0.17925371018E+03  0.47000000000E+01 0.  1.
        -11    1    3    3    0    0 -0.17126733477E+02 -0.75077710759E+01 -0.64528096319E+02  0.67183084483E+02  0.00000000000E+00 0. -1.
         11    1    3    3    0    0  0.76577076816E+02  0.54259983199E+02 -0.12404083135E+03  0.15554524202E+03  0.00000000000E+00 0.  1.
<mgrwt>
<rscale>  0 0.13862994E+03</rscale>
<asrwt>0</asrwt>
<pdfrwt beam="2">  1        1 0.14401565E+00 0.14606014E+03</pdfrwt>
<pdfrwt beam="1">  1       -1 0.37509516E-02 0.14606014E+03</pdfrwt>
<totfact> 0.47393777E+03</totfact>
</mgrwt>
</event>
<event>
 8    1  0.7550631E-006  0.1202041E+03  0.7546771E-02  0.1253941E+00
         -2   -1    0    0    0  501 -0.00000000000E+00  0.00000000000E+00  0.12024131045E+02  0.12024131045E+02  0.00000000000E+00 0.  1.
          2   -1    0    0  501    0  0.00000000000E+00 -0.00000000000E+00 -0.27819971899E+04  0.27819971899E+04  0.00000000000E+00 0. -1.
         23    2    1    2    0    0 -0.31439966014E+02  0.70460995216E+01 -0.20679950999E+03  0.22803073854E+03  0.90519950326E+02 0.  0.
         23    2    1    2    0    0  0.31439966014E+02 -0.70460995216E+01 -0.25631735489E+04  0.25659905824E+04  0.11580547654E+03 0.  0.
          5    1    4    4  502    0 -0.39362753719E+02  0.12305267435E+02 -0.13125299987E+04  0.13131861762E+04  0.47000000000E+01 0. -1.
         -5    1    4    4    0  502  0.70802719733E+02 -0.19351366957E+02 -0.12506435502E+04  0.12528044062E+04  0.47000000000E+01 0.  1.
        -11    1    3    3    0    0 -0.19173920800E+02 -0.41421914079E+02 -0.10965962128E+03  0.11877982465E+03  0.00000000000E+00 0.  1.
         11    1    3    3    0    0 -0.12266045214E+02  0.48468013601E+02 -0.97139888705E+02  0.10925091389E+03  0.00000000000E+00 0. -1.
<mgrwt>
<rscale>  0 0.11365835E+03</rscale>
<asrwt>0</asrwt>
<pdfrwt beam="2">  1        2 0.42799954E+00 0.12020411E+03</pdfrwt>
<pdfrwt beam="1">  1       -2 0.18498664E-02 0.12020411E+03</pdfrwt>
<totfact> 0.24641283E+03</totfact>
</mgrwt>
</event>
<event>
 8    1  0.7550631E-006  0.1487243E+03  0.7546771E-02  0.1211972E+00
          2   -1    0    0  501    0  0.00000000000E+00  0.00000000000E+00  0.13133239566E+03  0.13133239566E+03  0.00000000000E+00 0. -1.
         -2   -1    0    0    0  501 -0.00000000000E+00 -0.00000000000E+00 -0.17974209879E+03  0.17974209879E+03  0.00000000000E+00 0.  1.
         23    2    1    2    0    0  0.79001078808E+02  0.15852024332E+02 -0.97169280788E+02  0.15456122117E+03  0.89189936836E+02 0.  0.
         23    2    1    2    0    0 -0.79001078808E+02 -0.15852024332E+02  0.48759577662E+02  0.15651327328E+03  0.12500580455E+03 0.  0.
          5    1    4    4  502    0 -0.13231959947E+02 -0.12249990848E+02 -0.41025540787E+02  0.45059205904E+02  0.47000000000E+01 0.  1.
         -5    1    4    4    0  502 -0.65769118861E+02 -0.36020334847E+01  0.89785118449E+02  0.11145406738E+03  0.47000000000E+01 0.  1.
        -11    1    3    3    0    0  0.35475430443E+02  0.52075001524E+02 -0.58592273051E+02  0.86042817307E+02  0.00000000000E+00 0.  1.
         11    1    3    3    0    0  0.43525648365E+02 -0.36222977191E+02 -0.38577007737E+02  0.68518403865E+02  0.00000000000E+00 0. -1.
<mgrwt>
<rscale>  0 0.14101319E+03</rscale>
<asrwt>0</asrwt>
<pdfrwt beam="1">  1        2 0.20204984E-01 0.14872427E+03</pdfrwt>
<pdfrwt beam="2">  1       -2 0.27652630E-01 0.14872427E+03</pdfrwt>
<totfact> 0.31493285E+03</totfact>
</mgrwt>
</event>
<event>
 8    1  0.7550631E-006  0.1292278E+03  0.7546771E-02  0.1242794E+00
          1   -1    0    0  501    0  0.00000000000E+00  0.00000000000E+00  0.63982933393E+02  0.63982933393E+02  0.00000000000E+00 0. -1.
         -1   -1    0    0    0  501 -0.00000000000E+00 -0.00000000000E+00 -0.19940480993E+03  0.19940480993E+03  0.00000000000E+00 0.  1.
         23    2    1    2    0    0 -0.31366807999E+02  0.94144581629E+01 -0.57308226135E+02  0.11238586241E+03  0.90960654245E+02 0.  0.
         23    2    1    2    0    0  0.31366807999E+02 -0.94144581629E+01 -0.78113650401E+02  0.15100188091E+03  0.12500926763E+03 0.  0.
          5    1    4    4  502    0  0.17749766009E+02 -0.65198497913E+02 -0.60327382125E+02  0.90704913635E+02  0.47000000000E+01 0. -1.
         -5    1    4    4    0  502  0.13617041991E+02  0.55784039750E+02 -0.17786268275E+02  0.60296967275E+02  0.47000000000E+01 0. -1.
        -11    1    3    3    0    0 -0.19297331082E+02  0.40001040049E+02 -0.64897714216E+02  0.78639579744E+02  0.00000000000E+00 0.  1.
         11    1    3    3    0    0 -0.12069476918E+02 -0.30586581886E+02  0.75894880815E+01  0.33746282667E+02  0.00000000000E+00 0. -1.
<mgrwt>
<rscale>  0 0.12018416E+03</rscale>
<asrwt>0</asrwt>
<pdfrwt beam="1">  1        1 0.98435284E-02 0.12922781E+03</pdfrwt>
<pdfrwt beam="2">  1       -1 0.30677663E-01 0.12922781E+03</pdfrwt>
<totfact> 0.60992987E+03</totfact>
</mgrwt>
</event>
<event>
 8    1  0.7550631E-006  0.1751156E+03  0.7546771E-02  0.1178016E+00
         -1   -1    0    0    0  501 -0.00000000000E+00  0.00000000000E+00  0.12218636890E+03  0.12218636890E+03  0.00000000000E+00 0.  1.
          1   -1    0    0  501    0  0.00000000000E+00 -0.00000000000E+00 -0.22815718270E+03  0.22815718270E+03  0.00000000000E+00 0. -1.
         23    2    1    2    0    0  0.11873147419E+03  0.30728048397E+02 -0.23273315931E+02  0.15668311044E+03  0.94691995128E+02 0.  0.
         23    2    1    2    0    0 -0.11873147419E+03 -0.30728048397E+02 -0.82697497874E+02  0.19366044116E+03  0.12499645753E+03 0.  0.
          5    1    4    4  502    0 -0.13666840725E+03 -0.48921212347E+02 -0.83765629724E+02  0.16766129333E+03  0.47000000000E+01 0. -1.
         -5    1    4    4    0  502  0.17936933063E+02  0.18193163950E+02  0.10681318498E+01  0.25999147830E+02  0.47000000000E+01 0. -1.
        -11    1    3    3    0    0  0.12910521950E+03  0.27717478293E+02 -0.38926100319E+02  0.13766501949E+03  0.00000000000E+00 0. -1.
         11    1    3    3    0    0 -0.10373745315E+02  0.30105701041E+01  0.15652784387E+02  0.19018090947E+02  0.00000000000E+00 0.  1.
<mgrwt>
<rscale>  0 0.16983927E+03</rscale>
<asrwt>0</asrwt>
<pdfrwt beam="2">  1        1 0.35101105E-01 0.17511565E+03</pdfrwt>
<pdfrwt beam="1">  1       -1 0.18797903E-01 0.17511565E+03</pdfrwt>
<totfact> 0.27139155E+03</totfact>
</mgrwt>
</event>
<event>
 8    1  0.7550631E-006  0.1432978E+03  0.7546771E-02  0.1219398E+00
          1   -1    0    0  501    0  0.00000000000E+00  0.00000000000E+00  0.74903039600E+02  0.74903039600E+02  0.00000000000E+00 0. -1.
         -1   -1    0    0    0  501 -0.00000000000E+00 -0.00000000000E+00 -0.22241664248E+03  0.22241664248E+03  0.00000000000E+00 0.  1.
         23    2    1    2    0    0  0.43250907318E+02  0.55111820717E+02 -0.66274455800E+02  0.13259546698E+03  0.91001651663E+02 0.  0.
         23    2    1    2    0    0 -0.43250907318E+02 -0.55111820717E+02 -0.81239147077E+02  0.16472421510E+03  0.12500525691E+03 0.  0.
          5    1    4    4  502    0  0.24527084648E+02  0.25213647427E+02 -0.75592398108E+01  0.36284128823E+02  0.47000000000E+01 0.  1.
         -5    1    4    4    0  502 -0.67777991966E+02 -0.80325468144E+02 -0.73679907266E+02  0.12844008627E+03  0.47000000000E+01 0.  1.
        -11    1    3    3    0    0  0.61794487822E+02  0.47577688865E+02 -0.77247197773E+02  0.10976941635E+03  0.00000000000E+00 0.  1.
         11    1    3    3    0    0 -0.18543580505E+02  0.75341318515E+01  0.10972741974E+02  0.22826050624E+02  0.00000000000E+00 0. -1.
<mgrwt>
<rscale>  0 0.13558362E+03</rscale>
<asrwt>0</asrwt>
<pdfrwt beam="1">  1        1 0.11523545E-01 0.14329783E+03</pdfrwt>
<pdfrwt beam="2">  1       -1 0.34217945E-01 0.14329783E+03</pdfrwt>
<totfact> 0.41426173E+03</totfact>
</mgrwt>
</event>
<event>
 8    1  0.7550631E-006  0.1379511E+03  0.7546771E-02  0.1227516E+00
         -1   -1    0    0    0  501 -0.00000000000E+00  0.00000000000E+00  0.22150689927E+02  0.22150689927E+02  0.00000000000E+00 0.  1.
          1   -1    0    0  501    0  0.00000000000E+00 -0.00000000000E+00 -0.69917570734E+03  0.69917570734E+03  0.00000000000E+00 0. -1.
         23    2    1    2    0    0  0.55479686906E+02  0.18080070376E+02 -0.25058388978E+03  0.27312717275E+03  0.91658507905E+02 0.  0.
         23    2    1    2    0    0 -0.55479686906E+02 -0.18080070376E+02 -0.42644112763E+03  0.44819922452E+03  0.12500249965E+03 0.  0.
          5    1    4    4  502    0 -0.83416282047E+01 -0.51623642749E+02 -0.34029950861E+03  0.34432605015E+03  0.47000000000E+01 0.  1.
         -5    1    4    4    0  502 -0.47138058701E+02  0.33543572374E+02 -0.86141619020E+02  0.10387317437E+03  0.47000000000E+01 0.  1.
        -11    1    3    3    0    0  0.65495568499E+02  0.43993951465E+02 -0.16029544504E+03  0.17866103929E+03  0.00000000000E+00 0.  1.
         11    1    3    3    0    0 -0.10015881594E+02 -0.25913881089E+02 -0.90288444741E+02  0.94466133460E+02  0.00000000000E+00 0. -1.
<mgrwt>
<rscale>  0 0.12995935E+03</rscale>
<asrwt>0</asrwt>
<pdfrwt beam="2">  1        1 0.10756549E+00 0.13795111E+03</pdfrwt>
<pdfrwt beam="1">  1       -1 0.34077985E-02 0.13795111E+03</pdfrwt>
<totfact> 0.84780242E+03</totfact>
</mgrwt>
</event>
<event>
 8    1  0.7550631E-006  0.1284176E+03  0.7546771E-02  0.1244222E+00
          1   -1    0    0  501    0  0.00000000000E+00  0.00000000000E+00  0.21853330485E+03  0.21853330485E+03  0.00000000000E+00 0. -1.
         -1   -1    0    0    0  501 -0.00000000000E+00 -0.00000000000E+00 -0.61125462057E+02  0.61125462057E+02  0.00000000000E+00 0.  1.
         23    2    1    2    0    0  0.29328121280E+02  0.23956252393E+01  0.34054434231E+02  0.10159374501E+03  0.91080770837E+02 0.  0.
         23    2    1    2    0    0 -0.29328121280E+02 -0.23956252393E+01  0.12335340856E+03  0.17806502189E+03  0.12500084360E+03 0.  0.
          5    1    4    4  502    0  0.39280037725E+02 -0.34530821495E+02  0.50443129786E+02  0.72814135574E+02  0.47000000000E+01 0.  1.
         -5    1    4    4    0  502 -0.68608159005E+02  0.32135196255E+02  0.72910278771E+02  0.10525088632E+03  0.47000000000E+01 0.  1.
        -11    1    3    3    0    0  0.13919605146E+02 -0.33468816932E+02  0.47994653332E+02  0.60144857325E+02  0.00000000000E+00 0.  1.
         11    1    3    3    0    0  0.15408516134E+02  0.35864442171E+02 -0.13940219100E+02  0.41448887684E+02  0.00000000000E+00 0. -1.
<mgrwt>
<rscale>  0 0.11932043E+03</rscale>
<asrwt>0</asrwt>
<pdfrwt beam="1">  1        1 0.33620508E-01 0.12841763E+03</pdfrwt>
<pdfrwt beam="2">  1       -1 0.94039174E-02 0.12841763E+03</pdfrwt>
<totfact> 0.82846074E+03</totfact>
</mgrwt>
</event>
<event>
 8    1  0.7550631E-006  0.2042131E+03  0.7546771E-02  0.1150316E+00
          2   -1    0    0  501    0  0.00000000000E+00  0.00000000000E+00  0.22538012384E+03  0.22538012384E+03  0.00000000000E+00 0. -1.
         -2   -1    0    0    0  501 -0.00000000000E+00 -0.00000000000E+00 -0.17455528227E+03  0.17455528227E+03  0.00000000000E+00 0.  1.
         23    2    1    2    0    0 -0.11947026446E+03 -0.10865220842E+03 -0.13546183059E+02  0.18581713176E+03  0.90917879962E+02 0.  0.
         23    2    1    2    0    0  0.11947026446E+03  0.10865220842E+03  0.64371024627E+02  0.21411827435E+03  0.12499824045E+03 0.  0.
          5    1    4    4  502    0 -0.49823791027E+01 -0.16984684845E+02  0.28088516492E+02  0.33531453585E+02  0.47000000000E+01 0. -1.
         -5    1    4    4    0  502  0.12445264356E+03  0.12563689326E+03  0.36282508135E+02  0.18058682076E+03  0.47000000000E+01 0. -1.
        -11    1    3    3    0    0 -0.55328573855E+00  0.13775870845E+02 -0.58272561893E+01  0.14967887538E+02  0.00000000000E+00 0.  1.
         11    1    3    3    0    0 -0.11891697872E+03 -0.12242807926E+03 -0.77189268701E+01  0.17084924422E+03  0.00000000000E+00 0. -1.
<mgrwt>
<rscale>  0 0.19931727E+03</rscale>
<asrwt>0</asrwt>
<pdfrwt beam="1">  1        2 0.34673865E-01 0.20421314E+03</pdfrwt>
<pdfrwt beam="2">  1       -2 0.26854659E-01 0.20421314E+03</pdfrwt>
<totfact> 0.18498831E+03</totfact>
</mgrwt>
</event>
<event>
 8    1  0.7550631E-006  0.1316805E+03  0.7546771E-02  0.1239295E+00
          1   -1    0    0  501    0  0.00000000000E+00  0.00000000000E+00  0.17335334832E+03  0.17335334832E+03  0.00000000000E+00 0. -1.
         -1   -1    0    0    0  501 -0.00000000000E+00 -0.00000000000E+00 -0.99033057978E+02  0.99033057978E+02  0.00000000000E+00 0.  1.
         23    2    1    2    0    0  0.37726520618E+02  0.17080185379E+02 -0.31960935594E+02  0.10316624126E+03  0.88919901269E+02 0.  0.
         23    2    1    2    0    0 -0.37726520618E+02 -0.17080185379E+02  0.10628122594E+03  0.16922016504E+03  0.12499896871E+03 0.  0.
          5    1    4    4  502    0 -0.97435548715E+01  0.53866079583E+02  0.38603071763E+02  0.67147438824E+02  0.47000000000E+01 0. -1.
         -5    1    4    4    0  502 -0.27982965747E+02 -0.70946264962E+02  0.67678154177E+02  0.10207272621E+03  0.47000000000E+01 0. -1.
        -11    1    3    3    0    0  0.61295111274E+01 -0.15361890731E+02 -0.51317126221E+02  0.53916658252E+02  0.00000000000E+00 0.  1.
         11    1    3    3    0    0  0.31597009491E+02  0.32442076110E+02  0.19356190627E+02  0.49249583010E+02  0.00000000000E+00 0. -1.
<mgrwt>
<rscale>  0 0.12233426E+03</rscale>
<asrwt>0</asrwt>
<pdfrwt beam="1">  1        1 0.26669746E-01 0.13168054E+03</pdfrwt>
<pdfrwt beam="2">  1       -1 0.15235855E-01 0.13168054E+03</pdfrwt>
<totfact> 0.52595049E+03</totfact>
</mgrwt>
</event>
<event>
 8    1  0.7550631E-006  0.2075891E+03  0.7546771E-02  0.1147664E+00
          1   -1    0    0  501    0  0.00000000000E+00  0.00000000000E+00  0.95246745452E+02  0.95246745452E+02  0.00000000000E+00 0. -1.
         -1   -1    0    0    0  501 -0.00000000000E+00 -0.00000000000E+00 -0.41302874558E+03  0.41302874558E+03  0.00000000000E+00 0.  1.
         23    2    1    2    0    0 -0.16541468076E+03 -0.10383897028E+02 -0.13126803992E+03  0.22920440193E+03  0.88507161455E+02 0.  0.
         23    2    1    2    0    0  0.16541468076E+03  0.10383897028E+02 -0.18651396021E+03  0.27907108910E+03  0.12499349380E+03 0.  0.
          5    1    4    4  502    0  0.16742438690E+03 -0.25212024254E+02 -0.13684370931E+03  0.21774954024E+03  0.47000000000E+01 0.  1.
         -5    1    4    4    0  502 -0.20097061418E+01  0.35595921283E+02 -0.49670250893E+02  0.61321548860E+02  0.47000000000E+01 0.  1.
        -11    1    3    3    0    0 -0.13178485994E+03  0.11666917346E+02 -0.13474807536E+03  0.18883964118E+03  0.00000000000E+00 0.  1.
         11    1    3    3    0    0 -0.33629820821E+02 -0.22050814375E+02  0.34800354394E+01  0.40364760741E+02  0.00000000000E+00 0. -1.
<mgrwt>
<rscale>  0 0.20247917E+03</rscale>
<asrwt>0</asrwt>
<pdfrwt beam="1">  1        1 0.14653345E-01 0.20758905E+03</pdfrwt>
<pdfrwt beam="2">  1       -1 0.63542885E-01 0.20758905E+03</pdfrwt>
<totfact> 0.99457611E+02</totfact>
</mgrwt>
</event>
<event>
 8    1  0.7550631E-006  0.1319905E+03  0.7546771E-02  0.1231238E+00
         -1   -1    0    0    0  501 -0.00000000000E+00  0.00000000000E+00  0.13467551940E+04  0.13467551940E+04  0.00000000000E+00 0.  1.
          1   -1    0    0  501    0  0.00000000000E+00 -0.00000000000E+00 -0.12098049930E+02  0.12098049930E+02  0.00000000000E+00 0. -1.
         23    2    1    2    0    0  0.23543596460E+02  0.65868373864E+02  0.45124442455E+03  0.46563461247E+03  0.91110471591E+02 0.  0.
         23    2    1    2    0    0 -0.23543596460E+02 -0.65868373864E+02  0.88341271953E+03  0.89321863147E+03  0.11193099198E+03 0.  0.
          5    1    4    4  502    0  0.27509411247E+02 -0.19510548637E+02  0.81432735802E+02  0.88265563361E+02  0.47000000000E+01 0. -1.
         -5    1    4    4    0  502 -0.51053007708E+02 -0.46357825227E+02  0.80197998373E+03  0.80495306811E+03  0.47000000000E+01 0.  1.
        -11    1    3    3    0    0 -0.13338431496E+02 -0.17153098967E+02  0.12952685420E+03  0.13133677519E+03  0.00000000000E+00 0.  1.
         11    1    3    3    0    0  0.36882027956E+02  0.83021472831E+02  0.32171757035E+03  0.33429783728E+03  0.00000000000E+00 0. -1.
<mgrwt>
<rscale>  0 0.12748360E+03</rscale>
<asrwt>0</asrwt>
<pdfrwt beam="2">  1        1 0.18612395E-02 0.13199049E+03</pdfrwt>
<pdfrwt beam="1">  1       -1 0.20719299E+00 0.13199049E+03</pdfrwt>
<totfact> 0.98222151E+02</totfact>
</mgrwt>
</event>
<event>
 8    1  0.7550631E-006  0.1324240E+03  0.7546771E-02  0.1236695E+00
          1   -1    0    0  501    0  0.00000000000E+00  0.00000000000E+00  0.42236970892E+03  0.42236970892E+03  0.00000000000E+00 0. -1.
         -1   -1    0    0    0  501 -0.00000000000E+00 -0.00000000000E+00 -0.35655749517E+02  0.35655749517E+02  0.00000000000E+00 0.  1.
         23    2    1    2    0    0  0.25845419176E+02 -0.35236543322E+02  0.10206734098E+03  0.14408308582E+03  0.91829155757E+02 0.  0.
         23    2    1    2    0    0 -0.25845419176E+02  0.35236543322E+02  0.28464661842E+03  0.31394237262E+03  0.12500606492E+03 0.  0.
          5    1    4    4  502    0  0.30425207540E+02 -0.20508979382E+02  0.31288526412E+02  0.48449699423E+02  0.47000000000E+01 0.  1.
         -5    1    4    4    0  502 -0.56270626716E+02  0.55745522704E+02  0.25335809201E+03  0.26549267320E+03  0.47000000000E+01 0.  1.
        -11    1    3    3    0    0  0.59528232986E+02 -0.30059730399E+02  0.76459782971E+02  0.10145588364E+03  0.00000000000E+00 0. -1.
         11    1    3    3    0    0 -0.33682813810E+02 -0.51768129229E+01  0.25607558011E+02  0.42627202177E+02  0.00000000000E+00 0.  1.
<mgrwt>
<rscale>  0 0.12396572E+03</rscale>
<asrwt>0</asrwt>
<pdfrwt beam="1">  1        1 0.64979952E-01 0.13242400E+03</pdfrwt>
<pdfrwt beam="2">  1       -1 0.54855002E-02 0.13242400E+03</pdfrwt>
<totfact> 0.82209085E+03</totfact>
</mgrwt>
</event>
<event>
 8    1  0.7550631E-006  0.1119925E+03  0.7546771E-02  0.1266177E+00
         -2   -1    0    0    0  501 -0.00000000000E+00  0.00000000000E+00  0.93487237118E+02  0.93487237118E+02  0.00000000000E+00 0.  1.
          2   -1    0    0  501    0  0.00000000000E+00 -0.00000000000E+00 -0.39615261340E+03  0.39615261340E+03  0.00000000000E+00 0. -1.
         23    2    1    2    0    0  0.47935628252E+01  0.19724708929E+02  0.59366739826E+02  0.11068132484E+03  0.91180609143E+02 0.  0.
         23    2    1    2    0    0 -0.47935628252E+01 -0.19724708929E+02 -0.36203211611E+03  0.37895852568E+03  0.11013749908E+03 0.  0.
          5    1    4    4  502    0  0.21014303241E+02 -0.22432994498E+01 -0.33954940627E+03  0.34023891992E+03  0.47000000000E+01 0. -1.
         -5    1    4    4    0  502 -0.25807866066E+02 -0.17481409479E+02 -0.22482709843E+02  0.38719605759E+02  0.47000000000E+01 0.  1.
        -11    1    3    3    0    0  0.25424342385E+02 -0.37246471792E+01 -0.15188003985E+02  0.29848712659E+02  0.00000000000E+00 0. -1.
         11    1    3    3    0    0 -0.20630779560E+02  0.23449356108E+02  0.74554743812E+02  0.80832612181E+02  0.00000000000E+00 0.  1.
<mgrwt>
<rscale>  0 0.10702695E+03</rscale>
<asrwt>0</asrwt>
<pdfrwt beam="2">  1        2 0.60946557E-01 0.11199246E+03</pdfrwt>
<pdfrwt beam="1">  1       -2 0.14382652E-01 0.11199246E+03</pdfrwt>
<totfact> 0.28555349E+03</totfact>
</mgrwt>
</event>
<event>
 8    1  0.7550631E-006  0.1468793E+03  0.7546771E-02  0.1212402E+00
         -1   -1    0    0    0  501 -0.00000000000E+00  0.00000000000E+00  0.32658541013E+02  0.32658541013E+02  0.00000000000E+00 0.  1.
          1   -1    0    0  501    0  0.00000000000E+00 -0.00000000000E+00 -0.67123648031E+03  0.67123648031E+03  0.00000000000E+00 0. -1.
         23    2    1    2    0    0  0.10164596836E+02  0.76240611572E+02 -0.15371643607E+03  0.19727464603E+03  0.96812155058E+02 0.  0.
         23    2    1    2    0    0 -0.10164596836E+02 -0.76240611572E+02 -0.48486150323E+03  0.50662037529E+03  0.12513024201E+03 0.  0.
          5    1    4    4  502    0 -0.35121289086E+02  0.10215357792E+02 -0.28511175221E+03  0.28748679923E+03  0.47000000000E+01 0.  1.
         -5    1    4    4    0  502  0.24956692250E+02 -0.86455969364E+02 -0.19974975101E+03  0.21913357606E+03  0.47000000000E+01 0.  1.
        -11    1    3    3    0    0  0.42108672204E+02  0.95336289470E+01 -0.89321120730E+02  0.99208331123E+02  0.00000000000E+00 0. -1.
         11    1    3    3    0    0 -0.31944075368E+02  0.66706982625E+02 -0.64395315340E+02  0.98066314909E+02  0.00000000000E+00 0.  1.
<mgrwt>
<rscale>  0 0.14069096E+03</rscale>
<asrwt>0</asrwt>
<pdfrwt beam="2">  1        1 0.10326715E+00 0.14687930E+03</pdfrwt>
<pdfrwt beam="1">  1       -1 0.50243908E-02 0.14687930E+03</pdfrwt>
<totfact> 0.50903101E+03</totfact>
</mgrwt>
</event>
<event>
 8    1  0.7550631E-006  0.1230813E+03  0.7546771E-02  0.1250376E+00
         -1   -1    0    0    0  501 -0.00000000000E+00  0.00000000000E+00  0.10750849643E+02  0.10750849643E+02  0.00000000000E+00 0.  1.
          1   -1    0    0  501    0  0.00000000000E+00 -0.00000000000E+00 -0.11599211801E+04  0.11599211801E+04  0.00000000000E+00 0. -1.
         23    2    1    2    0    0 -0.36849264181E+02  0.10346723025E+02 -0.39462544404E+03  0.40615453596E+03  0.88132531166E+02 0.  0.
         23    2    1    2    0    0  0.36849264181E+02 -0.10346723025E+02 -0.75454488646E+03  0.76451749382E+03  0.11697901407E+03 0.  0.
          5    1    4    4  502    0 -0.29090871438E+02 -0.21373928843E+02 -0.97690721918E+02  0.10425301331E+03  0.47000000000E+01 0. -1.
         -5    1    4    4    0  502  0.65940135619E+02  0.11027205817E+02 -0.65685416454E+03  0.66026448051E+03  0.47000000000E+01 0.  1.
        -11    1    3    3    0    0 -0.32764774214E+02 -0.36291396697E+02 -0.21946544067E+03  0.22484589290E+03  0.00000000000E+00 0.  1.
         11    1    3    3    0    0 -0.40844899669E+01  0.46638119723E+02 -0.17516000336E+03  0.18130864306E+03  0.00000000000E+00 0. -1.
<mgrwt>
<rscale>  0 0.11569315E+03</rscale>
<asrwt>0</asrwt>
<pdfrwt beam="2">  1        1 0.17844935E+00 0.12308133E+03</pdfrwt>
<pdfrwt beam="1">  1       -1 0.16539774E-02 0.12308133E+03</pdfrwt>
<totfact> 0.10633748E+04</totfact>
</mgrwt>
</event>
<event>
 8    1  0.7550631E-006  0.1362409E+03  0.7546771E-02  0.1231398E+00
          2   -1    0    0  501    0  0.00000000000E+00  0.00000000000E+00  0.10808442590E+04  0.10808442590E+04  0.00000000000E+00 0. -1.
         -2   -1    0    0    0  501 -0.00000000000E+00 -0.00000000000E+00 -0.24044344773E+02  0.24044344773E+02  0.00000000000E+00 0.  1.
         23    2    1    2    0    0 -0.30332919180E+02  0.44921968360E+02  0.12273141491E+03  0.16093651178E+03  0.88879082965E+02 0.  0.
         23    2    1    2    0    0  0.30332919180E+02 -0.44921968360E+02  0.93406849933E+03  0.94395209201E+03  0.12499408525E+03 0.  0.
          5    1    4    4  502    0 -0.20046656869E+02  0.25643922437E+02  0.51141025475E+03  0.51246660171E+03  0.47000000000E+01 0. -1.
         -5    1    4    4    0  502  0.50379576049E+02 -0.70565890797E+02  0.42265824458E+03  0.43148549030E+03  0.47000000000E+01 0. -1.
        -11    1    3    3    0    0 -0.23620327107E+01  0.67876974924E+02  0.79695168455E+02  0.10470999378E+03  0.00000000000E+00 0. -1.
         11    1    3    3    0    0 -0.27970886469E+02 -0.22955006564E+02  0.43036246458E+02  0.56226517991E+02  0.00000000000E+00 0.  1.
<mgrwt>
<rscale>  0 0.12737880E+03</rscale>
<asrwt>0</asrwt>
<pdfrwt beam="1">  1        2 0.16628369E+00 0.13624093E+03</pdfrwt>
<pdfrwt beam="2">  1       -2 0.36991308E-02 0.13624093E+03</pdfrwt>
<totfact> 0.70522896E+03</totfact>
</mgrwt>
</event>
<event>
 8    1  0.7550631E-006  0.1550133E+03  0.7546771E-02  0.1202995E+00
          2   -1    0    0  501    0  0.00000000000E+00  0.00000000000E+00  0.38876634771E+03  0.38876634771E+03  0.00000000000E+00 0. -1.
         -2   -1    0    0    0  501 -0.00000000000E+00 -0.00000000000E+00 -0.54920703990E+02  0.54920703990E+02  0.00000000000E+00 0.  1.
         23    2    1    2    0    0 -0.61835036875E+02 -0.67695831770E+02  0.99306697609E+02  0.16255070512E+03  0.90302902055E+02 0.  0.
         23    2    1    2    0    0  0.61835036875E+02  0.67695831770E+02  0.23453894611E+03  0.28113634659E+03  0.12499132251E+03 0.  0.
          5    1    4    4  502    0  0.32598568531E+02  0.40663822988E+02  0.10289636891E+02  0.53330852212E+02  0.47000000000E+01 0. -1.
         -5    1    4    4    0  502  0.29236468344E+02  0.27032008782E+02  0.22424930922E+03  0.22780549437E+03  0.47000000000E+01 0. -1.
        -11    1    3    3    0    0  0.39782758180E+01 -0.18856111742E+02 -0.13200005087E+02  0.23358505150E+02  0.00000000000E+00 0.  1.
         11    1    3    3    0    0 -0.65813312693E+02 -0.48839720027E+02  0.11250670270E+03  0.13919219997E+03  0.00000000000E+00 0. -1.
<mgrwt>
<rscale>  0 0.14796612E+03</rscale>
<asrwt>0</asrwt>
<pdfrwt beam="1">  1        2 0.59810206E-01 0.15501332E+03</pdfrwt>
<pdfrwt beam="2">  1       -2 0.84493393E-02 0.15501332E+03</pdfrwt>
<totfact> 0.68841848E+03</totfact>
</mgrwt>
</event>
<event>
 8    1  0.7550631E-006  0.2162290E+03  0.7546771E-02  0.1140230E+00
          2   -1    0    0  501    0  0.00000000000E+00  0.00000000000E+00  0.84165552309E+03  0.84165552309E+03  0.00000000000E+00 0. -1.
         -2   -1    0    0    0  501 -0.00000000000E+00 -0.00000000000E+00 -0.69764575427E+02  0.69764575427E+02  0.00000000000E+00 0.  1.
         23    2    1    2    0    0  0.78037580617E+02  0.15823856335E+03  0.13859521121E+03  0.24222771044E+03  0.91303473180E+02 0.  0.
         23    2    1    2    0    0 -0.78037580617E+02 -0.15823856335E+03  0.63329573645E+03  0.66919238807E+03  0.12500262211E+03 0.  0.
          5    1    4    4  502    0 -0.91069618057E+02 -0.50229692252E+02  0.25218082500E+03  0.27282587087E+03  0.47000000000E+01 0. -1.
         -5    1    4    4    0  502  0.13032037440E+02 -0.10800887110E+03  0.38111491144E+03  0.39636651720E+03  0.47000000000E+01 0. -1.
        -11    1    3    3    0    0  0.30169373256E+02  0.68088952261E+02  0.57458091326E+01  0.74694784458E+02  0.00000000000E+00 0.  1.
         11    1    3    3    0    0  0.47868207361E+02  0.90149611087E+02  0.13284940208E+03  0.16753292598E+03  0.00000000000E+00 0. -1.
<mgrwt>
<rscale>  0 0.21169606E+03</rscale>
<asrwt>0</asrwt>
<pdfrwt beam="1">  1        2 0.12948546E+00 0.21622896E+03</pdfrwt>
<pdfrwt beam="2">  1       -2 0.10733012E-01 0.21622896E+03</pdfrwt>
<totfact> 0.19608575E+03</totfact>
</mgrwt>
</event>
<event>
 8    1  0.7550631E-006  0.1953968E+03  0.7546771E-02  0.1158137E+00
          3   -1    0    0  501    0  0.00000000000E+00  0.00000000000E+00  0.71396218387E+02  0.71396218387E+02  0.00000000000E+00 0. -1.
         -3   -1    0    0    0  501 -0.00000000000E+00 -0.00000000000E+00 -0.59080950838E+03  0.59080950838E+03  0.00000000000E+00 0.  1.
         23    2    1    2    0    0  0.64120033852E+02 -0.13582279437E+03 -0.38988684795E+03  0.42777665137E+03  0.91770905192E+02 0.  0.
         23    2    1    2    0    0 -0.64120033852E+02  0.13582279437E+03 -0.12952644204E+03  0.23442907539E+03  0.12498272678E+03 0.  0.
          5    1    4    4  502    0 -0.43172842587E+02  0.82976765632E+02 -0.14741548774E+03  0.17464951759E+03  0.47000000000E+01 0.  1.
         -5    1    4    4    0  502 -0.20947191265E+02  0.52846028734E+02  0.17889045698E+02  0.59779557800E+02  0.47000000000E+01 0.  1.
        -11    1    3    3    0    0  0.13751716829E+02 -0.11158935374E+03 -0.31403090085E+03  0.33355164558E+03  0.00000000000E+00 0.  1.
         11    1    3    3    0    0  0.50368317023E+02 -0.24233440627E+02 -0.75855947106E+02  0.94225005787E+02  0.00000000000E+00 0. -1.
<mgrwt>
<rscale>  0 0.19035975E+03</rscale>
<asrwt>0</asrwt>
<pdfrwt beam="1">  1        3 0.10984034E-01 0.19539676E+03</pdfrwt>
<pdfrwt beam="2">  1       -3 0.90893767E-01 0.19539676E+03</pdfrwt>
<totfact> 0.17263902E+02</totfact>
</mgrwt>
</event>
<event>
 8    1  0.7550631E-006  0.1959530E+03  0.7546771E-02  0.1157870E+00
         -1   -1    0    0    0  501 -0.00000000000E+00  0.00000000000E+00  0.30285797413E+02  0.30285797413E+02  0.00000000000E+00 0.  1.
          1   -1    0    0  501    0  0.00000000000E+00 -0.00000000000E+00 -0.11408285555E+04  0.11408285555E+04  0.00000000000E+00 0. -1.
         23    2    1    2    0    0 -0.73755703952E+02  0.13167939510E+03 -0.50615744700E+03  0.53575681765E+03  0.89781064527E+02 0.  0.
         23    2    1    2    0    0  0.73755703952E+02 -0.13167939510E+03 -0.60438531108E+03  0.63535753525E+03  0.12497290263E+03 0.  0.
          5    1    4    4  502    0  0.64496653252E+02 -0.11154599125E+01 -0.18358138431E+03  0.19464140669E+03  0.47000000000E+01 0. -1.
         -5    1    4    4    0  502  0.92590507000E+01 -0.13056393519E+03 -0.42080392677E+03  0.44071612856E+03  0.47000000000E+01 0. -1.
        -11    1    3    3    0    0 -0.48930277302E+02  0.66058392060E+02 -0.13525998918E+03  0.15828186211E+03  0.00000000000E+00 0.  1.
         11    1    3    3    0    0 -0.24825426650E+02  0.65621003045E+02 -0.37089745781E+03  0.37747495554E+03  0.00000000000E+00 0. -1.
<mgrwt>
<rscale>  0 0.19065724E+03</rscale>
<asrwt>0</asrwt>
<pdfrwt beam="2">  1        1 0.17551211E+00 0.19595304E+03</pdfrwt>
<pdfrwt beam="1">  1       -1 0.46593529E-02 0.19595304E+03</pdfrwt>
<totfact> 0.24584408E+03</totfact>
</mgrwt>
</event>
<event>
 8    1  0.7550631E-006  0.1339713E+03  0.7546771E-02  0.1233671E+00
          2   -1    0    0  501    0  0.00000000000E+00  0.00000000000E+00  0.59676275470E+03  0.59676275470E+03  0.00000000000E+00 0.  1.
         -2   -1    0    0    0  501 -0.00000000000E+00 -0.00000000000E+00 -0.34125477235E+02  0.34125477235E+02  0.00000000000E+00 0. -1.
         23    2    1    2    0    0 -0.42008569379E+02 -0.23626366208E+02  0.84625297572E+02  0.13445721902E+03  0.92705866453E+02 0.  0.
         23    2    1    2    0    0  0.42008569379E+02  0.23626366208E+02  0.47801197990E+03  0.49643101292E+03  0.12500149034E+03 0.  0.
          5    1    4    4  502    0  0.67943042963E+02 -0.72641855128E+01  0.42042231463E+03  0.42596483202E+03  0.47000000000E+01 0. -1.
         -5    1    4    4    0  502 -0.25934473584E+02  0.30890551721E+02  0.57589665263E+02  0.70466180901E+02  0.47000000000E+01 0. -1.
        -11    1    3    3    0    0 -0.10272750312E+02 -0.28740045562E+02 -0.11870590102E+02  0.32747985087E+02  0.00000000000E+00 0. -1.
         11    1    3    3    0    0 -0.31735819067E+02  0.51136793543E+01  0.96495887673E+02  0.10170923393E+03  0.00000000000E+00 0.  1.
<mgrwt>
<rscale>  0 0.12589925E+03</rscale>
<asrwt>0</asrwt>
<pdfrwt beam="1">  1        2 0.91809647E-01 0.13397126E+03</pdfrwt>
<pdfrwt beam="2">  1       -2 0.52500738E-02 0.13397126E+03</pdfrwt>
<totfact> 0.88238560E+03</totfact>
</mgrwt>
</event>
<event>
 8    1  0.7550631E-006  0.2015416E+03  0.7546771E-02  0.1152702E+00
          2   -1    0    0  501    0  0.00000000000E+00  0.00000000000E+00  0.20993184258E+04  0.20993184258E+04  0.00000000000E+00 0. -1.
         -2   -1    0    0    0  501 -0.00000000000E+00 -0.00000000000E+00 -0.18813680422E+02  0.18813680422E+02  0.00000000000E+00 0.  1.
         23    2    1    2    0    0  0.55944148403E+02 -0.14786272196E+03  0.71603373038E+03  0.73885686783E+03  0.90620283674E+02 0.  0.
         23    2    1    2    0    0 -0.55944148403E+02  0.14786272196E+03  0.13644710150E+04  0.13792752384E+04  0.12500360068E+03 0.  0.
          5    1    4    4  502    0 -0.65723868975E+02  0.16582320999E+03  0.12719281436E+04  0.12843832202E+04  0.47000000000E+01 0. -1.
         -5    1    4    4    0  502  0.97797205721E+01 -0.17960488022E+02  0.92542871417E+02  0.94892018182E+02  0.47000000000E+01 0. -1.
        -11    1    3    3    0    0  0.36049278586E+01 -0.10323311446E+03  0.54138467448E+03  0.55115101124E+03  0.00000000000E+00 0.  1.
         11    1    3    3    0    0  0.52339220544E+02 -0.44629607503E+02  0.17464905590E+03  0.18770585659E+03  0.00000000000E+00 0. -1.
<mgrwt>
<rscale>  0 0.19652794E+03</rscale>
<asrwt>0</asrwt>
<pdfrwt beam="1">  1        2 0.32297188E+00 0.20154164E+03</pdfrwt>
<pdfrwt beam="2">  1       -2 0.28944140E-02 0.20154164E+03</pdfrwt>
<totfact> 0.29477320E+03</totfact>
</mgrwt>
</event>
<event>
 8    1  0.7550631E-006  0.1343402E+03  0.7546771E-02  0.1233894E+00
          4   -1    0    0  501    0  0.00000000000E+00  0.00000000000E+00  0.73164093801E+03  0.73164093801E+03  0.00000000000E+00 0. -1.
         -4   -1    0    0    0  501 -0.00000000000E+00 -0.00000000000E+00 -0.19506729517E+02  0.19506729517E+02  0.00000000000E+00 0.  1.
         23    2    1    2    0    0  0.35882784135E+02  0.33642535701E+02  0.35064563830E+03  0.36550370874E+03  0.90670850011E+02 0.  0.
         23    2    1    2    0    0 -0.35882784135E+02 -0.33642535701E+02  0.36148857019E+03  0.38564395878E+03  0.12501152811E+03 0.  0.
          5    1    4    4  502    0 -0.76306586824E+02 -0.48280654033E+02  0.22586621741E+03  0.24329273502E+03  0.47000000000E+01 0. -1.
         -5    1    4    4    0  502  0.40423802690E+02  0.14638118332E+02  0.13562235279E+03  0.14235122377E+03  0.47000000000E+01 0. -1.
        -11    1    3    3    0    0  0.40591334923E+02  0.59983527108E+02  0.29496755511E+03  0.30372938377E+03  0.00000000000E+00 0. -1.
         11    1    3    3    0    0 -0.47085507880E+01 -0.26340991408E+02  0.55678083187E+02  0.61774324976E+02  0.00000000000E+00 0.  1.
<mgrwt>
<rscale>  0 0.12575496E+03</rscale>
<asrwt>0</asrwt>
<pdfrwt beam="1">  1        4 0.11256012E+00 0.13434015E+03</pdfrwt>
<pdfrwt beam="2">  1       -4 0.30010359E-02 0.13434015E+03</pdfrwt>
<totfact> 0.57866999E+02</totfact>
</mgrwt>
</event>
<event>
 7    1  0.7550631E-006  0.4020706E+03  0.7546771E-02  0.1043065E+00
          2   -1    0    0  501    0  0.00000000000E+00  0.00000000000E+00  0.74226482175E+02  0.74226482175E+02  0.00000000000E+00 0. -1.
         -2   -1    0    0    0  501 -0.00000000000E+00 -0.00000000000E+00 -0.54448478829E+03  0.54448478829E+03  0.00000000000E+00 0.  1.
         23    2    1    2    0    0  0.80738230971E+02  0.70624559500E+01 -0.19373108937E+03  0.23052584321E+03  0.95088848844E+02 0.  0.
          5    1    1    2  502    0 -0.12272769603E+03 -0.94253356304E+02 -0.92860424137E+02  0.18052958460E+03  0.47000000000E+01 0. -1.
         -5    1    1    2    0  502  0.41989465054E+02  0.87190900355E+02 -0.18366679261E+03  0.20765584265E+03  0.47000000000E+01 0.  1.
        -11    1    3    3    0    0  0.72732935644E+02 -0.33105753880E+02 -0.15381013449E+03  0.17333097916E+03  0.00000000000E+00 0.  1.
         11    1    3    3    0    0  0.80052953270E+01  0.40168209830E+02 -0.39920954880E+02  0.57194864041E+02  0.00000000000E+00 0. -1.
<mgrwt>
<rscale>  0 0.40207059E+03</rscale>
<asrwt>0</asrwt>
<pdfrwt beam="1">  1        2 0.11419459E-01 0.40207059E+03</pdfrwt>
<pdfrwt beam="2">  1       -2 0.83766887E-01 0.40207059E+03</pdfrwt>
<totfact> 0.70275359E+02</totfact>
</mgrwt>
</event>
<event>
 8    1  0.7550631E-006  0.1292744E+03  0.7546771E-02  0.1243122E+00
          1   -1    0    0  501    0  0.00000000000E+00  0.00000000000E+00  0.86968592845E+03  0.86968592845E+03  0.00000000000E+00 0. -1.
         -1   -1    0    0    0  501 -0.00000000000E+00 -0.00000000000E+00 -0.17572654195E+02  0.17572654195E+02  0.00000000000E+00 0.  1.
         23    2    1    2    0    0  0.32230842310E+02  0.69716957853E+01  0.19230396422E+03  0.21490435991E+03  0.90086833182E+02 0.  0.
         23    2    1    2    0    0 -0.32230842310E+02 -0.69716957853E+01  0.65980931004E+03  0.67235422274E+03  0.12499777394E+03 0.  0.
          5    1    4    4  502    0  0.18354339505E+02 -0.48889997559E+01  0.12870926773E+02  0.23420820935E+02  0.47000000000E+01 0.  1.
         -5    1    4    4    0  502 -0.50585181815E+02 -0.20826960293E+01  0.64693838326E+03  0.64893340181E+03  0.47000000000E+01 0.  1.
        -11    1    3    3    0    0  0.26889012891E+02  0.34531500641E+02  0.17818481903E+03  0.18348098889E+03  0.00000000000E+00 0. -1.
         11    1    3    3    0    0  0.53418294197E+01 -0.27559804856E+02  0.14119145195E+02  0.31423371020E+02  0.00000000000E+00 0.  1.
<mgrwt>
<rscale>  0 0.11998474E+03</rscale>
<asrwt>0</asrwt>
<pdfrwt beam="1">  1        1 0.13379780E+00 0.12927442E+03</pdfrwt>
<pdfrwt beam="2">  1       -1 0.27034859E-02 0.12927442E+03</pdfrwt>
<totfact> 0.85444330E+03</totfact>
</mgrwt>
</event>
<event>
 8    1  0.7550631E-006  0.1295285E+03  0.7546771E-02  0.1242538E+00
          2   -1    0    0  501    0  0.00000000000E+00  0.00000000000E+00  0.31426314285E+03  0.31426314285E+03  0.00000000000E+00 0. -1.
         -2   -1    0    0    0  501 -0.00000000000E+00 -0.00000000000E+00 -0.41144552551E+02  0.41144552551E+02  0.00000000000E+00 0.  1.
         23    2    1    2    0    0  0.26007285332E+02 -0.21826144712E+02  0.97429924521E+02  0.13713234377E+03  0.90332331046E+02 0.  0.
         23    2    1    2    0    0 -0.26007285332E+02  0.21826144712E+02  0.17568866578E+03  0.21827535163E+03  0.12499944945E+03 0.  0.
          5    1    4    4  502    0 -0.25795473866E+02  0.43500604196E+02  0.10832625829E+02  0.51934042975E+02  0.47000000000E+01 0.  1.
         -5    1    4    4    0  502 -0.21181146681E+00 -0.21674459483E+02  0.16485603995E+03  0.16634130866E+03  0.47000000000E+01 0.  1.
        -11    1    3    3    0    0 -0.90567889115E+01  0.29110828525E+02  0.52443174561E+02  0.60660962083E+02  0.00000000000E+00 0. -1.
         11    1    3    3    0    0  0.35064074244E+02 -0.50936973237E+02  0.44986749960E+02  0.76471381687E+02  0.00000000000E+00 0.  1.
<mgrwt>
<rscale>  0 0.12033952E+03</rscale>
<asrwt>0</asrwt>
<pdfrwt beam="1">  1        2 0.48348174E-01 0.12952846E+03</pdfrwt>
<pdfrwt beam="2">  1       -2 0.63299314E-02 0.12952846E+03</pdfrwt>
<totfact> 0.13285911E+04</totfact>
</mgrwt>
</event>
<event>
 8    1  0.7550631E-006  0.1490158E+03  0.7546771E-02  0.1211053E+00
         -2   -1    0    0    0  501 -0.00000000000E+00  0.00000000000E+00  0.13290630752E+03  0.13290630752E+03  0.00000000000E+00 0.  1.
          2   -1    0    0  501    0  0.00000000000E+00 -0.00000000000E+00 -0.15012625936E+03  0.15012625936E+03  0.00000000000E+00 0. -1.
         23    2    1    2    0    0 -0.15235950216E+02 -0.79679659727E+02  0.32196175515E+02  0.12603678806E+03  0.90926871016E+02 0.  0.
         23    2    1    2    0    0  0.15235950216E+02  0.79679659727E+02 -0.49416127356E+02  0.15699577883E+03  0.12499895429E+03 0.  0.
          5    1    4    4  502    0 -0.65907966405E+01  0.15479556065E+02  0.40600460194E+02  0.44198898451E+02  0.47000000000E+01 0. -1.
         -5    1    4    4    0  502  0.21826746857E+02  0.64200103662E+02 -0.90016587551E+02  0.11279688038E+03  0.47000000000E+01 0. -1.
        -11    1    3    3    0    0  0.23208528972E+02 -0.55170059081E+02 -0.13639015833E+02  0.61387246142E+02  0.00000000000E+00 0. -1.
         11    1    3    3    0    0 -0.38444479189E+02 -0.24509600646E+02  0.45835191348E+02  0.64649541915E+02  0.00000000000E+00 0.  1.
<mgrwt>
<rscale>  0 0.14170504E+03</rscale>
<asrwt>0</asrwt>
<pdfrwt beam="2">  1        2 0.23096348E-01 0.14901584E+03</pdfrwt>
<pdfrwt beam="1">  1       -2 0.20447124E-01 0.14901584E+03</pdfrwt>
<totfact> 0.45793621E+03</totfact>
</mgrwt>
</event>
<event>
 8    1  0.7550631E-006  0.1263440E+03  0.7546771E-02  0.1248901E+00
          2   -1    0    0  501    0  0.00000000000E+00  0.00000000000E+00  0.31995030330E+03  0.31995030330E+03  0.00000000000E+00 0.  1.
         -2   -1    0    0    0  501 -0.00000000000E+00 -0.00000000000E+00 -0.52646496767E+02  0.52646496767E+02  0.00000000000E+00 0. -1.
         23    2    1    2    0    0  0.13269119381E+02  0.12855558010E+02  0.18196361146E+02  0.93280981792E+02  0.89604124370E+02 0.  0.
         23    2    1    2    0    0 -0.13269119381E+02 -0.12855558010E+02  0.24910744539E+03  0.27931581828E+03  0.12498588756E+03 0.  0.
          5    1    4    4  502    0 -0.64981908873E+02 -0.17958005389E+02  0.18312117054E+03  0.19519372822E+03  0.47000000000E+01 0. -1.
         -5    1    4    4    0  502  0.51712789492E+02  0.51024473788E+01  0.65986274853E+02  0.84122090056E+02  0.47000000000E+01 0. -1.
        -11    1    3    3    0    0  0.28671209202E+02  0.39982569808E+02  0.32498194492E+02  0.58964199060E+02  0.00000000000E+00 0.  1.
         11    1    3    3    0    0 -0.15402089822E+02 -0.27127011798E+02 -0.14301833347E+02  0.34316782731E+02  0.00000000000E+00 0. -1.
<mgrwt>
<rscale>  0 0.11654890E+03</rscale>
<asrwt>0</asrwt>
<pdfrwt beam="1">  1        2 0.49223122E-01 0.12634400E+03</pdfrwt>
<pdfrwt beam="2">  1       -2 0.80994612E-02 0.12634400E+03</pdfrwt>
<totfact> 0.89213213E+03</totfact>
</mgrwt>
</event>
<event>
 8    1  0.7550631E-006  0.2119306E+03  0.7546771E-02  0.1144095E+00
          2   -1    0    0  501    0  0.00000000000E+00  0.00000000000E+00  0.56055035044E+03  0.56055035044E+03  0.00000000000E+00 0. -1.
         -2   -1    0    0    0  501 -0.00000000000E+00 -0.00000000000E+00 -0.76478240899E+02  0.76478240899E+02  0.00000000000E+00 0.  1.
         23    2    1    2    0    0  0.12467892160E+03  0.11723021349E+03  0.16171596929E+03  0.25124620685E+03  0.87663249347E+02 0.  0.
         23    2    1    2    0    0 -0.12467892160E+03 -0.11723021349E+03  0.32235614025E+03  0.38578238449E+03  0.12500724211E+03 0.  0.
          5    1    4    4  502    0 -0.57821468936E+02 -0.12722674505E+03  0.25137735886E+03  0.28765019289E+03  0.47000000000E+01 0.  1.
         -5    1    4    4    0  502 -0.66857452663E+02  0.99965315559E+01  0.70978781395E+02  0.98132191599E+02  0.47000000000E+01 0.  1.
        -11    1    3    3    0    0  0.41919294179E+02 -0.84204680207E+00  0.12508515093E+02  0.43753848027E+02  0.00000000000E+00 0.  1.
         11    1    3    3    0    0  0.82759627420E+02  0.11807226029E+03  0.14920745420E+03  0.20749235882E+03  0.00000000000E+00 0. -1.
<mgrwt>
<rscale>  0 0.20683794E+03</rscale>
<asrwt>0</asrwt>
<pdfrwt beam="1">  1        2 0.86238513E-01 0.21193057E+03</pdfrwt>
<pdfrwt beam="2">  1       -2 0.11765884E-01 0.21193057E+03</pdfrwt>
<totfact> 0.27624572E+03</totfact>
</mgrwt>
</event>
<event>
 8    1  0.7550631E-006  0.1319454E+03  0.7546771E-02  0.1231267E+00
          1   -1    0    0  501    0  0.00000000000E+00  0.00000000000E+00  0.18297030533E+03  0.18297030533E+03  0.00000000000E+00 0. -1.
         -1   -1    0    0    0  501 -0.00000000000E+00 -0.00000000000E+00 -0.19559420085E+03  0.19559420085E+03  0.00000000000E+00 0.  1.
         23    2    1    2    0    0  0.67695292675E+02 -0.16768855883E+02 -0.14942430346E+03  0.18850149650E+03  0.91330961570E+02 0.  0.
         23    2    1    2    0    0 -0.67695292675E+02  0.16768855883E+02  0.13680040793E+03  0.19006300968E+03  0.11200780713E+03 0.  0.
          5    1    4    4  502    0 -0.16625425674E+02  0.25339761669E+02  0.13456749550E+03  0.13801814788E+03  0.47000000000E+01 0. -1.
         -5    1    4    4    0  502 -0.51069867001E+02 -0.85709057869E+01  0.22329124364E+01  0.52044861797E+02  0.47000000000E+01 0.  1.
        -11    1    3    3    0    0  0.38740764996E+02 -0.32550657257E+02 -0.14696698179E+03  0.15543386342E+03  0.00000000000E+00 0. -1.
         11    1    3    3    0    0  0.28954527679E+02  0.15781801374E+02 -0.24573216630E+01  0.33067633080E+02  0.00000000000E+00 0.  1.
<mgrwt>
<rscale>  0 0.12746438E+03</rscale>
<asrwt>0</asrwt>
<pdfrwt beam="1">  1        1 0.28149278E-01 0.13194543E+03</pdfrwt>
<pdfrwt beam="2">  1       -1 0.30091415E-01 0.13194543E+03</pdfrwt>
<totfact> 0.16352157E+03</totfact>
</mgrwt>
</event>
<event>
 8    1  0.7550631E-006  0.1264396E+03  0.7546771E-02  0.1250519E+00
         -4   -1    0    0    0  501 -0.00000000000E+00  0.00000000000E+00  0.68964412445E+02  0.68964412445E+02  0.00000000000E+00 0.  1.
          4   -1    0    0  501    0  0.00000000000E+00 -0.00000000000E+00 -0.17340929708E+03  0.17340929708E+03  0.00000000000E+00 0. -1.
         23    2    1    2    0    0 -0.11815650549E+02  0.14881598479E+02 -0.20864642777E+02  0.90806435182E+02  0.86309928635E+02 0.  0.
         23    2    1    2    0    0  0.11815650549E+02 -0.14881598479E+02 -0.83580241854E+02  0.15156727434E+03  0.12500364095E+03 0.  0.
          5    1    4    4  502    0 -0.86467359693E+01 -0.26819806533E+02 -0.11123829587E+03  0.11484823261E+03  0.47000000000E+01 0. -1.
         -5    1    4    4    0  502  0.20462386518E+02  0.11938208054E+02  0.27658054017E+02  0.36719041730E+02  0.47000000000E+01 0. -1.
        -11    1    3    3    0    0  0.16567066187E+02  0.37211725021E+02 -0.33299030852E+02  0.52611839131E+02  0.00000000000E+00 0. -1.
         11    1    3    3    0    0 -0.28382716737E+02 -0.22330126541E+02  0.12434388075E+02  0.38194596051E+02  0.00000000000E+00 0.  1.
<mgrwt>
<rscale>  0 0.11561046E+03</rscale>
<asrwt>0</asrwt>
<pdfrwt beam="2">  1        4 0.26678354E-01 0.12643964E+03</pdfrwt>
<pdfrwt beam="1">  1       -4 0.10609910E-01 0.12643964E+03</pdfrwt>
<totfact> 0.14757958E+03</totfact>
</mgrwt>
</event>
<event>
 8    1  0.7550631E-006  0.1811531E+03  0.7546771E-02  0.1171722E+00
         -1   -1    0    0    0  501 -0.00000000000E+00  0.00000000000E+00  0.10395740564E+03  0.10395740564E+03  0.00000000000E+00 0.  1.
          1   -1    0    0  501    0  0.00000000000E+00 -0.00000000000E+00 -0.29627406920E+03  0.29627406920E+03  0.00000000000E+00 0. -1.
         23    2    1    2    0    0  0.13165102625E+03  0.14446688015E+02 -0.47420524377E+02  0.16825874305E+03  0.92312507132E+02 0.  0.
         23    2    1    2    0    0 -0.13165102625E+03 -0.14446688015E+02 -0.14489613918E+03  0.23197273180E+03  0.12359513600E+03 0.  0.
          5    1    4    4  502    0 -0.11251224833E+03 -0.13249126786E+02 -0.16730430912E+03  0.20210731613E+03  0.47000000000E+01 0. -1.
         -5    1    4    4    0  502 -0.19138777917E+02 -0.11975612295E+01  0.22408169937E+02  0.29865415667E+02  0.47000000000E+01 0.  1.
        -11    1    3    3    0    0  0.12139182358E+03  0.44796438426E+02 -0.38668697321E+02  0.13504800583E+03  0.00000000000E+00 0. -1.
         11    1    3    3    0    0  0.10259202670E+02 -0.30349750411E+02 -0.87518270559E+01  0.33210737213E+02  0.00000000000E+00 0.  1.
<mgrwt>
<rscale>  0 0.17600945E+03</rscale>
<asrwt>0</asrwt>
<pdfrwt beam="2">  1        1 0.45580626E-01 0.18115313E+03</pdfrwt>
<pdfrwt beam="1">  1       -1 0.15993447E-01 0.18115313E+03</pdfrwt>
<totfact> 0.25389887E+03</totfact>
</mgrwt>
</event>
<event>
 8    1  0.7550631E-006  0.1661327E+03  0.7546771E-02  0.1187649E+00
          3   -1    0    0  501    0  0.00000000000E+00  0.00000000000E+00  0.10883882854E+03  0.10883882854E+03  0.00000000000E+00 0.  1.
         -3   -1    0    0    0  501 -0.00000000000E+00 -0.00000000000E+00 -0.24974420837E+03  0.24974420837E+03  0.00000000000E+00 0. -1.
         23    2    1    2    0    0 -0.10131613297E+03 -0.41367718640E+02 -0.12367570655E+03  0.19155930674E+03  0.97072347571E+02 0.  0.
         23    2    1    2    0    0  0.10131613297E+03  0.41367718640E+02 -0.17229673286E+02  0.16702373016E+03  0.12499527131E+03 0.  0.
          5    1    4    4  502    0 -0.25893069009E+02 -0.86300501581E+01  0.59061803383E+01  0.28317869882E+02  0.47000000000E+01 0.  1.
         -5    1    4    4    0  502  0.12720920198E+03  0.49997768798E+02 -0.23135853624E+02  0.13870586028E+03  0.47000000000E+01 0.  1.
        -11    1    3    3    0    0 -0.21822204803E+02 -0.24126657963E+02 -0.10245354249E+03  0.10749433760E+03  0.00000000000E+00 0. -1.
         11    1    3    3    0    0 -0.79493928170E+02 -0.17241060677E+02 -0.21222164054E+02  0.84064969139E+02  0.00000000000E+00 0.  1.
<mgrwt>
<rscale>  0 0.16093155E+03</rscale>
<asrwt>0</asrwt>
<pdfrwt beam="1">  1        3 0.16744435E-01 0.16613267E+03</pdfrwt>
<pdfrwt beam="2">  1       -3 0.38422186E-01 0.16613267E+03</pdfrwt>
<totfact> 0.49116726E+02</totfact>
</mgrwt>
</event>
<event>
 8    1  0.7550631E-006  0.1301838E+03  0.7546771E-02  0.1241327E+00
          3   -1    0    0  501    0  0.00000000000E+00  0.00000000000E+00  0.10660585585E+03  0.10660585585E+03  0.00000000000E+00 0. -1.
         -3   -1    0    0    0  501 -0.00000000000E+00 -0.00000000000E+00 -0.12217084516E+03  0.12217084516E+03  0.00000000000E+00 0.  1.
         23    2    1    2    0    0 -0.21058481140E+02  0.29649885880E+02 -0.15213665337E+02  0.98592418819E+02  0.90368324511E+02 0.  0.
         23    2    1    2    0    0  0.21058481140E+02 -0.29649885880E+02 -0.35132397598E+00  0.13018428219E+03  0.12500099416E+03 0.  0.
          5    1    4    4  502    0  0.28772711899E+02 -0.59762905849E+02 -0.41513264045E+02  0.78389507953E+02  0.47000000000E+01 0.  1.
         -5    1    4    4    0  502 -0.77142307585E+01  0.30113019969E+02  0.41161940069E+02  0.51794774235E+02  0.47000000000E+01 0.  1.
        -11    1    3    3    0    0  0.18864961136E+02  0.49392788889E+02 -0.83978454026E+01  0.53535578453E+02  0.00000000000E+00 0.  1.
         11    1    3    3    0    0 -0.39923442276E+02 -0.19742903009E+02 -0.68158199347E+01  0.45056840366E+02  0.00000000000E+00 0. -1.
<mgrwt>
<rscale>  0 0.12107942E+03</rscale>
<asrwt>0</asrwt>
<pdfrwt beam="1">  1        3 0.16400901E-01 0.13018381E+03</pdfrwt>
<pdfrwt beam="2">  1       -3 0.18795515E-01 0.13018381E+03</pdfrwt>
<totfact> 0.18144518E+03</totfact>
</mgrwt>
</event>
<event>
 7    1  0.7550631E-006  0.1333583E+03  0.7546771E-02  0.1237634E+00
         -1   -1    0    0    0  501 -0.00000000000E+00  0.00000000000E+00  0.16307346259E+02  0.16307346259E+02  0.00000000000E+00 0.  1.
          1   -1    0    0  501    0  0.00000000000E+00 -0.00000000000E+00 -0.91647657994E+03  0.91647657994E+03  0.00000000000E+00 0. -1.
         23    2    1    2    0    0  0.20825777269E+02  0.15054511559E+02 -0.23705444809E+03  0.25639228940E+03  0.94243532346E+02 0.  0.
          5    1    1    2  502    0 -0.47069893297E+02  0.18626397306E+02 -0.58533082331E+03  0.58753449282E+03  0.47000000000E+01 0. -1.
         -5    1    1    2    0  502  0.26244116028E+02 -0.33680908865E+02 -0.77783962283E+02  0.88857143981E+02  0.47000000000E+01 0.  1.
        -11    1    3    3    0    0 -0.23880331986E+02 -0.18156850723E+02 -0.15055577150E+03  0.15351541230E+03  0.00000000000E+00 0.  1.
         11    1    3    3    0    0  0.44706109255E+02  0.33211362281E+02 -0.86498676593E+02  0.10287687710E+03  0.00000000000E+00 0. -1.
<mgrwt>
<rscale>  0 0.12337325E+03</rscale>
<asrwt>0</asrwt>
<pdfrwt beam="2">  1        1 0.14099639E+00 0.13335827E+03</pdfrwt>
<pdfrwt beam="1">  1       -1 0.25088226E-02 0.13335827E+03</pdfrwt>
<totfact> 0.87792544E+03</totfact>
</mgrwt>
</event>
<event>
 8    1  0.7550631E-006  0.1190819E+03  0.7546771E-02  0.1252453E+00
         -2   -1    0    0    0  501 -0.00000000000E+00  0.00000000000E+00  0.34221678736E+02  0.34221678736E+02  0.00000000000E+00 0.  1.
          2   -1    0    0  501    0  0.00000000000E+00 -0.00000000000E+00 -0.69586281384E+03  0.69586281384E+03  0.00000000000E+00 0. -1.
         23    2    1    2    0    0  0.25959871661E+02  0.14294001577E+00 -0.62992928007E+02  0.11970741122E+03  0.98426723775E+02 0.  0.
         23    2    1    2    0    0 -0.25959871661E+02 -0.14294001577E+00 -0.59864820709E+03  0.61037708135E+03  0.11621777067E+03 0.  0.
          5    1    4    4  502    0  0.10903811849E+01 -0.16017963700E+02 -0.56057765895E+03  0.56082721565E+03  0.47000000000E+01 0. -1.
         -5    1    4    4    0  502 -0.27050252846E+02  0.15875023685E+02 -0.38070548138E+02  0.49549865706E+02  0.47000000000E+01 0.  1.
        -11    1    3    3    0    0 -0.30631156755E+02  0.19166461040E+02 -0.50046166197E+01  0.36478311097E+02  0.00000000000E+00 0. -1.
         11    1    3    3    0    0  0.56591028416E+02 -0.19023521025E+02 -0.57988311387E+02  0.83229100121E+02  0.00000000000E+00 0.  1.
<mgrwt>
<rscale>  0 0.11450213E+03</rscale>
<asrwt>0</asrwt>
<pdfrwt beam="2">  1        2 0.10705581E+00 0.11908193E+03</pdfrwt>
<pdfrwt beam="1">  1       -2 0.52648738E-02 0.11908193E+03</pdfrwt>
<totfact> 0.73038276E+03</totfact>
</mgrwt>
</event>
<event>
 8    1  0.7550631E-006  0.1252569E+03  0.7546771E-02  0.1251527E+00
          2   -1    0    0  501    0  0.00000000000E+00  0.00000000000E+00  0.19517552811E+04  0.19517552811E+04  0.00000000000E+00 0. -1.
         -2   -1    0    0    0  501 -0.00000000000E+00 -0.00000000000E+00 -0.17210631597E+02  0.17210631597E+02  0.00000000000E+00 0.  1.
         23    2    1    2    0    0  0.37015518424E+01  0.18715982175E+02  0.11675817365E+03  0.14686905222E+03  0.87029063603E+02 0.  0.
         23    2    1    2    0    0 -0.37015518424E+01 -0.18715982175E+02  0.18177864759E+04  0.18220968605E+04  0.12379542675E+03 0.  0.
          5    1    4    4  502    0 -0.34654579471E+02  0.43218736471E+02  0.86761122834E+03  0.86939066742E+03  0.47000000000E+01 0. -1.
         -5    1    4    4    0  502  0.30953027628E+02 -0.61934718646E+02  0.95017524755E+03  0.95270619309E+03  0.47000000000E+01 0.  1.
        -11    1    3    3    0    0 -0.39443056606E+02  0.14025305513E+02  0.78724024120E+02  0.89162412948E+02  0.00000000000E+00 0. -1.
         11    1    3    3    0    0  0.43144608448E+02  0.46906766618E+01  0.38034149526E+02  0.57706639270E+02  0.00000000000E+00 0.  1.
<mgrwt>
<rscale>  0 0.11503117E+03</rscale>
<asrwt>0</asrwt>
<pdfrwt beam="1">  1        2 0.30026987E+00 0.12525692E+03</pdfrwt>
<pdfrwt beam="2">  1       -2 0.26477910E-02 0.12525692E+03</pdfrwt>
<totfact> 0.40017334E+03</totfact>
</mgrwt>
</event>
<event>
 8    1  0.7550631E-006  0.1671118E+03  0.7546771E-02  0.1187802E+00
         -2   -1    0    0    0  501 -0.00000000000E+00  0.00000000000E+00  0.56186934494E+02  0.56186934494E+02  0.00000000000E+00 0.  1.
          2   -1    0    0  501    0  0.00000000000E+00 -0.00000000000E+00 -0.44658631122E+03  0.44658631122E+03  0.00000000000E+00 0. -1.
         23    2    1    2    0    0  0.78423118921E+02  0.78455145269E+02 -0.13043930143E+03  0.19373343673E+03  0.90624708274E+02 0.  0.
         23    2    1    2    0    0 -0.78423118921E+02 -0.78455145269E+02 -0.25996007530E+03  0.30903980899E+03  0.12498386851E+03 0.  0.
          5    1    4    4  502    0 -0.72895603865E+01  0.29008079985E+02 -0.94673909930E+02  0.99397412524E+02  0.47000000000E+01 0.  1.
         -5    1    4    4    0  502 -0.71133558534E+02 -0.10746322525E+03 -0.16528616537E+03  0.20964239646E+03  0.47000000000E+01 0.  1.
        -11    1    3    3    0    0 -0.29723987200E+01  0.47880295603E+02 -0.79810752734E+02  0.93118817181E+02  0.00000000000E+00 0. -1.
         11    1    3    3    0    0  0.81395517641E+02  0.30574849666E+02 -0.50628548694E+02  0.10061461955E+03  0.00000000000E+00 0.  1.
<mgrwt>
<rscale>  0 0.16079513E+03</rscale>
<asrwt>0</asrwt>
<pdfrwt beam="2">  1        2 0.68705585E-01 0.16711183E+03</pdfrwt>
<pdfrwt beam="1">  1       -2 0.86441439E-02 0.16711183E+03</pdfrwt>
<totfact> 0.57443464E+03</totfact>
</mgrwt>
</event>
<event>
 8    1  0.7550631E-006  0.2200777E+03  0.7546771E-02  0.1137291E+00
         -2   -1    0    0    0  501 -0.00000000000E+00  0.00000000000E+00  0.52509481757E+02  0.52509481757E+02  0.00000000000E+00 0. -1.
          2   -1    0    0  501    0  0.00000000000E+00 -0.00000000000E+00 -0.84934995498E+03  0.84934995498E+03  0.00000000000E+00 0.  1.
         23    2    1    2    0    0  0.25269466994E+02  0.17935888607E+03 -0.38229690554E+03  0.43251887121E+03  0.90074935451E+02 0.  0.
         23    2    1    2    0    0 -0.25269466994E+02 -0.17935888607E+03 -0.41454356769E+03  0.46934056552E+03  0.12500416378E+03 0.  0.
          5    1    4    4  502    0  0.26607721473E+02 -0.13593678881E+03 -0.34687869021E+03  0.37354209550E+03  0.47000000000E+01 0. -1.
         -5    1    4    4    0  502 -0.51877188467E+02 -0.43422097266E+02 -0.67664877479E+02  0.95798470021E+02  0.47000000000E+01 0. -1.
        -11    1    3    3    0    0  0.90787103953E+01 -0.52392659837E+01 -0.58626662878E+02  0.59556347191E+02  0.00000000000E+00 0.  1.
         11    1    3    3    0    0  0.16190756598E+02  0.18459815206E+03 -0.32367024266E+03  0.37296252402E+03  0.00000000000E+00 0. -1.
<mgrwt>
<rscale>  0 0.21548953E+03</rscale>
<asrwt>0</asrwt>
<pdfrwt beam="2">  1        2 0.13066922E+00 0.22007771E+03</pdfrwt>
<pdfrwt beam="1">  1       -2 0.80783822E-02 0.22007771E+03</pdfrwt>
<totfact> 0.30367393E+03</totfact>
</mgrwt>
</event>
<event>
 8    1  0.7550631E-006  0.1310970E+03  0.7546771E-02  0.1240309E+00
         -1   -1    0    0    0  501 -0.00000000000E+00  0.00000000000E+00  0.87700905474E+01  0.87700905474E+01  0.00000000000E+00 0.  1.
          1   -1    0    0  501    0  0.00000000000E+00 -0.00000000000E+00 -0.17140165588E+04  0.17140165588E+04  0.00000000000E+00 0. -1.
         23    2    1    2    0    0 -0.12697963428E+02 -0.37439127408E+02 -0.43359420085E+03  0.44439472347E+03  0.88993329539E+02 0.  0.
         23    2    1    2    0    0  0.12697963428E+02  0.37439127408E+02 -0.12716522674E+04  0.12783919259E+04  0.12499400153E+03 0.  0.
          5    1    4    4  502    0  0.43014143509E+02 -0.20944867314E+02 -0.24794519042E+03  0.25256249021E+03  0.47000000000E+01 0. -1.
         -5    1    4    4    0  502 -0.30316180081E+02  0.58383994723E+02 -0.10237070770E+04  0.10258294356E+04  0.47000000000E+01 0. -1.
        -11    1    3    3    0    0  0.24217818460E+02  0.17570965321E+02 -0.10452499399E+03  0.10872311586E+03  0.00000000000E+00 0.  1.
         11    1    3    3    0    0 -0.36915781888E+02 -0.55010092729E+02 -0.32906920687E+03  0.33567160762E+03  0.00000000000E+00 0. -1.
<mgrwt>
<rscale>  0 0.12170581E+03</rscale>
<asrwt>0</asrwt>
<pdfrwt beam="2">  1        1 0.26369449E+00 0.13109701E+03</pdfrwt>
<pdfrwt beam="1">  1       -1 0.13492466E-02 0.13109701E+03</pdfrwt>
<totfact> 0.61867376E+03</totfact>
</mgrwt>
</event>
<event>
 8    1  0.7550631E-006  0.2304582E+03  0.7546771E-02  0.1129280E+00
          2   -1    0    0  501    0  0.00000000000E+00  0.00000000000E+00  0.23033693733E+03  0.23033693733E+03  0.00000000000E+00 0. -1.
         -2   -1    0    0    0  501 -0.00000000000E+00 -0.00000000000E+00 -0.22571017888E+03  0.22571017888E+03  0.00000000000E+00 0.  1.
         23    2    1    2    0    0  0.17926577288E+03  0.73152915655E+02 -0.48274610332E+02  0.21959516996E+03  0.91673520011E+02 0.  0.
         23    2    1    2    0    0 -0.17926577288E+03 -0.73152915655E+02  0.52901368786E+02  0.23645194625E+03  0.12499360653E+03 0.  0.
          5    1    4    4  502    0 -0.30545194781E+02  0.34212051119E+02  0.18974156968E+02  0.49855611506E+02  0.47000000000E+01 0. -1.
         -5    1    4    4    0  502 -0.14872057810E+03 -0.10736496677E+03  0.33927211818E+02  0.18659633475E+03  0.47000000000E+01 0. -1.
        -11    1    3    3    0    0  0.16435888482E+03  0.69388342784E+02 -0.10388135677E+02  0.17870785796E+03  0.00000000000E+00 0. -1.
         11    1    3    3    0    0  0.14906888055E+02  0.37645728709E+01 -0.37886474655E+02  0.40887311995E+02  0.00000000000E+00 0.  1.
<mgrwt>
<rscale>  0 0.22628759E+03</rscale>
<asrwt>0</asrwt>
<pdfrwt beam="1">  1        2 0.35436452E-01 0.23045817E+03</pdfrwt>
<pdfrwt beam="2">  1       -2 0.34724643E-01 0.23045817E+03</pdfrwt>
<totfact> 0.11347019E+03</totfact>
</mgrwt>
</event>
<event>
 8    1  0.7550631E-006  0.2137941E+03  0.7546771E-02  0.1142252E+00
         -1   -1    0    0    0  501 -0.00000000000E+00  0.00000000000E+00  0.65800699591E+02  0.65800699591E+02  0.00000000000E+00 0.  1.
          1   -1    0    0  501    0  0.00000000000E+00 -0.00000000000E+00 -0.71345108972E+03  0.71345108972E+03  0.00000000000E+00 0. -1.
         23    2    1    2    0    0 -0.68433470638E+02  0.15937542431E+03 -0.18389423816E+03  0.26858783033E+03  0.90767097543E+02 0.  0.
         23    2    1    2    0    0  0.68433470638E+02 -0.15937542431E+03 -0.46375615197E+03  0.51066395898E+03  0.12499697890E+03 0.  0.
          5    1    4    4  502    0 -0.17077273980E+02 -0.75745445132E+02 -0.28579104265E+03  0.29618848020E+03  0.47000000000E+01 0.  1.
         -5    1    4    4    0  502  0.85510744618E+02 -0.83629979179E+02 -0.17796510932E+03  0.21447547878E+03  0.47000000000E+01 0.  1.
        -11    1    3    3    0    0 -0.24899537968E+02  0.11103805980E+03 -0.16574962077E+03  0.20105316337E+03  0.00000000000E+00 0.  1.
         11    1    3    3    0    0 -0.43533932670E+02  0.48337364512E+02 -0.18144617389E+02  0.67534666964E+02  0.00000000000E+00 0. -1.
<mgrwt>
<rscale>  0 0.20913574E+03</rscale>
<asrwt>0</asrwt>
<pdfrwt beam="2">  1        1 0.10976170E+00 0.21379408E+03</pdfrwt>
<pdfrwt beam="1">  1       -1 0.10123185E-01 0.21379408E+03</pdfrwt>
<totfact> 0.16346301E+03</totfact>
</mgrwt>
</event>
<event>
 8    1  0.7550631E-006  0.2103442E+03  0.7546771E-02  0.1144963E+00
          4   -1    0    0  501    0  0.00000000000E+00  0.00000000000E+00  0.63174324717E+02  0.63174324717E+02  0.00000000000E+00 0. -1.
         -4   -1    0    0    0  501 -0.00000000000E+00 -0.00000000000E+00 -0.88735342239E+03  0.88735342239E+03  0.00000000000E+00 0.  1.
         23    2    1    2    0    0  0.10563809840E+03 -0.13213042662E+03 -0.64839764881E+03  0.67640407252E+03  0.92114607233E+02 0.  0.
         23    2    1    2    0    0 -0.10563809840E+03  0.13213042662E+03 -0.17578144886E+03  0.27412367459E+03  0.12500725472E+03 0.  0.
          5    1    4    4  502    0  0.76494886679E+01  0.37816564073E+02 -0.10212355255E+03  0.10926992807E+03  0.47000000000E+01 0. -1.
         -5    1    4    4    0  502 -0.11328758706E+03  0.94313862549E+02 -0.73657896316E+02  0.16485374652E+03  0.47000000000E+01 0. -1.
        -11    1    3    3    0    0  0.67940347971E+02 -0.17079665403E+02 -0.27959133610E+03  0.28823414280E+03  0.00000000000E+00 0.  1.
         11    1    3    3    0    0  0.37697750425E+02 -0.11505076122E+03 -0.36880631271E+03  0.38816992972E+03  0.00000000000E+00 0. -1.
<mgrwt>
<rscale>  0 0.20576615E+03</rscale>
<asrwt>0</asrwt>
<pdfrwt beam="1">  1        4 0.97191272E-02 0.21034417E+03</pdfrwt>
<pdfrwt beam="2">  1       -4 0.13651591E+00 0.21034417E+03</pdfrwt>
<totfact> 0.57429766E+01</totfact>
</mgrwt>
</event>
<event>
 8    1  0.7550631E-006  0.1291053E+03  0.7546771E-02  0.1243720E+00
         -1   -1    0    0    0  501 -0.00000000000E+00  0.00000000000E+00  0.18928255054E+02  0.18928255054E+02  0.00000000000E+00 0.  1.
          1   -1    0    0  501    0  0.00000000000E+00 -0.00000000000E+00 -0.10957345003E+04  0.10957345003E+04  0.00000000000E+00 0. -1.
         23    2    1    2    0    0 -0.17940481219E+02 -0.26860591282E+02 -0.14168789831E+03  0.17067414613E+03  0.89503359720E+02 0.  0.
         23    2    1    2    0    0  0.17940481219E+02  0.26860591282E+02 -0.93511834691E+03  0.94398860919E+03  0.12499927730E+03 0.  0.
          5    1    4    4  502    0  0.15630603686E+01  0.46172787094E+02 -0.89569867855E+03  0.89690165692E+03  0.47000000000E+01 0.  1.
         -5    1    4    4    0  502  0.16377420851E+02 -0.19312195812E+02 -0.39419668358E+02  0.47086952271E+02  0.47000000000E+01 0.  1.
        -11    1    3    3    0    0 -0.60117084173E+01 -0.58631782711E+02 -0.10692062974E+03  0.12208950670E+03  0.00000000000E+00 0. -1.
         11    1    3    3    0    0 -0.11928772802E+02  0.31771191429E+02 -0.34767268571E+02  0.48584639438E+02  0.00000000000E+00 0.  1.
<mgrwt>
<rscale>  0 0.11962288E+03</rscale>
<asrwt>0</asrwt>
<pdfrwt beam="2">  1        1 0.16857461E+00 0.12910527E+03</pdfrwt>
<pdfrwt beam="1">  1       -1 0.29120381E-02 0.12910527E+03</pdfrwt>
<totfact> 0.52235138E+03</totfact>
</mgrwt>
</event>
<event>
 8    1  0.7550631E-006  0.1252754E+03  0.7546771E-02  0.1255016E+00
          1   -1    0    0  501    0  0.00000000000E+00  0.00000000000E+00  0.99918555182E+03  0.99918555182E+03  0.00000000000E+00 0. -1.
         -1   -1    0    0    0  501 -0.00000000000E+00 -0.00000000000E+00 -0.15304704217E+02  0.15304704217E+02  0.00000000000E+00 0.  1.
         23    2    1    2    0    0  0.31745274564E+00 -0.36720399602E+01  0.15198779540E+03  0.17321742942E+03  0.83008452888E+02 0.  0.
         23    2    1    2    0    0 -0.31745274564E+00  0.36720399602E+01  0.83189305220E+03  0.84127282661E+03  0.12522113977E+03 0.  0.
          5    1    4    4  502    0  0.56157920983E+02  0.22156895648E+02  0.30001487874E+03  0.30606479311E+03  0.47000000000E+01 0. -1.
         -5    1    4    4    0  502 -0.56475373729E+02 -0.18484855688E+02  0.53187817346E+03  0.53520803351E+03  0.47000000000E+01 0. -1.
        -11    1    3    3    0    0  0.33981167474E+02  0.49059034997E+01  0.12382393191E+03  0.12849573435E+03  0.00000000000E+00 0. -1.
         11    1    3    3    0    0 -0.33663714729E+02 -0.85779434598E+01  0.28163863485E+02  0.44721695068E+02  0.00000000000E+00 0.  1.
<mgrwt>
<rscale>  0 0.11305422E+03</rscale>
<asrwt>0</asrwt>
<pdfrwt beam="1">  1        1 0.15372080E+00 0.12527537E+03</pdfrwt>
<pdfrwt beam="2">  1       -1 0.23545707E-02 0.12527537E+03</pdfrwt>
<totfact> 0.83215002E+03</totfact>
</mgrwt>
</event>
<event>
 8    1  0.7550631E-006  0.1871662E+03  0.7546771E-02  0.1166193E+00
         -1   -1    0    0    0  501 -0.00000000000E+00  0.00000000000E+00  0.27644294192E+03  0.27644294192E+03  0.00000000000E+00 0.  1.
          1   -1    0    0  501    0  0.00000000000E+00 -0.00000000000E+00 -0.11551712775E+03  0.11551712775E+03  0.00000000000E+00 0. -1.
         23    2    1    2    0    0  0.70959702356E+01 -0.13911303072E+03  0.10530174554E+03  0.19670328997E+03  0.90559033584E+02 0.  0.
         23    2    1    2    0    0 -0.70959702356E+01  0.13911303072E+03  0.55624068638E+02  0.19525677970E+03  0.12501353885E+03 0.  0.
          5    1    4    4  502    0  0.19363438448E+01  0.28144577307E+02  0.76689237847E+02  0.81848615510E+02  0.47000000000E+01 0. -1.
         -5    1    4    4    0  502 -0.90323140804E+01  0.11096845342E+03 -0.21065169209E+02  0.11340816419E+03  0.47000000000E+01 0. -1.
        -11    1    3    3    0    0  0.29518859039E+02 -0.12300215188E+03  0.11125357881E+03  0.16845845542E+03  0.00000000000E+00 0.  1.
         11    1    3    3    0    0 -0.22422888803E+02 -0.16110878846E+02 -0.59518332760E+01  0.28244834551E+02  0.00000000000E+00 0. -1.
<mgrwt>
<rscale>  0 0.18167345E+03</rscale>
<asrwt>0</asrwt>
<pdfrwt beam="2">  1        1 0.17771866E-01 0.18716616E+03</pdfrwt>
<pdfrwt beam="1">  1       -1 0.42529683E-01 0.18716616E+03</pdfrwt>
<totfact> 0.16284399E+03</totfact>
</mgrwt>
</event>
<event>
 8    1  0.7550631E-006  0.1964266E+03  0.7546771E-02  0.1157338E+00
          2   -1    0    0  501    0  0.00000000000E+00  0.00000000000E+00  0.30303814219E+03  0.30303814219E+03  0.00000000000E+00 0. -1.
         -2   -1    0    0    0  501 -0.00000000000E+00 -0.00000000000E+00 -0.14035397335E+03  0.14035397335E+03  0.00000000000E+00 0.  1.
         23    2    1    2    0    0 -0.13587338651E+02  0.15090811594E+03 -0.16784086796E+02  0.17732396253E+03  0.90577077076E+02 0.  0.
         23    2    1    2    0    0  0.13587338651E+02 -0.15090811594E+03  0.17946825563E+03  0.26606815300E+03  0.12500212812E+03 0.  0.
          5    1    4    4  502    0  0.33744140322E+02 -0.14048101301E+03  0.19151768943E+03  0.23994728043E+03  0.47000000000E+01 0.  1.
         -5    1    4    4    0  502 -0.20156801671E+02 -0.10427102932E+02 -0.12049433794E+02  0.26120872572E+02  0.47000000000E+01 0.  1.
        -11    1    3    3    0    0  0.51297568279E+01  0.99951083138E+02  0.31239571358E+02  0.10484485798E+03  0.00000000000E+00 0. -1.
         11    1    3    3    0    0 -0.18717095479E+02  0.50957032799E+02 -0.48023658153E+02  0.72479104556E+02  0.00000000000E+00 0.  1.
<mgrwt>
<rscale>  0 0.19125092E+03</rscale>
<asrwt>0</asrwt>
<pdfrwt beam="1">  1        2 0.46621253E-01 0.19642660E+03</pdfrwt>
<pdfrwt beam="2">  1       -2 0.21592919E-01 0.19642660E+03</pdfrwt>
<totfact> 0.19683265E+03</totfact>
</mgrwt>
</event>
<event>
 8    1  0.7550631E-006  0.1304397E+03  0.7546771E-02  0.1240429E+00
         -1   -1    0    0    0  501 -0.00000000000E+00  0.00000000000E+00  0.14234512883E+03  0.14234512883E+03  0.00000000000E+00 0.  1.
          1   -1    0    0  501    0  0.00000000000E+00 -0.00000000000E+00 -0.12764258989E+03  0.12764258989E+03  0.00000000000E+00 0. -1.
         23    2    1    2    0    0 -0.29695121046E+02  0.22616823826E+02  0.77302362673E+02  0.12530446459E+03  0.91281063963E+02 0.  0.
         23    2    1    2    0    0  0.29695121046E+02 -0.22616823826E+02 -0.62599823739E+02  0.14468325412E+03  0.12498473970E+03 0.  0.
          5    1    4    4  502    0 -0.40498535054E+02 -0.31061654625E+02 -0.17495407835E+01  0.51284584648E+02  0.47000000000E+01 0. -1.
         -5    1    4    4    0  502  0.70193656100E+02  0.84448307989E+01 -0.60850282956E+02  0.93398669475E+02  0.47000000000E+01 0. -1.
        -11    1    3    3    0    0 -0.39399984084E+02 -0.15108339920E+02  0.41166055064E+01  0.42397725432E+02  0.00000000000E+00 0. -1.
         11    1    3    3    0    0  0.97048630380E+01  0.37725163746E+02  0.73185757167E+02  0.82906739161E+02  0.00000000000E+00 0.  1.
<mgrwt>
<rscale>  0 0.12163164E+03</rscale>
<asrwt>0</asrwt>
<pdfrwt beam="2">  1        1 0.19637322E-01 0.13043966E+03</pdfrwt>
<pdfrwt beam="1">  1       -1 0.21899251E-01 0.13043966E+03</pdfrwt>
<totfact> 0.43392990E+03</totfact>
</mgrwt>
</event>
<event>
 8    1  0.7550631E-006  0.1347678E+03  0.7546771E-02  0.1234119E+00
          1   -1    0    0  501    0  0.00000000000E+00  0.00000000000E+00  0.20086641508E+03  0.20086641508E+03  0.00000000000E+00 0. -1.
         -1   -1    0    0    0  501 -0.00000000000E+00 -0.00000000000E+00 -0.91287396001E+02  0.91287396001E+02  0.00000000000E+00 0.  1.
         23    2    1    2    0    0 -0.50145052756E+02  0.48635419037E+01 -0.21722494540E+02  0.10399842675E+03  0.88349451852E+02 0.  0.
         23    2    1    2    0    0  0.50145052756E+02 -0.48635419037E+01  0.13130151361E+03  0.18815538432E+03  0.12499672322E+03 0.  0.
          5    1    4    4  502    0  0.69260752655E+02 -0.27158052481E+02  0.13874035414E+03  0.15749789694E+03  0.47000000000E+01 0. -1.
         -5    1    4    4    0  502 -0.19115699899E+02  0.22294510577E+02 -0.74388405242E+01  0.30657487386E+02  0.47000000000E+01 0. -1.
        -11    1    3    3    0    0  0.98791380287E+01 -0.98136546715E+01  0.23575614794E+02  0.27380920348E+02  0.00000000000E+00 0. -1.
         11    1    3    3    0    0 -0.60024190785E+02  0.14677196575E+02 -0.45298109334E+02  0.76617506406E+02  0.00000000000E+00 0.  1.
<mgrwt>
<rscale>  0 0.12561013E+03</rscale>
<asrwt>0</asrwt>
<pdfrwt beam="1">  1        1 0.30902525E-01 0.13476780E+03</pdfrwt>
<pdfrwt beam="2">  1       -1 0.14044215E-01 0.13476780E+03</pdfrwt>
<totfact> 0.49793759E+03</totfact>
</mgrwt>
</event>
<event>
 8    1  0.7550631E-006  0.1592526E+03  0.7546771E-02  0.1196872E+00
         -1   -1    0    0    0  501 -0.00000000000E+00  0.00000000000E+00  0.20968997581E+02  0.20968997581E+02  0.00000000000E+00 0.  1.
          1   -1    0    0  501    0  0.00000000000E+00 -0.00000000000E+00 -0.11401523578E+04  0.11401523578E+04  0.00000000000E+00 0. -1.
         23    2    1    2    0    0 -0.97899941294E+02 -0.12207003028E+02 -0.34400628324E+03  0.36975488963E+03  0.92978202147E+02 0.  0.
         23    2    1    2    0    0  0.97899941294E+02  0.12207003028E+02 -0.77517707702E+03  0.79136646579E+03  0.12501189143E+03 0.  0.
          5    1    4    4  502    0  0.15893679751E+02  0.54113622243E+01 -0.70120219901E+01  0.18792294951E+02  0.47000000000E+01 0. -1.
         -5    1    4    4    0  502  0.82006261543E+02  0.67956408036E+01 -0.76816505503E+03  0.77257417083E+03  0.47000000000E+01 0. -1.
        -11    1    3    3    0    0 -0.40261886158E+02 -0.46720837017E+02 -0.10796710361E+03  0.12434127050E+03  0.00000000000E+00 0.  1.
         11    1    3    3    0    0 -0.57638055137E+02  0.34513833989E+02 -0.23603917963E+03  0.24541361913E+03  0.00000000000E+00 0. -1.
<mgrwt>
<rscale>  0 0.15296891E+03</rscale>
<asrwt>0</asrwt>
<pdfrwt beam="2">  1        1 0.17540809E+00 0.15925257E+03</pdfrwt>
<pdfrwt beam="1">  1       -1 0.32259990E-02 0.15925257E+03</pdfrwt>
<totfact> 0.42173708E+03</totfact>
</mgrwt>
</event>
<event>
 8    1  0.7550631E-006  0.1339314E+03  0.7546771E-02  0.1234511E+00
          2   -1    0    0  501    0  0.00000000000E+00  0.00000000000E+00  0.85746099625E+03  0.85746099625E+03  0.00000000000E+00 0. -1.
         -2   -1    0    0    0  501 -0.00000000000E+00 -0.00000000000E+00 -0.18620593657E+02  0.18620593657E+02  0.00000000000E+00 0.  1.
         23    2    1    2    0    0 -0.15311880600E+02 -0.45600581407E+02  0.21881862730E+03  0.24175940817E+03  0.90841362115E+02 0.  0.
         23    2    1    2    0    0  0.15311880600E+02  0.45600581407E+02  0.62002177529E+03  0.63432218174E+03  0.12499504670E+03 0.  0.
          5    1    4    4  502    0 -0.21073019904E+02 -0.36380882097E+02  0.25011387631E+03  0.25366647763E+03  0.47000000000E+01 0.  1.
         -5    1    4    4    0  502  0.36384900505E+02  0.81981463504E+02  0.36990789898E+03  0.38065570411E+03  0.47000000000E+01 0.  1.
        -11    1    3    3    0    0 -0.52432801611E+02 -0.37935522690E+02  0.14461042971E+03  0.15843130671E+03  0.00000000000E+00 0. -1.
         11    1    3    3    0    0  0.37120921010E+02 -0.76650587169E+01  0.74208197595E+02  0.83328101455E+02  0.00000000000E+00 0.  1.
<mgrwt>
<rscale>  0 0.12535764E+03</rscale>
<asrwt>0</asrwt>
<pdfrwt beam="1">  1        2 0.13191705E+00 0.13393143E+03</pdfrwt>
<pdfrwt beam="2">  1       -2 0.28647074E-02 0.13393143E+03</pdfrwt>
<totfact> 0.14042531E+04</totfact>
</mgrwt>
</event>
<event>
 8    1  0.7550631E-006  0.1471607E+03  0.7546771E-02  0.1214124E+00
         -1   -1    0    0    0  501 -0.00000000000E+00  0.00000000000E+00  0.33854928142E+03  0.33854928142E+03  0.00000000000E+00 0.  1.
          1   -1    0    0  501    0  0.00000000000E+00 -0.00000000000E+00 -0.73368879865E+02  0.73368879865E+02  0.00000000000E+00 0. -1.
         23    2    1    2    0    0  0.71879679692E+02 -0.29410189735E+02  0.23280256126E+03  0.26123770066E+03  0.89534664255E+02 0.  0.
         23    2    1    2    0    0 -0.71879679692E+02  0.29410189735E+02  0.32377840293E+02  0.15068046063E+03  0.12499851623E+03 0.  0.
          5    1    4    4  502    0 -0.20423477968E+02  0.52909232362E+02  0.64049672785E+02  0.85679378530E+02  0.47000000000E+01 0.  1.
         -5    1    4    4    0  502 -0.51456201723E+02 -0.23499042627E+02 -0.31671832492E+02  0.65001082095E+02  0.47000000000E+01 0.  1.
        -11    1    3    3    0    0  0.50184985473E+02 -0.44841302041E+02  0.22289088444E+03  0.23282959756E+03  0.00000000000E+00 0.  1.
         11    1    3    3    0    0  0.21694694219E+02  0.15431112306E+02  0.99116768271E+01  0.28408103101E+02  0.00000000000E+00 0. -1.
<mgrwt>
<rscale>  0 0.13941071E+03</rscale>
<asrwt>0</asrwt>
<pdfrwt beam="2">  1        1 0.11287520E-01 0.14716072E+03</pdfrwt>
<pdfrwt beam="1">  1       -1 0.52084504E-01 0.14716072E+03</pdfrwt>
<totfact> 0.20231175E+03</totfact>
</mgrwt>
</event>
<event>
 8    1  0.7550631E-006  0.2190774E+03  0.7546771E-02  0.1137983E+00
          2   -1    0    0  501    0  0.00000000000E+00  0.00000000000E+00  0.72678437594E+03  0.72678437594E+03  0.00000000000E+00 0. -1.
         -2   -1    0    0    0  501 -0.00000000000E+00 -0.00000000000E+00 -0.72427472494E+02  0.72427472494E+02  0.00000000000E+00 0.  1.
         23    2    1    2    0    0  0.14703387928E+03  0.10369017880E+03  0.15644056037E+03  0.25523059437E+03  0.91095513265E+02 0.  0.
         23    2    1    2    0    0 -0.14703387928E+03 -0.10369017880E+03  0.49791634308E+03  0.54398125407E+03  0.12499722091E+03 0.  0.
          5    1    4    4  502    0 -0.21043140916E+02 -0.39784044659E+02  0.27877689710E+02  0.53149219869E+02  0.47000000000E+01 0. -1.
         -5    1    4    4    0  502 -0.12599073837E+03 -0.63906134138E+02  0.47003865337E+03  0.49083203420E+03  0.47000000000E+01 0. -1.
        -11    1    3    3    0    0  0.47076718749E+02  0.17328544253E+02 -0.40834333782E+00  0.50166349662E+02  0.00000000000E+00 0.  1.
         11    1    3    3    0    0  0.99957160534E+02  0.86361634544E+02  0.15684890370E+03  0.20506424471E+03  0.00000000000E+00 0. -1.
<mgrwt>
<rscale>  0 0.21458837E+03</rscale>
<asrwt>0</asrwt>
<pdfrwt beam="1">  1        2 0.11181298E+00 0.21907743E+03</pdfrwt>
<pdfrwt beam="2">  1       -2 0.11142689E-01 0.21907743E+03</pdfrwt>
<totfact> 0.22215315E+03</totfact>
</mgrwt>
</event>
<event>
 8    1  0.7550631E-006  0.1138779E+03  0.7546771E-02  0.1264002E+00
          1   -1    0    0  501    0  0.00000000000E+00  0.00000000000E+00  0.36804233005E+03  0.36804233005E+03  0.00000000000E+00 0. -1.
         -1   -1    0    0    0  501 -0.00000000000E+00 -0.00000000000E+00 -0.18033368749E+03  0.18033368749E+03  0.00000000000E+00 0.  1.
         23    2    1    2    0    0 -0.16965995207E+02  0.56812515081E+01 -0.15866735038E+03  0.18376047497E+03  0.90953078416E+02 0.  0.
         23    2    1    2    0    0  0.16965995207E+02 -0.56812515081E+01  0.34637599294E+03  0.36461554257E+03  0.11246352204E+03 0.  0.
          5    1    4    4  502    0 -0.29123575462E+02 -0.38091167083E+02  0.23293554943E+03  0.23786588626E+03  0.47000000000E+01 0. -1.
         -5    1    4    4    0  502  0.46089570669E+02  0.32409915575E+02  0.11344044351E+03  0.12674965631E+03  0.47000000000E+01 0.  1.
        -11    1    3    3    0    0 -0.51256977694E+02 -0.13076905237E+02 -0.10229628346E+03  0.11516428623E+03  0.00000000000E+00 0.  1.
         11    1    3    3    0    0  0.34290982487E+02  0.18758156745E+02 -0.56371066915E+02  0.68596188739E+02  0.00000000000E+00 0. -1.
<mgrwt>
<rscale>  0 0.10816704E+03</rscale>
<asrwt>0</asrwt>
<pdfrwt beam="1">  1        1 0.56621897E-01 0.11387785E+03</pdfrwt>
<pdfrwt beam="2">  1       -1 0.27743644E-01 0.11387785E+03</pdfrwt>
<totfact> 0.78656551E+02</totfact>
</mgrwt>
</event>
<event>
 8    1  0.7550631E-006  0.1287977E+03  0.7546771E-02  0.1243355E+00
          3   -1    0    0  501    0  0.00000000000E+00  0.00000000000E+00  0.12345721280E+03  0.12345721280E+03  0.00000000000E+00 0. -1.
         -3   -1    0    0    0  501 -0.00000000000E+00 -0.00000000000E+00 -0.10828497709E+03  0.10828497709E+03  0.00000000000E+00 0.  1.
         23    2    1    2    0    0 -0.15070958158E+02 -0.27124413008E+02 -0.19200343973E+02  0.98436797655E+02  0.91423642254E+02 0.  0.
         23    2    1    2    0    0  0.15070958158E+02  0.27124413008E+02  0.34372579689E+02  0.13330539223E+03  0.12500394315E+03 0.  0.
          5    1    4    4  502    0  0.61680796304E+02  0.21944689780E+02 -0.12519821849E+02  0.66820101627E+02  0.47000000000E+01 0.  1.
         -5    1    4    4    0  502 -0.46609838146E+02  0.51797232283E+01  0.46892401538E+02  0.66485290605E+02  0.47000000000E+01 0.  1.
        -11    1    3    3    0    0  0.64066338901E+01 -0.20317482315E+02 -0.53394360379E+02  0.57487413977E+02  0.00000000000E+00 0.  1.
         11    1    3    3    0    0 -0.21477592048E+02 -0.68069306930E+01  0.34194016406E+02  0.40949383678E+02  0.00000000000E+00 0. -1.
<mgrwt>
<rscale>  0 0.11984359E+03</rscale>
<asrwt>0</asrwt>
<pdfrwt beam="1">  1        3 0.18993418E-01 0.12879772E+03</pdfrwt>
<pdfrwt beam="2">  1       -3 0.16659227E-01 0.12879772E+03</pdfrwt>
<totfact> 0.17309059E+03</totfact>
</mgrwt>
</event>
<event>
 8    1  0.7550631E-006  0.1295719E+03  0.7546771E-02  0.1239075E+00
          1   -1    0    0  501    0  0.00000000000E+00  0.00000000000E+00  0.77963785355E+03  0.77963785355E+03  0.00000000000E+00 0. -1.
         -1   -1    0    0    0  501 -0.00000000000E+00 -0.00000000000E+00 -0.17553449506E+02  0.17553449506E+02  0.00000000000E+00 0.  1.
         23    2    1    2    0    0  0.84581938779E+00 -0.34090714632E+02  0.30248522548E+03  0.31967661168E+03  0.97636735847E+02 0.  0.
         23    2    1    2    0    0 -0.84581938779E+00  0.34090714632E+02  0.45959917857E+03  0.47751469138E+03  0.12500393318E+03 0.  0.
          5    1    4    4  502    0 -0.46731526217E+02 -0.25819390351E+02  0.20854048752E+03  0.21531767553E+03  0.47000000000E+01 0.  1.
         -5    1    4    4    0  502  0.45885706829E+02  0.59910104983E+02  0.25105869105E+03  0.26219701585E+03  0.47000000000E+01 0.  1.
        -11    1    3    3    0    0  0.49095400066E+02 -0.19087476291E+02  0.16471980349E+03  0.17293728262E+03  0.00000000000E+00 0. -1.
         11    1    3    3    0    0 -0.48249580678E+02 -0.15003238341E+02  0.13776542199E+03  0.14673932906E+03  0.00000000000E+00 0.  1.
<mgrwt>
<rscale>  0 0.12247146E+03</rscale>
<asrwt>0</asrwt>
<pdfrwt beam="1">  1        1 0.11994426E+00 0.12957189E+03</pdfrwt>
<pdfrwt beam="2">  1       -1 0.27005313E-02 0.12957189E+03</pdfrwt>
<totfact> 0.10110490E+04</totfact>
</mgrwt>
</event>
<event>
 7    1  0.7550631E-006  0.1314989E+03  0.7546771E-02  0.1241999E+00
          1   -1    0    0  501    0  0.00000000000E+00  0.00000000000E+00  0.20860633604E+03  0.20860633604E+03  0.00000000000E+00 0. -1.
         -1   -1    0    0    0  501 -0.00000000000E+00 -0.00000000000E+00 -0.80347438602E+02  0.80347438602E+02  0.00000000000E+00 0.  1.
         23    2    1    2    0    0 -0.19040229661E+02  0.27072807370E+01 -0.15060484985E+02  0.94448217562E+02  0.91234795325E+02 0.  0.
          5    1    1    2  502    0  0.61299745883E+02  0.24446647579E+02  0.12387658013E+03  0.14043786714E+03  0.47000000000E+01 0. -1.
         -5    1    1    2    0  502 -0.42259516222E+02 -0.27153928316E+02  0.19442802297E+02  0.54067689940E+02  0.47000000000E+01 0.  1.
        -11    1    3    3    0    0 -0.14815063580E+02  0.46684117427E+02 -0.59412586356E+01  0.49337526114E+02  0.00000000000E+00 0.  1.
         11    1    3    3    0    0 -0.42251660817E+01 -0.43976836690E+02 -0.91192263494E+01  0.45110691448E+02  0.00000000000E+00 0. -1.
<mgrwt>
<rscale>  0 0.12066794E+03</rscale>
<asrwt>0</asrwt>
<pdfrwt beam="1">  1        1 0.32093282E-01 0.13149892E+03</pdfrwt>
<pdfrwt beam="2">  1       -1 0.12361144E-01 0.13149892E+03</pdfrwt>
<totfact> 0.57831998E+03</totfact>
</mgrwt>
</event>
<event>
 8    1  0.7550631E-006  0.1481367E+03  0.7546771E-02  0.1212100E+00
         -3   -1    0    0    0  501 -0.00000000000E+00  0.00000000000E+00  0.49896232177E+03  0.49896232177E+03  0.00000000000E+00 0.  1.
          3   -1    0    0  501    0  0.00000000000E+00 -0.00000000000E+00 -0.48522406043E+02  0.48522406043E+02  0.00000000000E+00 0. -1.
         23    2    1    2    0    0 -0.11295132685E+02 -0.78690285659E+02  0.34486454246E+03  0.36557636151E+03  0.91623044968E+02 0.  0.
         23    2    1    2    0    0  0.11295132685E+02  0.78690285659E+02  0.10557537327E+03  0.18190836630E+03  0.12499901284E+03 0.  0.
          5    1    4    4  502    0 -0.12018172158E+02 -0.31563181951E+02  0.34965591229E+02  0.48840080742E+02  0.47000000000E+01 0. -1.
         -5    1    4    4    0  502  0.23313304843E+02  0.11025346761E+03  0.70609782038E+02  0.13306828556E+03  0.47000000000E+01 0. -1.
        -11    1    3    3    0    0 -0.15231927854E+02 -0.59617407351E+01  0.37617243745E+01  0.16784056393E+02  0.00000000000E+00 0. -1.
         11    1    3    3    0    0  0.39367951690E+01 -0.72728544924E+02  0.34110281808E+03  0.34879230511E+03  0.00000000000E+00 0.  1.
<mgrwt>
<rscale>  0 0.14091764E+03</rscale>
<asrwt>0</asrwt>
<pdfrwt beam="2">  1        3 0.74649859E-02 0.14813674E+03</pdfrwt>
<pdfrwt beam="1">  1       -3 0.76763431E-01 0.14813674E+03</pdfrwt>
<totfact> 0.45793804E+02</totfact>
</mgrwt>
</event>
<event>
 8    1  0.7550631E-006  0.1638921E+03  0.7546771E-02  0.1191722E+00
         -2   -1    0    0    0  501 -0.00000000000E+00  0.00000000000E+00  0.52751277337E+02  0.52751277337E+02  0.00000000000E+00 0.  1.
          2   -1    0    0  501    0  0.00000000000E+00 -0.00000000000E+00 -0.43638368652E+03  0.43638368652E+03  0.00000000000E+00 0. -1.
         23    2    1    2    0    0  0.77450087371E+02  0.72369624817E+02 -0.16528775301E+03  0.21612394171E+03  0.90297498618E+02 0.  0.
         23    2    1    2    0    0 -0.77450087371E+02 -0.72369624817E+02 -0.21834465618E+03  0.27301102215E+03  0.12499900281E+03 0.  0.
          5    1    4    4  502    0  0.18215205092E+02  0.12169703674E+02 -0.29752389943E+01  0.22601713013E+02  0.47000000000E+01 0. -1.
         -5    1    4    4    0  502 -0.95665292463E+02 -0.84539328491E+02 -0.21536941719E+03  0.25040930914E+03  0.47000000000E+01 0. -1.
        -11    1    3    3    0    0  0.46734673285E+02  0.31177358346E+02 -0.15342760275E+03  0.16338967729E+03  0.00000000000E+00 0. -1.
         11    1    3    3    0    0  0.30715414086E+02  0.41192266471E+02 -0.11860150256E+02  0.52734264417E+02  0.00000000000E+00 0.  1.
<mgrwt>
<rscale>  0 0.15734916E+03</rscale>
<asrwt>0</asrwt>
<pdfrwt beam="2">  1        2 0.67135950E-01 0.16389213E+03</pdfrwt>
<pdfrwt beam="1">  1       -2 0.81155813E-02 0.16389213E+03</pdfrwt>
<totfact> 0.64917930E+03</totfact>
</mgrwt>
</event>
<event>
 8    1  0.7550631E-006  0.1282249E+03  0.7546771E-02  0.1244769E+00
          1   -1    0    0  501    0  0.00000000000E+00  0.00000000000E+00  0.13825091651E+04  0.13825091651E+04  0.00000000000E+00 0. -1.
         -1   -1    0    0    0  501 -0.00000000000E+00 -0.00000000000E+00 -0.12104487687E+02  0.12104487687E+02  0.00000000000E+00 0.  1.
         23    2    1    2    0    0  0.21933688747E+02  0.18317744113E+02  0.26027039675E+03  0.27709866405E+03  0.90699303989E+02 0.  0.
         23    2    1    2    0    0 -0.21933688747E+02 -0.18317744113E+02  0.11101342807E+04  0.11175149888E+04  0.12500000996E+03 0.  0.
          5    1    4    4  502    0 -0.67455001608E+02 -0.32415136529E+02  0.51133926463E+03  0.51680833185E+03  0.47000000000E+01 0.  1.
         -5    1    4    4    0  502  0.45521312860E+02  0.14097392416E+02  0.59879501605E+03  0.60070665690E+03  0.47000000000E+01 0.  1.
        -11    1    3    3    0    0  0.33200687250E+01  0.50857116152E+02  0.96933235748E+02  0.10951493648E+03  0.00000000000E+00 0.  1.
         11    1    3    3    0    0  0.18613620022E+02 -0.32539372039E+02  0.16333716100E+03  0.16758372757E+03  0.00000000000E+00 0. -1.
<mgrwt>
<rscale>  0 0.11899215E+03</rscale>
<asrwt>0</asrwt>
<pdfrwt beam="1">  1        1 0.21269359E+00 0.12822492E+03</pdfrwt>
<pdfrwt beam="2">  1       -1 0.18622300E-02 0.12822492E+03</pdfrwt>
<totfact> 0.63707660E+03</totfact>
</mgrwt>
</event>
<event>
 8    1  0.7550631E-006  0.1707263E+03  0.7546771E-02  0.1183697E+00
          2   -1    0    0  501    0  0.00000000000E+00  0.00000000000E+00  0.42802477092E+03  0.42802477092E+03  0.00000000000E+00 0. -1.
         -2   -1    0    0    0  501 -0.00000000000E+00 -0.00000000000E+00 -0.69274558720E+02  0.69274558720E+02  0.00000000000E+00 0.  1.
         23    2    1    2    0    0  0.70846442546E+02 -0.92224152024E+02  0.72669729019E+02  0.16414842194E+03  0.90218081738E+02 0.  0.
         23    2    1    2    0    0 -0.70846442546E+02  0.92224152024E+02  0.28608048318E+03  0.33315090769E+03  0.12499188695E+03 0.  0.
          5    1    4    4  502    0 -0.85028663761E+02  0.85399927281E+02  0.29181371148E+03  0.31575362777E+03  0.47000000000E+01 0.  1.
         -5    1    4    4    0  502  0.14182221215E+02  0.68242247432E+01 -0.57332283056E+01  0.17397279924E+02  0.47000000000E+01 0.  1.
        -11    1    3    3    0    0  0.35754835907E+02 -0.64623186059E+02 -0.55722109143E+01  0.74064930984E+02  0.00000000000E+00 0.  1.
         11    1    3    3    0    0  0.35091606639E+02 -0.27600965964E+02  0.78241939933E+02  0.90083490958E+02  0.00000000000E+00 0. -1.
<mgrwt>
<rscale>  0 0.16450999E+03</rscale>
<asrwt>0</asrwt>
<pdfrwt beam="1">  1        2 0.65849963E-01 0.17072634E+03</pdfrwt>
<pdfrwt beam="2">  1       -2 0.10657625E-01 0.17072634E+03</pdfrwt>
<totfact> 0.43305950E+03</totfact>
</mgrwt>
</event>
<event>
 8    1  0.7550631E-006  0.1370193E+03  0.7546771E-02  0.1229504E+00
         -2   -1    0    0    0  501 -0.00000000000E+00  0.00000000000E+00  0.73100456701E+02  0.73100456701E+02  0.00000000000E+00 0. -1.
          2   -1    0    0  501    0  0.00000000000E+00 -0.00000000000E+00 -0.20279277865E+03  0.20279277865E+03  0.00000000000E+00 0.  1.
         23    2    1    2    0    0 -0.39908847848E+02 -0.39458170905E+02 -0.53328999584E+02  0.11903133720E+03  0.90414676087E+02 0.  0.
         23    2    1    2    0    0  0.39908847848E+02  0.39458170905E+02 -0.76363322365E+02  0.15686189815E+03  0.12499853879E+03 0.  0.
          5    1    4    4  502    0  0.36871210439E+02 -0.30144420601E+02 -0.72573388993E+02  0.86931921884E+02  0.47000000000E+01 0.  1.
         -5    1    4    4    0  502  0.30376374091E+01  0.69602591506E+02 -0.37899333728E+01  0.69929976264E+02  0.47000000000E+01 0.  1.
        -11    1    3    3    0    0 -0.27273137423E+02  0.57795168196E+01 -0.64920104104E+02  0.70653002458E+02  0.00000000000E+00 0.  1.
         11    1    3    3    0    0 -0.12635710425E+02 -0.45237687725E+02  0.11591104520E+02  0.48378334744E+02  0.00000000000E+00 0. -1.
<mgrwt>
<rscale>  0 0.12862893E+03</rscale>
<asrwt>0</asrwt>
<pdfrwt beam="2">  1        2 0.31198889E-01 0.13701933E+03</pdfrwt>
<pdfrwt beam="1">  1       -2 0.11246224E-01 0.13701933E+03</pdfrwt>
<totfact> 0.87276922E+03</totfact>
</mgrwt>
</event>
<event>
 8    1  0.7550631E-006  0.1344144E+03  0.7546771E-02  0.1234139E+00
         -2   -1    0    0    0  501 -0.00000000000E+00  0.00000000000E+00  0.19983362705E+02  0.19983362705E+02  0.00000000000E+00 0. -1.
          2   -1    0    0  501    0  0.00000000000E+00 -0.00000000000E+00 -0.92080178719E+03  0.92080178719E+03  0.00000000000E+00 0.  1.
         23    2    1    2    0    0 -0.46754318720E+02  0.16016731540E+02 -0.17638755881E+03  0.20398985152E+03  0.89759604573E+02 0.  0.
         23    2    1    2    0    0  0.46754318720E+02 -0.16016731540E+02 -0.72443086567E+03  0.73679529837E+03  0.12499892221E+03 0.  0.
          5    1    4    4  502    0 -0.55477408829E+01  0.46575166435E+02 -0.37437987714E+03  0.37733593251E+03  0.47000000000E+01 0.  1.
         -5    1    4    4    0  502  0.52302059603E+02 -0.62591897975E+02 -0.35005098853E+03  0.35945936586E+03  0.47000000000E+01 0.  1.
        -11    1    3    3    0    0 -0.12965318390E+02 -0.19974510259E+02 -0.14162199651E+03  0.14361013347E+03  0.00000000000E+00 0.  1.
         11    1    3    3    0    0 -0.33789000331E+02  0.35991241800E+02 -0.34765562301E+02  0.60379718049E+02  0.00000000000E+00 0. -1.
<mgrwt>
<rscale>  0 0.12559702E+03</rscale>
<asrwt>0</asrwt>
<pdfrwt beam="2">  1        2 0.14166188E+00 0.13441441E+03</pdfrwt>
<pdfrwt beam="1">  1       -2 0.30743621E-02 0.13441441E+03</pdfrwt>
<totfact> 0.11542328E+04</totfact>
</mgrwt>
</event>
<event>
 8    1  0.7550631E-006  0.1353775E+03  0.7546771E-02  0.1231941E+00
         -1   -1    0    0    0  501 -0.00000000000E+00  0.00000000000E+00  0.48948424948E+02  0.48948424948E+02  0.00000000000E+00 0.  1.
          1   -1    0    0  501    0  0.00000000000E+00 -0.00000000000E+00 -0.29591523258E+03  0.29591523258E+03  0.00000000000E+00 0. -1.
         23    2    1    2    0    0 -0.30809872075E+02 -0.41881676787E+02 -0.98036871601E+02  0.14359964335E+03  0.91138939595E+02 0.  0.
         23    2    1    2    0    0  0.30809872075E+02  0.41881676787E+02 -0.14892993603E+03  0.20126401417E+03  0.12499501785E+03 0.  0.
          5    1    4    4  502    0 -0.16012479309E+02 -0.12761015553E+02 -0.12276769173E+03  0.12455215432E+03  0.47000000000E+01 0.  1.
         -5    1    4    4    0  502  0.46822351384E+02  0.54642692340E+02 -0.26162244291E+02  0.76711859851E+02  0.47000000000E+01 0.  1.
        -11    1    3    3    0    0 -0.23631143958E+02 -0.65703507396E+02 -0.40035853518E+02  0.80487585477E+02  0.00000000000E+00 0.  1.
         11    1    3    3    0    0 -0.71787281169E+01  0.23821830609E+02 -0.58001018083E+02  0.63112057878E+02  0.00000000000E+00 0. -1.
<mgrwt>
<rscale>  0 0.12702276E+03</rscale>
<asrwt>0</asrwt>
<pdfrwt beam="2">  1        1 0.45525421E-01 0.13537754E+03</pdfrwt>
<pdfrwt beam="1">  1       -1 0.75305268E-02 0.13537754E+03</pdfrwt>
<totfact> 0.79994746E+03</totfact>
</mgrwt>
</event>
<event>
 8    1  0.7550631E-006  0.1463862E+03  0.7546771E-02  0.1214766E+00
          2   -1    0    0  501    0  0.00000000000E+00  0.00000000000E+00  0.10153685211E+03  0.10153685211E+03  0.00000000000E+00 0. -1.
         -2   -1    0    0    0  501 -0.00000000000E+00 -0.00000000000E+00 -0.17333077075E+03  0.17333077075E+03  0.00000000000E+00 0.  1.
         23    2    1    2    0    0 -0.26876123778E+02  0.71295423306E+02 -0.27545307822E+02  0.12193997884E+03  0.91133150071E+02 0.  0.
         23    2    1    2    0    0  0.26876123778E+02 -0.71295423306E+02 -0.44248610818E+02  0.15292764402E+03  0.12499424519E+03 0.  0.
          5    1    4    4  502    0  0.35477227684E+02  0.23582398572E+02  0.88476585361E+01  0.43762247064E+02  0.47000000000E+01 0.  1.
         -5    1    4    4    0  502 -0.86011039066E+01 -0.94877821878E+02 -0.53096269355E+02  0.10916539695E+03  0.47000000000E+01 0.  1.
        -11    1    3    3    0    0  0.26827127713E+02  0.57328587169E+02 -0.14222323215E+02  0.64873231504E+02  0.00000000000E+00 0.  1.
         11    1    3    3    0    0 -0.53703251490E+02  0.13966836137E+02 -0.13322984607E+02  0.57066747333E+02  0.00000000000E+00 0. -1.
<mgrwt>
<rscale>  0 0.13893715E+03</rscale>
<asrwt>0</asrwt>
<pdfrwt beam="1">  1        2 0.15621054E-01 0.14638622E+03</pdfrwt>
<pdfrwt beam="2">  1       -2 0.26666273E-01 0.14638622E+03</pdfrwt>
<totfact> 0.45109768E+03</totfact>
</mgrwt>
</event>
<event>
 8    1  0.7550631E-006  0.1417335E+03  0.7546771E-02  0.1221774E+00
         -1   -1    0    0    0  501 -0.00000000000E+00  0.00000000000E+00  0.66751396571E+02  0.66751396571E+02  0.00000000000E+00 0.  1.
          1   -1    0    0  501    0  0.00000000000E+00 -0.00000000000E+00 -0.32135993911E+03  0.32135993911E+03  0.00000000000E+00 0. -1.
         23    2    1    2    0    0 -0.52191611912E+02 -0.41839213330E+02 -0.20978083341E+02  0.11485032261E+03  0.90972701936E+02 0.  0.
         23    2    1    2    0    0  0.52191611912E+02  0.41839213330E+02 -0.23363045920E+03  0.27326101307E+03  0.12495561481E+03 0.  0.
          5    1    4    4  502    0  0.58559072424E+02  0.67412794252E+02 -0.88955531584E+02  0.12613019619E+03  0.47000000000E+01 0. -1.
         -5    1    4    4    0  502 -0.63674605120E+01 -0.25573580922E+02 -0.14467492761E+03  0.14713081687E+03  0.47000000000E+01 0. -1.
        -11    1    3    3    0    0  0.13782575913E+02 -0.36366606349E+02  0.12255347181E+02  0.40776009989E+02  0.00000000000E+00 0.  1.
         11    1    3    3    0    0 -0.65974187825E+02 -0.54726069811E+01 -0.33233430522E+02  0.74074312623E+02  0.00000000000E+00 0. -1.
<mgrwt>
<rscale>  0 0.13390457E+03</rscale>
<asrwt>0</asrwt>
<pdfrwt beam="2">  1        1 0.49439991E-01 0.14173352E+03</pdfrwt>
<pdfrwt beam="1">  1       -1 0.10269446E-01 0.14173352E+03</pdfrwt>
<totfact> 0.45239680E+03</totfact>
</mgrwt>
</event>
<event>
 8    1  0.7550631E-006  0.2485400E+03  0.7546771E-02  0.1116693E+00
         -1   -1    0    0    0  501 -0.00000000000E+00  0.00000000000E+00  0.87840191973E+02  0.87840191973E+02  0.00000000000E+00 0.  1.
          1   -1    0    0  501    0  0.00000000000E+00 -0.00000000000E+00 -0.77676701465E+03  0.77676701465E+03  0.00000000000E+00 0. -1.
         23    2    1    2    0    0  0.16960553847E+03 -0.13183101296E+03 -0.16892656385E+03  0.28826323063E+03  0.91728139085E+02 0.  0.
         23    2    1    2    0    0 -0.16960553847E+03  0.13183101296E+03 -0.52000025883E+03  0.57634397600E+03  0.12500661914E+03 0.  0.
          5    1    4    4  502    0 -0.16588133832E+03  0.90987439800E+02 -0.31706748665E+03  0.36925494403E+03  0.47000000000E+01 0.  1.
         -5    1    4    4    0  502 -0.37242001518E+01  0.40843573160E+02 -0.20293277218E+03  0.20708903196E+03  0.47000000000E+01 0.  1.
        -11    1    3    3    0    0  0.96368083456E+02 -0.41328410489E+02 -0.34402971396E+02  0.11035583113E+03  0.00000000000E+00 0. -1.
         11    1    3    3    0    0  0.73237455015E+02 -0.90502602471E+02 -0.13452359245E+03  0.17790739950E+03  0.00000000000E+00 0.  1.
<mgrwt>
<rscale>  0 0.24471239E+03</rscale>
<asrwt>0</asrwt>
<pdfrwt beam="2">  1        1 0.11950261E+00 0.24853996E+03</pdfrwt>
<pdfrwt beam="1">  1       -1 0.13513876E-01 0.24853996E+03</pdfrwt>
<totfact> 0.91776755E+02</totfact>
</mgrwt>
</event>
<event>
 8    1  0.7550631E-006  0.1437678E+03  0.7546771E-02  0.1220904E+00
         -1   -1    0    0    0  501 -0.00000000000E+00  0.00000000000E+00  0.36674389928E+03  0.36674389928E+03  0.00000000000E+00 0.  1.
          1   -1    0    0  501    0  0.00000000000E+00 -0.00000000000E+00 -0.45281973871E+02  0.45281973871E+02  0.00000000000E+00 0. -1.
         23    2    1    2    0    0  0.63807501695E+02  0.31183546201E+02  0.17496676124E+03  0.20676988031E+03  0.84241349935E+02 0.  0.
         23    2    1    2    0    0 -0.63807501695E+02 -0.31183546201E+02  0.14649516417E+03  0.20525599285E+03  0.12500151458E+03 0.  0.
          5    1    4    4  502    0 -0.17507593224E+02  0.22389168065E+02  0.12898684748E+03  0.13216462269E+03  0.47000000000E+01 0. -1.
         -5    1    4    4    0  502 -0.46299908471E+02 -0.53572714267E+02  0.17508316695E+02  0.73091370160E+02  0.47000000000E+01 0. -1.
        -11    1    3    3    0    0  0.36523880323E+02 -0.22706586313E+02  0.39277941208E+02  0.58243794188E+02  0.00000000000E+00 0. -1.
         11    1    3    3    0    0  0.27283621372E+02  0.53890132515E+02  0.13568882003E+03  0.14852608612E+03  0.00000000000E+00 0.  1.
<mgrwt>
<rscale>  0 0.13451648E+03</rscale>
<asrwt>0</asrwt>
<pdfrwt beam="2">  1        1 0.69664578E-02 0.14376783E+03</pdfrwt>
<pdfrwt beam="1">  1       -1 0.56422136E-01 0.14376783E+03</pdfrwt>
<totfact> 0.33193863E+03</totfact>
</mgrwt>
</event>
<event>
 8    1  0.7550631E-006  0.1648505E+03  0.7546771E-02  0.1190311E+00
          2   -1    0    0  501    0  0.00000000000E+00  0.00000000000E+00  0.98746709416E+03  0.98746709416E+03  0.00000000000E+00 0. -1.
         -2   -1    0    0    0  501 -0.00000000000E+00 -0.00000000000E+00 -0.24032647519E+02  0.24032647519E+02  0.00000000000E+00 0.  1.
         23    2    1    2    0    0  0.96761760564E+01 -0.10703734744E+03  0.38624705334E+03  0.41123231824E+03  0.91512901904E+02 0.  0.
         23    2    1    2    0    0 -0.96761760564E+01  0.10703734744E+03  0.57718739330E+03  0.60026742344E+03  0.12500028213E+03 0.  0.
          5    1    4    4  502    0  0.47608325991E+02  0.40348089503E+02  0.12736160648E+03  0.14190697599E+03  0.47000000000E+01 0. -1.
         -5    1    4    4    0  502 -0.57284502047E+02  0.66689257941E+02  0.44982578682E+03  0.45836044745E+03  0.47000000000E+01 0. -1.
        -11    1    3    3    0    0 -0.32912140247E+00 -0.13447060173E+02 -0.23582516634E+00  0.13453154341E+02  0.00000000000E+00 0.  1.
         11    1    3    3    0    0  0.10005297459E+02 -0.93590287271E+02  0.38648287851E+03  0.39777916390E+03  0.00000000000E+00 0. -1.
<mgrwt>
<rscale>  0 0.15857808E+03</rscale>
<asrwt>0</asrwt>
<pdfrwt beam="1">  1        2 0.15191798E+00 0.16485052E+03</pdfrwt>
<pdfrwt beam="2">  1       -2 0.36973311E-02 0.16485052E+03</pdfrwt>
<totfact> 0.80822686E+03</totfact>
</mgrwt>
</event>
<event>
 7    1  0.7550631E-006  0.1621971E+03  0.7546771E-02  0.1190287E+00
          4   -1    0    0  501    0  0.00000000000E+00  0.00000000000E+00  0.15177260591E+03  0.15177260591E+03  0.00000000000E+00 0. -1.
         -4   -1    0    0    0  501 -0.00000000000E+00 -0.00000000000E+00 -0.17538636159E+03  0.17538636159E+03  0.00000000000E+00 0.  1.
         23    2    1    2    0    0 -0.45027788399E+02 -0.65892811168E+02  0.38957812132E+02  0.15331102601E+03  0.12496877721E+03 0.  0.
          5    1    3    3  502    0 -0.73729708966E+02  0.22450115002E+01  0.14749871653E+02  0.75370808504E+02  0.47000000000E+01 0. -1.
         -5    1    3    3    0  502  0.28701920566E+02 -0.68137822668E+02  0.24207940479E+02  0.77940217503E+02  0.47000000000E+01 0. -1.
        -11    1    1    2    0    0 -0.46865458811E+02  0.38845803055E+02 -0.27950972624E+01  0.60935869677E+02  0.00000000000E+00 0. -1.
         11    1    1    2    0    0  0.91893247210E+02  0.27047008113E+02 -0.59776470550E+02  0.11291207182E+03  0.00000000000E+00 0.  1.
<mgrwt>
<rscale>  0 0.15859957E+03</rscale>
<asrwt>0</asrwt>
<pdfrwt beam="1">  1        4 0.23349632E-01 0.16219712E+03</pdfrwt>
<pdfrwt beam="2">  1       -4 0.26982517E-01 0.16219712E+03</pdfrwt>
<totfact> 0.37926550E+02</totfact>
</mgrwt>
</event>
<event>
 8    1  0.7550631E-006  0.3421526E+03  0.7546771E-02  0.1066937E+00
         -2   -1    0    0    0  501 -0.00000000000E+00  0.00000000000E+00  0.42509521180E+02  0.42509521180E+02  0.00000000000E+00 0.  1.
          2   -1    0    0  501    0  0.00000000000E+00 -0.00000000000E+00 -0.27296582857E+04  0.27296582857E+04  0.00000000000E+00 0. -1.
         23    2    1    2    0    0  0.31743658563E+03 -0.26029878833E+02 -0.15197697363E+04  0.15556801713E+04  0.94853590745E+02 0.  0.
         23    2    1    2    0    0 -0.31743658563E+03  0.26029878833E+02 -0.11673790282E+04  0.12164876355E+04  0.12499932549E+03 0.  0.
          5    1    4    4  502    0 -0.23379152341E+03 -0.27451372246E+02 -0.92561275811E+03  0.95508801806E+03  0.47000000000E+01 0.  1.
         -5    1    4    4    0  502 -0.83645062222E+02  0.53481251079E+02 -0.24176627008E+03  0.26139961744E+03  0.47000000000E+01 0.  1.
        -11    1    3    3    0    0  0.48315198781E+02 -0.28690265958E+02 -0.16130914229E+03  0.17081606827E+03  0.00000000000E+00 0.  1.
         11    1    3    3    0    0  0.26912138685E+03  0.26603871248E+01 -0.13584605940E+04  0.13848641031E+04  0.00000000000E+00 0. -1.
<mgrwt>
<rscale>  0 0.33966907E+03</rscale>
<asrwt>0</asrwt>
<pdfrwt beam="2">  1        2 0.41994750E+00 0.34215256E+03</pdfrwt>
<pdfrwt beam="1">  1       -2 0.65399251E-02 0.34215256E+03</pdfrwt>
<totfact> 0.38122892E+02</totfact>
</mgrwt>
</event>
<event>
 8    1  0.7550631E-006  0.1616607E+03  0.7546771E-02  0.1194104E+00
          1   -1    0    0  501    0  0.00000000000E+00  0.00000000000E+00  0.28242298340E+02  0.28242298340E+02  0.00000000000E+00 0. -1.
         -1   -1    0    0    0  501 -0.00000000000E+00 -0.00000000000E+00 -0.83506347812E+03  0.83506347812E+03  0.00000000000E+00 0.  1.
         23    2    1    2    0    0  0.85351318904E+02  0.56776345999E+02 -0.46902957080E+03  0.48882297558E+03  0.91928026578E+02 0.  0.
         23    2    1    2    0    0 -0.85351318904E+02 -0.56776345999E+02 -0.33779160898E+03  0.37448280088E+03  0.12500318376E+03 0.  0.
          5    1    4    4  502    0 -0.13838537001E+01  0.12742864328E+02 -0.19147609009E+03  0.19196218043E+03  0.47000000000E+01 0.  1.
         -5    1    4    4    0  502 -0.83967465204E+02 -0.69519210327E+02 -0.14631551890E+03  0.18252062044E+03  0.47000000000E+01 0.  1.
        -11    1    3    3    0    0  0.75964022608E+02  0.79241898693E+02 -0.33284854736E+03  0.35048247705E+03  0.00000000000E+00 0.  1.
         11    1    3    3    0    0  0.93872962962E+01 -0.22465552694E+02 -0.13618102344E+03  0.13834049854E+03  0.00000000000E+00 0. -1.
<mgrwt>
<rscale>  0 0.15530335E+03</rscale>
<asrwt>0</asrwt>
<pdfrwt beam="1">  1        1 0.43449690E-02 0.16166075E+03</pdfrwt>
<pdfrwt beam="2">  1       -1 0.12847130E+00 0.16166075E+03</pdfrwt>
<totfact> 0.11194200E+03</totfact>
</mgrwt>
</event>
<event>
 8    1  0.7550631E-006  0.2441749E+03  0.7546771E-02  0.1119684E+00
          3   -1    0    0  501    0  0.00000000000E+00  0.00000000000E+00  0.21308600154E+03  0.21308600154E+03  0.00000000000E+00 0. -1.
         -3   -1    0    0    0  501 -0.00000000000E+00 -0.00000000000E+00 -0.27656092147E+03  0.27656092147E+03  0.00000000000E+00 0.  1.
         23    2    1    2    0    0 -0.19307792849E+03 -0.81964994774E+02 -0.86599782635E+02  0.24437946219E+03  0.90688766400E+02 0.  0.
         23    2    1    2    0    0  0.19307792849E+03  0.81964994774E+02  0.23124862701E+02  0.24526746082E+03  0.12499608484E+03 0.  0.
          5    1    4    4  502    0 -0.10475211730E+02  0.16759008671E+02  0.24037137848E+02  0.31471708379E+02  0.47000000000E+01 0.  1.
         -5    1    4    4    0  502  0.20355314022E+03  0.65205986103E+02 -0.91227514660E+00  0.21379575244E+03  0.47000000000E+01 0.  1.
        -11    1    3    3    0    0 -0.10030508763E+03 -0.83203798442E+02 -0.76332725088E+02  0.15103200852E+03  0.00000000000E+00 0.  1.
         11    1    3    3    0    0 -0.92772840859E+02  0.12388036677E+01 -0.10267057547E+02  0.93347453668E+02  0.00000000000E+00 0. -1.
<mgrwt>
<rscale>  0 0.24016361E+03</rscale>
<asrwt>0</asrwt>
<pdfrwt beam="1">  1        3 0.32782462E-01 0.24417487E+03</pdfrwt>
<pdfrwt beam="2">  1       -3 0.42547834E-01 0.24417487E+03</pdfrwt>
<totfact> 0.12442334E+02</totfact>
</mgrwt>
</event>
<event>
 8    1  0.7550631E-006  0.1555421E+03  0.7546771E-02  0.1202009E+00
          1   -1    0    0  501    0  0.00000000000E+00  0.00000000000E+00  0.14996689436E+03  0.14996689436E+03  0.00000000000E+00 0. -1.
         -1   -1    0    0    0  501 -0.00000000000E+00 -0.00000000000E+00 -0.17873869175E+03  0.17873869175E+03  0.00000000000E+00 0.  1.
         23    2    1    2    0    0  0.59412169942E+02  0.70981612831E+02 -0.93499080179E+02  0.16023318021E+03  0.91457086920E+02 0.  0.
         23    2    1    2    0    0 -0.59412169942E+02 -0.70981612831E+02  0.64727282788E+02  0.16847240590E+03  0.12500054046E+03 0.  0.
          5    1    4    4  502    0  0.43611474289E+01 -0.68404350241E+02  0.77120576486E+02  0.10328527512E+03  0.47000000000E+01 0. -1.
         -5    1    4    4    0  502 -0.63773317371E+02 -0.25772625901E+01 -0.12393293698E+02  0.65187130782E+02  0.47000000000E+01 0. -1.
        -11    1    3    3    0    0  0.68978744149E+02  0.55224222724E+02 -0.10597061026E+03  0.13797663628E+03  0.00000000000E+00 0.  1.
         11    1    3    3    0    0 -0.95665742073E+01  0.15757390107E+02  0.12471530082E+02  0.22256543928E+02  0.00000000000E+00 0. -1.
<mgrwt>
<rscale>  0 0.14875662E+03</rscale>
<asrwt>0</asrwt>
<pdfrwt beam="1">  1        1 0.23071830E-01 0.15554205E+03</pdfrwt>
<pdfrwt beam="2">  1       -1 0.27498260E-01 0.15554205E+03</pdfrwt>
<totfact> 0.24556499E+03</totfact>
</mgrwt>
</event>
<event>
 8    1  0.7550631E-006  0.1391613E+03  0.7546771E-02  0.1224836E+00
          1   -1    0    0  501    0  0.00000000000E+00  0.00000000000E+00  0.96785323905E+03  0.96785323905E+03  0.00000000000E+00 0.  1.
         -1   -1    0    0    0  501 -0.00000000000E+00 -0.00000000000E+00 -0.39059299583E+02  0.39059299583E+02  0.00000000000E+00 0. -1.
         23    2    1    2    0    0  0.60424212555E+02 -0.95202357487E+01  0.59873142314E+02  0.12691866789E+03  0.93711444006E+02 0.  0.
         23    2    1    2    0    0 -0.60424212555E+02  0.95202357487E+01  0.86892079715E+03  0.87999387074E+03  0.12499656181E+03 0.  0.
          5    1    4    4  502    0  0.63418691487E+01 -0.41107488767E+02  0.13631726828E+03  0.14259920256E+03  0.47000000000E+01 0. -1.
         -5    1    4    4    0  502 -0.66766081704E+02  0.50627724515E+02  0.73260352887E+03  0.73739466818E+03  0.47000000000E+01 0. -1.
        -11    1    3    3    0    0  0.65661192714E+02 -0.42591860562E+02  0.45004605426E+02  0.90282187192E+02  0.00000000000E+00 0.  1.
         11    1    3    3    0    0 -0.52369801589E+01  0.33071624813E+02  0.14868536888E+02  0.36636480701E+02  0.00000000000E+00 0. -1.
<mgrwt>
<rscale>  0 0.13178159E+03</rscale>
<asrwt>0</asrwt>
<pdfrwt beam="1">  1        1 0.14890048E+00 0.13916128E+03</pdfrwt>
<pdfrwt beam="2">  1       -1 0.60091237E-02 0.13916128E+03</pdfrwt>
<totfact> 0.22318613E+03</totfact>
</mgrwt>
</event>
<event>
 8    1  0.7550631E-006  0.1409076E+03  0.7546771E-02  0.1223361E+00
          2   -1    0    0  501    0  0.00000000000E+00  0.00000000000E+00  0.51610740825E+03  0.51610740825E+03  0.00000000000E+00 0. -1.
         -2   -1    0    0    0  501 -0.00000000000E+00 -0.00000000000E+00 -0.38608188671E+02  0.38608188671E+02  0.00000000000E+00 0.  1.
         23    2    1    2    0    0 -0.64384163406E+02 -0.91280077064E+01  0.92089935054E+02  0.14435566466E+03  0.90162967778E+02 0.  0.
         23    2    1    2    0    0  0.64384163406E+02  0.91280077064E+01  0.38540928453E+03  0.41035993226E+03  0.12500526543E+03 0.  0.
          5    1    4    4  502    0  0.85926771759E+02  0.14462849369E+02  0.37567080433E+03  0.38567243529E+03  0.47000000000E+01 0. -1.
         -5    1    4    4    0  502 -0.21542608353E+02 -0.53348416623E+01  0.97384801944E+01  0.24687496971E+02  0.47000000000E+01 0. -1.
        -11    1    3    3    0    0 -0.53633461677E+02 -0.46812056741E+02  0.67430204509E+02  0.98054828274E+02  0.00000000000E+00 0. -1.
         11    1    3    3    0    0 -0.10750701729E+02  0.37684049035E+02  0.24659730545E+02  0.46300836384E+02  0.00000000000E+00 0.  1.
<mgrwt>
<rscale>  0 0.13279887E+03</rscale>
<asrwt>0</asrwt>
<pdfrwt beam="1">  1        2 0.79401135E-01 0.14090762E+03</pdfrwt>
<pdfrwt beam="2">  1       -2 0.59397217E-02 0.14090762E+03</pdfrwt>
<totfact> 0.86429939E+03</totfact>
</mgrwt>
</event>
<event>
 8    1  0.7550631E-006  0.1446067E+03  0.7546771E-02  0.1214114E+00
          2   -1    0    0  501    0  0.00000000000E+00  0.00000000000E+00  0.54668540000E+03  0.54668540000E+03  0.00000000000E+00 0. -1.
         -2   -1    0    0    0  501 -0.00000000000E+00 -0.00000000000E+00 -0.33242695384E+02  0.33242695384E+02  0.00000000000E+00 0.  1.
         23    2    1    2    0    0  0.70805863042E+02  0.16465765667E+02  0.23159222742E+03  0.26314618220E+03  0.10161870754E+03 0.  0.
         23    2    1    2    0    0 -0.70805863042E+02 -0.16465765667E+02  0.28185047719E+03  0.31678191318E+03  0.12500598925E+03 0.  0.
          5    1    4    4  502    0 -0.43726013366E+02 -0.70996988583E+02  0.15980877532E+03  0.18031492257E+03  0.47000000000E+01 0. -1.
         -5    1    4    4    0  502 -0.27079849677E+02  0.54531222916E+02  0.12204170188E+03  0.13646699062E+03  0.47000000000E+01 0. -1.
        -11    1    3    3    0    0  0.64853739255E+02 -0.31689196651E+02  0.10360733281E+03  0.12627229345E+03  0.00000000000E+00 0.  1.
         11    1    3    3    0    0  0.59521237877E+01  0.48154962319E+02  0.12798489461E+03  0.13687388875E+03  0.00000000000E+00 0. -1.
<mgrwt>
<rscale>  0 0.13941834E+03</rscale>
<asrwt>0</asrwt>
<pdfrwt beam="1">  1        2 0.84105440E-01 0.14460667E+03</pdfrwt>
<pdfrwt beam="2">  1       -2 0.51142612E-02 0.14460667E+03</pdfrwt>
<totfact> 0.10181064E+04</totfact>
</mgrwt>
</event>
<event>
 8    1  0.7550631E-006  0.1257447E+03  0.7546771E-02  0.1250171E+00
          2   -1    0    0  501    0  0.00000000000E+00  0.00000000000E+00  0.11155807855E+03  0.11155807855E+03  0.00000000000E+00 0.  1.
         -2   -1    0    0    0  501 -0.00000000000E+00 -0.00000000000E+00 -0.10818429881E+03  0.10818429881E+03  0.00000000000E+00 0. -1.
         23    2    1    2    0    0 -0.77738278723E+01 -0.11254452776E+02 -0.17844886169E+02  0.92219997639E+02  0.89437089035E+02 0.  0.
         23    2    1    2    0    0  0.77738278723E+01  0.11254452776E+02  0.21218665911E+02  0.12752237973E+03  0.12499852175E+03 0.  0.
          5    1    4    4  502    0  0.48890381919E+02 -0.36256742455E+02  0.33528054833E-01  0.61048439306E+02  0.47000000000E+01 0.  1.
         -5    1    4    4    0  502 -0.41116554047E+02  0.47511195230E+02  0.21185137856E+02  0.66473940419E+02  0.47000000000E+01 0.  1.
        -11    1    3    3    0    0 -0.10980510451E+02 -0.27241281145E+02 -0.48958482954E+02  0.57092837216E+02  0.00000000000E+00 0. -1.
         11    1    3    3    0    0  0.32066825783E+01  0.15986828370E+02  0.31113596785E+02  0.35127160423E+02  0.00000000000E+00 0.  1.
<mgrwt>
<rscale>  0 0.11581152E+03</rscale>
<asrwt>0</asrwt>
<pdfrwt beam="1">  1        2 0.17162781E-01 0.12574468E+03</pdfrwt>
<pdfrwt beam="2">  1       -2 0.16643738E-01 0.12574468E+03</pdfrwt>
<totfact> 0.89395908E+03</totfact>
</mgrwt>
</event>
<event>
 8    1  0.7550631E-006  0.1589849E+03  0.7546771E-02  0.1197209E+00
          1   -1    0    0  501    0  0.00000000000E+00  0.00000000000E+00  0.71322047330E+03  0.71322047330E+03  0.00000000000E+00 0. -1.
         -1   -1    0    0    0  501 -0.00000000000E+00 -0.00000000000E+00 -0.31595441886E+02  0.31595441886E+02  0.00000000000E+00 0.  1.
         23    2    1    2    0    0 -0.62289420053E+02  0.75996535621E+02  0.24061622748E+03  0.27602494425E+03  0.92941678712E+02 0.  0.
         23    2    1    2    0    0  0.62289420053E+02 -0.75996535621E+02  0.44100880393E+03  0.46879097094E+03  0.12498305490E+03 0.  0.
          5    1    4    4  502    0  0.65498610776E+02 -0.10510386081E+03  0.39557081842E+03  0.41453015808E+03  0.47000000000E+01 0.  1.
         -5    1    4    4    0  502 -0.32091907231E+01  0.29107325193E+02  0.45437985516E+02  0.54260812865E+02  0.47000000000E+01 0.  1.
        -11    1    3    3    0    0 -0.16589524921E+02  0.84450717780E+02  0.12851302922E+03  0.15466976029E+03  0.00000000000E+00 0.  1.
         11    1    3    3    0    0 -0.45699895132E+02 -0.84541821596E+01  0.11210319827E+03  0.12135518395E+03  0.00000000000E+00 0. -1.
<mgrwt>
<rscale>  0 0.15268781E+03</rscale>
<asrwt>0</asrwt>
<pdfrwt beam="1">  1        1 0.10972621E+00 0.15898493E+03</pdfrwt>
<pdfrwt beam="2">  1       -1 0.48608377E-02 0.15898493E+03</pdfrwt>
<totfact> 0.49196216E+03</totfact>
</mgrwt>
</event>
<event>
 8    1  0.7550631E-006  0.1396696E+03  0.7546771E-02  0.1226937E+00
         -2   -1    0    0    0  501 -0.00000000000E+00  0.00000000000E+00  0.28839951209E+02  0.28839951209E+02  0.00000000000E+00 0.  1.
          2   -1    0    0  501    0  0.00000000000E+00 -0.00000000000E+00 -0.65129623635E+03  0.65129623635E+03  0.00000000000E+00 0. -1.
         23    2    1    2    0    0 -0.56193330304E+02 -0.26291458984E+02 -0.12714761922E+03  0.16551178019E+03  0.85899366255E+02 0.  0.
         23    2    1    2    0    0  0.56193330304E+02  0.26291458984E+02 -0.49530866593E+03  0.51462440737E+03  0.12513462723E+03 0.  0.
          5    1    4    4  502    0 -0.12997740997E+02  0.59926364753E+02 -0.25218425984E+03  0.25957484734E+03  0.47000000000E+01 0. -1.
         -5    1    4    4    0  502  0.69191071301E+02 -0.33634905769E+02 -0.24312440609E+03  0.25504956003E+03  0.47000000000E+01 0. -1.
        -11    1    3    3    0    0 -0.63242933017E+02 -0.48015325353E+02 -0.77950847271E+02  0.11127207482E+03  0.00000000000E+00 0. -1.
         11    1    3    3    0    0  0.70496027125E+01  0.21723866368E+02 -0.49196771945E+02  0.54239705366E+02  0.00000000000E+00 0.  1.
<mgrwt>
<rscale>  0 0.13035044E+03</rscale>
<asrwt>0</asrwt>
<pdfrwt beam="2">  1        2 0.10019942E+00 0.13966963E+03</pdfrwt>
<pdfrwt beam="1">  1       -2 0.44369157E-02 0.13966963E+03</pdfrwt>
<totfact> 0.10297246E+04</totfact>
</mgrwt>
</event>
<event>
 8    1  0.7550631E-006  0.2115885E+03  0.7546771E-02  0.1143983E+00
          1   -1    0    0  501    0  0.00000000000E+00  0.00000000000E+00  0.69267792212E+02  0.69267792212E+02  0.00000000000E+00 0. -1.
         -1   -1    0    0    0  501 -0.00000000000E+00 -0.00000000000E+00 -0.62593970267E+03  0.62593970267E+03  0.00000000000E+00 0.  1.
         23    2    1    2    0    0 -0.12228935551E+03 -0.11928753818E+03 -0.34645882975E+03  0.39694713635E+03  0.91373437654E+02 0.  0.
         23    2    1    2    0    0  0.12228935551E+03  0.11928753818E+03 -0.21021308071E+03  0.29826035853E+03  0.12484189575E+03 0.  0.
          5    1    4    4  502    0  0.12740523549E+03  0.12769588573E+03 -0.21934917654E+03  0.28403254129E+03  0.47000000000E+01 0. -1.
         -5    1    4    4    0  502 -0.51158799788E+01 -0.84083475538E+01  0.91360958293E+01  0.14227817245E+02  0.47000000000E+01 0. -1.
        -11    1    3    3    0    0 -0.21864240803E+02 -0.14491420054E+02 -0.15224412561E+03  0.15448728123E+03  0.00000000000E+00 0.  1.
         11    1    3    3    0    0 -0.10042511471E+03 -0.10479611812E+03 -0.19421470415E+03  0.24245985512E+03  0.00000000000E+00 0. -1.
<mgrwt>
<rscale>  0 0.20697657E+03</rscale>
<asrwt>0</asrwt>
<pdfrwt beam="1">  1        1 0.10656583E-01 0.21158852E+03</pdfrwt>
<pdfrwt beam="2">  1       -1 0.96298417E-01 0.21158852E+03</pdfrwt>
<totfact> 0.64446972E+02</totfact>
</mgrwt>
</event>
<event>
 8    1  0.7550631E-006  0.1261171E+03  0.7546771E-02  0.1248381E+00
          1   -1    0    0  501    0  0.00000000000E+00  0.00000000000E+00  0.23886295732E+03  0.23886295732E+03  0.00000000000E+00 0. -1.
         -1   -1    0    0    0  501 -0.00000000000E+00 -0.00000000000E+00 -0.53866059605E+02  0.53866059605E+02  0.00000000000E+00 0.  1.
         23    2    1    2    0    0  0.83980996584E+01 -0.14503918879E+02  0.41805000515E+02  0.10191645445E+03  0.91424361512E+02 0.  0.
         23    2    1    2    0    0 -0.83980996584E+01  0.14503918879E+02  0.14319189720E+03  0.19081256247E+03  0.12499849133E+03 0.  0.
          5    1    4    4  502    0 -0.11642897227E+02  0.13406777663E+02 -0.20208426480E+02  0.27308775951E+02  0.47000000000E+01 0. -1.
         -5    1    4    4    0  502  0.32447975683E+01  0.10971412161E+01  0.16340032368E+03  0.16350378652E+03  0.47000000000E+01 0. -1.
        -11    1    3    3    0    0  0.38625151813E+02  0.21177865262E+02  0.94542778629E+01  0.45053165255E+02  0.00000000000E+00 0.  1.
         11    1    3    3    0    0 -0.30227052155E+02 -0.35681784140E+02  0.32350722652E+02  0.56863289190E+02  0.00000000000E+00 0. -1.
<mgrwt>
<rscale>  0 0.11685310E+03</rscale>
<asrwt>0</asrwt>
<pdfrwt beam="1">  1        1 0.36748147E-01 0.12611707E+03</pdfrwt>
<pdfrwt beam="2">  1       -1 0.82870862E-02 0.12611707E+03</pdfrwt>
<totfact> 0.89749355E+03</totfact>
</mgrwt>
</event>
<event>
 7    1  0.7550631E-006  0.1507793E+03  0.7546771E-02  0.1219692E+00
          2   -1    0    0  501    0  0.00000000000E+00  0.00000000000E+00  0.12102128469E+04  0.12102128469E+04  0.00000000000E+00 0. -1.
         -2   -1    0    0    0  501 -0.00000000000E+00 -0.00000000000E+00 -0.30852770914E+02  0.30852770914E+02  0.00000000000E+00 0.  1.
         23    2    1    2    0    0  0.21986375238E+02 -0.28963001993E+02  0.67380948103E+02  0.11891055211E+03  0.90979508988E+02 0.  0.
          5    1    1    2  502    0  0.11853417577E+02  0.82698431252E+02  0.51016623232E+03  0.51698279337E+03  0.47000000000E+01 0. -1.
         -5    1    1    2    0  502 -0.33839792814E+02 -0.53735429260E+02  0.60181289554E+03  0.60517227231E+03  0.47000000000E+01 0.  1.
        -11    1    3    3    0    0  0.47316880237E+02  0.87880484892E+01  0.52155373695E+02  0.70966893386E+02  0.00000000000E+00 0. -1.
         11    1    3    3    0    0 -0.25330504999E+02 -0.37751050482E+02  0.15225574409E+02  0.47943658726E+02  0.00000000000E+00 0.  1.
<mgrwt>
<rscale>  0 0.13537473E+03</rscale>
<asrwt>0</asrwt>
<pdfrwt beam="1">  1        2 0.18618656E+00 0.15077934E+03</pdfrwt>
<pdfrwt beam="2">  1       -2 0.47465811E-02 0.15077934E+03</pdfrwt>
<totfact> 0.41238787E+03</totfact>
</mgrwt>
</event>
<event>
 8    1  0.7550631E-006  0.1581269E+03  0.7546771E-02  0.1198650E+00
          1   -1    0    0  501    0  0.00000000000E+00  0.00000000000E+00  0.98889075049E+02  0.98889075049E+02  0.00000000000E+00 0. -1.
         -1   -1    0    0    0  501 -0.00000000000E+00 -0.00000000000E+00 -0.21576165561E+03  0.21576165561E+03  0.00000000000E+00 0.  1.
         23    2    1    2    0    0 -0.46839421989E+02  0.84742528360E+02 -0.41886109328E+02  0.13964477733E+03  0.91493115124E+02 0.  0.
         23    2    1    2    0    0  0.46839421989E+02 -0.84742528360E+02 -0.74986471234E+02  0.17500595333E+03  0.12501554011E+03 0.  0.
          5    1    4    4  502    0  0.62293149909E+02  0.75132803090E+01 -0.42254409127E+02  0.75791892688E+02  0.47000000000E+01 0.  1.
         -5    1    4    4    0  502 -0.15453727920E+02 -0.92255808669E+02 -0.32732062107E+02  0.99214060645E+02  0.47000000000E+01 0.  1.
        -11    1    3    3    0    0  0.11256701231E+01  0.43616997503E+02  0.22793709207E+02  0.49226647091E+02  0.00000000000E+00 0. -1.
         11    1    3    3    0    0 -0.47965092112E+02  0.41125530857E+02 -0.64679818536E+02  0.90418130236E+02  0.00000000000E+00 0.  1.
<mgrwt>
<rscale>  0 0.15149298E+03</rscale>
<asrwt>0</asrwt>
<pdfrwt beam="1">  1        1 0.15213704E-01 0.15812689E+03</pdfrwt>
<pdfrwt beam="2">  1       -1 0.33194100E-01 0.15812689E+03</pdfrwt>
<totfact> 0.30502090E+03</totfact>
</mgrwt>
</event>
<event>
 8    1  0.7550631E-006  0.1278312E+03  0.7546771E-02  0.1245171E+00
          2   -1    0    0  501    0  0.00000000000E+00  0.00000000000E+00  0.43654540937E+03  0.43654540937E+03  0.00000000000E+00 0. -1.
         -2   -1    0    0    0  501 -0.00000000000E+00 -0.00000000000E+00 -0.28735072070E+02  0.28735072070E+02  0.00000000000E+00 0.  1.
         23    2    1    2    0    0 -0.18042319112E+02 -0.19720927995E+02  0.15294728062E+03  0.18015594681E+03  0.91372064883E+02 0.  0.
         23    2    1    2    0    0  0.18042319112E+02  0.19720927995E+02  0.25486305668E+03  0.28512453464E+03  0.12500552912E+03 0.  0.
          5    1    4    4  502    0 -0.17943108624E+01 -0.46913663960E+02  0.50058470175E+02  0.68789910989E+02  0.47000000000E+01 0.  1.
         -5    1    4    4    0  502  0.19836629974E+02  0.66634591955E+02  0.20480458651E+03  0.21633462365E+03  0.47000000000E+01 0.  1.
        -11    1    3    3    0    0 -0.51432541867E+02 -0.26908568129E+02  0.11677702230E+03  0.13040801486E+03  0.00000000000E+00 0. -1.
         11    1    3    3    0    0  0.33390222755E+02  0.71876401336E+01  0.36170258317E+02  0.49747931947E+02  0.00000000000E+00 0.  1.
<mgrwt>
<rscale>  0 0.11875133E+03</rscale>
<asrwt>0</asrwt>
<pdfrwt beam="1">  1        2 0.67160828E-01 0.12783123E+03</pdfrwt>
<pdfrwt beam="2">  1       -2 0.44207806E-02 0.12783123E+03</pdfrwt>
<totfact> 0.16052998E+04</totfact>
</mgrwt>
</event>
<event>
 8    1  0.7550631E-006  0.1260610E+03  0.7546771E-02  0.1248025E+00
          1   -1    0    0  501    0  0.00000000000E+00  0.00000000000E+00  0.12175136711E+04  0.12175136711E+04  0.00000000000E+00 0. -1.
         -1   -1    0    0    0  501 -0.00000000000E+00 -0.00000000000E+00 -0.10675502841E+02  0.10675502841E+02  0.00000000000E+00 0.  1.
         23    2    1    2    0    0  0.95543759012E+01 -0.13274107773E+02  0.35926295201E+03  0.37129062618E+03  0.92300446203E+02 0.  0.
         23    2    1    2    0    0 -0.95543759012E+01  0.13274107773E+02  0.84757521620E+03  0.85689854771E+03  0.12499554357E+03 0.  0.
          5    1    4    4  502    0 -0.36054017731E+02  0.61147793992E+02  0.47838398345E+03  0.48364477721E+03  0.47000000000E+01 0.  1.
         -5    1    4    4    0  502  0.26499641830E+02 -0.47873686219E+02  0.36919123275E+03  0.37325377050E+03  0.47000000000E+01 0.  1.
        -11    1    3    3    0    0 -0.35238019300E+02 -0.26880860038E+02  0.21842770520E+03  0.22287880348E+03  0.00000000000E+00 0.  1.
         11    1    3    3    0    0  0.44792395201E+02  0.13606752265E+02  0.14083524681E+03  0.14841182270E+03  0.00000000000E+00 0. -1.
<mgrwt>
<rscale>  0 0.11706168E+03</rscale>
<asrwt>0</asrwt>
<pdfrwt beam="1">  1        1 0.18730969E+00 0.12606099E+03</pdfrwt>
<pdfrwt beam="2">  1       -1 0.16423860E-02 0.12606099E+03</pdfrwt>
<totfact> 0.98236522E+03</totfact>
</mgrwt>
</event>
<event>
 7    1  0.7550631E-006  0.3429463E+03  0.7546771E-02  0.1065548E+00
         -1   -1    0    0    0  501 -0.00000000000E+00  0.00000000000E+00  0.73935002810E+02  0.73935002810E+02  0.00000000000E+00 0.  1.
          1   -1    0    0  501    0  0.00000000000E+00 -0.00000000000E+00 -0.39768764000E+03  0.39768764000E+03  0.00000000000E+00 0. -1.
         23    2    1    2    0    0 -0.66422045865E+02 -0.44610021674E+02 -0.11118547205E+03  0.18544160345E+03  0.12499774752E+03 0.  0.
          5    1    3    3  502    0 -0.69892078281E+02 -0.31969009939E+02 -0.37329944130E+01  0.77090501686E+02  0.47000000000E+01 0. -1.
         -5    1    3    3    0  502  0.34700324167E+01 -0.12641011735E+02 -0.10745247764E+03  0.10835110177E+03  0.47000000000E+01 0. -1.
        -11    1    1    2    0    0  0.30417100592E+02  0.33472330675E+02 -0.23699273375E+03  0.24126987541E+03  0.00000000000E+00 0. -1.
         11    1    1    2    0    0  0.36004945273E+02  0.11137690999E+02  0.24425568616E+02  0.44911163947E+02  0.00000000000E+00 0.  1.
<mgrwt>
<rscale>  0 0.34294627E+03</rscale>
<asrwt>0</asrwt>
<pdfrwt beam="2">  1        1 0.61182714E-01 0.34294627E+03</pdfrwt>
<pdfrwt beam="1">  1       -1 0.11374616E-01 0.34294627E+03</pdfrwt>
<totfact> 0.30497053E+03</totfact>
</mgrwt>
</event>
<event>
 7    1  0.7550631E-006  0.2279551E+03  0.7546771E-02  0.1134476E+00
          3   -1    0    0  501    0  0.00000000000E+00  0.00000000000E+00  0.11207438232E+03  0.11207438232E+03  0.00000000000E+00 0. -1.
         -3   -1    0    0    0  501 -0.00000000000E+00 -0.00000000000E+00 -0.41305251306E+03  0.41305251306E+03  0.00000000000E+00 0.  1.
         23    2    1    2    0    0 -0.16096988383E+02 -0.17334696250E+03 -0.18759277096E+03  0.27052964866E+03  0.87675313761E+02 0.  0.
          5    1    1    2  502    0 -0.49947128150E+01 -0.26170351456E+02 -0.17148921321E+02  0.32031390134E+02  0.47000000000E+01 0. -1.
         -5    1    1    2    0  502  0.21091701198E+02  0.19951731396E+03 -0.96236438459E+02  0.22256585658E+03  0.47000000000E+01 0.  1.
        -11    1    3    3    0    0  0.17256491217E+02 -0.48693998942E+02 -0.12723928673E+02  0.53205172521E+02  0.00000000000E+00 0. -1.
         11    1    3    3    0    0 -0.33353479600E+02 -0.12465296356E+03 -0.17486884229E+03  0.21732447614E+03  0.00000000000E+00 0.  1.
<mgrwt>
<rscale>  0 0.21920634E+03</rscale>
<asrwt>0</asrwt>
<pdfrwt beam="1">  1        3 0.17242213E-01 0.22795508E+03</pdfrwt>
<pdfrwt beam="2">  1       -3 0.63546540E-01 0.22795508E+03</pdfrwt>
<totfact> 0.17602337E+02</totfact>
</mgrwt>
</event>
<event>
 8    1  0.7550631E-006  0.1761850E+03  0.7546771E-02  0.1177041E+00
         -1   -1    0    0    0  501 -0.00000000000E+00  0.00000000000E+00  0.25283958959E+03  0.25283958959E+03  0.00000000000E+00 0.  1.
          1   -1    0    0  501    0  0.00000000000E+00 -0.00000000000E+00 -0.11622880437E+03  0.11622880437E+03  0.00000000000E+00 0. -1.
         23    2    1    2    0    0 -0.11778531453E+03 -0.39178024655E+02  0.11090484639E+03  0.19101793745E+03  0.93699890831E+02 0.  0.
         23    2    1    2    0    0  0.11778531453E+03  0.39178024655E+02  0.25705938833E+02  0.17805045651E+03  0.12503148339E+03 0.  0.
          5    1    4    4  502    0  0.86776898825E+02  0.84300078680E+02  0.14151759992E+02  0.12189789065E+03  0.47000000000E+01 0. -1.
         -5    1    4    4    0  502  0.31008415706E+02 -0.45122054025E+02  0.11554178841E+02  0.56152565860E+02  0.47000000000E+01 0. -1.
        -11    1    3    3    0    0 -0.29721475410E+02  0.18896655912E+02 -0.35099713317E+01  0.35394485502E+02  0.00000000000E+00 0. -1.
         11    1    3    3    0    0 -0.88063839121E+02 -0.58074680567E+02  0.11441481772E+03  0.15562345195E+03  0.00000000000E+00 0.  1.
<mgrwt>
<rscale>  0 0.17077595E+03</rscale>
<asrwt>0</asrwt>
<pdfrwt beam="2">  1        1 0.17881355E-01 0.17618504E+03</pdfrwt>
<pdfrwt beam="1">  1       -1 0.38898398E-01 0.17618504E+03</pdfrwt>
<totfact> 0.18885318E+03</totfact>
</mgrwt>
</event>
<event>
 8    1  0.7550631E-006  0.1209161E+03  0.7546771E-02  0.1250823E+00
          1   -1    0    0  501    0  0.00000000000E+00  0.00000000000E+00  0.78726206831E+03  0.78726206831E+03  0.00000000000E+00 0. -1.
         -1   -1    0    0    0  501 -0.00000000000E+00 -0.00000000000E+00 -0.16619964092E+02  0.16619964092E+02  0.00000000000E+00 0.  1.
         23    2    1    2    0    0 -0.48700847629E+02  0.48675694773E+01  0.25084425399E+03  0.27020562180E+03  0.87708451717E+02 0.  0.
         23    2    1    2    0    0  0.48700847629E+02 -0.48675694773E+01  0.51979785022E+03  0.53367641059E+03  0.11056780876E+03 0.  0.
          5    1    4    4  502    0 -0.15145831718E+02 -0.21396317198E+02  0.35660380935E+03  0.35759693155E+03  0.47000000000E+01 0. -1.
         -5    1    4    4    0  502  0.63846679347E+02  0.16528747721E+02  0.16319404087E+03  0.17607947905E+03  0.47000000000E+01 0.  1.
        -11    1    3    3    0    0 -0.19994682642E+02  0.40146097262E+02  0.65644589741E+02  0.79502884360E+02  0.00000000000E+00 0.  1.
         11    1    3    3    0    0 -0.28706164987E+02 -0.35278527784E+02  0.18519966425E+03  0.19070273744E+03  0.00000000000E+00 0. -1.
<mgrwt>
<rscale>  0 0.11543568E+03</rscale>
<asrwt>0</asrwt>
<pdfrwt beam="1">  1        1 0.12111721E+00 0.12091611E+03</pdfrwt>
<pdfrwt beam="2">  1       -1 0.25569182E-02 0.12091611E+03</pdfrwt>
<totfact> 0.10736374E+04</totfact>
</mgrwt>
</event>
<event>
 8    1  0.7550631E-006  0.1251703E+03  0.7546771E-02  0.1249076E+00
         -2   -1    0    0    0  501 -0.00000000000E+00  0.00000000000E+00  0.54239434150E+02  0.54239434150E+02  0.00000000000E+00 0.  1.
          2   -1    0    0  501    0  0.00000000000E+00 -0.00000000000E+00 -0.25219920419E+03  0.25219920419E+03  0.00000000000E+00 0. -1.
         23    2    1    2    0    0 -0.62537883956E+01  0.15060340852E+01 -0.33066813098E+02  0.99418642280E+02  0.93537555540E+02 0.  0.
         23    2    1    2    0    0  0.62537883956E+01 -0.15060340852E+01 -0.16489295694E+03  0.20701999606E+03  0.12500485395E+03 0.  0.
          5    1    4    4  502    0  0.23295188049E+01 -0.55584186604E+02 -0.13226327032E+03  0.14356424044E+03  0.47000000000E+01 0. -1.
         -5    1    4    4    0  502  0.39242695908E+01  0.54078152518E+02 -0.32629686619E+02  0.63455755613E+02  0.47000000000E+01 0. -1.
        -11    1    3    3    0    0  0.36466441840E+02  0.37377570991E+01  0.10730814857E+02  0.38195845272E+02  0.00000000000E+00 0.  1.
         11    1    3    3    0    0 -0.42720230235E+02 -0.22317230139E+01 -0.43797627955E+02  0.61222797008E+02  0.00000000000E+00 0. -1.
<mgrwt>
<rscale>  0 0.11644705E+03</rscale>
<asrwt>0</asrwt>
<pdfrwt beam="2">  1        2 0.38799878E-01 0.12517025E+03</pdfrwt>
<pdfrwt beam="1">  1       -2 0.83445283E-02 0.12517025E+03</pdfrwt>
<totfact> 0.10950700E+04</totfact>
</mgrwt>
</event>
<event>
 8    1  0.7550631E-006  0.1468624E+03  0.7546771E-02  0.1213604E+00
         -1   -1    0    0    0  501 -0.00000000000E+00  0.00000000000E+00  0.16689438576E+02  0.16689438576E+02  0.00000000000E+00 0.  1.
          1   -1    0    0  501    0  0.00000000000E+00 -0.00000000000E+00 -0.15749936407E+04  0.15749936407E+04  0.00000000000E+00 0. -1.
         23    2    1    2    0    0 -0.61037161090E+02 -0.47096294231E+02 -0.27849686424E+03  0.30347680727E+03  0.92704224242E+02 0.  0.
         23    2    1    2    0    0  0.61037161090E+02  0.47096294231E+02 -0.12798073379E+04  0.12882062720E+04  0.12499992472E+03 0.  0.
          5    1    4    4  502    0 -0.10458690063E+02 -0.15823034008E+02 -0.37875950100E+02  0.42619598767E+02  0.47000000000E+01 0.  1.
         -5    1    4    4    0  502  0.71495851153E+02  0.62919328239E+02 -0.12419313878E+04  0.12455866732E+04  0.47000000000E+01 0.  1.
        -11    1    3    3    0    0  0.99520849531E+01 -0.46854732455E+02 -0.88160563168E+02  0.10033292005E+03  0.00000000000E+00 0. -1.
         11    1    3    3    0    0 -0.70989246043E+02 -0.24156177644E+00 -0.19033630108E+03  0.20314388722E+03  0.00000000000E+00 0.  1.
<mgrwt>
<rscale>  0 0.13979605E+03</rscale>
<asrwt>0</asrwt>
<pdfrwt beam="2">  1        1 0.24230669E+00 0.14686244E+03</pdfrwt>
<pdfrwt beam="1">  1       -1 0.25676062E-02 0.14686244E+03</pdfrwt>
<totfact> 0.30123783E+03</totfact>
</mgrwt>
</event>
<event>
 8    1  0.7550631E-006  0.1520237E+03  0.7546771E-02  0.1206889E+00
         -1   -1    0    0    0  501 -0.00000000000E+00  0.00000000000E+00  0.17627430911E+02  0.17627430911E+02  0.00000000000E+00 0.  1.
          1   -1    0    0  501    0  0.00000000000E+00 -0.00000000000E+00 -0.12253702432E+04  0.12253702432E+04  0.00000000000E+00 0. -1.
         23    2    1    2    0    0 -0.24145590819E+02  0.83095682004E+02 -0.34812911774E+03  0.37004469484E+03  0.90836620551E+02 0.  0.
         23    2    1    2    0    0  0.24145590819E+02 -0.83095682004E+02 -0.85961369455E+03  0.87295297928E+03  0.12499319281E+03 0.  0.
          5    1    4    4  502    0 -0.15094211086E+02 -0.80786587866E+02 -0.77695186505E+03  0.78130058146E+03  0.47000000000E+01 0.  1.
         -5    1    4    4    0  502  0.39239801906E+02 -0.23090941378E+01 -0.82661829504E+02  0.91652397821E+02  0.47000000000E+01 0.  1.
        -11    1    3    3    0    0 -0.17804673784E+02  0.10118744378E+02 -0.77883581600E+01  0.21910132796E+02  0.00000000000E+00 0.  1.
         11    1    3    3    0    0 -0.63409170358E+01  0.72976937627E+02 -0.34034075958E+03  0.34813456204E+03  0.00000000000E+00 0. -1.
<mgrwt>
<rscale>  0 0.14489595E+03</rscale>
<asrwt>0</asrwt>
<pdfrwt beam="2">  1        1 0.18851858E+00 0.15202368E+03</pdfrwt>
<pdfrwt beam="1">  1       -1 0.27119113E-02 0.15202368E+03</pdfrwt>
<totfact> 0.47389103E+03</totfact>
</mgrwt>
</event>
<event>
 8    1  0.7550631E-006  0.3283307E+03  0.7546771E-02  0.1073121E+00
         -2   -1    0    0    0  501 -0.00000000000E+00  0.00000000000E+00  0.17869703176E+03  0.17869703176E+03  0.00000000000E+00 0.  1.
          2   -1    0    0  501    0  0.00000000000E+00 -0.00000000000E+00 -0.66481347800E+03  0.66481347800E+03  0.00000000000E+00 0. -1.
         23    2    1    2    0    0 -0.24486176983E+03 -0.17949380730E+03 -0.91757004024E+02  0.33036297423E+03  0.92439351853E+02 0.  0.
         23    2    1    2    0    0  0.24486176983E+03  0.17949380730E+03 -0.39435944222E+03  0.51314753553E+03  0.12500284145E+03 0.  0.
          5    1    4    4  502    0  0.14607118026E+03  0.62073421660E+02 -0.27935287850E+03  0.32132541154E+03  0.47000000000E+01 0.  1.
         -5    1    4    4    0  502  0.98790589564E+02  0.11742038564E+03 -0.11500656372E+03  0.19182212398E+03  0.47000000000E+01 0.  1.
        -11    1    3    3    0    0  0.59649607952E+01 -0.16245690698E+02  0.11429382733E+00  0.17306538840E+02  0.00000000000E+00 0.  1.
         11    1    3    3    0    0 -0.25082673062E+03 -0.16324811660E+03 -0.91871297851E+02  0.31305643539E+03  0.00000000000E+00 0. -1.
<mgrwt>
<rscale>  0 0.32555415E+03</rscale>
<asrwt>0</asrwt>
<pdfrwt beam="2">  1        2 0.10227899E+00 0.32833066E+03</pdfrwt>
<pdfrwt beam="1">  1       -2 0.27491852E-01 0.32833066E+03</pdfrwt>
<totfact> 0.53673435E+02</totfact>
</mgrwt>
</event>
<event>
 8    1  0.7550631E-006  0.1391374E+03  0.7546771E-02  0.1225591E+00
          2   -1    0    0  501    0  0.00000000000E+00  0.00000000000E+00  0.33045583249E+03  0.33045583249E+03  0.00000000000E+00 0. -1.
         -2   -1    0    0    0  501 -0.00000000000E+00 -0.00000000000E+00 -0.50711005282E+02  0.50711005282E+02  0.00000000000E+00 0.  1.
         23    2    1    2    0    0  0.45826149210E+02  0.40343373141E+02  0.73869926405E+02  0.13268407472E+03  0.91764230226E+02 0.  0.
         23    2    1    2    0    0 -0.45826149210E+02 -0.40343373141E+02  0.20587490080E+03  0.24848276306E+03  0.12502633741E+03 0.  0.
          5    1    4    4  502    0 -0.59506944129E+02 -0.76715638847E+02  0.16753106897E+03  0.19368818940E+03  0.47000000000E+01 0. -1.
         -5    1    4    4    0  502  0.13680794919E+02  0.36372265706E+02  0.38343831831E+02  0.54794573652E+02  0.47000000000E+01 0. -1.
        -11    1    3    3    0    0  0.24702530928E+02  0.65335636446E+02  0.71373500890E+02  0.99865594943E+02  0.00000000000E+00 0. -1.
         11    1    3    3    0    0  0.21123618282E+02 -0.24992263305E+02  0.24964255154E+01  0.32818479776E+02  0.00000000000E+00 0.  1.
<mgrwt>
<rscale>  0 0.13126450E+03</rscale>
<asrwt>0</asrwt>
<pdfrwt beam="1">  1        2 0.50839358E-01 0.13913737E+03</pdfrwt>
<pdfrwt beam="2">  1       -2 0.78016933E-02 0.13913737E+03</pdfrwt>
<totfact> 0.91976258E+03</totfact>
</mgrwt>
</event>
<event>
 7    1  0.7550631E-006  0.2160196E+03  0.7546771E-02  0.1144759E+00
          2   -1    0    0  501    0  0.00000000000E+00  0.00000000000E+00  0.22846935755E+04  0.22846935755E+04  0.00000000000E+00 0. -1.
         -2   -1    0    0    0  501 -0.00000000000E+00 -0.00000000000E+00 -0.18199982391E+02  0.18199982391E+02  0.00000000000E+00 0.  1.
         23    2    1    2    0    0 -0.13037397154E+03  0.11848287560E+03  0.15219611426E+04  0.15372150773E+04  0.12501563980E+03 0.  0.
          5    1    3    3  502    0 -0.49016413356E+01  0.50561233904E+02  0.16350517964E+03  0.17127900698E+03  0.47000000000E+01 0. -1.
         -5    1    3    3    0  502 -0.12547233021E+03  0.67921641693E+02  0.13584559629E+04  0.13659360703E+04  0.47000000000E+01 0. -1.
        -11    1    1    2    0    0  0.11785456657E+03 -0.92824726961E+02  0.61426307470E+03  0.63231736789E+03  0.00000000000E+00 0.  1.
         11    1    1    2    0    0  0.12519404971E+02 -0.25658148636E+02  0.13026937581E+03  0.13336111265E+03  0.00000000000E+00 0. -1.
<mgrwt>
<rscale>  0 0.20601707E+03</rscale>
<asrwt>0</asrwt>
<pdfrwt beam="1">  1        2 0.35149109E+00 0.21601962E+03</pdfrwt>
<pdfrwt beam="2">  1       -2 0.27999991E-02 0.21601962E+03</pdfrwt>
<totfact> 0.24709293E+03</totfact>
</mgrwt>
</event>
<event>
 8    1  0.7550631E-006  0.1377980E+03  0.7546771E-02  0.1227852E+00
         -1   -1    0    0    0  501 -0.00000000000E+00  0.00000000000E+00  0.13512247738E+03  0.13512247738E+03  0.00000000000E+00 0.  1.
          1   -1    0    0  501    0  0.00000000000E+00 -0.00000000000E+00 -0.11263762106E+03  0.11263762106E+03  0.00000000000E+00 0. -1.
         23    2    1    2    0    0 -0.31739841596E+02 -0.48540874549E+02  0.19010966815E+02  0.10991828170E+03  0.91416506968E+02 0.  0.
         23    2    1    2    0    0  0.31739841596E+02  0.48540874549E+02  0.34738895012E+01  0.13784181674E+03  0.12499865794E+03 0.  0.
          5    1    4    4  502    0  0.21922293614E+02  0.35614915590E+02  0.63111587478E+02  0.75856256457E+02  0.47000000000E+01 0. -1.
         -5    1    4    4    0  502  0.98175479819E+01  0.12925958959E+02 -0.59637697977E+02  0.61985560281E+02  0.47000000000E+01 0. -1.
        -11    1    3    3    0    0  0.43031534168E+01 -0.67143767644E+02  0.16527150449E+02  0.69281666873E+02  0.00000000000E+00 0.  1.
         11    1    3    3    0    0 -0.36042995012E+02  0.18602893094E+02  0.24838163661E+01  0.40636614828E+02  0.00000000000E+00 0. -1.
<mgrwt>
<rscale>  0 0.12973318E+03</rscale>
<asrwt>0</asrwt>
<pdfrwt beam="2">  1        1 0.17328865E-01 0.13779804E+03</pdfrwt>
<pdfrwt beam="1">  1       -1 0.20788073E-01 0.13779804E+03</pdfrwt>
<totfact> 0.55564113E+03</totfact>
</mgrwt>
</event>
<event>
 8    1  0.7550631E-006  0.1418260E+03  0.7546771E-02  0.1221896E+00
         -1   -1    0    0    0  501 -0.00000000000E+00  0.00000000000E+00  0.14285477056E+03  0.14285477056E+03  0.00000000000E+00 0.  1.
          1   -1    0    0  501    0  0.00000000000E+00 -0.00000000000E+00 -0.16436969026E+03  0.16436969026E+03  0.00000000000E+00 0. -1.
         23    2    1    2    0    0  0.58569342457E+02 -0.32556787018E+02  0.75481640365E+02  0.13540203219E+03  0.90254750747E+02 0.  0.
         23    2    1    2    0    0 -0.58569342457E+02  0.32556787018E+02 -0.96996560068E+02  0.17182242863E+03  0.12499720820E+03 0.  0.
          5    1    4    4  502    0 -0.12971693550E+02  0.23596923956E+02  0.27547936749E+02  0.38807969193E+02  0.47000000000E+01 0.  1.
         -5    1    4    4    0  502 -0.45597648907E+02  0.89598630614E+01 -0.12454449682E+03  0.13301445944E+03  0.47000000000E+01 0.  1.
        -11    1    3    3    0    0 -0.56206479700E+01 -0.25453102711E+02 -0.10299911803E+02  0.28027491939E+02  0.00000000000E+00 0. -1.
         11    1    3    3    0    0  0.64189990427E+02 -0.71036843060E+01  0.85781552168E+02  0.10737454025E+03  0.00000000000E+00 0.  1.
<mgrwt>
<rscale>  0 0.13381940E+03</rscale>
<asrwt>0</asrwt>
<pdfrwt beam="2">  1        1 0.25287645E-01 0.14182600E+03</pdfrwt>
<pdfrwt beam="1">  1       -1 0.21977657E-01 0.14182600E+03</pdfrwt>
<totfact> 0.31486208E+03</totfact>
</mgrwt>
</event>
<event>
 8    1  0.7550631E-006  0.1577603E+03  0.7546771E-02  0.1198754E+00
          1   -1    0    0  501    0  0.00000000000E+00  0.00000000000E+00  0.12845507422E+04  0.12845507422E+04  0.00000000000E+00 0. -1.
         -1   -1    0    0    0  501 -0.00000000000E+00 -0.00000000000E+00 -0.92470761442E+02  0.92470761442E+02  0.00000000000E+00 0.  1.
         23    2    1    2    0    0 -0.21587123177E+02 -0.95879058460E+02 -0.36198282830E+02  0.13865329609E+03  0.90860459486E+02 0.  0.
         23    2    1    2    0    0  0.21587123177E+02  0.95879058460E+02  0.12282782636E+04  0.12383682075E+04  0.12340796952E+03 0.  0.
          5    1    4    4  502    0  0.55514626096E+02  0.93965781812E+02  0.11056021633E+04  0.11109859024E+04  0.47000000000E+01 0. -1.
         -5    1    4    4    0  502 -0.33927502919E+02  0.19132766481E+01  0.12267610028E+03  0.12738230514E+03  0.47000000000E+01 0.  1.
        -11    1    3    3    0    0 -0.53458405950E+02 -0.66212188162E+02 -0.41697066157E+02  0.94765501919E+02  0.00000000000E+00 0.  1.
         11    1    3    3    0    0  0.31871282773E+02 -0.29666870298E+02  0.54987833267E+01  0.43887794168E+02  0.00000000000E+00 0. -1.
<mgrwt>
<rscale>  0 0.15140796E+03</rscale>
<asrwt>0</asrwt>
<pdfrwt beam="1">  1        1 0.19762318E+00 0.15776034E+03</pdfrwt>
<pdfrwt beam="2">  1       -1 0.14226272E-01 0.15776034E+03</pdfrwt>
<totfact> 0.35863808E+02</totfact>
</mgrwt>
</event>
<event>
 8    1  0.7550631E-006  0.2037218E+03  0.7546771E-02  0.1150586E+00
         -2   -1    0    0    0  501 -0.00000000000E+00  0.00000000000E+00  0.23564466932E+03  0.23564466932E+03  0.00000000000E+00 0.  1.
          2   -1    0    0  501    0  0.00000000000E+00 -0.00000000000E+00 -0.16526873407E+03  0.16526873407E+03  0.00000000000E+00 0. -1.
         23    2    1    2    0    0 -0.10187781564E+03  0.12448466851E+03  0.66862042592E+02  0.19716134412E+03  0.92339270439E+02 0.  0.
         23    2    1    2    0    0  0.10187781564E+03 -0.12448466851E+03  0.35138926648E+01  0.20375205927E+03  0.12500812855E+03 0.  0.
          5    1    4    4  502    0 -0.24620409786E+02 -0.12658788985E+02  0.19356971824E+02  0.34105598878E+02  0.47000000000E+01 0. -1.
         -5    1    4    4    0  502  0.12649822542E+03 -0.11182587952E+03 -0.15843079159E+02  0.16964646039E+03  0.47000000000E+01 0. -1.
        -11    1    3    3    0    0 -0.95986594232E+01  0.11645726081E+02  0.47833081626E+02  0.50157361339E+02  0.00000000000E+00 0.  1.
         11    1    3    3    0    0 -0.92279156213E+02  0.11283894243E+03  0.19028960966E+02  0.14700398278E+03  0.00000000000E+00 0. -1.
<mgrwt>
<rscale>  0 0.19899910E+03</rscale>
<asrwt>0</asrwt>
<pdfrwt beam="2">  1        2 0.25425959E-01 0.20372176E+03</pdfrwt>
<pdfrwt beam="1">  1       -2 0.36253026E-01 0.20372176E+03</pdfrwt>
<totfact> 0.15034029E+03</totfact>
</mgrwt>
</event>
<event>
 7    1  0.7550631E-006  0.1466679E+03  0.7546771E-02  0.1227693E+00
          1   -1    0    0  501    0  0.00000000000E+00  0.00000000000E+00  0.36154245529E+03  0.36154245529E+03  0.00000000000E+00 0. -1.
         -1   -1    0    0    0  501 -0.00000000000E+00 -0.00000000000E+00 -0.41827637061E+02  0.41827637061E+02  0.00000000000E+00 0.  1.
         23    2    1    2    0    0 -0.43935862466E+02  0.62899916327E+02  0.24843879129E+03  0.28850182644E+03  0.12499884541E+03 0.  0.
          5    1    3    3  502    0 -0.86851167067E+02  0.29278048862E+02  0.16237055781E+03  0.18651170851E+03  0.47000000000E+01 0. -1.
         -5    1    3    3    0  502  0.42915304601E+02  0.33621867465E+02  0.86068233480E+02  0.10199011793E+03  0.47000000000E+01 0. -1.
        -11    1    1    2    0    0  0.72974506901E+01 -0.22762595791E+02 -0.16033223094E+01  0.23957445526E+02  0.00000000000E+00 0.  1.
         11    1    1    2    0    0  0.36638411776E+02 -0.40137320536E+02  0.72879349248E+02  0.90910820390E+02  0.00000000000E+00 0. -1.
<mgrwt>
<rscale>  0 0.12984004E+03</rscale>
<asrwt>0</asrwt>
<pdfrwt beam="1">  1        1 0.55621914E-01 0.14666789E+03</pdfrwt>
<pdfrwt beam="2">  1       -1 0.64350213E-02 0.14666789E+03</pdfrwt>
<totfact> 0.79358358E+03</totfact>
</mgrwt>
</event>
<event>
 8    1  0.7550631E-006  0.1319986E+03  0.7546771E-02  0.1224550E+00
         -1   -1    0    0    0  501 -0.00000000000E+00  0.00000000000E+00  0.24102502262E+03  0.24102502262E+03  0.00000000000E+00 0.  1.
          1   -1    0    0  501    0  0.00000000000E+00 -0.00000000000E+00 -0.82508558787E+02  0.82508558787E+02  0.00000000000E+00 0. -1.
         23    2    1    2    0    0 -0.87955216296E+01 -0.41228934691E+02  0.13633712227E+03  0.18976679408E+03  0.12508572649E+03 0.  0.
         23    2    1    2    0    0  0.87955216296E+01  0.41228934691E+02  0.22179341562E+02  0.13376678733E+03  0.12499777575E+03 0.  0.
          5    1    4    4  502    0 -0.53359006942E+00  0.29154845493E+02  0.73928704517E+02  0.79610508638E+02  0.47000000000E+01 0.  1.
         -5    1    4    4    0  502  0.93291116990E+01  0.12074089198E+02 -0.51749362955E+02  0.54156278687E+02  0.47000000000E+01 0.  1.
        -11    1    3    3    0    0 -0.56395209248E+02 -0.40937132628E+02  0.12122016363E+03  0.13982344770E+03  0.00000000000E+00 0.  1.
         11    1    3    3    0    0  0.47599687619E+02 -0.29180206253E+00  0.15116958636E+02  0.49943346386E+02  0.00000000000E+00 0. -1.
<mgrwt>
<rscale>  0 0.13197774E+03</rscale>
<asrwt>0</asrwt>
<pdfrwt beam="2">  1        1 0.12693625E-01 0.13199858E+03</pdfrwt>
<pdfrwt beam="1">  1       -1 0.37080772E-01 0.13199858E+03</pdfrwt>
<totfact> 0.31632699E+03</totfact>
</mgrwt>
</event>
<event>
 8    1  0.7550631E-006  0.3379583E+03  0.7546771E-02  0.1068878E+00
          2   -1    0    0  501    0  0.00000000000E+00  0.00000000000E+00  0.34505457545E+04  0.34505457545E+04  0.00000000000E+00 0. -1.
         -2   -1    0    0    0  501 -0.00000000000E+00 -0.00000000000E+00 -0.34723024789E+02  0.34723024789E+02  0.00000000000E+00 0.  1.
         23    2    1    2    0    0  0.10062580622E+03 -0.29743022299E+03  0.11960630198E+04  0.12399293886E+04  0.90927723645E+02 0.  0.
         23    2    1    2    0    0 -0.10062580622E+03  0.29743022299E+03  0.22197597099E+04  0.22453393907E+04  0.12500207707E+03 0.  0.
          5    1    4    4  502    0  0.15525072871E+00  0.18077654947E+03  0.13425708180E+04  0.13546950492E+04  0.47000000000E+01 0.  1.
         -5    1    4    4    0  502 -0.10078105695E+03  0.11665367351E+03  0.87718889189E+03  0.89064434150E+03  0.47000000000E+01 0.  1.
        -11    1    3    3    0    0  0.82812638180E+02 -0.19811953686E+03  0.95036377574E+03  0.97432057874E+03  0.00000000000E+00 0.  1.
         11    1    3    3    0    0  0.17813168038E+02 -0.99310686129E+02  0.24569924408E+03  0.26560880987E+03  0.00000000000E+00 0. -1.
<mgrwt>
<rscale>  0 0.33515699E+03</rscale>
<asrwt>0</asrwt>
<pdfrwt beam="1">  1        2 0.53085292E+00 0.33795830E+03</pdfrwt>
<pdfrwt beam="2">  1       -2 0.53420065E-02 0.33795830E+03</pdfrwt>
<totfact> 0.18959180E+02</totfact>
</mgrwt>
</event>
<event>
 8    1  0.7550631E-006  0.2992938E+03  0.7546771E-02  0.1087154E+00
          3   -1    0    0  501    0  0.00000000000E+00  0.00000000000E+00  0.28682330607E+03  0.28682330607E+03  0.00000000000E+00 0. -1.
         -3   -1    0    0    0  501 -0.00000000000E+00 -0.00000000000E+00 -0.30188132497E+03  0.30188132497E+03  0.00000000000E+00 0.  1.
         23    2    1    2    0    0 -0.24173322995E+03 -0.12457231731E+03  0.17440795116E+02  0.28765151400E+03  0.92119463018E+02 0.  0.
         23    2    1    2    0    0  0.24173322995E+03  0.12457231731E+03 -0.32498814022E+02  0.30105311704E+03  0.12499435852E+03 0.  0.
          5    1    4    4  502    0  0.12823003405E+03  0.10677279742E+03  0.30872393291E+02  0.16976032095E+03  0.47000000000E+01 0.  1.
         -5    1    4    4    0  502  0.11350319590E+03  0.17799519886E+02 -0.63371207313E+02  0.13129279609E+03  0.47000000000E+01 0.  1.
        -11    1    3    3    0    0 -0.18007063917E+03 -0.97723002859E+02  0.52933498120E+02  0.21160618045E+03  0.00000000000E+00 0. -1.
         11    1    3    3    0    0 -0.61662590782E+02 -0.26849314450E+02 -0.35492703004E+02  0.76045333551E+02  0.00000000000E+00 0.  1.
<mgrwt>
<rscale>  0 0.29620342E+03</rscale>
<asrwt>0</asrwt>
<pdfrwt beam="1">  1        3 0.44126663E-01 0.29929385E+03</pdfrwt>
<pdfrwt beam="2">  1       -3 0.46443281E-01 0.29929385E+03</pdfrwt>
<totfact> 0.59655148E+01</totfact>
</mgrwt>
</event>
<event>
 8    1  0.7550631E-006  0.1339496E+03  0.7546771E-02  0.1234355E+00
         -1   -1    0    0    0  501 -0.00000000000E+00  0.00000000000E+00  0.33601733888E+03  0.33601733888E+03  0.00000000000E+00 0.  1.
          1   -1    0    0  501    0  0.00000000000E+00 -0.00000000000E+00 -0.48373022731E+02  0.48373022731E+02  0.00000000000E+00 0. -1.
         23    2    1    2    0    0 -0.40800627090E+01  0.47963342065E+02  0.19795902013E+03  0.22318880660E+03  0.91150099545E+02 0.  0.
         23    2    1    2    0    0  0.40800627090E+01 -0.47963342065E+02  0.89685296028E+02  0.16120155502E+03  0.12500143968E+03 0.  0.
          5    1    4    4  502    0  0.65279851415E+01  0.40785333062E+02  0.46462143914E+02  0.62344837798E+02  0.47000000000E+01 0. -1.
         -5    1    4    4    0  502 -0.24479224325E+01 -0.88748675127E+02  0.43223152114E+02  0.98856717221E+02  0.47000000000E+01 0. -1.
        -11    1    3    3    0    0  0.38581456518E+02  0.33820859226E+02  0.64818683519E+02  0.82667049294E+02  0.00000000000E+00 0.  1.
         11    1    3    3    0    0 -0.42661519227E+02  0.14142482839E+02  0.13314033661E+03  0.14052175730E+03  0.00000000000E+00 0. -1.
<mgrwt>
<rscale>  0 0.12545834E+03</rscale>
<asrwt>0</asrwt>
<pdfrwt beam="2">  1        1 0.74420037E-02 0.13394958E+03</pdfrwt>
<pdfrwt beam="1">  1       -1 0.51694974E-01 0.13394958E+03</pdfrwt>
<totfact> 0.35576314E+03</totfact>
</mgrwt>
</event>
<event>
 7    1  0.7550631E-006  0.1915090E+03  0.7546771E-02  0.1189587E+00
         -1   -1    0    0    0  501 -0.00000000000E+00  0.00000000000E+00  0.60553777929E+02  0.60553777929E+02  0.00000000000E+00 0.  1.
          1   -1    0    0  501    0  0.00000000000E+00 -0.00000000000E+00 -0.39523548810E+03  0.39523548810E+03  0.00000000000E+00 0. -1.
         23    2    1    2    0    0  0.47988623492E+01  0.44492947765E+01 -0.30680389845E+02  0.96494798050E+02  0.91253133786E+02 0.  0.
          5    1    1    2  502    0  0.60118369065E+02  0.23595068127E+02 -0.21792208849E+02  0.68322294352E+02  0.47000000000E+01 0. -1.
         -5    1    1    2    0  502 -0.64917231414E+02 -0.28044362904E+02 -0.28220911147E+03  0.29097217363E+03  0.47000000000E+01 0.  1.
        -11    1    3    3    0    0  0.26382898156E+02  0.11628283168E+02 -0.55676059038E+02  0.62698467562E+02  0.00000000000E+00 0. -1.
         11    1    3    3    0    0 -0.21584035807E+02 -0.71789883918E+01  0.24995669194E+02  0.33796330488E+02  0.00000000000E+00 0.  1.
<mgrwt>
<rscale>  0 0.15921441E+03</rscale>
<asrwt>0</asrwt>
<pdfrwt beam="2">  1        1 0.60805460E-01 0.19150904E+03</pdfrwt>
<pdfrwt beam="1">  1       -1 0.93159657E-02 0.19150904E+03</pdfrwt>
<totfact> 0.41083349E+03</totfact>
</mgrwt>
</event>
<event>
 8    1  0.7550631E-006  0.2238555E+03  0.7546771E-02  0.1134278E+00
          2   -1    0    0  501    0  0.00000000000E+00  0.00000000000E+00  0.38100384916E+03  0.38100384916E+03  0.00000000000E+00 0. -1.
         -2   -1    0    0    0  501 -0.00000000000E+00 -0.00000000000E+00 -0.12820054882E+03  0.12820054882E+03  0.00000000000E+00 0.  1.
         23    2    1    2    0    0 -0.18044837512E+03 -0.43864900935E+02  0.64406292662E+02  0.21662159303E+03  0.91054919781E+02 0.  0.
         23    2    1    2    0    0  0.18044837512E+03  0.43864900935E+02  0.18839700768E+03  0.29258280495E+03  0.12500207852E+03 0.  0.
          5    1    4    4  502    0  0.78034651975E+02  0.44876112764E+02  0.16408304258E+03  0.18721273265E+03  0.47000000000E+01 0. -1.
         -5    1    4    4    0  502  0.10241372314E+03 -0.10112118289E+01  0.24313965104E+02  0.10537007230E+03  0.47000000000E+01 0. -1.
        -11    1    3    3    0    0 -0.16433151359E+03 -0.61999732920E+01  0.41174469999E+02  0.16952469734E+03  0.00000000000E+00 0.  1.
         11    1    3    3    0    0 -0.16116861529E+02 -0.37664927643E+02  0.23231822663E+02  0.47096895695E+02  0.00000000000E+00 0. -1.
<mgrwt>
<rscale>  0 0.21947079E+03</rscale>
<asrwt>0</asrwt>
<pdfrwt beam="1">  1        2 0.58615976E-01 0.22385546E+03</pdfrwt>
<pdfrwt beam="2">  1       -2 0.19723161E-01 0.22385546E+03</pdfrwt>
<totfact> 0.18028500E+03</totfact>
</mgrwt>
</event>
<event>
 8    1  0.7550631E-006  0.1399239E+03  0.7546771E-02  0.1223854E+00
          1   -1    0    0  501    0  0.00000000000E+00  0.00000000000E+00  0.21592156520E+03  0.21592156520E+03  0.00000000000E+00 0. -1.
         -1   -1    0    0    0  501 -0.00000000000E+00 -0.00000000000E+00 -0.85071672256E+02  0.85071672256E+02  0.00000000000E+00 0.  1.
         23    2    1    2    0    0  0.26563688455E+02  0.56950769361E+02  0.44849740652E+01  0.11245469223E+03  0.93150003421E+02 0.  0.
         23    2    1    2    0    0 -0.26563688455E+02 -0.56950769361E+02  0.12636491888E+03  0.18853854523E+03  0.12501868115E+03 0.  0.
          5    1    4    4  502    0 -0.35562187670E+02  0.21698433161E+02  0.93928076396E+02  0.10285944161E+03  0.47000000000E+01 0. -1.
         -5    1    4    4    0  502  0.89984992154E+01 -0.78649202522E+02  0.32436842484E+02  0.85679103612E+02  0.47000000000E+01 0. -1.
        -11    1    3    3    0    0  0.39060430136E+02  0.42899129074E+02 -0.35676186300E+02  0.68109050402E+02  0.00000000000E+00 0.  1.
         11    1    3    3    0    0 -0.12496741681E+02  0.14051640287E+02  0.40161160365E+02  0.44345641830E+02  0.00000000000E+00 0. -1.
<mgrwt>
<rscale>  0 0.13245759E+03</rscale>
<asrwt>0</asrwt>
<pdfrwt beam="1">  1        1 0.33218702E-01 0.13992387E+03</pdfrwt>
<pdfrwt beam="2">  1       -1 0.13087950E-01 0.13992387E+03</pdfrwt>
<totfact> 0.50912194E+03</totfact>
</mgrwt>
</event>
<event>
 8    1  0.7550631E-006  0.1843876E+03  0.7546771E-02  0.1169103E+00
          1   -1    0    0  501    0  0.00000000000E+00  0.00000000000E+00  0.15811623317E+04  0.15811623317E+04  0.00000000000E+00 0. -1.
         -1   -1    0    0    0  501 -0.00000000000E+00 -0.00000000000E+00 -0.19270990885E+02  0.19270990885E+02  0.00000000000E+00 0.  1.
         23    2    1    2    0    0  0.11478645562E+03  0.72096585626E+02  0.64293471906E+03  0.66316065406E+03  0.89683622064E+02 0.  0.
         23    2    1    2    0    0 -0.11478645562E+03 -0.72096585626E+02  0.91895662173E+03  0.93727266851E+03  0.12499973778E+03 0.  0.
          5    1    4    4  502    0 -0.10038336094E+03 -0.10164306848E+03  0.60929622250E+03  0.62583712680E+03  0.47000000000E+01 0. -1.
         -5    1    4    4    0  502 -0.14403094680E+02  0.29546482856E+02  0.30966039923E+03  0.31143554171E+03  0.47000000000E+01 0. -1.
        -11    1    3    3    0    0 -0.15006108035E+02  0.42248853686E+01  0.48328202679E+02  0.50780390988E+02  0.00000000000E+00 0. -1.
         11    1    3    3    0    0  0.12979256366E+03  0.67871700258E+02  0.59460651638E+03  0.61238026307E+03  0.00000000000E+00 0.  1.
<mgrwt>
<rscale>  0 0.17866283E+03</rscale>
<asrwt>0</asrwt>
<pdfrwt beam="1">  1        1 0.24325564E+00 0.18438759E+03</pdfrwt>
<pdfrwt beam="2">  1       -1 0.29647691E-02 0.18438759E+03</pdfrwt>
<totfact> 0.24248318E+03</totfact>
</mgrwt>
</event>
<event>
 8    1  0.7550631E-006  0.1388390E+03  0.7546771E-02  0.1225601E+00
         -2   -1    0    0    0  501 -0.00000000000E+00  0.00000000000E+00  0.67986331547E+02  0.67986331547E+02  0.00000000000E+00 0.  1.
          2   -1    0    0  501    0  0.00000000000E+00 -0.00000000000E+00 -0.61207576155E+03  0.61207576155E+03  0.00000000000E+00 0. -1.
         23    2    1    2    0    0 -0.11057169500E+01  0.60426634256E+02  0.76001897213E+01  0.11117043840E+03  0.92997326587E+02 0.  0.
         23    2    1    2    0    0  0.11057169500E+01 -0.60426634256E+02 -0.55168961972E+03  0.56889165470E+03  0.12499471004E+03 0.  0.
          5    1    4    4  502    0 -0.27542470793E+02 -0.60746268523E+02 -0.52566985827E+03  0.52990526203E+03  0.47000000000E+01 0. -1.
         -5    1    4    4    0  502  0.28648187743E+02  0.31963426622E+00 -0.26019761455E+02  0.38986392667E+02  0.47000000000E+01 0. -1.
        -11    1    3    3    0    0  0.22794730871E+02  0.43954946694E+02 -0.34274280063E+02  0.60219293986E+02  0.00000000000E+00 0. -1.
         11    1    3    3    0    0 -0.23900447821E+02  0.16471687563E+02  0.41874469784E+02  0.50951144412E+02  0.00000000000E+00 0.  1.
<mgrwt>
<rscale>  0 0.13125828E+03</rscale>
<asrwt>0</asrwt>
<pdfrwt beam="2">  1        2 0.94165501E-01 0.13883904E+03</pdfrwt>
<pdfrwt beam="1">  1       -2 0.10459436E-01 0.13883904E+03</pdfrwt>
<totfact> 0.29747632E+03</totfact>
</mgrwt>
</event>
<event>
 8    1  0.7550631E-006  0.1740370E+03  0.7546771E-02  0.1179279E+00
          2   -1    0    0  501    0  0.00000000000E+00  0.00000000000E+00  0.39615608713E+02  0.39615608713E+02  0.00000000000E+00 0.  1.
         -2   -1    0    0    0  501 -0.00000000000E+00 -0.00000000000E+00 -0.67763741129E+03  0.67763741129E+03  0.00000000000E+00 0. -1.
         23    2    1    2    0    0  0.41830350735E+02  0.11364082600E+03 -0.31257421993E+03  0.34819339693E+03  0.94191205108E+02 0.  0.
         23    2    1    2    0    0 -0.41830350735E+02 -0.11364082600E+03 -0.32544758264E+03  0.36905962307E+03  0.12499944303E+03 0.  0.
          5    1    4    4  502    0 -0.10019055286E+02 -0.83625231186E+02 -0.31179039087E+03  0.32299984303E+03  0.47000000000E+01 0. -1.
         -5    1    4    4    0  502 -0.31811295450E+02 -0.30015594815E+02 -0.13657191770E+02  0.46059780040E+02  0.47000000000E+01 0. -1.
        -11    1    3    3    0    0  0.25173804963E+01  0.54408157534E+02 -0.24187538027E+03  0.24793201567E+03  0.00000000000E+00 0. -1.
         11    1    3    3    0    0  0.39312970239E+02  0.59232668468E+02 -0.70698839662E+02  0.10026138126E+03  0.00000000000E+00 0.  1.
<mgrwt>
<rscale>  0 0.16863502E+03</rscale>
<asrwt>0</asrwt>
<pdfrwt beam="1">  1        2 0.60947091E-02 0.17403700E+03</pdfrwt>
<pdfrwt beam="2">  1       -2 0.10425191E+00 0.17403700E+03</pdfrwt>
<totfact> 0.92547967E+02</totfact>
</mgrwt>
</event>
<event>
 8    1  0.7550631E-006  0.1427597E+03  0.7546771E-02  0.1220210E+00
         -1   -1    0    0    0  501 -0.00000000000E+00  0.00000000000E+00  0.14435869766E+02  0.14435869766E+02  0.00000000000E+00 0.  1.
          1   -1    0    0  501    0  0.00000000000E+00 -0.00000000000E+00 -0.13155174788E+04  0.13155174788E+04  0.00000000000E+00 0. -1.
         23    2    1    2    0    0 -0.47562410624E+02 -0.49947676657E+02 -0.34838382655E+03  0.36661882503E+03  0.91000653615E+02 0.  0.
         23    2    1    2    0    0  0.47562410624E+02  0.49947676657E+02 -0.95269778251E+03  0.96333452356E+03  0.12499354453E+03 0.  0.
          5    1    4    4  502    0  0.86503798593E+02  0.39861707152E+02 -0.51401272788E+03  0.52278392983E+03  0.47000000000E+01 0. -1.
         -5    1    4    4    0  502 -0.38941387969E+02  0.10085969504E+02 -0.43868505463E+03  0.44055059373E+03  0.47000000000E+01 0. -1.
        -11    1    3    3    0    0 -0.11978348964E+02 -0.51335068093E+02 -0.30923751889E+03  0.31369828363E+03  0.00000000000E+00 0. -1.
         11    1    3    3    0    0 -0.35584061660E+02  0.13873914369E+01 -0.39146307654E+02  0.52920541401E+02  0.00000000000E+00 0.  1.
<mgrwt>
<rscale>  0 0.13500690E+03</rscale>
<asrwt>0</asrwt>
<pdfrwt beam="2">  1        1 0.20238734E+00 0.14275973E+03</pdfrwt>
<pdfrwt beam="1">  1       -1 0.22209027E-02 0.14275973E+03</pdfrwt>
<totfact> 0.54942382E+03</totfact>
</mgrwt>
</event>
<event>
 8    1  0.7550631E-006  0.1755076E+03  0.7546771E-02  0.1177478E+00
         -4   -1    0    0    0  501 -0.00000000000E+00  0.00000000000E+00  0.52336526841E+02  0.52336526841E+02  0.00000000000E+00 0. -1.
          4   -1    0    0  501    0  0.00000000000E+00 -0.00000000000E+00 -0.54860756463E+03  0.54860756463E+03  0.00000000000E+00 0.  1.
         23    2    1    2    0    0 -0.11995252557E+03 -0.28258985628E+02 -0.17086180700E+03  0.23122247744E+03  0.95304240850E+02 0.  0.
         23    2    1    2    0    0  0.11995252557E+03  0.28258985628E+02 -0.32540923078E+03  0.36972161403E+03  0.12496289746E+03 0.  0.
          5    1    4    4  502    0  0.65523397885E+02 -0.38821476032E+01 -0.28947182563E+03  0.29685756614E+03  0.47000000000E+01 0.  1.
         -5    1    4    4    0  502  0.54429127681E+02  0.32141133231E+02 -0.35937405155E+02  0.72864047889E+02  0.47000000000E+01 0.  1.
        -11    1    3    3    0    0 -0.29789986834E+02 -0.23481323512E+02 -0.12364526100E+03  0.12933277403E+03  0.00000000000E+00 0.  1.
         11    1    3    3    0    0 -0.90162538733E+02 -0.47776621157E+01 -0.47216546004E+02  0.10188970342E+03  0.00000000000E+00 0. -1.
<mgrwt>
<rscale>  0 0.17035535E+03</rscale>
<asrwt>0</asrwt>
<pdfrwt beam="2">  1        4 0.84401162E-01 0.17550756E+03</pdfrwt>
<pdfrwt beam="1">  1       -4 0.80517736E-02 0.17550756E+03</pdfrwt>
<totfact> 0.24006159E+02</totfact>
</mgrwt>
</event>
<event>
 8    1  0.7550631E-006  0.1318520E+03  0.7546771E-02  0.1241205E+00
          1   -1    0    0  501    0  0.00000000000E+00  0.00000000000E+00  0.38632148014E+03  0.38632148014E+03  0.00000000000E+00 0. -1.
         -1   -1    0    0    0  501 -0.00000000000E+00 -0.00000000000E+00 -0.71399265635E+02  0.71399265635E+02  0.00000000000E+00 0.  1.
         23    2    1    2    0    0 -0.32330360361E+02 -0.26718367720E+02 -0.21467768961E+02  0.96413164808E+02  0.84116050011E+02 0.  0.
         23    2    1    2    0    0  0.32330360361E+02  0.26718367720E+02  0.33638998346E+03  0.36130758096E+03  0.12500329481E+03 0.  0.
          5    1    4    4  502    0  0.26928137872E+02  0.27764250410E+02  0.18145005817E+02  0.42980337903E+02  0.47000000000E+01 0. -1.
         -5    1    4    4    0  502  0.54022224888E+01 -0.10458826897E+01  0.31824497764E+03  0.31832724306E+03  0.47000000000E+01 0. -1.
        -11    1    3    3    0    0 -0.35839965250E+02  0.23993709702E+02 -0.11054049480E+02  0.44524074660E+02  0.00000000000E+00 0.  1.
         11    1    3    3    0    0  0.35096048890E+01 -0.50712077423E+02 -0.10413719481E+02  0.51889090148E+02  0.00000000000E+00 0. -1.
<mgrwt>
<rscale>  0 0.12115423E+03</rscale>
<asrwt>0</asrwt>
<pdfrwt beam="1">  1        1 0.59434073E-01 0.13185199E+03</pdfrwt>
<pdfrwt beam="2">  1       -1 0.10984503E-01 0.13185199E+03</pdfrwt>
<totfact> 0.32315517E+03</totfact>
</mgrwt>
</event>
<event>
 8    1  0.7550631E-006  0.1296170E+03  0.7546771E-02  0.1238897E+00
          3   -1    0    0  501    0  0.00000000000E+00  0.00000000000E+00  0.13127787216E+03  0.13127787216E+03  0.00000000000E+00 0. -1.
         -3   -1    0    0    0  501 -0.00000000000E+00 -0.00000000000E+00 -0.12671107310E+03  0.12671107310E+03  0.00000000000E+00 0.  1.
         23    2    1    2    0    0 -0.32445909867E+02  0.11109586262E+02 -0.52669099300E+02  0.11629732376E+03  0.97851282663E+02 0.  0.
         23    2    1    2    0    0  0.32445909867E+02 -0.11109586262E+02  0.57235898357E+02  0.14169162150E+03  0.12499763025E+03 0.  0.
          5    1    4    4  502    0  0.60317108924E+02  0.95781244711E-01  0.82399159282E+02  0.10222462645E+03  0.47000000000E+01 0. -1.
         -5    1    4    4    0  502 -0.27871199057E+02 -0.11205367507E+02 -0.25163260925E+02  0.39466995049E+02  0.47000000000E+01 0. -1.
        -11    1    3    3    0    0 -0.16282921364E+02  0.54480124811E+02 -0.23103335341E+02  0.61375741392E+02  0.00000000000E+00 0.  1.
         11    1    3    3    0    0 -0.16162988504E+02 -0.43370538549E+02 -0.29565763959E+02  0.54921582369E+02  0.00000000000E+00 0. -1.
<mgrwt>
<rscale>  0 0.12258230E+03</rscale>
<asrwt>0</asrwt>
<pdfrwt beam="1">  1        3 0.20196596E-01 0.12961700E+03</pdfrwt>
<pdfrwt beam="2">  1       -3 0.19494011E-01 0.12961700E+03</pdfrwt>
<totfact> 0.11836532E+03</totfact>
</mgrwt>
</event>
<event>
 7    1  0.7550631E-006  0.4298946E+03  0.7546771E-02  0.1033893E+00
          4   -1    0    0  501    0  0.00000000000E+00  0.00000000000E+00  0.36901575875E+03  0.36901575875E+03  0.00000000000E+00 0. -1.
         -4   -1    0    0    0  501 -0.00000000000E+00 -0.00000000000E+00 -0.12520426680E+03  0.12520426680E+03  0.00000000000E+00 0.  1.
         23    2    1    2    0    0 -0.10455165549E+03  0.60239277082E+02  0.72347438419E+02  0.16840233436E+03  0.92549312269E+02 0.  0.
          5    1    1    2  502    0 -0.30996782601E+02  0.70737275657E+02  0.10843093970E+02  0.78129542337E+02  0.47000000000E+01 0. -1.
         -5    1    1    2    0  502  0.13554843809E+03 -0.13097655274E+03  0.16062095956E+03  0.24768814886E+03  0.47000000000E+01 0.  1.
        -11    1    3    3    0    0  0.17514580301E+01 -0.19247944300E+02  0.97467293821E+01  0.21646008839E+02  0.00000000000E+00 0.  1.
         11    1    3    3    0    0 -0.10630311352E+03  0.79487221382E+02  0.62600709037E+02  0.14675632552E+03  0.00000000000E+00 0. -1.
<mgrwt>
<rscale>  0 0.42989463E+03</rscale>
<asrwt>0</asrwt>
<pdfrwt beam="1">  1        4 0.56771655E-01 0.42989463E+03</pdfrwt>
<pdfrwt beam="2">  1       -4 0.19262195E-01 0.42989463E+03</pdfrwt>
<totfact> 0.14022601E+02</totfact>
</mgrwt>
</event>
<event>
 8    1  0.7550631E-006  0.3418036E+03  0.7546771E-02  0.1067182E+00
         -2   -1    0    0    0  501 -0.00000000000E+00  0.00000000000E+00  0.66666307755E+02  0.66666307755E+02  0.00000000000E+00 0.  1.
          2   -1    0    0  501    0  0.00000000000E+00 -0.00000000000E+00 -0.23369277443E+04  0.23369277443E+04  0.00000000000E+00 0. -1.
         23    2    1    2    0    0 -0.31774088976E+03  0.15817221309E+02 -0.49365691483E+03  0.59440822649E+03  0.91730761725E+02 0.  0.
         23    2    1    2    0    0  0.31774088976E+03 -0.15817221309E+02 -0.17766045217E+04  0.18091858255E+04  0.12498106788E+03 0.  0.
          5    1    4    4  502    0  0.11769991226E+02  0.27862277298E+02 -0.22678251219E+03  0.22883888879E+03  0.47000000000E+01 0.  1.
         -5    1    4    4    0  502  0.30597089853E+03 -0.43679498607E+02 -0.15498220095E+04  0.15803469367E+04  0.47000000000E+01 0.  1.
        -11    1    3    3    0    0 -0.92712492765E+02 -0.21562864430E+02 -0.91345777957E+02  0.13192654997E+03  0.00000000000E+00 0.  1.
         11    1    3    3    0    0 -0.22502839699E+03  0.37380085739E+02 -0.40231113687E+03  0.46248167652E+03  0.00000000000E+00 0. -1.
<mgrwt>
<rscale>  0 0.33909447E+03</rscale>
<asrwt>0</asrwt>
<pdfrwt beam="2">  1        2 0.35952737E+00 0.34180363E+03</pdfrwt>
<pdfrwt beam="1">  1       -2 0.10256354E-01 0.34180363E+03</pdfrwt>
<totfact> 0.30940001E+02</totfact>
</mgrwt>
</event>
<event>
 8    1  0.7550631E-006  0.1483615E+03  0.7546771E-02  0.1211695E+00
          3   -1    0    0  501    0  0.00000000000E+00  0.00000000000E+00  0.63974390568E+02  0.63974390568E+02  0.00000000000E+00 0. -1.
         -3   -1    0    0    0  501 -0.00000000000E+00 -0.00000000000E+00 -0.49136853842E+03  0.49136853842E+03  0.00000000000E+00 0.  1.
         23    2    1    2    0    0  0.79873867276E+02  0.24248681283E+01 -0.38085037924E+03  0.39985190587E+03  0.91917466243E+02 0.  0.
         23    2    1    2    0    0 -0.79873867276E+02 -0.24248681283E+01 -0.46543768609E+02  0.15549102312E+03  0.12500168485E+03 0.  0.
          5    1    4    4  502    0  0.49660659044E+01 -0.42191316321E+02  0.12635159870E+02  0.44570239492E+02  0.47000000000E+01 0.  1.
         -5    1    4    4    0  502 -0.84839933180E+02  0.39766448192E+02 -0.59178928479E+02  0.11092078362E+03  0.47000000000E+01 0.  1.
        -11    1    3    3    0    0  0.58623663089E+02 -0.35465502384E+02 -0.14943089951E+03  0.16439017446E+03  0.00000000000E+00 0.  1.
         11    1    3    3    0    0  0.21250204188E+02  0.37890370512E+02 -0.23141947974E+03  0.23546173141E+03  0.00000000000E+00 0. -1.
<mgrwt>
<rscale>  0 0.14122129E+03</rscale>
<asrwt>0</asrwt>
<pdfrwt beam="1">  1        3 0.98422137E-02 0.14836150E+03</pdfrwt>
<pdfrwt beam="2">  1       -3 0.75595162E-01 0.14836150E+03</pdfrwt>
<totfact> 0.30104561E+02</totfact>
</mgrwt>
</event>
<event>
 8    1  0.7550631E-006  0.1283381E+03  0.7546771E-02  0.1244142E+00
          2   -1    0    0  501    0  0.00000000000E+00  0.00000000000E+00  0.24333576465E+03  0.24333576465E+03  0.00000000000E+00 0. -1.
         -2   -1    0    0    0  501 -0.00000000000E+00 -0.00000000000E+00 -0.51998344104E+02  0.51998344104E+02  0.00000000000E+00 0.  1.
         23    2    1    2    0    0  0.12634046700E+02 -0.26180429720E+02  0.71454658632E+02  0.11971368877E+03  0.91545425890E+02 0.  0.
         23    2    1    2    0    0 -0.12634046700E+02  0.26180429720E+02  0.11988276191E+03  0.17562041999E+03  0.12500248508E+03 0.  0.
          5    1    4    4  502    0 -0.12819966076E+02 -0.39015874859E+02  0.98539509591E+02  0.10685838747E+03  0.47000000000E+01 0. -1.
         -5    1    4    4    0  502  0.18591937604E+00  0.65196304579E+02  0.21343252320E+02  0.68762032521E+02  0.47000000000E+01 0. -1.
        -11    1    3    3    0    0  0.24900891810E+02  0.65848404005E+01 -0.12596276835E+02  0.28671950163E+02  0.00000000000E+00 0.  1.
         11    1    3    3    0    0 -0.12266845110E+02 -0.32765270121E+02  0.84050935467E+02  0.91041738603E+02  0.00000000000E+00 0. -1.
<mgrwt>
<rscale>  0 0.11936882E+03</rscale>
<asrwt>0</asrwt>
<pdfrwt beam="1">  1        2 0.37436271E-01 0.12833805E+03</pdfrwt>
<pdfrwt beam="2">  1       -2 0.79997454E-02 0.12833805E+03</pdfrwt>
<totfact> 0.12166437E+04</totfact>
</mgrwt>
</event>
<event>
 8    1  0.7550631E-006  0.1339655E+03  0.7546771E-02  0.1234314E+00
          2   -1    0    0  501    0  0.00000000000E+00  0.00000000000E+00  0.29511374189E+03  0.29511374189E+03  0.00000000000E+00 0. -1.
         -2   -1    0    0    0  501 -0.00000000000E+00 -0.00000000000E+00 -0.47640992191E+02  0.47640992191E+02  0.00000000000E+00 0.  1.
         23    2    1    2    0    0  0.68996567532E+01  0.47686420231E+02  0.10409888703E+03  0.14653339681E+03  0.91180360616E+02 0.  0.
         23    2    1    2    0    0 -0.68996567532E+01 -0.47686420231E+02  0.14337386267E+03  0.19622133727E+03  0.12500059506E+03 0.  0.
          5    1    4    4  502    0 -0.29753599238E+02  0.29470762094E+02  0.90469732703E+02  0.99803131320E+02  0.47000000000E+01 0. -1.
         -5    1    4    4    0  502  0.22853942485E+02 -0.77157182325E+02  0.52904129966E+02  0.96418205952E+02  0.47000000000E+01 0. -1.
        -11    1    3    3    0    0 -0.15155817445E+02  0.24207534286E+02 -0.81928868552E+01  0.29712403364E+02  0.00000000000E+00 0.  1.
         11    1    3    3    0    0  0.22055474199E+02  0.23478885945E+02  0.11229177389E+03  0.11682099345E+03  0.00000000000E+00 0. -1.
<mgrwt>
<rscale>  0 0.12548424E+03</rscale>
<asrwt>0</asrwt>
<pdfrwt beam="1">  1        2 0.45402113E-01 0.13396548E+03</pdfrwt>
<pdfrwt beam="2">  1       -2 0.73293836E-02 0.13396548E+03</pdfrwt>
<totfact> 0.11383120E+04</totfact>
</mgrwt>
</event>
<event>
 8    1  0.7550631E-006  0.1387640E+03  0.7546771E-02  0.1226238E+00
         -1   -1    0    0    0  501 -0.00000000000E+00  0.00000000000E+00  0.14618440331E+03  0.14618440331E+03  0.00000000000E+00 0. -1.
          1   -1    0    0  501    0  0.00000000000E+00 -0.00000000000E+00 -0.10607261927E+03  0.10607261927E+03  0.00000000000E+00 0.  1.
         23    2    1    2    0    0  0.51696614747E+02  0.30954565455E+02  0.26805263568E+02  0.11285646983E+03  0.91582397482E+02 0.  0.
         23    2    1    2    0    0 -0.51696614747E+02 -0.30954565455E+02  0.13306520475E+02  0.13940055275E+03  0.12499890208E+03 0.  0.
          5    1    4    4  502    0 -0.76426837270E+02 -0.28078604154E+02  0.49362897171E+02  0.95332340176E+02  0.47000000000E+01 0. -1.
         -5    1    4    4    0  502  0.24730222523E+02 -0.28759613009E+01 -0.36056376696E+02  0.44068212578E+02  0.47000000000E+01 0. -1.
        -11    1    3    3    0    0  0.47513334323E+02 -0.19095764890E+02 -0.78923687659E+01  0.51811723190E+02  0.00000000000E+00 0.  1.
         11    1    3    3    0    0  0.41832804245E+01  0.50050330344E+02  0.34697632334E+02  0.61044746639E+02  0.00000000000E+00 0. -1.
<mgrwt>
<rscale>  0 0.13082385E+03</rscale>
<asrwt>0</asrwt>
<pdfrwt beam="2">  1        1 0.16318864E-01 0.13876401E+03</pdfrwt>
<pdfrwt beam="1">  1       -1 0.22489908E-01 0.13876401E+03</pdfrwt>
<totfact> 0.52870455E+03</totfact>
</mgrwt>
</event>
<event>
 8    1  0.7550631E-006  0.1279667E+03  0.7546771E-02  0.1245474E+00
         -4   -1    0    0    0  501 -0.00000000000E+00  0.00000000000E+00  0.73761780924E+02  0.73761780924E+02  0.00000000000E+00 0.  1.
          4   -1    0    0  501    0  0.00000000000E+00 -0.00000000000E+00 -0.17295955939E+03  0.17295955939E+03  0.00000000000E+00 0. -1.
         23    2    1    2    0    0  0.27302978574E+02  0.21997630764E+01 -0.20607328193E+02  0.96548285703E+02  0.90258616765E+02 0.  0.
         23    2    1    2    0    0 -0.27302978574E+02 -0.21997630764E+01 -0.78590450269E+02  0.15017305461E+03  0.12500078344E+03 0.  0.
          5    1    4    4  502    0  0.41376700672E+02  0.20045355831E+02 -0.42023625280E+01  0.46406869101E+02  0.47000000000E+01 0. -1.
         -5    1    4    4    0  502 -0.68679679247E+02 -0.22245118907E+02 -0.74388087741E+02  0.10376618551E+03  0.47000000000E+01 0. -1.
        -11    1    3    3    0    0  0.21793679428E+02  0.36767459339E+02  0.16242328209E+02  0.45723339280E+02  0.00000000000E+00 0.  1.
         11    1    3    3    0    0  0.55092991458E+01 -0.34567696263E+02 -0.36849656401E+02  0.50824946423E+02  0.00000000000E+00 0. -1.
<mgrwt>
<rscale>  0 0.11857080E+03</rscale>
<asrwt>0</asrwt>
<pdfrwt beam="2">  1        4 0.26609162E-01 0.12796674E+03</pdfrwt>
<pdfrwt beam="1">  1       -4 0.11347967E-01 0.12796674E+03</pdfrwt>
<totfact> 0.13267322E+03</totfact>
</mgrwt>
</event>
<event>
 8    1  0.7550631E-006  0.1446115E+03  0.7546771E-02  0.1217510E+00
         -2   -1    0    0    0  501 -0.00000000000E+00  0.00000000000E+00  0.45073441196E+02  0.45073441196E+02  0.00000000000E+00 0.  1.
          2   -1    0    0  501    0  0.00000000000E+00 -0.00000000000E+00 -0.42773165444E+03  0.42773165444E+03  0.00000000000E+00 0. -1.
         23    2    1    2    0    0  0.22671313626E+02 -0.69099832220E+02 -0.92398163034E+02  0.14851604569E+03  0.90723866874E+02 0.  0.
         23    2    1    2    0    0 -0.22671313626E+02  0.69099832220E+02 -0.29026005021E+03  0.32428904995E+03  0.12499486347E+03 0.  0.
          5    1    4    4  502    0  0.28233236557E+02  0.51632222226E+02 -0.25010287401E+03  0.25697575684E+03  0.47000000000E+01 0. -1.
         -5    1    4    4    0  502 -0.50904550183E+02  0.17467609994E+02 -0.40157176207E+02  0.67313293109E+02  0.47000000000E+01 0. -1.
        -11    1    3    3    0    0  0.16208771343E+02 -0.42595693554E+02  0.63982342364E+01  0.46022329136E+02  0.00000000000E+00 0.  1.
         11    1    3    3    0    0  0.64625422831E+01 -0.26504138666E+02 -0.98796397270E+02  0.10249371655E+03  0.00000000000E+00 0. -1.
<mgrwt>
<rscale>  0 0.13693757E+03</rscale>
<asrwt>0</asrwt>
<pdfrwt beam="2">  1        2 0.65804867E-01 0.14461152E+03</pdfrwt>
<pdfrwt beam="1">  1       -2 0.69343758E-02 0.14461152E+03</pdfrwt>
<totfact> 0.83915368E+03</totfact>
</mgrwt>
</event>
<event>
 8    1  0.7550631E-006  0.1812538E+03  0.7546771E-02  0.1172152E+00
          1   -1    0    0  501    0  0.00000000000E+00  0.00000000000E+00  0.41532324133E+03  0.41532324133E+03  0.00000000000E+00 0. -1.
         -1   -1    0    0    0  501 -0.00000000000E+00 -0.00000000000E+00 -0.71104105633E+02  0.71104105633E+02  0.00000000000E+00 0.  1.
         23    2    1    2    0    0  0.43766723760E+02  0.12374668073E+03  0.13019876902E+03  0.20596763244E+03  0.90786447549E+02 0.  0.
         23    2    1    2    0    0 -0.43766723760E+02 -0.12374668073E+03  0.21402036667E+03  0.28045971452E+03  0.12499666802E+03 0.  0.
          5    1    4    4  502    0 -0.47358940675E+02  0.19447623781E+01  0.99520610508E+02  0.11033174193E+03  0.47000000000E+01 0. -1.
         -5    1    4    4    0  502  0.35922169145E+01 -0.12569144311E+03  0.11449975616E+03  0.17012797258E+03  0.47000000000E+01 0. -1.
        -11    1    3    3    0    0  0.36570811120E+01  0.10577756246E+03  0.12155206329E+03  0.16117434986E+03  0.00000000000E+00 0. -1.
         11    1    3    3    0    0  0.40109642648E+02  0.17969118275E+02  0.86467057337E+01  0.44793282588E+02  0.00000000000E+00 0.  1.
<mgrwt>
<rscale>  0 0.17557834E+03</rscale>
<asrwt>0</asrwt>
<pdfrwt beam="1">  1        1 0.63895882E-01 0.18125378E+03</pdfrwt>
<pdfrwt beam="2">  1       -1 0.10939093E-01 0.18125378E+03</pdfrwt>
<totfact> 0.30051676E+03</totfact>
</mgrwt>
</event>
<event>
 8    1  0.7550631E-006  0.1550393E+03  0.7546771E-02  0.1200071E+00
          1   -1    0    0  501    0  0.00000000000E+00  0.00000000000E+00  0.74083334104E+03  0.74083334104E+03  0.00000000000E+00 0. -1.
         -1   -1    0    0    0  501 -0.00000000000E+00 -0.00000000000E+00 -0.32572433647E+02  0.32572433647E+02  0.00000000000E+00 0.  1.
         23    2    1    2    0    0 -0.99893554425E+02 -0.22972517703E+02  0.20324193187E+03  0.24512425607E+03  0.90951411522E+02 0.  0.
         23    2    1    2    0    0  0.99893554425E+02  0.22972517703E+02  0.50501897553E+03  0.52828151862E+03  0.11632170258E+03 0.  0.
          5    1    4    4  502    0  0.44911542630E+02  0.69408974194E+02  0.27994701540E+03  0.29193676334E+03  0.47000000000E+01 0. -1.
         -5    1    4    4    0  502  0.54982011795E+02 -0.46436456491E+02  0.22507196013E+03  0.23634475528E+03  0.47000000000E+01 0.  1.
        -11    1    3    3    0    0  0.88629913449E+01 -0.17662627363E+02  0.75033362763E+01  0.21138142686E+02  0.00000000000E+00 0.  1.
         11    1    3    3    0    0 -0.10875654577E+03 -0.53098903398E+01  0.19573859559E+03  0.22398611338E+03  0.00000000000E+00 0. -1.
<mgrwt>
<rscale>  0 0.15032783E+03</rscale>
<asrwt>0</asrwt>
<pdfrwt beam="1">  1        1 0.11397435E+00 0.15503934E+03</pdfrwt>
<pdfrwt beam="2">  1       -1 0.50111442E-02 0.15503934E+03</pdfrwt>
<totfact> 0.44443580E+03</totfact>
</mgrwt>
</event>
<event>
 8    1  0.7550631E-006  0.2411007E+03  0.7546771E-02  0.1122046E+00
          1   -1    0    0  501    0  0.00000000000E+00  0.00000000000E+00  0.10546273559E+04  0.10546273559E+04  0.00000000000E+00 0. -1.
         -1   -1    0    0    0  501 -0.00000000000E+00 -0.00000000000E+00 -0.51356730796E+02  0.51356730796E+02  0.00000000000E+00 0.  1.
         23    2    1    2    0    0  0.14436102634E+02 -0.20565979117E+03  0.45548257611E+03  0.50748488344E+03  0.87018268267E+02 0.  0.
         23    2    1    2    0    0 -0.14436102634E+02  0.20565979117E+03  0.54778804904E+03  0.59849920330E+03  0.12500079568E+03 0.  0.
          5    1    4    4  502    0  0.32881892208E+02  0.81644045957E+02  0.10972265797E+03  0.14074132566E+03  0.47000000000E+01 0. -1.
         -5    1    4    4    0  502 -0.47317994842E+02  0.12401574522E+03  0.43806539106E+03  0.45775787764E+03  0.47000000000E+01 0. -1.
        -11    1    3    3    0    0  0.18092479527E+02 -0.12026106033E+03  0.35666043679E+03  0.37682453160E+03  0.00000000000E+00 0. -1.
         11    1    3    3    0    0 -0.36563768929E+01 -0.85398730840E+02  0.98822139321E+02  0.13066035183E+03  0.00000000000E+00 0.  1.
<mgrwt>
<rscale>  0 0.23664816E+03</rscale>
<asrwt>0</asrwt>
<pdfrwt beam="1">  1        1 0.16225035E+00 0.24110070E+03</pdfrwt>
<pdfrwt beam="2">  1       -1 0.79010363E-02 0.24110070E+03</pdfrwt>
<totfact> 0.12794524E+03</totfact>
</mgrwt>
</event>
<event>
 8    1  0.7550631E-006  0.1352691E+03  0.7546771E-02  0.1232092E+00
          1   -1    0    0  501    0  0.00000000000E+00  0.00000000000E+00  0.29116592668E+02  0.29116592668E+02  0.00000000000E+00 0. -1.
         -1   -1    0    0    0  501 -0.00000000000E+00 -0.00000000000E+00 -0.57283480578E+03  0.57283480578E+03  0.00000000000E+00 0.  1.
         23    2    1    2    0    0 -0.23806909633E+02  0.45898644497E+02 -0.35222242999E+03  0.36749805416E+03  0.91218008726E+02 0.  0.
         23    2    1    2    0    0  0.23806909633E+02 -0.45898644497E+02 -0.19149578313E+03  0.23445334429E+03  0.12499712468E+03 0.  0.
          5    1    4    4  502    0 -0.38888581151E+02  0.22767138595E+01 -0.12506811395E+03  0.13107871031E+03  0.47000000000E+01 0.  1.
         -5    1    4    4    0  502  0.62695490784E+02 -0.48175358356E+02 -0.66427669180E+02  0.10337463398E+03  0.47000000000E+01 0.  1.
        -11    1    3    3    0    0  0.13659631307E+02  0.62163767630E+02 -0.19939684811E+03  0.20930843884E+03  0.00000000000E+00 0. -1.
         11    1    3    3    0    0 -0.37466540940E+02 -0.16265123134E+02 -0.15282558188E+03  0.15818961533E+03  0.00000000000E+00 0.  1.
<mgrwt>
<rscale>  0 0.12692418E+03</rscale>
<asrwt>0</asrwt>
<pdfrwt beam="1">  1        1 0.44794756E-02 0.13526912E+03</pdfrwt>
<pdfrwt beam="2">  1       -1 0.88128435E-01 0.13526912E+03</pdfrwt>
<totfact> 0.24943028E+03</totfact>
</mgrwt>
</event>
<event>
 8    1  0.7550631E-006  0.1274537E+03  0.7546771E-02  0.1244859E+00
          1   -1    0    0  501    0  0.00000000000E+00  0.00000000000E+00  0.41011741985E+02  0.41011741985E+02  0.00000000000E+00 0. -1.
         -1   -1    0    0    0  501 -0.00000000000E+00 -0.00000000000E+00 -0.41947492862E+03  0.41947492862E+03  0.00000000000E+00 0.  1.
         23    2    1    2    0    0 -0.17831246627E+02  0.17360122087E+02 -0.28908938041E+03  0.30482000214E+03  0.93398268946E+02 0.  0.
         23    2    1    2    0    0  0.17831246627E+02 -0.17360122087E+02 -0.89373806223E+02  0.15566666847E+03  0.12500042895E+03 0.  0.
          5    1    4    4  502    0  0.49769660584E+02  0.35551182630E+02 -0.24820887092E+02  0.66174558080E+02  0.47000000000E+01 0.  1.
         -5    1    4    4    0  502 -0.31938413957E+02 -0.52911304717E+02 -0.64552919131E+02  0.89492110386E+02  0.47000000000E+01 0.  1.
        -11    1    3    3    0    0 -0.38804749738E+02  0.42247838035E+02 -0.23313164687E+03  0.24008551225E+03  0.00000000000E+00 0.  1.
         11    1    3    3    0    0  0.20973503110E+02 -0.24887715948E+02 -0.55957733539E+02  0.64734489885E+02  0.00000000000E+00 0. -1.
<mgrwt>
<rscale>  0 0.11893851E+03</rscale>
<asrwt>0</asrwt>
<pdfrwt beam="1">  1        1 0.63094991E-02 0.12745366E+03</pdfrwt>
<pdfrwt beam="2">  1       -1 0.64534601E-01 0.12745366E+03</pdfrwt>
<totfact> 0.29196426E+03</totfact>
</mgrwt>
</event>
<event>
 8    1  0.7550631E-006  0.1330973E+03  0.7546771E-02  0.1225271E+00
         -1   -1    0    0    0  501 -0.00000000000E+00  0.00000000000E+00  0.12391681325E+02  0.12391681325E+02  0.00000000000E+00 0.  1.
          1   -1    0    0  501    0  0.00000000000E+00 -0.00000000000E+00 -0.17362170418E+04  0.17362170418E+04  0.00000000000E+00 0. -1.
         23    2    1    2    0    0  0.50787245401E+02  0.48408293986E+02 -0.43977348240E+03  0.45767722685E+03  0.10556998120E+03 0.  0.
         23    2    1    2    0    0 -0.50787245401E+02 -0.48408293986E+02 -0.12840518781E+04  0.12909314963E+04  0.11310258738E+03 0.  0.
          5    1    4    4  502    0 -0.97938665475E+01 -0.41021028002E+02 -0.11428847187E+04  0.11436722497E+04  0.47000000000E+01 0. -1.
         -5    1    4    4    0  502 -0.40993378854E+02 -0.73872659848E+01 -0.14116715939E+03  0.14725924657E+03  0.47000000000E+01 0.  1.
        -11    1    3    3    0    0 -0.23235533093E+02  0.42305983993E+02 -0.11897846812E+03  0.12839611426E+03  0.00000000000E+00 0.  1.
         11    1    3    3    0    0  0.74022778495E+02  0.61023099936E+01 -0.32079501427E+03  0.32928111259E+03  0.00000000000E+00 0. -1.
<mgrwt>
<rscale>  0 0.13148353E+03</rscale>
<asrwt>0</asrwt>
<pdfrwt beam="2">  1        1 0.26711035E+00 0.13309734E+03</pdfrwt>
<pdfrwt beam="1">  1       -1 0.19064123E-02 0.13309734E+03</pdfrwt>
<totfact> 0.36474147E+03</totfact>
</mgrwt>
</event>
<event>
 8    1  0.7550631E-006  0.1347290E+03  0.7546771E-02  0.1232753E+00
          2   -1    0    0  501    0  0.00000000000E+00  0.00000000000E+00  0.40878436444E+03  0.40878436444E+03  0.00000000000E+00 0. -1.
         -2   -1    0    0    0  501 -0.00000000000E+00 -0.00000000000E+00 -0.47621183615E+02  0.47621183615E+02  0.00000000000E+00 0.  1.
         23    2    1    2    0    0 -0.42102730915E+02 -0.27469912290E+02  0.47357784488E+02  0.11490043305E+03  0.91826541541E+02 0.  0.
         23    2    1    2    0    0  0.42102730915E+02  0.27469912290E+02  0.31380539634E+03  0.34150511500E+03  0.12499872309E+03 0.  0.
          5    1    4    4  502    0  0.35606728953E+02  0.76601943349E+02  0.20912120815E+03  0.22558693794E+03  0.47000000000E+01 0. -1.
         -5    1    4    4    0  502  0.64960019621E+01 -0.49132031060E+02  0.10468418819E+03  0.11591817707E+03  0.47000000000E+01 0. -1.
        -11    1    3    3    0    0 -0.46867777983E+02 -0.44120816805E+02  0.64079346450E+02  0.90826195175E+02  0.00000000000E+00 0. -1.
         11    1    3    3    0    0  0.47650470677E+01  0.16650904515E+02 -0.16721561962E+02  0.24074237873E+02  0.00000000000E+00 0.  1.
<mgrwt>
<rscale>  0 0.12649374E+03</rscale>
<asrwt>0</asrwt>
<pdfrwt beam="1">  1        2 0.62889900E-01 0.13472905E+03</pdfrwt>
<pdfrwt beam="2">  1       -2 0.73263362E-02 0.13472905E+03</pdfrwt>
<totfact> 0.80606162E+03</totfact>
</mgrwt>
</event>
<event>
 8    1  0.7550631E-006  0.1486177E+03  0.7546771E-02  0.1212019E+00
          2   -1    0    0  501    0  0.00000000000E+00  0.00000000000E+00  0.29131777805E+03  0.29131777805E+03  0.00000000000E+00 0. -1.
         -2   -1    0    0    0  501 -0.00000000000E+00 -0.00000000000E+00 -0.76646543188E+02  0.76646543188E+02  0.00000000000E+00 0.  1.
         23    2    1    2    0    0 -0.52733876680E+02 -0.60677702254E+02  0.18339458979E+02  0.12172586522E+03  0.89544431475E+02 0.  0.
         23    2    1    2    0    0  0.52733876680E+02  0.60677702254E+02  0.19633177589E+03  0.24623845602E+03  0.12499826278E+03 0.  0.
          5    1    4    4  502    0 -0.15221470243E+02 -0.56743999930E+01  0.12806997627E+03  0.12918165812E+03  0.47000000000E+01 0.  1.
         -5    1    4    4    0  502  0.67955346923E+02  0.66352102246E+02  0.68261799613E+02  0.11705679790E+03  0.47000000000E+01 0.  1.
        -11    1    3    3    0    0 -0.20357973398E+02 -0.20313351627E+02  0.52402989187E+02  0.59775853076E+02  0.00000000000E+00 0. -1.
         11    1    3    3    0    0 -0.32375903282E+02 -0.40364350626E+02 -0.34063530208E+02  0.61950012147E+02  0.00000000000E+00 0.  1.
<mgrwt>
<rscale>  0 0.14097824E+03</rscale>
<asrwt>0</asrwt>
<pdfrwt beam="1">  1        2 0.44818119E-01 0.14861767E+03</pdfrwt>
<pdfrwt beam="2">  1       -2 0.11791776E-01 0.14861767E+03</pdfrwt>
<totfact> 0.55237358E+03</totfact>
</mgrwt>
</event>
<event>
 8    1  0.7550631E-006  0.1334498E+03  0.7546771E-02  0.1235316E+00
         -1   -1    0    0    0  501 -0.00000000000E+00  0.00000000000E+00  0.48512749896E+03  0.48512749896E+03  0.00000000000E+00 0.  1.
          1   -1    0    0  501    0  0.00000000000E+00 -0.00000000000E+00 -0.29140818970E+02  0.29140818970E+02  0.00000000000E+00 0. -1.
         23    2    1    2    0    0  0.11443431730E+02 -0.45310287243E+02  0.23242127258E+03  0.25390255443E+03  0.90900412210E+02 0.  0.
         23    2    1    2    0    0 -0.11443431730E+02  0.45310287243E+02  0.22356540741E+03  0.26036576349E+03  0.12499946060E+03 0.  0.
          5    1    4    4  502    0  0.10683651148E+02  0.84737815257E+02  0.16845264811E+03  0.18892597067E+03  0.47000000000E+01 0.  1.
         -5    1    4    4    0  502 -0.22127082878E+02 -0.39427528014E+02  0.55112759292E+02  0.71439792824E+02  0.47000000000E+01 0.  1.
        -11    1    3    3    0    0  0.83488334318E+01 -0.58964418110E+02  0.23239301546E+03  0.23990210348E+03  0.00000000000E+00 0. -1.
         11    1    3    3    0    0  0.30945982983E+01  0.13654130867E+02  0.28257124846E-01  0.14000450951E+02  0.00000000000E+00 0.  1.
<mgrwt>
<rscale>  0 0.12484225E+03</rscale>
<asrwt>0</asrwt>
<pdfrwt beam="2">  1        1 0.44832033E-02 0.13344976E+03</pdfrwt>
<pdfrwt beam="1">  1       -1 0.74634994E-01 0.13344976E+03</pdfrwt>
<totfact> 0.35030911E+03</totfact>
</mgrwt>
</event>
<event>
 8    1  0.7550631E-006  0.2612888E+03  0.7546771E-02  0.1108604E+00
         -2   -1    0    0    0  501 -0.00000000000E+00  0.00000000000E+00  0.48167704169E+03  0.48167704169E+03  0.00000000000E+00 0. -1.
          2   -1    0    0  501    0  0.00000000000E+00 -0.00000000000E+00 -0.17778785565E+03  0.17778785565E+03  0.00000000000E+00 0.  1.
         23    2    1    2    0    0 -0.18437490953E+02  0.22870488802E+03  0.31230744431E+03  0.39804050222E+03  0.90853919920E+02 0.  0.
         23    2    1    2    0    0  0.18437490953E+02 -0.22870488802E+03 -0.84182582687E+01  0.26142439511E+03  0.12500392159E+03 0.  0.
          5    1    4    4  502    0 -0.46200579278E+02 -0.43363968077E+02  0.95814176341E+01  0.64255901028E+02  0.47000000000E+01 0.  1.
         -5    1    4    4    0  502  0.64638070232E+02 -0.18534091994E+03 -0.17999675903E+02  0.19716849409E+03  0.47000000000E+01 0.  1.
        -11    1    3    3    0    0 -0.28902794166E+02  0.17951091012E+03  0.17725505826E+03  0.25392694627E+03  0.00000000000E+00 0.  1.
         11    1    3    3    0    0  0.10465303213E+02  0.49193977894E+02  0.13505238604E+03  0.14411355595E+03  0.00000000000E+00 0. -1.
<mgrwt>
<rscale>  0 0.25758351E+03</rscale>
<asrwt>0</asrwt>
<pdfrwt beam="2">  1        2 0.27351978E-01 0.26128882E+03</pdfrwt>
<pdfrwt beam="1">  1       -2 0.74104159E-01 0.26128882E+03</pdfrwt>
<totfact> 0.32912455E+02</totfact>
</mgrwt>
</event>
<event>
 8    1  0.7550631E-006  0.1709478E+03  0.7546771E-02  0.1183562E+00
          3   -1    0    0  501    0  0.00000000000E+00  0.00000000000E+00  0.48189432331E+02  0.48189432331E+02  0.00000000000E+00 0. -1.
         -3   -1    0    0    0  501 -0.00000000000E+00 -0.00000000000E+00 -0.53444095369E+03  0.53444095369E+03  0.00000000000E+00 0.  1.
         23    2    1    2    0    0  0.11610712531E+03  0.10832115384E+02 -0.26454015205E+03  0.30266772619E+03  0.89599448420E+02 0.  0.
         23    2    1    2    0    0 -0.11610712531E+03 -0.10832115384E+02 -0.22171136930E+03  0.27996265983E+03  0.12499984139E+03 0.  0.
          5    1    4    4  502    0  0.11976995293E+01 -0.39307618287E+01  0.14670005441E+02  0.15943162558E+02  0.47000000000E+01 0.  1.
         -5    1    4    4    0  502 -0.11730482484E+03 -0.69013535551E+01 -0.23638137474E+03  0.26401949727E+03  0.47000000000E+01 0.  1.
        -11    1    3    3    0    0  0.38623033569E+02  0.37791407441E+02 -0.16529679455E+03  0.17390503008E+03  0.00000000000E+00 0.  1.
         11    1    3    3    0    0  0.77484091744E+02 -0.26959292057E+02 -0.99243357509E+02  0.12876269612E+03  0.00000000000E+00 0. -1.
<mgrwt>
<rscale>  0 0.16463432E+03</rscale>
<asrwt>0</asrwt>
<pdfrwt beam="1">  1        3 0.74137585E-02 0.17094783E+03</pdfrwt>
<pdfrwt beam="2">  1       -3 0.82221688E-01 0.17094783E+03</pdfrwt>
<totfact> 0.40637626E+02</totfact>
</mgrwt>
</event>
<event>
 8    1  0.7550631E-006  0.2598494E+03  0.7546771E-02  0.1109611E+00
          2   -1    0    0  501    0  0.00000000000E+00  0.00000000000E+00  0.70455122353E+03  0.70455122353E+03  0.00000000000E+00 0.  1.
         -2   -1    0    0    0  501 -0.00000000000E+00 -0.00000000000E+00 -0.10404575222E+03  0.10404575222E+03  0.00000000000E+00 0. -1.
         23    2    1    2    0    0  0.70789035542E+02 -0.21653225542E+03  0.14530328510E+03  0.28444935246E+03  0.88888043405E+02 0.  0.
         23    2    1    2    0    0 -0.70789035542E+02  0.21653225542E+03  0.45520218622E+03  0.52414762329E+03  0.12499758188E+03 0.  0.
          5    1    4    4  502    0 -0.64582324618E+02  0.13094105167E+03  0.15983768920E+03  0.21653316733E+03  0.47000000000E+01 0. -1.
         -5    1    4    4    0  502 -0.62067109242E+01  0.85591203756E+02  0.29536449701E+03  0.30761445596E+03  0.47000000000E+01 0. -1.
        -11    1    3    3    0    0  0.56788703163E+02 -0.48861313281E+02  0.31196457624E+02  0.81151732642E+02  0.00000000000E+00 0. -1.
         11    1    3    3    0    0  0.14000332378E+02 -0.16767094214E+03  0.11410682747E+03  0.20329761981E+03  0.00000000000E+00 0.  1.
<mgrwt>
<rscale>  0 0.25593369E+03</rscale>
<asrwt>0</asrwt>
<pdfrwt beam="1">  1        2 0.10839249E+00 0.25984938E+03</pdfrwt>
<pdfrwt beam="2">  1       -2 0.16007039E-01 0.25984938E+03</pdfrwt>
<totfact> 0.12784311E+03</totfact>
</mgrwt>
</event>
<event>
 8    1  0.7550631E-006  0.1542514E+03  0.7546771E-02  0.1203188E+00
          2   -1    0    0  501    0  0.00000000000E+00  0.00000000000E+00  0.11754926698E+04  0.11754926698E+04  0.00000000000E+00 0. -1.
         -2   -1    0    0    0  501 -0.00000000000E+00 -0.00000000000E+00 -0.31721150404E+02  0.31721150404E+02  0.00000000000E+00 0.  1.
         23    2    1    2    0    0  0.32369999403E+02  0.84371618407E+02  0.13780632909E+03  0.18949114474E+03  0.93541021726E+02 0.  0.
         23    2    1    2    0    0 -0.32369999403E+02 -0.84371618407E+02  0.10059651903E+04  0.10177226755E+04  0.12500837244E+03 0.  0.
          5    1    4    4  502    0 -0.47232330612E+02 -0.65820270637E+02  0.28440637249E+03  0.29575712298E+03  0.47000000000E+01 0.  1.
         -5    1    4    4    0  502  0.14862331209E+02 -0.18551347770E+02  0.72155881784E+03  0.72196555250E+03  0.47000000000E+01 0.  1.
        -11    1    3    3    0    0  0.23953163532E+02  0.27430035972E+02 -0.38184596912E+01  0.36616137849E+02  0.00000000000E+00 0.  1.
         11    1    3    3    0    0  0.84168358711E+01  0.56941582436E+02  0.14162478878E+03  0.15287500689E+03  0.00000000000E+00 0. -1.
<mgrwt>
<rscale>  0 0.14781208E+03</rscale>
<asrwt>0</asrwt>
<pdfrwt beam="1">  1        2 0.18084499E+00 0.15425135E+03</pdfrwt>
<pdfrwt beam="2">  1       -2 0.48801779E-02 0.15425135E+03</pdfrwt>
<totfact> 0.41380827E+03</totfact>
</mgrwt>
</event>
<event>
 8    1  0.7550631E-006  0.1749111E+03  0.7546771E-02  0.1178906E+00
         -1   -1    0    0    0  501 -0.00000000000E+00  0.00000000000E+00  0.25845278614E+02  0.25845278614E+02  0.00000000000E+00 0.  1.
          1   -1    0    0  501    0  0.00000000000E+00 -0.00000000000E+00 -0.10473929037E+04  0.10473929037E+04  0.00000000000E+00 0. -1.
         23    2    1    2    0    0  0.77290425773E+02 -0.94841567401E+02 -0.53112566129E+03  0.55255823133E+03  0.90870226730E+02 0.  0.
         23    2    1    2    0    0 -0.77290425773E+02  0.94841567401E+02 -0.49042196383E+03  0.52067995102E+03  0.12500070385E+03 0.  0.
          5    1    4    4  502    0 -0.84284732443E+02  0.25660447598E+02 -0.15738112142E+03  0.18042528114E+03  0.47000000000E+01 0.  1.
         -5    1    4    4    0  502  0.69943066705E+01  0.69181119804E+02 -0.33304084241E+03  0.34025466988E+03  0.47000000000E+01 0.  1.
        -11    1    3    3    0    0  0.72404174602E+02 -0.11197916626E+03 -0.44237323629E+03  0.46203439089E+03  0.00000000000E+00 0.  1.
         11    1    3    3    0    0  0.48862511708E+01  0.17137598860E+02 -0.88752424994E+02  0.90523840437E+02  0.00000000000E+00 0. -1.
<mgrwt>
<rscale>  0 0.16898969E+03</rscale>
<asrwt>0</asrwt>
<pdfrwt beam="2">  1        1 0.16113739E+00 0.17491115E+03</pdfrwt>
<pdfrwt beam="1">  1       -1 0.39761963E-02 0.17491115E+03</pdfrwt>
<totfact> 0.36191873E+03</totfact>
</mgrwt>
</event>
<event>
 8    1  0.7550631E-006  0.1332612E+03  0.7546771E-02  0.1235372E+00
         -1   -1    0    0    0  501 -0.00000000000E+00  0.00000000000E+00  0.90918462057E+02  0.90918462057E+02  0.00000000000E+00 0.  1.
          1   -1    0    0  501    0  0.00000000000E+00 -0.00000000000E+00 -0.19701104306E+03  0.19701104306E+03  0.00000000000E+00 0. -1.
         23    2    1    2    0    0  0.17274440406E+01 -0.46149436408E+02  0.20010080914E+02  0.10446170618E+03  0.91537370376E+02 0.  0.
         23    2    1    2    0    0 -0.17274440406E+01  0.46149436408E+02 -0.12610266192E+03  0.18346779895E+03  0.12500318941E+03 0.  0.
          5    1    4    4  502    0 -0.20154870787E+02 -0.84911689321E+01 -0.12354706709E+03  0.12555591007E+03  0.47000000000E+01 0. -1.
         -5    1    4    4    0  502  0.18427426746E+02  0.54640605340E+02 -0.25555948312E+01  0.57911888877E+02  0.47000000000E+01 0. -1.
        -11    1    3    3    0    0  0.17305643847E+02 -0.39634576820E+02 -0.29367652197E+02  0.52276610298E+02  0.00000000000E+00 0. -1.
         11    1    3    3    0    0 -0.15578199807E+02 -0.65148595880E+01  0.49377733111E+02  0.52185095878E+02  0.00000000000E+00 0.  1.
<mgrwt>
<rscale>  0 0.12480664E+03</rscale>
<asrwt>0</asrwt>
<pdfrwt beam="2">  1        1 0.30309391E-01 0.13326122E+03</pdfrwt>
<pdfrwt beam="1">  1       -1 0.13987456E-01 0.13326122E+03</pdfrwt>
<totfact> 0.51296107E+03</totfact>
</mgrwt>
</event>
<event>
 8    1  0.7550631E-006  0.1601373E+03  0.7546771E-02  0.1195909E+00
         -1   -1    0    0    0  501 -0.00000000000E+00  0.00000000000E+00  0.94999758092E+02  0.94999758092E+02  0.00000000000E+00 0.  1.
          1   -1    0    0  501    0  0.00000000000E+00 -0.00000000000E+00 -0.24187466742E+03  0.24187466742E+03  0.00000000000E+00 0. -1.
         23    2    1    2    0    0  0.60372950175E+02 -0.79866099583E+02 -0.32231112002E+02  0.13992990298E+03  0.92293261891E+02 0.  0.
         23    2    1    2    0    0 -0.60372950175E+02  0.79866099583E+02 -0.11464379732E+03  0.19694452253E+03  0.12498182954E+03 0.  0.
          5    1    4    4  502    0  0.34042426898E+02  0.45192380846E+00 -0.39727330346E+02  0.52530389687E+02  0.47000000000E+01 0. -1.
         -5    1    4    4    0  502 -0.94415377073E+02  0.79414175774E+02 -0.74916466978E+02  0.14441413285E+03  0.47000000000E+01 0. -1.
        -11    1    3    3    0    0 -0.15704029434E+02  0.98378679643E+01 -0.51264211955E+01  0.19227074162E+02  0.00000000000E+00 0.  1.
         11    1    3    3    0    0  0.76076979609E+02 -0.89703967547E+02 -0.27104690806E+02  0.12070282881E+03  0.00000000000E+00 0. -1.
<mgrwt>
<rscale>  0 0.15377563E+03</rscale>
<asrwt>0</asrwt>
<pdfrwt beam="2">  1        1 0.37211487E-01 0.16013727E+03</pdfrwt>
<pdfrwt beam="1">  1       -1 0.14615348E-01 0.16013727E+03</pdfrwt>
<totfact> 0.37489403E+03</totfact>
</mgrwt>
</event>
<event>
 8    1  0.7550631E-006  0.2761406E+03  0.7546771E-02  0.1099781E+00
          1   -1    0    0  501    0  0.00000000000E+00  0.00000000000E+00  0.10366880610E+04  0.10366880610E+04  0.00000000000E+00 0. -1.
         -1   -1    0    0    0  501 -0.00000000000E+00 -0.00000000000E+00 -0.72229177984E+02  0.72229177984E+02  0.00000000000E+00 0.  1.
         23    2    1    2    0    0  0.14147649225E+03 -0.20152651743E+03  0.37154326759E+03  0.45485106259E+03  0.90645211484E+02 0.  0.
         23    2    1    2    0    0 -0.14147649225E+03  0.20152651743E+03  0.59291561544E+03  0.65406617640E+03  0.12500040399E+03 0.  0.
          5    1    4    4  502    0 -0.88052801264E+02  0.27922657396E+02  0.23806384265E+03  0.25540057515E+03  0.47000000000E+01 0. -1.
         -5    1    4    4    0  502 -0.53423690989E+02  0.17360386003E+03  0.35485177278E+03  0.39866560125E+03  0.47000000000E+01 0. -1.
        -11    1    3    3    0    0  0.62519410428E+02 -0.30847942222E+02  0.65570680223E+02  0.95706772616E+02  0.00000000000E+00 0.  1.
         11    1    3    3    0    0  0.78957081825E+02 -0.17067857520E+03  0.30597258736E+03  0.35914428998E+03  0.00000000000E+00 0. -1.
<mgrwt>
<rscale>  0 0.27263514E+03</rscale>
<asrwt>0</asrwt>
<pdfrwt beam="1">  1        1 0.15949046E+00 0.27614061E+03</pdfrwt>
<pdfrwt beam="2">  1       -1 0.11112182E-01 0.27614061E+03</pdfrwt>
<totfact> 0.77773322E+02</totfact>
</mgrwt>
</event>
<event>
 8    1  0.7550631E-006  0.1746760E+03  0.7546771E-02  0.1179334E+00
         -2   -1    0    0    0  501 -0.00000000000E+00  0.00000000000E+00  0.17761865975E+03  0.17761865975E+03  0.00000000000E+00 0.  1.
          2   -1    0    0  501    0  0.00000000000E+00 -0.00000000000E+00 -0.16630312762E+03  0.16630312762E+03  0.00000000000E+00 0. -1.
         23    2    1    2    0    0 -0.66656640338E+02  0.10219436193E+03  0.59360492584E+02  0.16275877766E+03  0.89888577209E+02 0.  0.
         23    2    1    2    0    0  0.66656640338E+02 -0.10219436193E+03 -0.48044960448E+02  0.18116300971E+03  0.12499969021E+03 0.  0.
          5    1    4    4  502    0  0.60559240838E+02 -0.12426547727E+03 -0.12849034793E+02  0.13891190801E+03  0.47000000000E+01 0.  1.
         -5    1    4    4    0  502  0.60973995001E+01  0.22071115332E+02 -0.35195925655E+02  0.42251101706E+02  0.47000000000E+01 0.  1.
        -11    1    3    3    0    0 -0.32929231893E+02  0.11171172820E+03  0.44056583147E+02  0.12451838037E+03  0.00000000000E+00 0. -1.
         11    1    3    3    0    0 -0.33727408445E+02 -0.95173662648E+01  0.15303909437E+02  0.38240397293E+02  0.00000000000E+00 0.  1.
<mgrwt>
<rscale>  0 0.16858248E+03</rscale>
<asrwt>0</asrwt>
<pdfrwt beam="2">  1        2 0.25585097E-01 0.17467604E+03</pdfrwt>
<pdfrwt beam="1">  1       -2 0.27325948E-01 0.17467604E+03</pdfrwt>
<totfact> 0.24878851E+03</totfact>
</mgrwt>
</event>
<event>
 8    1  0.7550631E-006  0.1314948E+03  0.7546771E-02  0.1238250E+00
         -1   -1    0    0    0  501 -0.00000000000E+00  0.00000000000E+00  0.29245519594E+02  0.29245519594E+02  0.00000000000E+00 0.  1.
          1   -1    0    0  501    0  0.00000000000E+00 -0.00000000000E+00 -0.47693080421E+03  0.47693080421E+03  0.00000000000E+00 0. -1.
         23    2    1    2    0    0  0.39890187318E+02  0.85620830085E+01 -0.14862784399E+03  0.17948652201E+03  0.91981733318E+02 0.  0.
         23    2    1    2    0    0 -0.39890187318E+02 -0.85620830085E+01 -0.29905744062E+03  0.32668980179E+03  0.12500534986E+03 0.  0.
          5    1    4    4  502    0  0.26465895839E+02  0.67724494249E+01 -0.22207470634E+03  0.22379806726E+03  0.47000000000E+01 0.  1.
         -5    1    4    4    0  502 -0.66356083158E+02 -0.15334532433E+02 -0.76982734282E+02  0.10289173453E+03  0.47000000000E+01 0.  1.
        -11    1    3    3    0    0 -0.95322548449E+01 -0.16251044663E+02  0.20778938907E+01  0.18954629463E+02  0.00000000000E+00 0. -1.
         11    1    3    3    0    0  0.49422442163E+02  0.24813127671E+02 -0.15070573788E+03  0.16053189255E+03  0.00000000000E+00 0.  1.
<mgrwt>
<rscale>  0 0.12298628E+03</rscale>
<asrwt>0</asrwt>
<pdfrwt beam="2">  1        1 0.73373966E-01 0.13149477E+03</pdfrwt>
<pdfrwt beam="1">  1       -1 0.44993109E-02 0.13149477E+03</pdfrwt>
<totfact> 0.94283151E+03</totfact>
</mgrwt>
</event>
<event>
 8    1  0.7550631E-006  0.1374738E+03  0.7546771E-02  0.1228899E+00
         -1   -1    0    0    0  501 -0.00000000000E+00  0.00000000000E+00  0.11089054740E+03  0.11089054740E+03  0.00000000000E+00 0.  1.
          1   -1    0    0  501    0  0.00000000000E+00 -0.00000000000E+00 -0.13576920017E+03  0.13576920017E+03  0.00000000000E+00 0. -1.
         23    2    1    2    0    0 -0.34609194579E+02 -0.45558301153E+02  0.13736235811E+01  0.10670176482E+03  0.90055675121E+02 0.  0.
         23    2    1    2    0    0  0.34609194579E+02  0.45558301153E+02 -0.26252276349E+02  0.13995798274E+03  0.12500279903E+03 0.  0.
          5    1    4    4  502    0 -0.74322709633E+01  0.60249260267E+02  0.30146967961E+02  0.67942193751E+02  0.47000000000E+01 0. -1.
         -5    1    4    4    0  502  0.42041465543E+02 -0.14690959114E+02 -0.56399244311E+02  0.72015788988E+02  0.47000000000E+01 0. -1.
        -11    1    3    3    0    0 -0.21612978037E+02 -0.37968226507E+02  0.43691549966E+02  0.61787204033E+02  0.00000000000E+00 0.  1.
         11    1    3    3    0    0 -0.12996216542E+02 -0.75900746459E+01 -0.42317926385E+02  0.44914560791E+02  0.00000000000E+00 0. -1.
<mgrwt>
<rscale>  0 0.12903245E+03</rscale>
<asrwt>0</asrwt>
<pdfrwt beam="2">  1        1 0.20887569E-01 0.13747383E+03</pdfrwt>
<pdfrwt beam="1">  1       -1 0.17060084E-01 0.13747383E+03</pdfrwt>
<totfact> 0.60028791E+03</totfact>
</mgrwt>
</event>
<event>
 8    1  0.7550631E-006  0.1274805E+03  0.7546771E-02  0.1245702E+00
         -2   -1    0    0    0  501 -0.00000000000E+00  0.00000000000E+00  0.15530553936E+03  0.15530553936E+03  0.00000000000E+00 0.  1.
          2   -1    0    0  501    0  0.00000000000E+00 -0.00000000000E+00 -0.79949121699E+02  0.79949121699E+02  0.00000000000E+00 0. -1.
         23    2    1    2    0    0  0.25020487442E+02  0.71414364971E+00  0.39238670923E+02  0.10275648101E+03  0.91611605714E+02 0.  0.
         23    2    1    2    0    0 -0.25020487442E+02 -0.71414364971E+00  0.36117746741E+02  0.13249818005E+03  0.12499896517E+03 0.  0.
          5    1    4    4  502    0 -0.39962886968E+02 -0.44495506025E+02  0.55869459286E+02  0.81977855986E+02  0.47000000000E+01 0.  1.
         -5    1    4    4    0  502  0.14942399525E+02  0.43781362375E+02 -0.19751712545E+02  0.50520324063E+02  0.47000000000E+01 0.  1.
        -11    1    3    3    0    0 -0.28379175742E+02 -0.78332780788E+01  0.38762291574E+02  0.48674974159E+02  0.00000000000E+00 0.  1.
         11    1    3    3    0    0  0.53399663184E+02  0.85474217285E+01  0.47637934867E+00  0.54081506855E+02  0.00000000000E+00 0. -1.
<mgrwt>
<rscale>  0 0.11843469E+03</rscale>
<asrwt>0</asrwt>
<pdfrwt beam="2">  1        2 0.12299865E-01 0.12748049E+03</pdfrwt>
<pdfrwt beam="1">  1       -2 0.23893160E-01 0.12748049E+03</pdfrwt>
<totfact> 0.71810703E+03</totfact>
</mgrwt>
</event>
<event>
 8    1  0.7550631E-006  0.2173624E+03  0.7546771E-02  0.1139064E+00
          2   -1    0    0  501    0  0.00000000000E+00  0.00000000000E+00  0.85478926604E+03  0.85478926604E+03  0.00000000000E+00 0. -1.
         -2   -1    0    0    0  501 -0.00000000000E+00 -0.00000000000E+00 -0.63857334793E+02  0.63857334793E+02  0.00000000000E+00 0.  1.
         23    2    1    2    0    0  0.16939838474E+03  0.54091100029E+02  0.17902345390E+03  0.26927891011E+03  0.94021670550E+02 0.  0.
         23    2    1    2    0    0 -0.16939838474E+03 -0.54091100029E+02  0.61190847735E+03  0.64936769072E+03  0.12499901298E+03 0.  0.
          5    1    4    4  502    0 -0.17816192620E+03 -0.29960205572E+02  0.58323970131E+03  0.61059800609E+03  0.47000000000E+01 0.  1.
         -5    1    4    4    0  502  0.87635414632E+01 -0.24130894457E+02  0.28668776044E+02  0.38769684628E+02  0.47000000000E+01 0.  1.
        -11    1    3    3    0    0  0.78568450035E+02  0.72947612189E+02  0.11038196109E+03  0.15387830516E+03  0.00000000000E+00 0.  1.
         11    1    3    3    0    0  0.90829934701E+02 -0.18856512161E+02  0.68641492809E+02  0.11540060495E+03  0.00000000000E+00 0. -1.
<mgrwt>
<rscale>  0 0.21319101E+03</rscale>
<asrwt>0</asrwt>
<pdfrwt beam="1">  1        2 0.13150603E+00 0.21736240E+03</pdfrwt>
<pdfrwt beam="2">  1       -2 0.98242060E-02 0.21736240E+03</pdfrwt>
<totfact> 0.22126851E+03</totfact>
</mgrwt>
</event>
<event>
 8    1  0.7550631E-006  0.1480668E+03  0.7546771E-02  0.1212378E+00
          1   -1    0    0  501    0  0.00000000000E+00  0.00000000000E+00  0.19331630330E+03  0.19331630330E+03  0.00000000000E+00 0. -1.
         -1   -1    0    0    0  501 -0.00000000000E+00 -0.00000000000E+00 -0.94342205494E+02  0.94342205494E+02  0.00000000000E+00 0.  1.
         23    2    1    2    0    0 -0.50611347469E+02  0.61141495413E+02  0.30645819220E+02  0.12458632189E+03  0.91009858872E+02 0.  0.
         23    2    1    2    0    0  0.50611347469E+02 -0.61141495413E+02  0.68328278589E+02  0.16307218691E+03  0.12499597407E+03 0.  0.
          5    1    4    4  502    0  0.61452553271E+02 -0.14353222267E+02  0.90123260835E+02  0.11012140317E+03  0.47000000000E+01 0. -1.
         -5    1    4    4    0  502 -0.10841205802E+02 -0.46788273145E+02 -0.21794982246E+02  0.52950783736E+02  0.47000000000E+01 0. -1.
        -11    1    3    3    0    0 -0.27945379552E+02  0.31860152954E+02 -0.31115252480E+02  0.52575398443E+02  0.00000000000E+00 0.  1.
         11    1    3    3    0    0 -0.22665967916E+02  0.29281342459E+02  0.61761071700E+02  0.72010923444E+02  0.00000000000E+00 0. -1.
<mgrwt>
<rscale>  0 0.14070925E+03</rscale>
<asrwt>0</asrwt>
<pdfrwt beam="1">  1        1 0.29740970E-01 0.14806682E+03</pdfrwt>
<pdfrwt beam="2">  1       -1 0.14514185E-01 0.14806682E+03</pdfrwt>
<totfact> 0.49881871E+03</totfact>
</mgrwt>
</event>
<event>
 8    1  0.7550631E-006  0.1493205E+03  0.7546771E-02  0.1209594E+00
          1   -1    0    0  501    0  0.00000000000E+00  0.00000000000E+00  0.57273073357E+03  0.57273073357E+03  0.00000000000E+00 0. -1.
         -1   -1    0    0    0  501 -0.00000000000E+00 -0.00000000000E+00 -0.42007966369E+02  0.42007966369E+02  0.00000000000E+00 0.  1.
         23    2    1    2    0    0  0.51934708688E+02  0.63038079670E+02  0.10372593475E+03  0.16238606943E+03  0.94547091713E+02 0.  0.
         23    2    1    2    0    0 -0.51934708688E+02 -0.63038079670E+02  0.42699683245E+03  0.45235263050E+03  0.12500237577E+03 0.  0.
          5    1    4    4  502    0  0.10246375715E+02  0.27078495580E+02  0.17667799604E+03  0.17909616808E+03  0.47000000000E+01 0. -1.
         -5    1    4    4    0  502 -0.62181084403E+02 -0.90116575250E+02  0.25031883641E+03  0.27325646242E+03  0.47000000000E+01 0. -1.
        -11    1    3    3    0    0  0.59649256605E+02  0.41630801476E+02  0.11570515805E+03  0.13667055661E+03  0.00000000000E+00 0. -1.
         11    1    3    3    0    0 -0.77145479169E+01  0.21407278194E+02 -0.11979223294E+02  0.25715512827E+02  0.00000000000E+00 0.  1.
<mgrwt>
<rscale>  0 0.14281226E+03</rscale>
<asrwt>0</asrwt>
<pdfrwt beam="1">  1        1 0.88112415E-01 0.14932049E+03</pdfrwt>
<pdfrwt beam="2">  1       -1 0.64627645E-02 0.14932049E+03</pdfrwt>
<totfact> 0.43575631E+03</totfact>
</mgrwt>
</event>
<event>
 8    1  0.7550631E-006  0.1610530E+03  0.7546771E-02  0.1195217E+00
         -2   -1    0    0    0  501 -0.00000000000E+00  0.00000000000E+00  0.14025915694E+03  0.14025915694E+03  0.00000000000E+00 0.  1.
          2   -1    0    0  501    0  0.00000000000E+00 -0.00000000000E+00 -0.16588578358E+03  0.16588578358E+03  0.00000000000E+00 0. -1.
         23    2    1    2    0    0  0.10060536121E+03  0.13839780828E+02  0.23172519946E+02  0.13786116146E+03  0.90309223900E+02 0.  0.
         23    2    1    2    0    0 -0.10060536121E+03 -0.13839780828E+02 -0.48799146578E+02  0.16828377906E+03  0.12500038140E+03 0.  0.
          5    1    4    4  502    0  0.26131050383E+02  0.15050626827E+02 -0.43599785762E+01  0.30829410880E+02  0.47000000000E+01 0.  1.
         -5    1    4    4    0  502 -0.12673641159E+03 -0.28890407655E+02 -0.44439168002E+02  0.13745436818E+03  0.47000000000E+01 0.  1.
        -11    1    3    3    0    0  0.59813873910E+02 -0.35547464162E+02  0.24571725642E+02  0.73790862724E+02  0.00000000000E+00 0.  1.
         11    1    3    3    0    0  0.40791487301E+02  0.49387244990E+02 -0.13992056963E+01  0.64070298739E+02  0.00000000000E+00 0. -1.
<mgrwt>
<rscale>  0 0.15435876E+03</rscale>
<asrwt>0</asrwt>
<pdfrwt beam="2">  1        2 0.25520890E-01 0.16105301E+03</pdfrwt>
<pdfrwt beam="1">  1       -2 0.21578332E-01 0.16105301E+03</pdfrwt>
<totfact> 0.37548862E+03</totfact>
</mgrwt>
</event>
<event>
 8    1  0.7550631E-006  0.1568502E+03  0.7546771E-02  0.1201077E+00
          2   -1    0    0  501    0  0.00000000000E+00  0.00000000000E+00  0.15385809074E+04  0.15385809074E+04  0.00000000000E+00 0.  1.
         -2   -1    0    0    0  501 -0.00000000000E+00 -0.00000000000E+00 -0.16603871054E+02  0.16603871054E+02  0.00000000000E+00 0. -1.
         23    2    1    2    0    0 -0.48800021511E+02 -0.81210785026E+02  0.35820691076E+03  0.38089226996E+03  0.88261524429E+02 0.  0.
         23    2    1    2    0    0  0.48800021511E+02  0.81210785026E+02  0.11637701255E+04  0.11742925084E+04  0.12500142638E+03 0.  0.
          5    1    4    4  502    0  0.78342280493E+01  0.10326725071E+03  0.93926001560E+03  0.94496400308E+03  0.47000000000E+01 0. -1.
         -5    1    4    4    0  502  0.40965793462E+02 -0.22056465688E+02  0.22451010993E+03  0.22932850537E+03  0.47000000000E+01 0. -1.
        -11    1    3    3    0    0 -0.18123585796E+02 -0.91162517136E+02  0.30321795747E+03  0.31714381379E+03  0.00000000000E+00 0.  1.
         11    1    3    3    0    0 -0.30676435716E+02  0.99517321096E+01  0.54988953297E+02  0.63748456177E+02  0.00000000000E+00 0. -1.
<mgrwt>
<rscale>  0 0.14950988E+03</rscale>
<asrwt>0</asrwt>
<pdfrwt beam="1">  1        2 0.23670464E+00 0.15685022E+03</pdfrwt>
<pdfrwt beam="2">  1       -2 0.25544429E-02 0.15685022E+03</pdfrwt>
<totfact> 0.69035049E+03</totfact>
</mgrwt>
</event>
<event>
 8    1  0.7550631E-006  0.1627790E+03  0.7546771E-02  0.1193704E+00
         -1   -1    0    0    0  501 -0.00000000000E+00  0.00000000000E+00  0.21859462997E+03  0.21859462997E+03  0.00000000000E+00 0.  1.
          1   -1    0    0  501    0  0.00000000000E+00 -0.00000000000E+00 -0.13038497832E+03  0.13038497832E+03  0.00000000000E+00 0. -1.
         23    2    1    2    0    0 -0.41111116574E+02  0.95864255096E+02  0.12197990823E+03  0.18273453691E+03  0.87365517551E+02 0.  0.
         23    2    1    2    0    0  0.41111116574E+02 -0.95864255096E+02 -0.33770256577E+02  0.16624507138E+03  0.12496765268E+03 0.  0.
          5    1    4    4  502    0  0.71884478062E+02 -0.10502993995E+03 -0.13716326648E+02  0.12809720562E+03  0.47000000000E+01 0. -1.
         -5    1    4    4    0  502 -0.30773361488E+02  0.91656848517E+01 -0.20053929929E+02  0.38147865755E+02  0.47000000000E+01 0. -1.
        -11    1    3    3    0    0 -0.29622265803E+02 -0.18115793849E+01  0.58729760547E+02  0.65802319298E+02  0.00000000000E+00 0.  1.
         11    1    3    3    0    0 -0.11488850771E+02  0.97675834481E+02  0.63250147680E+02  0.11693221761E+03  0.00000000000E+00 0. -1.
<mgrwt>
<rscale>  0 0.15564414E+03</rscale>
<asrwt>0</asrwt>
<pdfrwt beam="2">  1        1 0.20059227E-01 0.16277897E+03</pdfrwt>
<pdfrwt beam="1">  1       -1 0.33629943E-01 0.16277897E+03</pdfrwt>
<totfact> 0.20915728E+03</totfact>
</mgrwt>
</event>
<event>
 8    1  0.7550631E-006  0.1386228E+03  0.7546771E-02  0.1225648E+00
          2   -1    0    0  501    0  0.00000000000E+00  0.00000000000E+00  0.20896035759E+03  0.20896035759E+03  0.00000000000E+00 0.  1.
         -2   -1    0    0    0  501 -0.00000000000E+00 -0.00000000000E+00 -0.88498371839E+02  0.88498371839E+02  0.00000000000E+00 0. -1.
         23    2    1    2    0    0  0.45828923378E+02 -0.38570335547E+02 -0.36703448984E+01  0.11138044650E+03  0.93830546347E+02 0.  0.
         23    2    1    2    0    0 -0.45828923378E+02  0.38570335547E+02  0.12413233065E+03  0.18607828293E+03  0.12501332275E+03 0.  0.
          5    1    4    4  502    0 -0.68370065941E+02  0.56500518025E+02  0.40721199512E+02  0.97709163048E+02  0.47000000000E+01 0. -1.
         -5    1    4    4    0  502  0.22541142562E+02 -0.17930182478E+02  0.83411131136E+02  0.88369119884E+02  0.47000000000E+01 0. -1.
        -11    1    3    3    0    0  0.60246392325E+02 -0.12581335377E+01 -0.25931768749E+02  0.65602342325E+02  0.00000000000E+00 0. -1.
         11    1    3    3    0    0 -0.14417468946E+02 -0.37312202009E+02  0.22261423851E+02  0.45778104170E+02  0.00000000000E+00 0.  1.
<mgrwt>
<rscale>  0 0.13122584E+03</rscale>
<asrwt>0</asrwt>
<pdfrwt beam="1">  1        2 0.32147747E-01 0.13862284E+03</pdfrwt>
<pdfrwt beam="2">  1       -2 0.13615134E-01 0.13862284E+03</pdfrwt>
<totfact> 0.62258296E+03</totfact>
</mgrwt>
</event>
<event>
 8    1  0.7550631E-006  0.1280161E+03  0.7546771E-02  0.1254628E+00
          1   -1    0    0  501    0  0.00000000000E+00  0.00000000000E+00  0.46814051086E+03  0.46814051086E+03  0.00000000000E+00 0. -1.
         -1   -1    0    0    0  501 -0.00000000000E+00 -0.00000000000E+00 -0.23033509492E+02  0.23033509492E+02  0.00000000000E+00 0.  1.
         23    2    1    2    0    0  0.24004809958E+02 -0.13654653807E+02  0.14419257480E+03  0.16416085135E+03  0.73447981698E+02 0.  0.
         23    2    1    2    0    0 -0.24004809958E+02  0.13654653807E+02  0.30091442656E+03  0.32701316900E+03  0.12500176045E+03 0.  0.
          5    1    4    4  502    0  0.41693961485E+02 -0.19634576952E+02  0.17535293520E+03  0.18136880911E+03  0.47000000000E+01 0.  1.
         -5    1    4    4    0  502 -0.65698771443E+02  0.33289230759E+02  0.12556149137E+03  0.14564435989E+03  0.47000000000E+01 0.  1.
        -11    1    3    3    0    0 -0.13551448369E+02  0.20741381819E+02  0.69279643096E+02  0.73576596959E+02  0.00000000000E+00 0. -1.
         11    1    3    3    0    0  0.37556258327E+02 -0.34396035626E+02  0.74912931706E+02  0.90584254388E+02  0.00000000000E+00 0.  1.
<mgrwt>
<rscale>  0 0.11327188E+03</rscale>
<asrwt>0</asrwt>
<pdfrwt beam="1">  1        1 0.72021610E-01 0.12801610E+03</pdfrwt>
<pdfrwt beam="2">  1       -1 0.35436172E-02 0.12801610E+03</pdfrwt>
<totfact> 0.13678145E+04</totfact>
</mgrwt>
</event>
<event>
 8    1  0.7550631E-006  0.3098775E+03  0.7546771E-02  0.1081758E+00
          2   -1    0    0  501    0  0.00000000000E+00  0.00000000000E+00  0.65118669155E+03  0.65118669155E+03  0.00000000000E+00 0.  1.
         -2   -1    0    0    0  501 -0.00000000000E+00 -0.00000000000E+00 -0.16935042234E+03  0.16935042234E+03  0.00000000000E+00 0. -1.
         23    2    1    2    0    0  0.27129556788E+03 -0.82459134450E+02  0.73109731092E+02  0.30762245791E+03  0.94264255292E+02 0.  0.
         23    2    1    2    0    0 -0.27129556788E+03  0.82459134450E+02  0.40872653812E+03  0.51291465597E+03  0.12499306917E+03 0.  0.
          5    1    4    4  502    0 -0.10237887244E+03 -0.26018453241E+02  0.10662481417E+03  0.15016435804E+03  0.47000000000E+01 0.  1.
         -5    1    4    4    0  502 -0.16891669545E+03  0.10847758769E+03  0.30210172395E+03  0.36275029793E+03  0.47000000000E+01 0.  1.
        -11    1    3    3    0    0  0.11105950569E+03 -0.81482302696E+02  0.45199161006E+02  0.14497083711E+03  0.00000000000E+00 0. -1.
         11    1    3    3    0    0  0.16023606220E+03 -0.97683175363E+00  0.27910570086E+02  0.16265162081E+03  0.00000000000E+00 0.  1.
<mgrwt>
<rscale>  0 0.30707240E+03</rscale>
<asrwt>0</asrwt>
<pdfrwt beam="1">  1        2 0.10018257E+00 0.30987749E+03</pdfrwt>
<pdfrwt beam="2">  1       -2 0.26053911E-01 0.30987749E+03</pdfrwt>
<totfact> 0.60644858E+02</totfact>
</mgrwt>
</event>
<event>
 8    1  0.7550631E-006  0.1333748E+03  0.7546771E-02  0.1236812E+00
          2   -1    0    0  501    0  0.00000000000E+00  0.00000000000E+00  0.10594323624E+04  0.10594323624E+04  0.00000000000E+00 0. -1.
         -2   -1    0    0    0  501 -0.00000000000E+00 -0.00000000000E+00 -0.12780447600E+02  0.12780447600E+02  0.00000000000E+00 0.  1.
         23    2    1    2    0    0 -0.36590501249E+02  0.28718952188E+02  0.43566907802E+03  0.44684182776E+03  0.87729302361E+02 0.  0.
         23    2    1    2    0    0  0.36590501249E+02 -0.28718952188E+02  0.61098283677E+03  0.62537098224E+03  0.12500078239E+03 0.  0.
          5    1    4    4  502    0  0.15083570866E+01  0.24648387584E+02  0.23510907203E+02  0.34419048637E+02  0.47000000000E+01 0.  1.
         -5    1    4    4    0  502  0.35082144163E+02 -0.53367339771E+02  0.58747192957E+03  0.59095193360E+03  0.47000000000E+01 0.  1.
        -11    1    3    3    0    0  0.27478111492E+02  0.88538268286E+01  0.83723180607E+02  0.88560757853E+02  0.00000000000E+00 0. -1.
         11    1    3    3    0    0 -0.64068612741E+02  0.19865125359E+02  0.35194589742E+03  0.35828106991E+03  0.00000000000E+00 0.  1.
<mgrwt>
<rscale>  0 0.12389117E+03</rscale>
<asrwt>0</asrwt>
<pdfrwt beam="1">  1        2 0.16298953E+00 0.13337480E+03</pdfrwt>
<pdfrwt beam="2">  1       -2 0.19662235E-02 0.13337480E+03</pdfrwt>
<totfact> 0.18291510E+04</totfact>
</mgrwt>
</event>
<event>
 8    1  0.7550631E-006  0.1502407E+03  0.7546771E-02  0.1209265E+00
          2   -1    0    0  501    0  0.00000000000E+00  0.00000000000E+00  0.15178357479E+04  0.15178357479E+04  0.00000000000E+00 0. -1.
         -2   -1    0    0    0  501 -0.00000000000E+00 -0.00000000000E+00 -0.13606484722E+02  0.13606484722E+02  0.00000000000E+00 0.  1.
         23    2    1    2    0    0  0.49404789158E+02 -0.67105105874E+02  0.45334303799E+03  0.46987069553E+03  0.91184603943E+02 0.  0.
         23    2    1    2    0    0 -0.49404789158E+02  0.67105105874E+02  0.10508862251E+04  0.10615715371E+04  0.12501336589E+03 0.  0.
          5    1    4    4  502    0 -0.39347388346E+02  0.83777588690E+02  0.40882271889E+03  0.41919566651E+03  0.47000000000E+01 0. -1.
         -5    1    4    4    0  502 -0.10057400812E+02 -0.16672482816E+02  0.64206350625E+03  0.64237587054E+03  0.47000000000E+01 0. -1.
        -11    1    3    3    0    0  0.13265519659E+02  0.22837268582E+02  0.86940550142E+02  0.90863491607E+02  0.00000000000E+00 0.  1.
         11    1    3    3    0    0  0.36139269499E+02 -0.89942374456E+02  0.36640248784E+03  0.37900720392E+03  0.00000000000E+00 0. -1.
<mgrwt>
<rscale>  0 0.14306385E+03</rscale>
<asrwt>0</asrwt>
<pdfrwt beam="1">  1        2 0.23351306E+00 0.15024071E+03</pdfrwt>
<pdfrwt beam="2">  1       -2 0.20933065E-02 0.15024071E+03</pdfrwt>
<totfact> 0.94557133E+03</totfact>
</mgrwt>
</event>
<event>
 8    1  0.7550631E-006  0.1435918E+03  0.7546771E-02  0.1218620E+00
          3   -1    0    0  501    0  0.00000000000E+00  0.00000000000E+00  0.10498638904E+04  0.10498638904E+04  0.00000000000E+00 0. -1.
         -3   -1    0    0    0  501 -0.00000000000E+00 -0.00000000000E+00 -0.55726328034E+02  0.55726328034E+02  0.00000000000E+00 0.  1.
         23    2    1    2    0    0 -0.42556290145E+02  0.56416670889E+02  0.16178220177E+02  0.11714543524E+03  0.92018691608E+02 0.  0.
         23    2    1    2    0    0  0.42556290145E+02 -0.56416670889E+02  0.97795934216E+03  0.98844478316E+03  0.12499894342E+03 0.  0.
          5    1    4    4  502    0 -0.17851133474E+02  0.29804984364E+02  0.16497704674E+03  0.16866094987E+03  0.47000000000E+01 0. -1.
         -5    1    4    4    0  502  0.60407423619E+02 -0.86221655253E+02  0.81298229542E+03  0.81978383329E+03  0.47000000000E+01 0. -1.
        -11    1    3    3    0    0 -0.49839389403E+02  0.44073992382E+02 -0.26886216656E+02  0.71758972865E+02  0.00000000000E+00 0.  1.
         11    1    3    3    0    0  0.72830992571E+01  0.12342678507E+02  0.43064436834E+02  0.45386462379E+02  0.00000000000E+00 0. -1.
<mgrwt>
<rscale>  0 0.13613922E+03</rscale>
<asrwt>0</asrwt>
<pdfrwt beam="1">  1        3 0.16151751E+00 0.14359183E+03</pdfrwt>
<pdfrwt beam="2">  1       -3 0.85732820E-02 0.14359183E+03</pdfrwt>
<totfact> 0.64473151E+01</totfact>
</mgrwt>
</event>
<event>
 8    1  0.7550631E-006  0.1358947E+03  0.7546771E-02  0.1231038E+00
         -1   -1    0    0    0  501 -0.00000000000E+00  0.00000000000E+00  0.19254287869E+02  0.19254287869E+02  0.00000000000E+00 0.  1.
          1   -1    0    0  501    0  0.00000000000E+00 -0.00000000000E+00 -0.75787337393E+03  0.75787337393E+03  0.00000000000E+00 0. -1.
         23    2    1    2    0    0  0.48070438479E+02 -0.23032910548E+02 -0.32827376432E+03  0.34486540802E+03  0.91253511061E+02 0.  0.
         23    2    1    2    0    0 -0.48070438479E+02  0.23032910548E+02 -0.41034532173E+03  0.43226225378E+03  0.12500436372E+03 0.  0.
          5    1    4    4  502    0 -0.34036223024E+02 -0.49219070670E+02 -0.14696589199E+03  0.15875151906E+03  0.47000000000E+01 0. -1.
         -5    1    4    4    0  502 -0.14034215455E+02  0.72251981218E+02 -0.26337942975E+03  0.27351073472E+03  0.47000000000E+01 0. -1.
        -11    1    3    3    0    0  0.39144774146E+02  0.27457046478E+02 -0.21902353911E+03  0.22418187578E+03  0.00000000000E+00 0.  1.
         11    1    3    3    0    0  0.89256643327E+01 -0.50489957026E+02 -0.10925022521E+03  0.12068353224E+03  0.00000000000E+00 0. -1.
<mgrwt>
<rscale>  0 0.12761485E+03</rscale>
<asrwt>0</asrwt>
<pdfrwt beam="2">  1        1 0.11659589E+00 0.13589471E+03</pdfrwt>
<pdfrwt beam="1">  1       -1 0.29621986E-02 0.13589471E+03</pdfrwt>
<totfact> 0.92450519E+03</totfact>
</mgrwt>
</event>
<event>
 7    1  0.7550631E-006  0.1636152E+03  0.7546771E-02  0.1187654E+00
         -1   -1    0    0    0  501 -0.00000000000E+00  0.00000000000E+00  0.34215076308E+02  0.34215076308E+02  0.00000000000E+00 0.  1.
          1   -1    0    0  501    0  0.00000000000E+00 -0.00000000000E+00 -0.88428470615E+03  0.88428470615E+03  0.00000000000E+00 0. -1.
         23    2    1    2    0    0  0.62402792612E+02  0.62670563460E+02 -0.60320812606E+03  0.62234013500E+03  0.12500196890E+03 0.  0.
          5    1    3    3  502    0  0.56193101284E+02  0.55439898074E+02 -0.15500615984E+03  0.17401220221E+03  0.47000000000E+01 0. -1.
         -5    1    3    3    0  502  0.62096913284E+01  0.72306653852E+01 -0.44820196622E+03  0.44832793278E+03  0.47000000000E+01 0. -1.
        -11    1    1    2    0    0 -0.59061811729E+02  0.31679892032E+02 -0.79272022148E+02  0.10380735359E+03  0.00000000000E+00 0.  1.
         11    1    1    2    0    0 -0.33409808830E+01 -0.94350455491E+02 -0.16758948163E+03  0.19235229387E+03  0.00000000000E+00 0. -1.
<mgrwt>
<rscale>  0 0.16092707E+03</rscale>
<asrwt>0</asrwt>
<pdfrwt beam="2">  1        1 0.13604380E+00 0.16361520E+03</pdfrwt>
<pdfrwt beam="1">  1       -1 0.52638578E-02 0.16361520E+03</pdfrwt>
<totfact> 0.31592661E+03</totfact>
</mgrwt>
</event>
<event>
 8    1  0.7550631E-006  0.1380311E+03  0.7546771E-02  0.1227616E+00
         -2   -1    0    0    0  501 -0.00000000000E+00  0.00000000000E+00  0.47882438271E+02  0.47882438271E+02  0.00000000000E+00 0.  1.
          2   -1    0    0  501    0  0.00000000000E+00 -0.00000000000E+00 -0.31703866723E+03  0.31703866723E+03  0.00000000000E+00 0. -1.
         23    2    1    2    0    0 -0.52287937518E+02 -0.26340775324E+02 -0.11212347415E+03  0.15584727338E+03  0.91043035481E+02 0.  0.
         23    2    1    2    0    0  0.52287937518E+02  0.26340775324E+02 -0.15703275481E+03  0.20907383212E+03  0.12499886536E+03 0.  0.
          5    1    4    4  502    0  0.38256645824E+02  0.75743134043E+02 -0.11210332940E+03  0.14067636535E+03  0.47000000000E+01 0. -1.
         -5    1    4    4    0  502  0.14031291694E+02 -0.49402358720E+02 -0.44929425406E+02  0.68397466773E+02  0.47000000000E+01 0. -1.
        -11    1    3    3    0    0  0.20259985923E+02 -0.46439987104E+01 -0.28781690902E+00  0.20787414274E+02  0.00000000000E+00 0.  1.
         11    1    3    3    0    0 -0.72547923441E+02 -0.21696776613E+02 -0.11183565724E+03  0.13505985910E+03  0.00000000000E+00 0. -1.
<mgrwt>
<rscale>  0 0.12989228E+03</rscale>
<asrwt>0</asrwt>
<pdfrwt beam="2">  1        2 0.48775178E-01 0.13803109E+03</pdfrwt>
<pdfrwt beam="1">  1       -2 0.73665291E-02 0.13803109E+03</pdfrwt>
<totfact> 0.10492823E+04</totfact>
</mgrwt>
</event>
<event>
 8    1  0.7550631E-006  0.1399783E+03  0.7546771E-02  0.1224141E+00
         -4   -1    0    0    0  501 -0.00000000000E+00  0.00000000000E+00  0.23711904950E+03  0.23711904950E+03  0.00000000000E+00 0.  1.
          4   -1    0    0  501    0  0.00000000000E+00 -0.00000000000E+00 -0.94662286373E+02  0.94662286373E+02  0.00000000000E+00 0. -1.
         23    2    1    2    0    0  0.47077312737E+02 -0.41868826651E+02  0.15529548703E+03  0.19121552393E+03  0.92072885702E+02 0.  0.
         23    2    1    2    0    0 -0.47077312737E+02  0.41868826651E+02 -0.12838723901E+02  0.14056581194E+03  0.12499857053E+03 0.  0.
          5    1    4    4  502    0 -0.88301740643E+02  0.15381350401E+02 -0.16285406601E+02  0.91219996760E+02  0.47000000000E+01 0.  1.
         -5    1    4    4    0  502  0.41224427905E+02  0.26487476249E+02  0.34466827006E+01  0.49345815180E+02  0.47000000000E+01 0.  1.
        -11    1    3    3    0    0  0.68601968859E+02 -0.88322453195E+01  0.11890331697E+03  0.13755812399E+03  0.00000000000E+00 0.  1.
         11    1    3    3    0    0 -0.21524656122E+02 -0.33036581331E+02  0.36392170059E+02  0.53657399945E+02  0.00000000000E+00 0. -1.
<mgrwt>
<rscale>  0 0.13225959E+03</rscale>
<asrwt>0</asrwt>
<pdfrwt beam="2">  1        4 0.14563429E-01 0.13997826E+03</pdfrwt>
<pdfrwt beam="1">  1       -4 0.36479854E-01 0.13997826E+03</pdfrwt>
<totfact> 0.48316145E+02</totfact>
</mgrwt>
</event>
<event>
 8    1  0.7550631E-006  0.1467026E+03  0.7546771E-02  0.1213152E+00
         -2   -1    0    0    0  501 -0.00000000000E+00  0.00000000000E+00  0.69653147067E+02  0.69653147067E+02  0.00000000000E+00 0.  1.
          2   -1    0    0  501    0  0.00000000000E+00 -0.00000000000E+00 -0.50728425741E+03  0.50728425741E+03  0.00000000000E+00 0. -1.
         23    2    1    2    0    0 -0.36832073492E+02 -0.67379455176E+02 -0.73698823632E+01  0.12235367516E+03  0.94971122142E+02 0.  0.
         23    2    1    2    0    0  0.36832073492E+02  0.67379455176E+02 -0.43026122798E+03  0.45458372932E+03  0.12500020017E+03 0.  0.
          5    1    4    4  502    0  0.45908443215E+02  0.14416379767E+02 -0.37222354871E+03  0.37535033952E+03  0.47000000000E+01 0. -1.
         -5    1    4    4    0  502 -0.90763697231E+01  0.52963075409E+02 -0.58037679268E+02  0.79233389798E+02  0.47000000000E+01 0. -1.
        -11    1    3    3    0    0 -0.36838594915E+02  0.46688669475E+01  0.23527929944E+02  0.43959570987E+02  0.00000000000E+00 0. -1.
         11    1    3    3    0    0  0.65214233385E-02 -0.72048322124E+02 -0.30897812307E+02  0.78394104171E+02  0.00000000000E+00 0.  1.
<mgrwt>
<rscale>  0 0.14013132E+03</rscale>
<asrwt>0</asrwt>
<pdfrwt beam="2">  1        2 0.78043728E-01 0.14670257E+03</pdfrwt>
<pdfrwt beam="1">  1       -2 0.10715869E-01 0.14670257E+03</pdfrwt>
<totfact> 0.35421945E+03</totfact>
</mgrwt>
</event>
<event>
 8    1  0.7550631E-006  0.1367129E+03  0.7546771E-02  0.1230426E+00
         -1   -1    0    0    0  501 -0.00000000000E+00  0.00000000000E+00  0.21184663073E+02  0.21184663073E+02  0.00000000000E+00 0.  1.
          1   -1    0    0  501    0  0.00000000000E+00 -0.00000000000E+00 -0.10690200461E+04  0.10690200461E+04  0.00000000000E+00 0. -1.
         23    2    1    2    0    0 -0.50298319550E+02  0.23212433381E+02 -0.15699458631E+03  0.18893463821E+03  0.89332297478E+02 0.  0.
         23    2    1    2    0    0  0.50298319550E+02 -0.23212433381E+02 -0.89084079674E+03  0.90127007098E+03  0.12498671009E+03 0.  0.
          5    1    4    4  502    0  0.20640689507E+02  0.11645246468E+02 -0.27106005002E+02  0.36310815687E+02  0.47000000000E+01 0.  1.
         -5    1    4    4    0  502  0.29657630043E+02 -0.34857679848E+02 -0.86373479174E+03  0.86495925529E+03  0.47000000000E+01 0.  1.
        -11    1    3    3    0    0 -0.50139036095E+02  0.41765257183E+02 -0.15738510018E+03  0.17037702135E+03  0.00000000000E+00 0. -1.
         11    1    3    3    0    0 -0.15928345447E+00 -0.18552823802E+02  0.39051387004E+00  0.18557616855E+02  0.00000000000E+00 0.  1.
<mgrwt>
<rscale>  0 0.12801842E+03</rscale>
<asrwt>0</asrwt>
<pdfrwt beam="2">  1        1 0.16446463E+00 0.13671290E+03</pdfrwt>
<pdfrwt beam="1">  1       -1 0.32591788E-02 0.13671290E+03</pdfrwt>
<totfact> 0.46407629E+03</totfact>
</mgrwt>
</event>
<event>
 8    1  0.7550631E-006  0.1558839E+03  0.7546771E-02  0.1199371E+00
          3   -1    0    0  501    0  0.00000000000E+00  0.00000000000E+00  0.47399409415E+02  0.47399409415E+02  0.00000000000E+00 0. -1.
         -3   -1    0    0    0  501 -0.00000000000E+00 -0.00000000000E+00 -0.45718187801E+03  0.45718187801E+03  0.00000000000E+00 0.  1.
         23    2    1    2    0    0 -0.24772727931E+02  0.89777555267E+02 -0.21832258254E+03  0.25768721864E+03  0.10032076117E+03 0.  0.
         23    2    1    2    0    0  0.24772727931E+02 -0.89777555267E+02 -0.19145988605E+03  0.24689406879E+03  0.12500438295E+03 0.  0.
          5    1    4    4  502    0 -0.39421142416E+02 -0.73394840116E+02 -0.72005023786E+02  0.11021634396E+03  0.47000000000E+01 0. -1.
         -5    1    4    4    0  502  0.64193870347E+02 -0.16382715151E+02 -0.11945486227E+03  0.13667772483E+03  0.47000000000E+01 0. -1.
        -11    1    3    3    0    0  0.11393262097E+02  0.91146570091E+02 -0.10907263329E+03  0.14259853784E+03  0.00000000000E+00 0. -1.
         11    1    3    3    0    0 -0.36165990029E+02 -0.13690148242E+01 -0.10924994925E+03  0.11508868080E+03  0.00000000000E+00 0.  1.
<mgrwt>
<rscale>  0 0.15090069E+03</rscale>
<asrwt>0</asrwt>
<pdfrwt beam="1">  1        3 0.72922168E-02 0.15588391E+03</pdfrwt>
<pdfrwt beam="2">  1       -3 0.70335674E-01 0.15588391E+03</pdfrwt>
<totfact> 0.57772519E+02</totfact>
</mgrwt>
</event>
<event>
 8    1  0.7550631E-006  0.1150064E+03  0.7546771E-02  0.1261611E+00
         -1   -1    0    0    0  501 -0.00000000000E+00  0.00000000000E+00  0.22532238191E+02  0.22532238191E+02  0.00000000000E+00 0.  1.
          1   -1    0    0  501    0  0.00000000000E+00 -0.00000000000E+00 -0.70376218559E+03  0.70376218559E+03  0.00000000000E+00 0. -1.
         23    2    1    2    0    0  0.51983747600E-01  0.22355751457E+02 -0.11606828937E+03  0.14954995673E+03  0.91616370997E+02 0.  0.
         23    2    1    2    0    0 -0.51983747600E-01 -0.22355751457E+02 -0.56516165803E+03  0.57674446705E+03  0.11281266881E+03 0.  0.
          5    1    4    4  502    0  0.40053998804E+02 -0.18385736567E+02 -0.48380599532E+03  0.48583195576E+03  0.47000000000E+01 0. -1.
         -5    1    4    4    0  502 -0.40105982552E+02 -0.39700148907E+01 -0.81355662706E+02  0.90912511290E+02  0.47000000000E+01 0.  1.
        -11    1    3    3    0    0  0.30933887738E+02  0.24930820742E+02 -0.12813108955E+02  0.41744784040E+02  0.00000000000E+00 0.  1.
         11    1    3    3    0    0 -0.30881903990E+02 -0.25750692847E+01 -0.10325518041E+03  0.10780517269E+03  0.00000000000E+00 0. -1.
<mgrwt>
<rscale>  0 0.10943966E+03</rscale>
<asrwt>0</asrwt>
<pdfrwt beam="2">  1        1 0.10827110E+00 0.11500644E+03</pdfrwt>
<pdfrwt beam="1">  1       -1 0.34664982E-02 0.11500644E+03</pdfrwt>
<totfact> 0.81011365E+03</totfact>
</mgrwt>
</event>
<event>
 8    1  0.7550631E-006  0.1266706E+03  0.7546771E-02  0.1239938E+00
         -1   -1    0    0    0  501 -0.00000000000E+00  0.00000000000E+00  0.92934984648E+02  0.92934984648E+02  0.00000000000E+00 0.  1.
          1   -1    0    0  501    0  0.00000000000E+00 -0.00000000000E+00 -0.32595382295E+03  0.32595382295E+03  0.00000000000E+00 0. -1.
         23    2    1    2    0    0  0.35991347269E+02  0.39007289445E+02  0.41610781504E+02  0.11645391760E+03  0.94937411375E+02 0.  0.
         23    2    1    2    0    0 -0.35991347269E+02 -0.39007289445E+02 -0.27462961980E+03  0.30243489000E+03  0.11501516816E+03 0.  0.
          5    1    4    4  502    0 -0.24801160272E+02 -0.57197805380E+02 -0.27348155294E+03  0.28053687154E+03  0.47000000000E+01 0. -1.
         -5    1    4    4    0  502 -0.11190186997E+02  0.18190515935E+02 -0.11480668600E+01  0.21898018461E+02  0.47000000000E+01 0.  1.
        -11    1    3    3    0    0 -0.30528870730E+02  0.19464138144E+02  0.12443952577E+01  0.36227243082E+02  0.00000000000E+00 0.  1.
         11    1    3    3    0    0  0.66520218000E+02  0.19543151300E+02  0.40366386246E+02  0.80226674517E+02  0.00000000000E+00 0. -1.
<mgrwt>
<rscale>  0 0.12193550E+03</rscale>
<asrwt>0</asrwt>
<pdfrwt beam="2">  1        1 0.50146741E-01 0.12667058E+03</pdfrwt>
<pdfrwt beam="1">  1       -1 0.14297690E-01 0.12667058E+03</pdfrwt>
<totfact> 0.26527341E+03</totfact>
</mgrwt>
</event>
<event>
 8    1  0.7550631E-006  0.1473091E+03  0.7546771E-02  0.1213208E+00
          2   -1    0    0  501    0  0.00000000000E+00  0.00000000000E+00  0.12170900743E+04  0.12170900743E+04  0.00000000000E+00 0. -1.
         -2   -1    0    0    0  501 -0.00000000000E+00 -0.00000000000E+00 -0.15445905587E+02  0.15445905587E+02  0.00000000000E+00 0.  1.
         23    2    1    2    0    0  0.12813751737E+02 -0.76862555955E+02  0.41144597219E+03  0.42872432774E+03  0.91895138185E+02 0.  0.
         23    2    1    2    0    0 -0.12813751737E+02  0.76862555955E+02  0.79019819647E+03  0.80381165210E+03  0.12501174985E+03 0.  0.
          5    1    4    4  502    0 -0.26861007914E+02 -0.28753355267E+02  0.17431262114E+03  0.17876031180E+03  0.47000000000E+01 0. -1.
         -5    1    4    4    0  502  0.14047256178E+02  0.10561591122E+03  0.61588557533E+03  0.62505134030E+03  0.47000000000E+01 0. -1.
        -11    1    3    3    0    0  0.45529926491E+02 -0.21089089880E+02  0.11776112729E+03  0.12800549605E+03  0.00000000000E+00 0.  1.
         11    1    3    3    0    0 -0.32716174754E+02 -0.55773466074E+02  0.29368484491E+03  0.30071883170E+03  0.00000000000E+00 0. -1.
<mgrwt>
<rscale>  0 0.14008963E+03</rscale>
<asrwt>0</asrwt>
<pdfrwt beam="1">  1        2 0.18724455E+00 0.14730914E+03</pdfrwt>
<pdfrwt beam="2">  1       -2 0.23762941E-02 0.14730914E+03</pdfrwt>
<totfact> 0.11371831E+04</totfact>
</mgrwt>
</event>
<event>
 8    1  0.7550631E-006  0.1145104E+03  0.7546771E-02  0.1261983E+00
          1   -1    0    0  501    0  0.00000000000E+00  0.00000000000E+00  0.22066519736E+03  0.22066519736E+03  0.00000000000E+00 0. -1.
         -1   -1    0    0    0  501 -0.00000000000E+00 -0.00000000000E+00 -0.63265269732E+02  0.63265269732E+02  0.00000000000E+00 0.  1.
         23    2    1    2    0    0 -0.19646876257E+02 -0.11930963192E+02  0.72789999344E+01  0.95121267121E+02  0.92014803099E+02 0.  0.
         23    2    1    2    0    0  0.19646876257E+02  0.11930963192E+02  0.15012092769E+03  0.18880919997E+03  0.11217964803E+03 0.  0.
          5    1    4    4  502    0  0.24355487378E+02  0.15616552076E+02  0.16739134138E+03  0.16993827595E+03  0.47000000000E+01 0. -1.
         -5    1    4    4    0  502 -0.47086111209E+01 -0.36855888838E+01 -0.17270413692E+02  0.18870924016E+02  0.47000000000E+01 0.  1.
        -11    1    3    3    0    0 -0.32091420931E+02 -0.44504187443E+02 -0.10681705994E+02  0.55897950233E+02  0.00000000000E+00 0.  1.
         11    1    3    3    0    0  0.12444544674E+02  0.32573224251E+02  0.17960705928E+02  0.39223316888E+02  0.00000000000E+00 0. -1.
<mgrwt>
<rscale>  0 0.10924062E+03</rscale>
<asrwt>0</asrwt>
<pdfrwt beam="1">  1        1 0.33948492E-01 0.11451035E+03</pdfrwt>
<pdfrwt beam="2">  1       -1 0.97331185E-02 0.11451035E+03</pdfrwt>
<totfact> 0.77029327E+03</totfact>
</mgrwt>
</event>
<event>
 8    1  0.7550631E-006  0.1410633E+03  0.7546771E-02  0.1223509E+00
         -1   -1    0    0    0  501 -0.00000000000E+00  0.00000000000E+00  0.11351223895E+03  0.11351223895E+03  0.00000000000E+00 0.  1.
          1   -1    0    0  501    0  0.00000000000E+00 -0.00000000000E+00 -0.19838802756E+03  0.19838802756E+03  0.00000000000E+00 0. -1.
         23    2    1    2    0    0  0.43193366801E+02  0.49080056886E+02  0.45833183906E+02  0.11958884117E+03  0.89029721244E+02 0.  0.
         23    2    1    2    0    0 -0.43193366801E+02 -0.49080056886E+02 -0.13070897252E+03  0.19231142535E+03  0.12499731959E+03 0.  0.
          5    1    4    4  502    0 -0.54545041296E+02 -0.38243204452E+02 -0.15166201667E+03  0.16571409571E+03  0.47000000000E+01 0. -1.
         -5    1    4    4    0  502  0.11351674496E+02 -0.10836852433E+02  0.20953044155E+02  0.26597329639E+02  0.47000000000E+01 0. -1.
        -11    1    3    3    0    0  0.33951870683E+02  0.72973845564E+02  0.48276664744E+02  0.93853865227E+02  0.00000000000E+00 0.  1.
         11    1    3    3    0    0  0.92414961178E+01 -0.23893788678E+02 -0.24434808380E+01  0.25734975938E+02  0.00000000000E+00 0. -1.
<mgrwt>
<rscale>  0 0.13269638E+03</rscale>
<asrwt>0</asrwt>
<pdfrwt beam="2">  1        1 0.30521235E-01 0.14106328E+03</pdfrwt>
<pdfrwt beam="1">  1       -1 0.17463421E-01 0.14106328E+03</pdfrwt>
<totfact> 0.35983600E+03</totfact>
</mgrwt>
</event>
<event>
 8    1  0.7550631E-006  0.1388204E+03  0.7546771E-02  0.1225986E+00
          2   -1    0    0  501    0  0.00000000000E+00  0.00000000000E+00  0.35925699939E+02  0.35925699939E+02  0.00000000000E+00 0. -1.
         -2   -1    0    0    0  501 -0.00000000000E+00 -0.00000000000E+00 -0.43616956979E+03  0.43616956979E+03  0.00000000000E+00 0.  1.
         23    2    1    2    0    0 -0.24001848215E+02 -0.55409199586E+02 -0.20262162792E+03  0.23058820632E+03  0.92027869020E+02 0.  0.
         23    2    1    2    0    0  0.24001848215E+02  0.55409199586E+02 -0.19762224193E+03  0.24150706341E+03  0.12499937222E+03 0.  0.
          5    1    4    4  502    0 -0.35216140170E+02  0.72419377052E+01 -0.14300052796E+03  0.14752580516E+03  0.47000000000E+01 0.  1.
         -5    1    4    4    0  502  0.59217988385E+02  0.48167261880E+02 -0.54621713968E+02  0.93981258250E+02  0.47000000000E+01 0.  1.
        -11    1    3    3    0    0 -0.81628651738E+01 -0.36515802130E+02 -0.20250587937E+03  0.20593364794E+03  0.00000000000E+00 0.  1.
         11    1    3    3    0    0 -0.15838983041E+02 -0.18893397456E+02 -0.11574854689E+00  0.24654558380E+02  0.00000000000E+00 0. -1.
<mgrwt>
<rscale>  0 0.13099576E+03</rscale>
<asrwt>0</asrwt>
<pdfrwt beam="1">  1        2 0.55270304E-02 0.13882043E+03</pdfrwt>
<pdfrwt beam="2">  1       -2 0.67103016E-01 0.13882043E+03</pdfrwt>
<totfact> 0.27564025E+03</totfact>
</mgrwt>
</event>
<event>
 8    1  0.7550631E-006  0.1257302E+03  0.7546771E-02  0.1247029E+00
         -1   -1    0    0    0  501 -0.00000000000E+00  0.00000000000E+00  0.88427557851E+02  0.88427557851E+02  0.00000000000E+00 0.  1.
          1   -1    0    0  501    0  0.00000000000E+00 -0.00000000000E+00 -0.14612845289E+03  0.14612845289E+03  0.00000000000E+00 0. -1.
         23    2    1    2    0    0 -0.52113285435E+01 -0.12466030335E+02 -0.40774539107E+00  0.96387335138E+02  0.95434753948E+02 0.  0.
         23    2    1    2    0    0  0.52113285435E+01  0.12466030335E+02 -0.57293149644E+02  0.13816867560E+03  0.12500207223E+03 0.  0.
          5    1    4    4  502    0 -0.23118090007E+02  0.58260920914E+02 -0.55868381573E+02  0.84096058474E+02  0.47000000000E+01 0.  1.
         -5    1    4    4    0  502  0.28329418550E+02 -0.45794890579E+02 -0.14247680703E+01  0.54072617124E+02  0.47000000000E+01 0.  1.
        -11    1    3    3    0    0  0.41034306055E+02  0.10041753202E+02  0.11109514676E+02  0.43681488037E+02  0.00000000000E+00 0.  1.
         11    1    3    3    0    0 -0.46245634599E+02 -0.22507783537E+02 -0.11517260067E+02  0.52705847101E+02  0.00000000000E+00 0. -1.
<mgrwt>
<rscale>  0 0.11764776E+03</rscale>
<asrwt>0</asrwt>
<pdfrwt beam="2">  1        1 0.22481300E-01 0.12573018E+03</pdfrwt>
<pdfrwt beam="1">  1       -1 0.13604240E-01 0.12573018E+03</pdfrwt>
<totfact> 0.77511407E+03</totfact>
</mgrwt>
</event>
<event>
 8    1  0.7550631E-006  0.1385003E+03  0.7546771E-02  0.1226565E+00
         -1   -1    0    0    0  501 -0.00000000000E+00  0.00000000000E+00  0.35186401619E+02  0.35186401619E+02  0.00000000000E+00 0.  1.
          1   -1    0    0  501    0  0.00000000000E+00 -0.00000000000E+00 -0.45525791603E+03  0.45525791603E+03  0.00000000000E+00 0. -1.
         23    2    1    2    0    0  0.22740394108E+02 -0.55138081735E+02 -0.13770300574E+03  0.17593787271E+03  0.91840533977E+02 0.  0.
         23    2    1    2    0    0 -0.22740394108E+02  0.55138081735E+02 -0.28236850867E+03  0.31450644494E+03  0.12499998256E+03 0.  0.
          5    1    4    4  502    0 -0.11549295629E+02 -0.59453652139E+00  0.10391096578E+02  0.16242062409E+02  0.47000000000E+01 0.  1.
         -5    1    4    4    0  502 -0.11191098479E+02  0.55732618256E+02 -0.29275960524E+03  0.29826438253E+03  0.47000000000E+01 0.  1.
        -11    1    3    3    0    0 -0.27009272294E+02 -0.40517878006E+02 -0.32193084985E+02  0.58374600202E+02  0.00000000000E+00 0.  1.
         11    1    3    3    0    0  0.49749666401E+02 -0.14620203729E+02 -0.10550992076E+03  0.11756327251E+03  0.00000000000E+00 0. -1.
<mgrwt>
<rscale>  0 0.13060191E+03</rscale>
<asrwt>0</asrwt>
<pdfrwt beam="2">  1        1 0.70039676E-01 0.13850029E+03</pdfrwt>
<pdfrwt beam="1">  1       -1 0.54132928E-02 0.13850029E+03</pdfrwt>
<totfact> 0.76415366E+03</totfact>
</mgrwt>
</event>
<event>
 8    1  0.7550631E-006  0.1945032E+03  0.7546771E-02  0.1158864E+00
          2   -1    0    0  501    0  0.00000000000E+00  0.00000000000E+00  0.55368039565E+03  0.55368039565E+03  0.00000000000E+00 0.  1.
         -2   -1    0    0    0  501 -0.00000000000E+00 -0.00000000000E+00 -0.67768939285E+02  0.67768939285E+02  0.00000000000E+00 0. -1.
         23    2    1    2    0    0  0.11316315782E+03 -0.96916675159E+02  0.13942721793E+03  0.22410460858E+03  0.92650873048E+02 0.  0.
         23    2    1    2    0    0 -0.11316315782E+03  0.96916675159E+02  0.34648423844E+03  0.39734472636E+03  0.12503104361E+03 0.  0.
          5    1    4    4  502    0 -0.14042928025E+03  0.80800797943E+02  0.27938726963E+03  0.32299920763E+03  0.47000000000E+01 0. -1.
         -5    1    4    4    0  502  0.27266122432E+02  0.16115877215E+02  0.67096968812E+02  0.74345518727E+02  0.47000000000E+01 0. -1.
        -11    1    3    3    0    0  0.20760966060E+02 -0.39970078034E+02  0.98130473679E+02  0.10797321295E+03  0.00000000000E+00 0.  1.
         11    1    3    3    0    0  0.92402191759E+02 -0.56946597125E+02  0.41296744247E+02  0.11613139563E+03  0.00000000000E+00 0. -1.
<mgrwt>
<rscale>  0 0.18955439E+03</rscale>
<asrwt>0</asrwt>
<pdfrwt beam="1">  1        2 0.85181596E-01 0.19450322E+03</pdfrwt>
<pdfrwt beam="2">  1       -2 0.10425991E-01 0.19450322E+03</pdfrwt>
<totfact> 0.33906184E+03</totfact>
</mgrwt>
</event>
<event>
 8    1  0.7550631E-006  0.1396181E+03  0.7546771E-02  0.1225244E+00
         -1   -1    0    0    0  501 -0.00000000000E+00  0.00000000000E+00  0.77012351306E+02  0.77012351306E+02  0.00000000000E+00 0.  1.
          1   -1    0    0  501    0  0.00000000000E+00 -0.00000000000E+00 -0.20947252638E+03  0.20947252638E+03  0.00000000000E+00 0. -1.
         23    2    1    2    0    0 -0.61734422698E+02 -0.75117432157E+01 -0.85357969397E+02  0.13913548521E+03  0.90582200647E+02 0.  0.
         23    2    1    2    0    0  0.61734422698E+02  0.75117432157E+01 -0.47102205672E+02  0.14734939247E+03  0.12500264177E+03 0.  0.
          5    1    4    4  502    0  0.58794947545E+02  0.37546778320E+02  0.20755653386E+02  0.72934858377E+02  0.47000000000E+01 0.  1.
         -5    1    4    4    0  502  0.29394751531E+01 -0.30035035105E+02 -0.67857859058E+02  0.74414534091E+02  0.47000000000E+01 0.  1.
        -11    1    3    3    0    0 -0.25654673332E+02 -0.39016849601E+02 -0.77665973582E+02  0.90622735938E+02  0.00000000000E+00 0.  1.
         11    1    3    3    0    0 -0.36079749366E+02  0.31505106385E+02 -0.76919958156E+01  0.48512749276E+02  0.00000000000E+00 0. -1.
<mgrwt>
<rscale>  0 0.13150187E+03</rscale>
<asrwt>0</asrwt>
<pdfrwt beam="2">  1        1 0.32226542E-01 0.13961814E+03</pdfrwt>
<pdfrwt beam="1">  1       -1 0.11848054E-01 0.13961814E+03</pdfrwt>
<totfact> 0.61661065E+03</totfact>
</mgrwt>
</event>
<event>
 8    1  0.7550631E-006  0.1325194E+03  0.7546771E-02  0.1237246E+00
          4   -1    0    0  501    0  0.00000000000E+00  0.00000000000E+00  0.68692196884E+02  0.68692196884E+02  0.00000000000E+00 0. -1.
         -4   -1    0    0    0  501 -0.00000000000E+00 -0.00000000000E+00 -0.19905132813E+03  0.19905132813E+03  0.00000000000E+00 0.  1.
         23    2    1    2    0    0  0.81437443697E+00 -0.43996938457E+02 -0.68524297914E+02  0.12150765075E+03  0.90178356527E+02 0.  0.
         23    2    1    2    0    0 -0.81437443697E+00  0.43996938457E+02 -0.61834833331E+02  0.14623587427E+03  0.12499996204E+03 0.  0.
          5    1    4    4  502    0 -0.11151484068E+02  0.37311427252E+02 -0.99168892866E+02  0.10664453813E+03  0.47000000000E+01 0. -1.
         -5    1    4    4    0  502  0.10337109631E+02  0.66855112057E+01  0.37334059536E+02  0.39591336136E+02  0.47000000000E+01 0. -1.
        -11    1    3    3    0    0  0.43539898104E+02 -0.12736455703E+02 -0.19582822681E+02  0.49410798162E+02  0.00000000000E+00 0.  1.
         11    1    3    3    0    0 -0.42725523667E+02 -0.31260482754E+02 -0.48941475232E+02  0.72096852585E+02  0.00000000000E+00 0. -1.
<mgrwt>
<rscale>  0 0.12361759E+03</rscale>
<asrwt>0</asrwt>
<pdfrwt beam="1">  1        4 0.10568031E-01 0.13251937E+03</pdfrwt>
<pdfrwt beam="2">  1       -4 0.30623281E-01 0.13251937E+03</pdfrwt>
<totfact> 0.11590863E+03</totfact>
</mgrwt>
</event>
<event>
 8    1  0.7550631E-006  0.1281312E+03  0.7546771E-02  0.1247918E+00
         -1   -1    0    0    0  501 -0.00000000000E+00  0.00000000000E+00  0.59209738588E+03  0.59209738588E+03  0.00000000000E+00 0.  1.
          1   -1    0    0  501    0  0.00000000000E+00 -0.00000000000E+00 -0.21592617072E+02  0.21592617072E+02  0.00000000000E+00 0. -1.
         23    2    1    2    0    0  0.28162269538E+02  0.23539996259E+00  0.32066304418E+03  0.33290806523E+03  0.84910677516E+02 0.  0.
         23    2    1    2    0    0 -0.28162269538E+02 -0.23539996259E+00  0.24984172463E+03  0.28078193772E+03  0.12499776136E+03 0.  0.
          5    1    4    4  502    0 -0.37588350470E+01 -0.58110307294E+02  0.16556099721E+03  0.17556614267E+03  0.47000000000E+01 0.  1.
         -5    1    4    4    0  502 -0.24403434491E+02  0.57874907332E+02  0.84280727422E+02  0.10521579505E+03  0.47000000000E+01 0.  1.
        -11    1    3    3    0    0  0.33096786813E+02  0.31440798996E+02  0.26500837971E+03  0.26891143980E+03  0.00000000000E+00 0.  1.
         11    1    3    3    0    0 -0.49345172744E+01 -0.31205399034E+02  0.55654664467E+02  0.63996625431E+02  0.00000000000E+00 0. -1.
<mgrwt>
<rscale>  0 0.11712450E+03</rscale>
<asrwt>0</asrwt>
<pdfrwt beam="2">  1        1 0.33219415E-02 0.12813122E+03</pdfrwt>
<pdfrwt beam="1">  1       -1 0.91091893E-01 0.12813122E+03</pdfrwt>
<totfact> 0.34980167E+03</totfact>
</mgrwt>
</event>
<event>
 8    1  0.7550631E-006  0.1762182E+03  0.7546771E-02  0.1178135E+00
         -2   -1    0    0    0  501 -0.00000000000E+00  0.00000000000E+00  0.87885503461E+02  0.87885503461E+02  0.00000000000E+00 0.  1.
          2   -1    0    0  501    0  0.00000000000E+00 -0.00000000000E+00 -0.30801795381E+03  0.30801795381E+03  0.00000000000E+00 0. -1.
         23    2    1    2    0    0  0.94683872057E+02 -0.80394419630E+02 -0.11870388744E+03  0.19257958685E+03  0.86994172457E+02 0.  0.
         23    2    1    2    0    0 -0.94683872057E+02  0.80394419630E+02 -0.10142856290E+03  0.20332387042E+03  0.12499817829E+03 0.  0.
          5    1    4    4  502    0 -0.58756659723E+01  0.46679507261E+02 -0.97236494887E+02  0.10812273483E+03  0.47000000000E+01 0.  1.
         -5    1    4    4    0  502 -0.88808206085E+02  0.33714912369E+02 -0.41920680176E+01  0.95201135594E+02  0.47000000000E+01 0.  1.
        -11    1    3    3    0    0  0.42359740282E+02 -0.71466916034E+02 -0.28338492424E+02  0.87777775303E+02  0.00000000000E+00 0. -1.
         11    1    3    3    0    0  0.52324131775E+02 -0.89275035954E+01 -0.90365395019E+02  0.10480181155E+03  0.00000000000E+00 0.  1.
<mgrwt>
<rscale>  0 0.16972477E+03</rscale>
<asrwt>0</asrwt>
<pdfrwt beam="2">  1        2 0.47387377E-01 0.17621817E+03</pdfrwt>
<pdfrwt beam="1">  1       -2 0.13520847E-01 0.17621817E+03</pdfrwt>
<totfact> 0.42130249E+03</totfact>
</mgrwt>
</event>
<event>
 8    1  0.7550631E-006  0.2151482E+03  0.7546771E-02  0.1140825E+00
          2   -1    0    0  501    0  0.00000000000E+00  0.00000000000E+00  0.20501200714E+03  0.20501200714E+03  0.00000000000E+00 0. -1.
         -2   -1    0    0    0  501 -0.00000000000E+00 -0.00000000000E+00 -0.26392201877E+03  0.26392201877E+03  0.00000000000E+00 0.  1.
         23    2    1    2    0    0  0.15203471796E+03  0.86902975310E+02 -0.13547469502E+03  0.24056832447E+03  0.94090611441E+02 0.  0.
         23    2    1    2    0    0 -0.15203471796E+03 -0.86902975310E+02  0.76564683391E+02  0.22836570144E+03  0.12498824052E+03 0.  0.
          5    1    4    4  502    0 -0.13693317105E+03 -0.12177502569E+02  0.60715629873E+02  0.15035778202E+03  0.47000000000E+01 0. -1.
         -5    1    4    4    0  502 -0.15101546915E+02 -0.74725472741E+02  0.15849053519E+02  0.78007919425E+02  0.47000000000E+01 0. -1.
        -11    1    3    3    0    0  0.11382338996E+03  0.20989790288E+02 -0.11145980110E+03  0.16068485510E+03  0.00000000000E+00 0.  1.
         11    1    3    3    0    0  0.38211327999E+02  0.65913185022E+02 -0.24014893927E+02  0.79883469363E+02  0.00000000000E+00 0. -1.
<mgrwt>
<rscale>  0 0.21093809E+03</rscale>
<asrwt>0</asrwt>
<pdfrwt beam="1">  1        2 0.31540309E-01 0.21514819E+03</pdfrwt>
<pdfrwt beam="2">  1       -2 0.40603387E-01 0.21514819E+03</pdfrwt>
<totfact> 0.95761781E+02</totfact>
</mgrwt>
</event>
<event>
 8    1  0.7550631E-006  0.1304982E+03  0.7546771E-02  0.1240168E+00
         -2   -1    0    0    0  501 -0.00000000000E+00  0.00000000000E+00  0.12676465112E+02  0.12676465112E+02  0.00000000000E+00 0.  1.
          2   -1    0    0  501    0  0.00000000000E+00 -0.00000000000E+00 -0.12405797287E+04  0.12405797287E+04  0.00000000000E+00 0. -1.
         23    2    1    2    0    0 -0.12108529571E+02  0.35472769694E+02 -0.29270958624E+03  0.30900145823E+03  0.91640959379E+02 0.  0.
         23    2    1    2    0    0  0.12108529571E+02 -0.35472769694E+02 -0.93519367733E+03  0.94425473556E+03  0.12499943052E+03 0.  0.
          5    1    4    4  502    0  0.33213161578E+02  0.24478461483E+02 -0.12840367331E+03  0.13495148201E+03  0.47000000000E+01 0.  1.
         -5    1    4    4    0  502 -0.21104632007E+02 -0.59951231177E+02 -0.80679000403E+03  0.80930325355E+03  0.47000000000E+01 0.  1.
        -11    1    3    3    0    0 -0.43093837543E+02  0.38347663728E+02 -0.11576339895E+03  0.12933981090E+03  0.00000000000E+00 0.  1.
         11    1    3    3    0    0  0.30985307972E+02 -0.28748940343E+01 -0.17694618729E+03  0.17966164733E+03  0.00000000000E+00 0. -1.
<mgrwt>
<rscale>  0 0.12179329E+03</rscale>
<asrwt>0</asrwt>
<pdfrwt beam="2">  1        2 0.19085849E+00 0.13049824E+03</pdfrwt>
<pdfrwt beam="1">  1       -2 0.19502247E-02 0.13049824E+03</pdfrwt>
<totfact> 0.14619548E+04</totfact>
</mgrwt>
</event>
<event>
 7    1  0.7550631E-006  0.1809464E+03  0.7546771E-02  0.1185021E+00
         -4   -1    0    0    0  501 -0.00000000000E+00  0.00000000000E+00  0.23911103751E+02  0.23911103751E+02  0.00000000000E+00 0.  1.
          4   -1    0    0  501    0  0.00000000000E+00 -0.00000000000E+00 -0.94755985847E+03  0.94755985847E+03  0.00000000000E+00 0. -1.
         23    2    1    2    0    0 -0.29701788327E+02 -0.71274116848E+02 -0.35823388158E+03  0.37780811226E+03  0.91898094751E+02 0.  0.
          5    1    1    2  502    0  0.54864720211E+02 -0.91231408913E+01 -0.43345957146E+03  0.43703851010E+03  0.47000000000E+01 0. -1.
         -5    1    1    2    0  502 -0.25162931884E+02  0.80397257739E+02 -0.13195530168E+03  0.15662433985E+03  0.47000000000E+01 0.  1.
        -11    1    3    3    0    0 -0.18672713003E+02 -0.79455888236E+02 -0.35421855011E+03  0.36350060471E+03  0.00000000000E+00 0.  1.
         11    1    3    3    0    0 -0.11029075324E+02  0.81817713884E+01 -0.40153314744E+01  0.14307507554E+02  0.00000000000E+00 0. -1.
<mgrwt>
<rscale>  0 0.16329988E+03</rscale>
<asrwt>0</asrwt>
<pdfrwt beam="2">  1        4 0.14577845E+00 0.18094640E+03</pdfrwt>
<pdfrwt beam="1">  1       -4 0.36786310E-02 0.18094640E+03</pdfrwt>
<totfact> 0.23432038E+02</totfact>
</mgrwt>
</event>
<event>
 8    1  0.7550631E-006  0.1837378E+03  0.7546771E-02  0.1169093E+00
         -2   -1    0    0    0  501 -0.00000000000E+00  0.00000000000E+00  0.23125459364E+02  0.23125459364E+02  0.00000000000E+00 0.  1.
          2   -1    0    0  501    0  0.00000000000E+00 -0.00000000000E+00 -0.14814401831E+04  0.14814401831E+04  0.00000000000E+00 0. -1.
         23    2    1    2    0    0 -0.17853109424E+02 -0.13347904048E+03 -0.43724976042E+03  0.46710083460E+03  0.94129957664E+02 0.  0.
         23    2    1    2    0    0  0.17853109424E+02  0.13347904048E+03 -0.10210649633E+04  0.10374648079E+04  0.12499672192E+03 0.  0.
          5    1    4    4  502    0 -0.71770748553E+01  0.87995393120E+02 -0.91521017327E+03  0.91947074497E+03  0.47000000000E+01 0.  1.
         -5    1    4    4    0  502  0.25030184279E+02  0.45483647359E+02 -0.10585479007E+03  0.11799406292E+03  0.47000000000E+01 0.  1.
        -11    1    3    3    0    0  0.19219888110E+02 -0.11068171399E+03 -0.37260178073E+03  0.38916825784E+03  0.00000000000E+00 0.  1.
         11    1    3    3    0    0 -0.37072997534E+02 -0.22797326486E+02 -0.64647979694E+02  0.77932576755E+02  0.00000000000E+00 0. -1.
<mgrwt>
<rscale>  0 0.17867382E+03</rscale>
<asrwt>0</asrwt>
<pdfrwt beam="2">  1        2 0.22791390E+00 0.18373777E+03</pdfrwt>
<pdfrwt beam="1">  1       -2 0.35577626E-02 0.18373777E+03</pdfrwt>
<totfact> 0.45498894E+03</totfact>
</mgrwt>
</event>
<event>
 7    1  0.7550631E-006  0.1465485E+03  0.7546771E-02  0.1222723E+00
          2   -1    0    0  501    0  0.00000000000E+00  0.00000000000E+00  0.64524050216E+03  0.64524050216E+03  0.00000000000E+00 0. -1.
         -2   -1    0    0    0  501 -0.00000000000E+00 -0.00000000000E+00 -0.12026493618E+03  0.12026493618E+03  0.00000000000E+00 0.  1.
         23    2    1    2    0    0  0.19610113251E+01  0.44805573329E+02 -0.89186902891E+02  0.13410064429E+03  0.89539344342E+02 0.  0.
          5    1    1    2  502    0  0.33086692104E+02 -0.72590407749E+02  0.52990533317E+03  0.53589723699E+03  0.47000000000E+01 0. -1.
         -5    1    1    2    0  502 -0.35047703429E+02  0.27784834420E+02  0.84257135700E+02  0.95507557061E+02  0.47000000000E+01 0.  1.
        -11    1    3    3    0    0 -0.21532723405E+01 -0.18656323610E+02 -0.62275919059E+02  0.65046022838E+02  0.00000000000E+00 0. -1.
         11    1    3    3    0    0  0.41142836656E+01  0.63461896939E+02 -0.26910983832E+02  0.69054621453E+02  0.00000000000E+00 0.  1.
<mgrwt>
<rscale>  0 0.13324214E+03</rscale>
<asrwt>0</asrwt>
<pdfrwt beam="1">  1        2 0.99267767E-01 0.14654854E+03</pdfrwt>
<pdfrwt beam="2">  1       -2 0.18502298E-01 0.14654854E+03</pdfrwt>
<totfact> 0.11096366E+03</totfact>
</mgrwt>
</event>
<event>
 8    1  0.7550631E-006  0.1625735E+03  0.7546771E-02  0.1193312E+00
         -2   -1    0    0    0  501 -0.00000000000E+00  0.00000000000E+00  0.26554903144E+02  0.26554903144E+02  0.00000000000E+00 0. -1.
          2   -1    0    0  501    0  0.00000000000E+00 -0.00000000000E+00 -0.89691917452E+03  0.89691917452E+03  0.00000000000E+00 0.  1.
         23    2    1    2    0    0  0.77711733338E+02  0.69068304539E+02 -0.29495545657E+03  0.32553975834E+03  0.90376261896E+02 0.  0.
         23    2    1    2    0    0 -0.77711733338E+02 -0.69068304539E+02 -0.57540881481E+03  0.59793431932E+03  0.12498240624E+03 0.  0.
          5    1    4    4  502    0  0.29798895326E+02 -0.32250209841E+02 -0.10377911667E+03  0.11278406472E+03  0.47000000000E+01 0. -1.
         -5    1    4    4    0  502 -0.10751062866E+03 -0.36818094697E+02 -0.47162969814E+03  0.48515025460E+03  0.47000000000E+01 0. -1.
        -11    1    3    3    0    0 -0.12597759831E+02 -0.63213444548E+00 -0.43458626519E+01  0.13341276884E+02  0.00000000000E+00 0. -1.
         11    1    3    3    0    0  0.90309493169E+02  0.69700438984E+02 -0.29060959391E+03  0.31219848146E+03  0.00000000000E+00 0.  1.
<mgrwt>
<rscale>  0 0.15597930E+03</rscale>
<asrwt>0</asrwt>
<pdfrwt beam="2">  1        2 0.13798758E+00 0.16257351E+03</pdfrwt>
<pdfrwt beam="1">  1       -2 0.40853694E-02 0.16257351E+03</pdfrwt>
<totfact> 0.79218743E+03</totfact>
</mgrwt>
</event>
<event>
 8    1  0.7550631E-006  0.1150386E+03  0.7546771E-02  0.1259699E+00
         -2   -1    0    0    0  501 -0.00000000000E+00  0.00000000000E+00  0.33742589352E+02  0.33742589352E+02  0.00000000000E+00 0.  1.
          2   -1    0    0  501    0  0.00000000000E+00 -0.00000000000E+00 -0.44479518376E+03  0.44479518376E+03  0.00000000000E+00 0. -1.
         23    2    1    2    0    0 -0.26752384783E+02 -0.40149514540E+01 -0.74793042903E+02  0.12314451816E+03  0.94014696512E+02 0.  0.
         23    2    1    2    0    0  0.26752384783E+02  0.40149514540E+01 -0.33625955150E+03  0.35539325495E+03  0.11181265473E+03 0.  0.
          5    1    4    4  502    0 -0.32646355793E+02  0.34728027834E+02 -0.13253905307E+03  0.14092732543E+03  0.47000000000E+01 0. -1.
         -5    1    4    4    0  502  0.59398740576E+02 -0.30713076380E+02 -0.20372049843E+03  0.21446592951E+03  0.47000000000E+01 0.  1.
        -11    1    3    3    0    0  0.24581129258E+02  0.16958747633E+01  0.77011266463E+01  0.25815020016E+02  0.00000000000E+00 0.  1.
         11    1    3    3    0    0 -0.51333514041E+02 -0.57108262174E+01 -0.82494169549E+02  0.97329498147E+02  0.00000000000E+00 0. -1.
<mgrwt>
<rscale>  0 0.11047142E+03</rscale>
<asrwt>0</asrwt>
<pdfrwt beam="2">  1        2 0.68430020E-01 0.11503860E+03</pdfrwt>
<pdfrwt beam="1">  1       -2 0.51911682E-02 0.11503860E+03</pdfrwt>
<totfact> 0.12269150E+04</totfact>
</mgrwt>
</event>
<event>
 8    1  0.7550631E-006  0.1692152E+03  0.7546771E-02  0.1184689E+00
          1   -1    0    0  501    0  0.00000000000E+00  0.00000000000E+00  0.41979952171E+03  0.41979952171E+03  0.00000000000E+00 0. -1.
         -1   -1    0    0    0  501 -0.00000000000E+00 -0.00000000000E+00 -0.59965589375E+02  0.59965589375E+02  0.00000000000E+00 0.  1.
         23    2    1    2    0    0 -0.11397430333E+03  0.45153262430E+01  0.15829338963E+03  0.21660665362E+03  0.94080365654E+02 0.  0.
         23    2    1    2    0    0  0.11397430333E+03 -0.45153262430E+01  0.20154054271E+03  0.26315845746E+03  0.12499301337E+03 0.  0.
          5    1    4    4  502    0  0.15777088061E+02  0.16150039566E+02  0.14710107893E+03  0.14889780962E+03  0.47000000000E+01 0.  1.
         -5    1    4    4    0  502  0.98197215269E+02 -0.20665365809E+02  0.54439463771E+02  0.11426064785E+03  0.47000000000E+01 0.  1.
        -11    1    3    3    0    0  0.42561781877E+01  0.14564916916E+02  0.61893352681E+02  0.63726281577E+02  0.00000000000E+00 0. -1.
         11    1    3    3    0    0 -0.11823048152E+03 -0.10049590673E+02  0.96400036953E+02  0.15288037205E+03  0.00000000000E+00 0.  1.
<mgrwt>
<rscale>  0 0.16360248E+03</rscale>
<asrwt>0</asrwt>
<pdfrwt beam="1">  1        1 0.64584540E-01 0.16921520E+03</pdfrwt>
<pdfrwt beam="2">  1       -1 0.92254755E-02 0.16921520E+03</pdfrwt>
<totfact> 0.38409040E+03</totfact>
</mgrwt>
</event>
<event>
 8    1  0.7550631E-006  0.1373632E+03  0.7546771E-02  0.1228855E+00
          2   -1    0    0  501    0  0.00000000000E+00  0.00000000000E+00  0.12719530759E+04  0.12719530759E+04  0.00000000000E+00 0. -1.
         -2   -1    0    0    0  501 -0.00000000000E+00 -0.00000000000E+00 -0.18715355286E+02  0.18715355286E+02  0.00000000000E+00 0.  1.
         23    2    1    2    0    0  0.52911967190E+02  0.21094453149E+02  0.18582132972E+03  0.21444986925E+03  0.90634031218E+02 0.  0.
         23    2    1    2    0    0 -0.52911967190E+02 -0.21094453149E+02  0.10674163909E+04  0.10762185619E+04  0.12499595709E+03 0.  0.
          5    1    4    4  502    0  0.32574367370E+02 -0.87279650172E+01  0.11644852380E+03  0.12132442243E+03  0.47000000000E+01 0.  1.
         -5    1    4    4    0  502 -0.85486334559E+02 -0.12366488132E+02  0.95096786705E+03  0.95489413947E+03  0.47000000000E+01 0.  1.
        -11    1    3    3    0    0 -0.83424333087E+01  0.36388805807E+02  0.10781394710E+03  0.11409464742E+03  0.00000000000E+00 0. -1.
         11    1    3    3    0    0  0.61254400499E+02 -0.15294352658E+02  0.78007382624E+02  0.10035522182E+03  0.00000000000E+00 0.  1.
<mgrwt>
<rscale>  0 0.12906157E+03</rscale>
<asrwt>0</asrwt>
<pdfrwt beam="1">  1        2 0.19568502E+00 0.13736317E+03</pdfrwt>
<pdfrwt beam="2">  1       -2 0.28792864E-02 0.13736317E+03</pdfrwt>
<totfact> 0.79841301E+03</totfact>
</mgrwt>
</event>
<event>
 8    1  0.7550631E-006  0.1801715E+03  0.7546771E-02  0.1173005E+00
         -2   -1    0    0    0  501 -0.00000000000E+00  0.00000000000E+00  0.31525109504E+02  0.31525109504E+02  0.00000000000E+00 0. -1.
          2   -1    0    0  501    0  0.00000000000E+00 -0.00000000000E+00 -0.12147610101E+04  0.12147610101E+04  0.00000000000E+00 0.  1.
         23    2    1    2    0    0 -0.12820475954E+03  0.19978225257E+02 -0.25482485735E+03  0.30055422110E+03  0.92528601241E+02 0.  0.
         23    2    1    2    0    0  0.12820475954E+03 -0.19978225257E+02 -0.92841104323E+03  0.94573189848E+03  0.12500467495E+03 0.  0.
          5    1    4    4  502    0  0.76360810343E+02  0.28108985167E+02 -0.23548683897E+03  0.24919315748E+03  0.47000000000E+01 0.  1.
         -5    1    4    4    0  502  0.51843949201E+02 -0.48087210424E+02 -0.69292420426E+03  0.69653874100E+03  0.47000000000E+01 0.  1.
        -11    1    3    3    0    0 -0.13956529200E+02  0.39736857822E+02 -0.51867805309E+02  0.66813709705E+02  0.00000000000E+00 0.  1.
         11    1    3    3    0    0 -0.11424823034E+03 -0.19758632565E+02 -0.20295705204E+03  0.23374051140E+03  0.00000000000E+00 0. -1.
<mgrwt>
<rscale>  0 0.17472804E+03</rscale>
<asrwt>0</asrwt>
<pdfrwt beam="2">  1        2 0.18688628E+00 0.18017147E+03</pdfrwt>
<pdfrwt beam="1">  1       -2 0.48500177E-02 0.18017147E+03</pdfrwt>
<totfact> 0.39854452E+03</totfact>
</mgrwt>
</event>
<event>
 8    1  0.7550631E-006  0.1322169E+03  0.7546771E-02  0.1237111E+00
          2   -1    0    0  501    0  0.00000000000E+00  0.00000000000E+00  0.62397412757E+03  0.62397412757E+03  0.00000000000E+00 0. -1.
         -2   -1    0    0    0  501 -0.00000000000E+00 -0.00000000000E+00 -0.26692422071E+02  0.26692422071E+02  0.00000000000E+00 0.  1.
         23    2    1    2    0    0 -0.35063273888E+02  0.25037895449E+02  0.12871121589E+03  0.16379939641E+03  0.91691525150E+02 0.  0.
         23    2    1    2    0    0  0.35063273888E+02 -0.25037895449E+02  0.46857048961E+03  0.48686715323E+03  0.12499996712E+03 0.  0.
          5    1    4    4  502    0  0.43777670371E+02 -0.53732462298E+02  0.43909530819E+03  0.44455645491E+03  0.47000000000E+01 0.  1.
         -5    1    4    4    0  502 -0.87143964832E+01  0.28694566850E+02  0.29475181419E+02  0.42310698322E+02  0.47000000000E+01 0.  1.
        -11    1    3    3    0    0  0.31302130663E+02  0.93223627766E+01  0.34673356657E+02  0.47633722232E+02  0.00000000000E+00 0.  1.
         11    1    3    3    0    0 -0.66365404550E+02  0.15715532672E+02  0.94037859232E+02  0.11616567418E+03  0.00000000000E+00 0. -1.
<mgrwt>
<rscale>  0 0.12370241E+03</rscale>
<asrwt>0</asrwt>
<pdfrwt beam="1">  1        2 0.95996008E-01 0.13221695E+03</pdfrwt>
<pdfrwt beam="2">  1       -2 0.41065270E-02 0.13221695E+03</pdfrwt>
<totfact> 0.12098264E+04</totfact>
</mgrwt>
</event>
<event>
 8    1  0.7550631E-006  0.1311327E+03  0.7546771E-02  0.1239327E+00
         -1   -1    0    0    0  501 -0.00000000000E+00  0.00000000000E+00  0.73357833094E+02  0.73357833094E+02  0.00000000000E+00 0.  1.
          1   -1    0    0  501    0  0.00000000000E+00 -0.00000000000E+00 -0.20286742709E+03  0.20286742709E+03  0.00000000000E+00 0. -1.
         23    2    1    2    0    0  0.20164868267E+02  0.34117966489E+02 -0.11707913352E+02  0.99949825295E+02  0.91006784318E+02 0.  0.
         23    2    1    2    0    0 -0.20164868267E+02 -0.34117966489E+02 -0.11780168064E+03  0.17627543488E+03  0.12500054173E+03 0.  0.
          5    1    4    4  502    0  0.82775006492E+00 -0.79137520987E+02 -0.57122073146E+02  0.97716189235E+02  0.47000000000E+01 0.  1.
         -5    1    4    4    0  502 -0.20992618332E+02  0.45019554497E+02 -0.60679607493E+02  0.78559245650E+02  0.47000000000E+01 0.  1.
        -11    1    3    3    0    0  0.41441407912E+01 -0.30449416034E+02 -0.13110038205E+02  0.33409788108E+02  0.00000000000E+00 0. -1.
         11    1    3    3    0    0  0.16020727476E+02  0.64567382523E+02  0.14021248526E+01  0.66540037187E+02  0.00000000000E+00 0.  1.
<mgrwt>
<rscale>  0 0.12231474E+03</rscale>
<asrwt>0</asrwt>
<pdfrwt beam="2">  1        1 0.31210373E-01 0.13113273E+03</pdfrwt>
<pdfrwt beam="1">  1       -1 0.11285821E-01 0.13113273E+03</pdfrwt>
<totfact> 0.68862052E+03</totfact>
</mgrwt>
</event>
<event>
 8    1  0.7550631E-006  0.1402254E+03  0.7546771E-02  0.1223841E+00
          3   -1    0    0  501    0  0.00000000000E+00  0.00000000000E+00  0.35576785937E+03  0.35576785937E+03  0.00000000000E+00 0. -1.
         -3   -1    0    0    0  501 -0.00000000000E+00 -0.00000000000E+00 -0.55538774812E+02  0.55538774812E+02  0.00000000000E+00 0.  1.
         23    2    1    2    0    0 -0.63238540230E+02 -0.63302068430E+01  0.45609777822E+02  0.12062784147E+03  0.91823961012E+02 0.  0.
         23    2    1    2    0    0  0.63238540230E+02  0.63302068430E+01  0.25461930673E+03  0.29067879271E+03  0.12499593865E+03 0.  0.
          5    1    4    4  502    0  0.95627331751E+02 -0.12282794212E+02  0.21677793067E+03  0.23729773458E+03  0.47000000000E+01 0.  1.
         -5    1    4    4    0  502 -0.32388791521E+02  0.18613001055E+02  0.37841376066E+02  0.53381058129E+02  0.47000000000E+01 0.  1.
        -11    1    3    3    0    0  0.18988973597E+02  0.92422386502E-01  0.31747362426E+02  0.36993035577E+02  0.00000000000E+00 0. -1.
         11    1    3    3    0    0 -0.82227513827E+02 -0.64226292295E+01  0.13862415396E+02  0.83634805894E+02  0.00000000000E+00 0.  1.
<mgrwt>
<rscale>  0 0.13246678E+03</rscale>
<asrwt>0</asrwt>
<pdfrwt beam="1">  1        3 0.54733515E-01 0.14022542E+03</pdfrwt>
<pdfrwt beam="2">  1       -3 0.85444271E-02 0.14022542E+03</pdfrwt>
<totfact> 0.74026498E+02</totfact>
</mgrwt>
</event>
<event>
 8    1  0.7550631E-006  0.1250376E+03  0.7546771E-02  0.1251881E+00
          2   -1    0    0  501    0  0.00000000000E+00  0.00000000000E+00  0.28369618351E+03  0.28369618351E+03  0.00000000000E+00 0. -1.
         -2   -1    0    0    0  501 -0.00000000000E+00 -0.00000000000E+00 -0.41338907275E+02  0.41338907275E+02  0.00000000000E+00 0.  1.
         23    2    1    2    0    0  0.11067590942E+01 -0.25921360889E+01  0.76395369170E+02  0.11724250086E+03  0.88890986561E+02 0.  0.
         23    2    1    2    0    0 -0.11067590942E+01  0.25921360889E+01  0.16596190707E+03  0.20779258993E+03  0.12500584685E+03 0.  0.
          5    1    4    4  502    0 -0.44169146798E+02 -0.40939786020E+01  0.15679038405E+03  0.16301223487E+03  0.47000000000E+01 0. -1.
         -5    1    4    4    0  502  0.43062387704E+02  0.66861146909E+01  0.91715230232E+01  0.44780355057E+02  0.47000000000E+01 0. -1.
        -11    1    3    3    0    0 -0.40685187251E+02 -0.51967138344E+01  0.59100050177E+02  0.71938211176E+02  0.00000000000E+00 0. -1.
         11    1    3    3    0    0  0.41791946345E+02  0.26045777455E+01  0.17295318993E+02  0.45304289682E+02  0.00000000000E+00 0.  1.
<mgrwt>
<rscale>  0 0.11482845E+03</rscale>
<asrwt>0</asrwt>
<pdfrwt beam="1">  1        2 0.43645565E-01 0.12503762E+03</pdfrwt>
<pdfrwt beam="2">  1       -2 0.63598321E-02 0.12503762E+03</pdfrwt>
<totfact> 0.14653723E+04</totfact>
</mgrwt>
</event>
<event>
 8    1  0.7550631E-006  0.1504028E+03  0.7546771E-02  0.1208452E+00
          1   -1    0    0  501    0  0.00000000000E+00  0.00000000000E+00  0.85773559311E+03  0.85773559311E+03  0.00000000000E+00 0. -1.
         -1   -1    0    0    0  501 -0.00000000000E+00 -0.00000000000E+00 -0.26006161892E+02  0.26006161892E+02  0.00000000000E+00 0.  1.
         23    2    1    2    0    0 -0.75636638529E+02 -0.35712723243E+02  0.21409987438E+03  0.24806316087E+03  0.93275269407E+02 0.  0.
         23    2    1    2    0    0  0.75636638529E+02  0.35712723243E+02  0.61762955684E+03  0.63567859413E+03  0.12499882345E+03 0.  0.
          5    1    4    4  502    0  0.71588897623E+02  0.54835928655E+02  0.22372155194E+03  0.24125789550E+03  0.47000000000E+01 0.  1.
         -5    1    4    4    0  502  0.40477409061E+01 -0.19123205413E+02  0.39390800489E+03  0.39442069863E+03  0.47000000000E+01 0.  1.
        -11    1    3    3    0    0 -0.77696164771E+02  0.83063746510E+01  0.10914469095E+03  0.13423208798E+03  0.00000000000E+00 0.  1.
         11    1    3    3    0    0  0.20595262421E+01 -0.44019097894E+02  0.10495518343E+03  0.11383107289E+03  0.00000000000E+00 0. -1.
<mgrwt>
<rscale>  0 0.14368703E+03</rscale>
<asrwt>0</asrwt>
<pdfrwt beam="1">  1        1 0.13195930E+00 0.15040281E+03</pdfrwt>
<pdfrwt beam="2">  1       -1 0.40009486E-02 0.15040281E+03</pdfrwt>
<totfact> 0.49611252E+03</totfact>
</mgrwt>
</event>
<event>
 8    1  0.7550631E-006  0.1256794E+03  0.7546771E-02  0.1249447E+00
         -2   -1    0    0    0  501 -0.00000000000E+00  0.00000000000E+00  0.68777554585E+02  0.68777554585E+02  0.00000000000E+00 0.  1.
          2   -1    0    0  501    0  0.00000000000E+00 -0.00000000000E+00 -0.36571027918E+03  0.36571027918E+03  0.00000000000E+00 0. -1.
         23    2    1    2    0    0  0.88490628516E+01 -0.96262214880E+01  0.19522577822E+02  0.93989256505E+02  0.91004830862E+02 0.  0.
         23    2    1    2    0    0 -0.88490628516E+01  0.96262214880E+01 -0.31645530241E+03  0.34049857726E+03  0.12499741051E+03 0.  0.
          5    1    4    4  502    0  0.37333618670E+02  0.50711650044E+02 -0.17545303938E+03  0.18647072038E+03  0.47000000000E+01 0.  1.
         -5    1    4    4    0  502 -0.46182681521E+02 -0.41085428556E+02 -0.14100226303E+03  0.15402785687E+03  0.47000000000E+01 0.  1.
        -11    1    3    3    0    0 -0.37942821288E+02  0.10549432822E+02 -0.10877158127E+00  0.39382230148E+02  0.00000000000E+00 0. -1.
         11    1    3    3    0    0  0.46791884140E+02 -0.20175654310E+02  0.19631349403E+02  0.54607026357E+02  0.00000000000E+00 0.  1.
<mgrwt>
<rscale>  0 0.11623143E+03</rscale>
<asrwt>0</asrwt>
<pdfrwt beam="2">  1        2 0.56263120E-01 0.12567944E+03</pdfrwt>
<pdfrwt beam="1">  1       -2 0.10581162E-01 0.12567944E+03</pdfrwt>
<totfact> 0.51033636E+03</totfact>
</mgrwt>
</event>
<event>
 8    1  0.7550631E-006  0.1428901E+03  0.7546771E-02  0.1220174E+00
         -1   -1    0    0    0  501 -0.00000000000E+00  0.00000000000E+00  0.60241927676E+02  0.60241927676E+02  0.00000000000E+00 0.  1.
          1   -1    0    0  501    0  0.00000000000E+00 -0.00000000000E+00 -0.32659117621E+03  0.32659117621E+03  0.00000000000E+00 0. -1.
         23    2    1    2    0    0  0.68152224359E+02 -0.12233136873E+02 -0.43235258398E+02  0.12188511259E+03  0.90511423472E+02 0.  0.
         23    2    1    2    0    0 -0.68152224359E+02  0.12233136873E+02 -0.22311399013E+03  0.26494799130E+03  0.12499284050E+03 0.  0.
          5    1    4    4  502    0 -0.81168675244E+02  0.98906795262E+01 -0.60740538378E+02  0.10196902660E+03  0.47000000000E+01 0.  1.
         -5    1    4    4    0  502  0.13016450885E+02  0.23424573471E+01 -0.16237345176E+03  0.16297896470E+03  0.47000000000E+01 0.  1.
        -11    1    3    3    0    0  0.96549895441E+01 -0.23008282943E+02 -0.55769966798E+02  0.61097373952E+02  0.00000000000E+00 0. -1.
         11    1    3    3    0    0  0.58497234815E+02  0.10775146070E+02  0.12534708401E+02  0.60787738636E+02  0.00000000000E+00 0.  1.
<mgrwt>
<rscale>  0 0.13503270E+03</rscale>
<asrwt>0</asrwt>
<pdfrwt beam="2">  1        1 0.50244797E-01 0.14289012E+03</pdfrwt>
<pdfrwt beam="1">  1       -1 0.92679888E-02 0.14289012E+03</pdfrwt>
<totfact> 0.51879029E+03</totfact>
</mgrwt>
</event>
<event>
 8    1  0.7550631E-006  0.1963599E+03  0.7546771E-02  0.1157992E+00
          1   -1    0    0  501    0  0.00000000000E+00  0.00000000000E+00  0.24513844966E+04  0.24513844966E+04  0.00000000000E+00 0. -1.
         -1   -1    0    0    0  501 -0.00000000000E+00 -0.00000000000E+00 -0.20111014146E+02  0.20111014146E+02  0.00000000000E+00 0.  1.
         23    2    1    2    0    0 -0.89062234593E+02  0.12247447971E+03  0.48380382831E+03  0.51415158052E+03  0.85753272008E+02 0.  0.
         23    2    1    2    0    0  0.89062234593E+02 -0.12247447971E+03  0.19474696542E+04  0.19573439303E+04  0.12500051015E+03 0.  0.
          5    1    4    4  502    0  0.50743081793E+02  0.67478740597E+01  0.30082138862E+03  0.30518189986E+03  0.47000000000E+01 0. -1.
         -5    1    4    4    0  502  0.38319152800E+02 -0.12922235377E+03  0.16466482656E+04  0.16521620304E+04  0.47000000000E+01 0. -1.
        -11    1    3    3    0    0 -0.10550244986E+03  0.11434652382E+03  0.43806563769E+03  0.46487352835E+03  0.00000000000E+00 0.  1.
         11    1    3    3    0    0  0.16440215270E+02  0.81279558910E+01  0.45738190621E+02  0.49278052177E+02  0.00000000000E+00 0. -1.
<mgrwt>
<rscale>  0 0.19052163E+03</rscale>
<asrwt>0</asrwt>
<pdfrwt beam="1">  1        1 0.37713584E+00 0.19635989E+03</pdfrwt>
<pdfrwt beam="2">  1       -1 0.30940041E-02 0.19635989E+03</pdfrwt>
<totfact> 0.62296148E+02</totfact>
</mgrwt>
</event>
<event>
 8    1  0.7550631E-006  0.1746270E+03  0.7546771E-02  0.1175655E+00
         -1   -1    0    0    0  501 -0.00000000000E+00  0.00000000000E+00  0.19753875218E+03  0.19753875218E+03  0.00000000000E+00 0.  1.
          1   -1    0    0  501    0  0.00000000000E+00 -0.00000000000E+00 -0.15613745107E+03  0.15613745107E+03  0.00000000000E+00 0. -1.
         23    2    1    2    0    0 -0.13437341016E+03  0.16423934919E+02  0.65587286086E+02  0.17738223287E+03  0.94004284190E+02 0.  0.
         23    2    1    2    0    0  0.13437341016E+03 -0.16423934919E+02 -0.24185984976E+02  0.17629397037E+03  0.11031157293E+03 0.  0.
          5    1    4    4  502    0  0.12993576044E+03  0.54022597489E+01  0.14981167241E+02  0.13099241056E+03  0.47000000000E+01 0. -1.
         -5    1    4    4    0  502  0.44376497210E+01 -0.21826194668E+02 -0.39167152217E+02  0.45301559813E+02  0.47000000000E+01 0.  1.
        -11    1    3    3    0    0 -0.51754633008E+02  0.38971600886E+02 -0.69396359499E+01  0.65157396054E+02  0.00000000000E+00 0. -1.
         11    1    3    3    0    0 -0.82618777152E+02 -0.22547665967E+02  0.72526922036E+02  0.11222483682E+03  0.00000000000E+00 0.  1.
<mgrwt>
<rscale>  0 0.17211961E+03</rscale>
<asrwt>0</asrwt>
<pdfrwt beam="2">  1        1 0.24021146E-01 0.17462704E+03</pdfrwt>
<pdfrwt beam="1">  1       -1 0.30390578E-01 0.17462704E+03</pdfrwt>
<totfact> 0.19809385E+03</totfact>
</mgrwt>
</event>
<event>
 8    1  0.7550631E-006  0.1324840E+03  0.7546771E-02  0.1235398E+00
          2   -1    0    0  501    0  0.00000000000E+00  0.00000000000E+00  0.76006624261E+03  0.76006624261E+03  0.00000000000E+00 0. -1.
         -2   -1    0    0    0  501 -0.00000000000E+00 -0.00000000000E+00 -0.18603389209E+02  0.18603389209E+02  0.00000000000E+00 0.  1.
         23    2    1    2    0    0  0.43876882068E+02 -0.15570378201E+01  0.29064010110E+03  0.30878331108E+03  0.94593127066E+02 0.  0.
         23    2    1    2    0    0 -0.43876882068E+02  0.15570378201E+01  0.45082275230E+03  0.46988632074E+03  0.12499758109E+03 0.  0.
          5    1    4    4  502    0  0.26548894612E+02  0.25633102452E+02  0.29275719091E+03  0.29511144095E+03  0.47000000000E+01 0.  1.
         -5    1    4    4    0  502 -0.70425776680E+02 -0.24076064632E+02  0.15806556139E+03  0.17477487979E+03  0.47000000000E+01 0.  1.
        -11    1    3    3    0    0  0.15463112889E+02 -0.44112880652E+02  0.86440775523E+02  0.98270350425E+02  0.00000000000E+00 0.  1.
         11    1    3    3    0    0  0.28413769179E+02  0.42555842832E+02  0.20419932558E+03  0.21051296066E+03  0.00000000000E+00 0. -1.
<mgrwt>
<rscale>  0 0.12478962E+03</rscale>
<asrwt>0</asrwt>
<pdfrwt beam="1">  1        2 0.11693324E+00 0.13248396E+03</pdfrwt>
<pdfrwt beam="2">  1       -2 0.28620605E-02 0.13248396E+03</pdfrwt>
<totfact> 0.16331707E+04</totfact>
</mgrwt>
</event>
<event>
 7    1  0.7550631E-006  0.1421023E+03  0.7546771E-02  0.1230929E+00
          1   -1    0    0  501    0  0.00000000000E+00  0.00000000000E+00  0.81782096723E+02  0.81782096723E+02  0.00000000000E+00 0. -1.
         -1   -1    0    0    0  501 -0.00000000000E+00 -0.00000000000E+00 -0.39010757891E+03  0.39010757891E+03  0.00000000000E+00 0.  1.
         23    2    1    2    0    0  0.15143821125E+02 -0.15201979070E+02 -0.31627759299E+03  0.32956508180E+03  0.90117655496E+02 0.  0.
          5    1    1    2  502    0 -0.63237756164E+01 -0.11034765968E+02  0.71540421012E+02  0.72813996159E+02  0.47000000000E+01 0. -1.
         -5    1    1    2    0  502 -0.88200455082E+01  0.26236745038E+02 -0.63588310210E+02  0.69510597669E+02  0.47000000000E+01 0.  1.
        -11    1    3    3    0    0 -0.11709131794E+02  0.33974382742E+02 -0.10475469131E+03  0.11074704422E+03  0.00000000000E+00 0. -1.
         11    1    3    3    0    0  0.26852952918E+02 -0.49176361812E+02 -0.21152290167E+03  0.21881803759E+03  0.00000000000E+00 0.  1.
<mgrwt>
<rscale>  0 0.12768708E+03</rscale>
<asrwt>0</asrwt>
<pdfrwt beam="1">  1        1 0.12581861E-01 0.14210227E+03</pdfrwt>
<pdfrwt beam="2">  1       -1 0.60016551E-01 0.14210227E+03</pdfrwt>
<totfact> 0.13434942E+03</totfact>
</mgrwt>
</event>
<event>
 8    1  0.7550631E-006  0.1343160E+03  0.7546771E-02  0.1230822E+00
          1   -1    0    0  501    0  0.00000000000E+00  0.00000000000E+00  0.13381908387E+04  0.13381908387E+04  0.00000000000E+00 0. -1.
         -1   -1    0    0    0  501 -0.00000000000E+00 -0.00000000000E+00 -0.19047628869E+02  0.19047628869E+02  0.00000000000E+00 0.  1.
         23    2    1    2    0    0  0.59989622811E+02 -0.82001085746E+01  0.18524301237E+03  0.21541078995E+03  0.91765125027E+02 0.  0.
         23    2    1    2    0    0 -0.59989622811E+02  0.82001085746E+01  0.11339001975E+04  0.11418276776E+04  0.11989491624E+03 0.  0.
          5    1    4    4  502    0 -0.39312312911E+02  0.62487054744E+02  0.73110864933E+03  0.73484150474E+03  0.47000000000E+01 0. -1.
         -5    1    4    4    0  502 -0.20677309901E+02 -0.54286946170E+02  0.40279154816E+03  0.40698617291E+03  0.47000000000E+01 0.  1.
        -11    1    3    3    0    0  0.33730890092E+02 -0.29476355359E+02  0.17418262000E+03  0.17985053123E+03  0.00000000000E+00 0. -1.
         11    1    3    3    0    0  0.26258732719E+02  0.21276246784E+02  0.11060392362E+02  0.35560258723E+02  0.00000000000E+00 0.  1.
<mgrwt>
<rscale>  0 0.12775705E+03</rscale>
<asrwt>0</asrwt>
<pdfrwt beam="1">  1        1 0.20587544E+00 0.13431600E+03</pdfrwt>
<pdfrwt beam="2">  1       -1 0.29304055E-02 0.13431600E+03</pdfrwt>
<totfact> 0.35427447E+03</totfact>
</mgrwt>
</event>
<event>
 8    1  0.7550631E-006  0.1295873E+03  0.7546771E-02  0.1241934E+00
          1   -1    0    0  501    0  0.00000000000E+00  0.00000000000E+00  0.19342041885E+03  0.19342041885E+03  0.00000000000E+00 0. -1.
         -1   -1    0    0    0  501 -0.00000000000E+00 -0.00000000000E+00 -0.80385044548E+02  0.80385044548E+02  0.00000000000E+00 0.  1.
         23    2    1    2    0    0 -0.34103581312E+02 -0.22235811710E+01 -0.61413707854E+01  0.97748748363E+02  0.91373425020E+02 0.  0.
         23    2    1    2    0    0  0.34103581312E+02  0.22235811710E+01  0.11917674509E+03  0.17605671503E+03  0.12499948707E+03 0.  0.
          5    1    4    4  502    0 -0.10859862556E+02  0.54507795601E+02  0.77020896289E+02  0.95096502886E+02  0.47000000000E+01 0. -1.
         -5    1    4    4    0  502  0.44963443868E+02 -0.52284214430E+02  0.42155848796E+02  0.80960212146E+02  0.47000000000E+01 0. -1.
        -11    1    3    3    0    0 -0.58817691071E+02 -0.78372110376E+00 -0.27610068656E+02  0.64980388525E+02  0.00000000000E+00 0.  1.
         11    1    3    3    0    0  0.24714109759E+02 -0.14398600672E+01  0.21468697870E+02  0.32768359838E+02  0.00000000000E+00 0. -1.
<mgrwt>
<rscale>  0 0.12070769E+03</rscale>
<asrwt>0</asrwt>
<pdfrwt beam="1">  1        1 0.29756987E-01 0.12958731E+03</pdfrwt>
<pdfrwt beam="2">  1       -1 0.12366930E-01 0.12958731E+03</pdfrwt>
<totfact> 0.63410336E+03</totfact>
</mgrwt>
</event>
<event>
 8    1  0.7550631E-006  0.1289953E+03  0.7546771E-02  0.1243122E+00
          2   -1    0    0  501    0  0.00000000000E+00  0.00000000000E+00  0.29705291595E+03  0.29705291595E+03  0.00000000000E+00 0. -1.
         -2   -1    0    0    0  501 -0.00000000000E+00 -0.00000000000E+00 -0.64177159700E+02  0.64177159700E+02  0.00000000000E+00 0.  1.
         23    2    1    2    0    0 -0.30576644383E+02 -0.89205187772E+01  0.17831070260E+01  0.96572537761E+02  0.91151350741E+02 0.  0.
         23    2    1    2    0    0  0.30576644383E+02  0.89205187772E+01  0.23109264923E+03  0.26465753789E+03  0.12500117199E+03 0.  0.
          5    1    4    4  502    0  0.71173900279E+02  0.71384244232E+00  0.20089830837E+03  0.21318643005E+03  0.47000000000E+01 0. -1.
         -5    1    4    4    0  502 -0.40597255896E+02  0.82066763348E+01  0.30194340861E+02  0.51471107845E+02  0.47000000000E+01 0. -1.
        -11    1    3    3    0    0  0.79528963344E+01  0.28383577553E+02 -0.23101714172E+02  0.37450837541E+02  0.00000000000E+00 0.  1.
         11    1    3    3    0    0 -0.38529540718E+02 -0.37304096330E+02  0.24884821198E+02  0.59121700221E+02  0.00000000000E+00 0. -1.
<mgrwt>
<rscale>  0 0.11998458E+03</rscale>
<asrwt>0</asrwt>
<pdfrwt beam="1">  1        2 0.45700448E-01 0.12899535E+03</pdfrwt>
<pdfrwt beam="2">  1       -2 0.98734093E-02 0.12899535E+03</pdfrwt>
<totfact> 0.71027777E+03</totfact>
</mgrwt>
</event>
<event>
 8    1  0.7550631E-006  0.1534954E+03  0.7546771E-02  0.1202442E+00
          3   -1    0    0  501    0  0.00000000000E+00  0.00000000000E+00  0.47098036313E+02  0.47098036313E+02  0.00000000000E+00 0. -1.
         -3   -1    0    0    0  501 -0.00000000000E+00 -0.00000000000E+00 -0.46521933450E+03  0.46521933450E+03  0.00000000000E+00 0.  1.
         23    2    1    2    0    0 -0.63677418987E+02  0.62309136377E+02 -0.25628096448E+03  0.28926327808E+03  0.10027995376E+03 0.  0.
         23    2    1    2    0    0  0.63677418987E+02 -0.62309136377E+02 -0.16184033370E+03  0.22305409273E+03  0.12499436990E+03 0.  0.
          5    1    4    4  502    0 -0.34712757330E+02 -0.11304946200E+02 -0.16804853974E+02  0.40463198676E+02  0.47000000000E+01 0. -1.
         -5    1    4    4    0  502  0.98390176317E+02 -0.51004190177E+02 -0.14503547973E+03  0.18259089406E+03  0.47000000000E+01 0. -1.
        -11    1    3    3    0    0 -0.40779841675E+02  0.16023011464E+02 -0.21379550900E+02  0.48752616137E+02  0.00000000000E+00 0. -1.
         11    1    3    3    0    0 -0.22897577312E+02  0.46286124912E+02 -0.23490141358E+03  0.24051066194E+03  0.00000000000E+00 0.  1.
<mgrwt>
<rscale>  0 0.14840905E+03</rscale>
<asrwt>0</asrwt>
<pdfrwt beam="1">  1        3 0.72458519E-02 0.15349539E+03</pdfrwt>
<pdfrwt beam="2">  1       -3 0.71572204E-01 0.15349539E+03</pdfrwt>
<totfact> 0.56124902E+02</totfact>
</mgrwt>
</event>
<event>
 8    1  0.7550631E-006  0.1554030E+03  0.7546771E-02  0.1203308E+00
          2   -1    0    0  501    0  0.00000000000E+00  0.00000000000E+00  0.79831598317E+03  0.79831598317E+03  0.00000000000E+00 0. -1.
         -2   -1    0    0    0  501 -0.00000000000E+00 -0.00000000000E+00 -0.29963254235E+02  0.29963254235E+02  0.00000000000E+00 0.  1.
         23    2    1    2    0    0  0.90377759359E+02 -0.18865314966E+02  0.18316497292E+03  0.22280851943E+03  0.87006836103E+02 0.  0.
         23    2    1    2    0    0 -0.90377759359E+02  0.18865314966E+02  0.58518775602E+03  0.60547071798E+03  0.12500416410E+03 0.  0.
          5    1    4    4  502    0  0.13256353187E+02 -0.16750677256E+02  0.19676060536E+02  0.29420289709E+02  0.47000000000E+01 0. -1.
         -5    1    4    4    0  502 -0.10363411255E+03  0.35615992222E+02  0.56551169548E+03  0.57605042827E+03  0.47000000000E+01 0. -1.
        -11    1    3    3    0    0  0.32891235293E+02  0.11080113433E+02  0.74204493076E+01  0.35491764407E+02  0.00000000000E+00 0.  1.
         11    1    3    3    0    0  0.57486524066E+02 -0.29945428399E+02  0.17574452361E+03  0.18731675502E+03  0.00000000000E+00 0. -1.
<mgrwt>
<rscale>  0 0.14771624E+03</rscale>
<asrwt>0</asrwt>
<pdfrwt beam="1">  1        2 0.12281783E+00 0.15540296E+03</pdfrwt>
<pdfrwt beam="2">  1       -2 0.46097320E-02 0.15540296E+03</pdfrwt>
<totfact> 0.76582634E+03</totfact>
</mgrwt>
</event>
<event>
 8    1  0.7550631E-006  0.1371644E+03  0.7546771E-02  0.1230009E+00
         -1   -1    0    0    0  501 -0.00000000000E+00  0.00000000000E+00  0.41541815348E+02  0.41541815348E+02  0.00000000000E+00 0.  1.
          1   -1    0    0  501    0  0.00000000000E+00 -0.00000000000E+00 -0.38109786953E+03  0.38109786953E+03  0.00000000000E+00 0. -1.
         23    2    1    2    0    0 -0.75504641820E+01  0.55962199351E+02 -0.91834387121E+02  0.13947878426E+03  0.88498583798E+02 0.  0.
         23    2    1    2    0    0  0.75504641820E+01 -0.55962199351E+02 -0.24772166706E+03  0.28316090062E+03  0.12500117617E+03 0.  0.
          5    1    4    4  502    0  0.26079065380E+01  0.31904413832E+02 -0.14143678298E+03  0.14509013191E+03  0.47000000000E+01 0.  1.
         -5    1    4    4    0  502  0.49425576439E+01 -0.87866613183E+02 -0.10628488409E+03  0.13807076871E+03  0.47000000000E+01 0.  1.
        -11    1    3    3    0    0  0.13367835929E+02  0.35098179985E+01  0.13905031907E+02  0.19605299593E+02  0.00000000000E+00 0.  1.
         11    1    3    3    0    0 -0.20918300111E+02  0.52452381353E+02 -0.10573941903E+03  0.11987348466E+03  0.00000000000E+00 0. -1.
<mgrwt>
<rscale>  0 0.12829436E+03</rscale>
<asrwt>0</asrwt>
<pdfrwt beam="2">  1        1 0.58630443E-01 0.13716440E+03</pdfrwt>
<pdfrwt beam="1">  1       -1 0.63910484E-02 0.13716440E+03</pdfrwt>
<totfact> 0.74723623E+03</totfact>
</mgrwt>
</event>
<event>
 8    1  0.7550631E-006  0.1255787E+03  0.7546771E-02  0.1246071E+00
          2   -1    0    0  501    0  0.00000000000E+00  0.00000000000E+00  0.10512417573E+04  0.10512417573E+04  0.00000000000E+00 0. -1.
         -2   -1    0    0    0  501 -0.00000000000E+00 -0.00000000000E+00 -0.19788075832E+02  0.19788075832E+02  0.00000000000E+00 0.  1.
         23    2    1    2    0    0 -0.10626801133E+02 -0.56836699308E+01  0.14276788949E+03  0.17351524130E+03  0.97875613340E+02 0.  0.
         23    2    1    2    0    0  0.10626801133E+02  0.56836699308E+01  0.88868579200E+03  0.89751459186E+03  0.12499909074E+03 0.  0.
          5    1    4    4  502    0  0.54088331539E+02 -0.27441634713E+02  0.28942655478E+03  0.29575059008E+03  0.47000000000E+01 0. -1.
         -5    1    4    4    0  502 -0.43461530406E+02  0.33125304644E+02  0.59925923722E+03  0.60176400177E+03  0.47000000000E+01 0. -1.
        -11    1    3    3    0    0  0.10383243069E+02  0.43236054974E+02  0.53385839872E+02  0.69478169846E+02  0.00000000000E+00 0.  1.
         11    1    3    3    0    0 -0.21010044202E+02 -0.48919724904E+02  0.89382049617E+02  0.10403707145E+03  0.00000000000E+00 0. -1.
<mgrwt>
<rscale>  0 0.11821495E+03</rscale>
<asrwt>0</asrwt>
<pdfrwt beam="1">  1        2 0.16172946E+00 0.12557868E+03</pdfrwt>
<pdfrwt beam="2">  1       -2 0.30443202E-02 0.12557868E+03</pdfrwt>
<totfact> 0.97378210E+03</totfact>
</mgrwt>
</event>
<event>
 8    1  0.7550631E-006  0.1640387E+03  0.7546771E-02  0.1191435E+00
          1   -1    0    0  501    0  0.00000000000E+00  0.00000000000E+00  0.68250790641E+03  0.68250790641E+03  0.00000000000E+00 0. -1.
         -1   -1    0    0    0  501 -0.00000000000E+00 -0.00000000000E+00 -0.54095238066E+02  0.54095238066E+02  0.00000000000E+00 0.  1.
         23    2    1    2    0    0  0.18776418390E+02 -0.10458349289E+03  0.73401615597E+02  0.15785796822E+03  0.90780394833E+02 0.  0.
         23    2    1    2    0    0 -0.18776418390E+02  0.10458349289E+03  0.55501105275E+03  0.57874517626E+03  0.12497379522E+03 0.  0.
          5    1    4    4  502    0  0.45136282145E+02  0.76373589243E+02  0.38001028871E+03  0.39025647801E+03  0.47000000000E+01 0. -1.
         -5    1    4    4    0  502 -0.63912700535E+02  0.28209903650E+02  0.17500076404E+03  0.18848869825E+03  0.47000000000E+01 0. -1.
        -11    1    3    3    0    0  0.40896774440E+02 -0.81494885950E+02  0.84197653804E+02  0.12410965918E+03  0.00000000000E+00 0. -1.
         11    1    3    3    0    0 -0.22120356050E+02 -0.23088606943E+02 -0.10796038207E+02  0.33748309044E+02  0.00000000000E+00 0.  1.
<mgrwt>
<rscale>  0 0.15759823E+03</rscale>
<asrwt>0</asrwt>
<pdfrwt beam="1">  1        1 0.10500121E+00 0.16403875E+03</pdfrwt>
<pdfrwt beam="2">  1       -1 0.83223448E-02 0.16403875E+03</pdfrwt>
<totfact> 0.23415144E+03</totfact>
</mgrwt>
</event>
<event>
 7    1  0.7550631E-006  0.1588161E+03  0.7546771E-02  0.1200675E+00
          1   -1    0    0  501    0  0.00000000000E+00  0.00000000000E+00  0.80204832925E+02  0.80204832925E+02  0.00000000000E+00 0. -1.
         -1   -1    0    0    0  501 -0.00000000000E+00 -0.00000000000E+00 -0.25888843499E+03  0.25888843499E+03  0.00000000000E+00 0.  1.
         23    2    1    2    0    0  0.87108079529E+02 -0.10102560436E+02 -0.52884193862E+02  0.13649011274E+03  0.90238205146E+02 0.  0.
          5    1    1    2  502    0  0.27286447882E+02 -0.11811832880E+01  0.52646093801E+01  0.28209068469E+02  0.47000000000E+01 0. -1.
         -5    1    1    2    0  502 -0.11439452741E+03  0.11283743724E+02 -0.13106401758E+03  0.17439408671E+03  0.47000000000E+01 0.  1.
        -11    1    3    3    0    0 -0.13274833818E+02 -0.20331144379E+02 -0.15895510525E+02  0.29021438619E+02  0.00000000000E+00 0.  1.
         11    1    3    3    0    0  0.10038291335E+03  0.10228583943E+02 -0.36988683337E+02  0.10746867412E+03  0.00000000000E+00 0. -1.
<mgrwt>
<rscale>  0 0.14983581E+03</rscale>
<asrwt>0</asrwt>
<pdfrwt beam="1">  1        1 0.12339205E-01 0.15881608E+03</pdfrwt>
<pdfrwt beam="2">  1       -1 0.39828990E-01 0.15881608E+03</pdfrwt>
<totfact> 0.29254160E+03</totfact>
</mgrwt>
</event>
<event>
 8    1  0.7550631E-006  0.2317918E+03  0.7546771E-02  0.1128493E+00
         -2   -1    0    0    0  501 -0.00000000000E+00  0.00000000000E+00  0.21313050165E+02  0.21313050165E+02  0.00000000000E+00 0.  1.
          2   -1    0    0  501    0  0.00000000000E+00 -0.00000000000E+00 -0.24143042712E+04  0.24143042712E+04  0.00000000000E+00 0. -1.
         23    2    1    2    0    0  0.55229420200E+02 -0.18721934631E+03 -0.93580591619E+03  0.96011182500E+03  0.89334378889E+02 0.  0.
         23    2    1    2    0    0 -0.55229420200E+02  0.18721934631E+03 -0.14571853048E+04  0.14755054963E+04  0.12500433850E+03 0.  0.
          5    1    4    4  502    0 -0.38458943756E+02  0.65161612597E+02 -0.97011070970E+03  0.97306834559E+03  0.47000000000E+01 0.  1.
         -5    1    4    4    0  502 -0.16770476444E+02  0.12205773371E+03 -0.48707459510E+03  0.50243715073E+03  0.47000000000E+01 0.  1.
        -11    1    3    3    0    0  0.63745450142E+02 -0.13621046915E+03 -0.81410289022E+03  0.82787697768E+03  0.00000000000E+00 0. -1.
         11    1    3    3    0    0 -0.85160299419E+01 -0.51008877161E+02 -0.12170302597E+03  0.13223484732E+03  0.00000000000E+00 0.  1.
<mgrwt>
<rscale>  0 0.22738668E+03</rscale>
<asrwt>0</asrwt>
<pdfrwt beam="2">  1        2 0.37143113E+00 0.23179184E+03</pdfrwt>
<pdfrwt beam="1">  1       -2 0.32789334E-02 0.23179184E+03</pdfrwt>
<totfact> 0.16624023E+03</totfact>
</mgrwt>
</event>
<event>
 8    1  0.7550631E-006  0.2222714E+03  0.7546771E-02  0.1135528E+00
         -2   -1    0    0    0  501 -0.00000000000E+00  0.00000000000E+00  0.41959641898E+02  0.41959641898E+02  0.00000000000E+00 0.  1.
          2   -1    0    0  501    0  0.00000000000E+00 -0.00000000000E+00 -0.15203701805E+04  0.15203701805E+04  0.00000000000E+00 0. -1.
         23    2    1    2    0    0  0.10903172635E+03  0.14796378194E+03 -0.30116768237E+03  0.36428752849E+03  0.90676526162E+02 0.  0.
         23    2    1    2    0    0 -0.10903172635E+03 -0.14796378194E+03 -0.11772428562E+04  0.11980422939E+04  0.12499358906E+03 0.  0.
          5    1    4    4  502    0  0.29660097179E+01  0.16700733427E+02 -0.43381748034E+02  0.46816426318E+02  0.47000000000E+01 0. -1.
         -5    1    4    4    0  502 -0.11199773607E+03 -0.16466451537E+03 -0.11338611082E+04  0.11512258675E+04  0.47000000000E+01 0. -1.
        -11    1    3    3    0    0  0.29144378996E+02  0.70248002906E+02 -0.54365615584E+02  0.93486880883E+02  0.00000000000E+00 0.  1.
         11    1    3    3    0    0  0.79887347357E+02  0.77715779033E+02 -0.24680206678E+03  0.27080064761E+03  0.00000000000E+00 0. -1.
<mgrwt>
<rscale>  0 0.21780776E+03</rscale>
<asrwt>0</asrwt>
<pdfrwt beam="2">  1        2 0.23390305E+00 0.22227145E+03</pdfrwt>
<pdfrwt beam="1">  1       -2 0.64553310E-02 0.22227145E+03</pdfrwt>
<totfact> 0.17623948E+03</totfact>
</mgrwt>
</event>
<event>
 7    1  0.7550631E-006  0.1646478E+03  0.7546771E-02  0.1201314E+00
         -2   -1    0    0    0  501 -0.00000000000E+00  0.00000000000E+00  0.45139066602E+02  0.45139066602E+02  0.00000000000E+00 0.  1.
          2   -1    0    0  501    0  0.00000000000E+00 -0.00000000000E+00 -0.44942683620E+03  0.44942683620E+03  0.00000000000E+00 0. -1.
         23    2    1    2    0    0  0.15971365894E+02 -0.62654354535E+02 -0.10545507878E+03  0.15337696965E+03  0.90681136450E+02 0.  0.
          5    1    1    2  502    0 -0.81151729083E+02  0.50159496273E+02 -0.20501084342E+03  0.22617054211E+03  0.47000000000E+01 0. -1.
         -5    1    1    2    0  502  0.65180363189E+02  0.12494858261E+02 -0.93821847403E+02  0.11501839104E+03  0.47000000000E+01 0.  1.
        -11    1    3    3    0    0 -0.23091921926E+02 -0.42197335698E+02 -0.97289567224E+02  0.10853161700E+03  0.00000000000E+00 0. -1.
         11    1    3    3    0    0  0.39063287820E+02 -0.20457018836E+02 -0.81655115519E+01  0.44845352646E+02  0.00000000000E+00 0.  1.
<mgrwt>
<rscale>  0 0.14931761E+03</rscale>
<asrwt>0</asrwt>
<pdfrwt beam="2">  1        2 0.69142589E-01 0.16464784E+03</pdfrwt>
<pdfrwt beam="1">  1       -2 0.69444719E-02 0.16464784E+03</pdfrwt>
<totfact> 0.80006965E+03</totfact>
</mgrwt>
</event>
<event>
 6    1  0.7550631E-006  0.1816229E+03  0.7546771E-02  0.1208808E+00
          2   -1    0    0  501    0  0.00000000000E+00  0.00000000000E+00  0.40374327070E+03  0.40374327070E+03  0.00000000000E+00 0. -1.
         -2   -1    0    0    0  501 -0.00000000000E+00 -0.00000000000E+00 -0.39426206635E+02  0.39426206635E+02  0.00000000000E+00 0.  1.
          5    1    1    2  502    0 -0.54845741110E+02  0.17139524281E+02  0.15831936775E+03  0.16849015050E+03  0.47000000000E+01 0. -1.
         -5    1    1    2    0  502  0.79427068919E+02 -0.72742779789E+02  0.98268799501E+02  0.14587329517E+03  0.47000000000E+01 0.  1.
        -11    1    1    2    0    0 -0.22392613610E+02  0.25985181335E+02  0.29904975517E+02  0.45507871341E+02  0.00000000000E+00 0. -1.
         11    1    1    2    0    0 -0.21887141998E+01  0.29618074174E+02  0.77823921300E+02  0.83298160328E+02  0.00000000000E+00 0.  1.
<mgrwt>
<rscale>  0 0.14341394E+03</rscale>
<asrwt>0</asrwt>
<pdfrwt beam="1">  1        2 0.62114347E-01 0.18162293E+03</pdfrwt>
<pdfrwt beam="2">  1       -2 0.60655705E-02 0.18162293E+03</pdfrwt>
<totfact> 0.11126905E+04</totfact>
</mgrwt>
</event>
<event>
 8    1  0.7550631E-006  0.1658984E+03  0.7546771E-02  0.1189023E+00
         -4   -1    0    0    0  501 -0.00000000000E+00  0.00000000000E+00  0.74380640648E+02  0.74380640648E+02  0.00000000000E+00 0.  1.
          4   -1    0    0  501    0  0.00000000000E+00 -0.00000000000E+00 -0.32003510778E+03  0.32003510778E+03  0.00000000000E+00 0. -1.
         23    2    1    2    0    0  0.46163090516E+02 -0.98828090487E+02 -0.12010861088E+03  0.18636756799E+03  0.91699343483E+02 0.  0.
         23    2    1    2    0    0 -0.46163090516E+02  0.98828090487E+02 -0.12554585625E+03  0.20804818044E+03  0.12499704383E+03 0.  0.
          5    1    4    4  502    0  0.24020563260E+02  0.71437906831E+02 -0.19698467357E+02  0.78041537709E+02  0.47000000000E+01 0.  1.
         -5    1    4    4    0  502 -0.70183653776E+02  0.27390183657E+02 -0.10584738890E+03  0.13000664273E+03  0.47000000000E+01 0.  1.
        -11    1    3    3    0    0 -0.23822299505E+02 -0.52268511770E+02 -0.38075977547E+02  0.68915015363E+02  0.00000000000E+00 0.  1.
         11    1    3    3    0    0  0.69985390021E+02 -0.46559578717E+02 -0.82032633332E+02  0.11745255263E+03  0.00000000000E+00 0. -1.
<mgrwt>
<rscale>  0 0.15971174E+03</rscale>
<asrwt>0</asrwt>
<pdfrwt beam="2">  1        4 0.49236170E-01 0.16589841E+03</pdfrwt>
<pdfrwt beam="1">  1       -4 0.11443176E-01 0.16589841E+03</pdfrwt>
<totfact> 0.41611110E+02</totfact>
</mgrwt>
</event>
<event>
 8    1  0.7550631E-006  0.1362796E+03  0.7546771E-02  0.1227154E+00
          2   -1    0    0  501    0  0.00000000000E+00  0.00000000000E+00  0.15001003154E+04  0.15001003154E+04  0.00000000000E+00 0. -1.
         -2   -1    0    0    0  501 -0.00000000000E+00 -0.00000000000E+00 -0.14881898327E+02  0.14881898327E+02  0.00000000000E+00 0.  1.
         23    2    1    2    0    0 -0.45284833279E+02 -0.29928681942E+02  0.28099033796E+03  0.30306744474E+03  0.99738978870E+02 0.  0.
         23    2    1    2    0    0  0.45284833279E+02  0.29928681942E+02  0.12042280791E+04  0.12119147690E+04  0.12500279452E+03 0.  0.
          5    1    4    4  502    0  0.45576587250E+01 -0.43832383148E+02  0.24454184363E+03  0.24852535757E+03  0.47000000000E+01 0. -1.
         -5    1    4    4    0  502  0.40727174554E+02  0.73761065090E+02  0.95968623548E+03  0.96338941142E+03  0.47000000000E+01 0. -1.
        -11    1    3    3    0    0  0.14406931019E+02  0.19094280334E+02  0.20948272573E+02  0.31795932549E+02  0.00000000000E+00 0.  1.
         11    1    3    3    0    0 -0.59691764298E+02 -0.49022962276E+02  0.26004206539E+03  0.27127151219E+03  0.00000000000E+00 0. -1.
<mgrwt>
<rscale>  0 0.13020360E+03</rscale>
<asrwt>0</asrwt>
<pdfrwt beam="1">  1        2 0.23078454E+00 0.13627964E+03</pdfrwt>
<pdfrwt beam="2">  1       -2 0.22895240E-02 0.13627964E+03</pdfrwt>
<totfact> 0.84451644E+03</totfact>
</mgrwt>
</event>
<event>
 7    1  0.7550631E-006  0.1999412E+03  0.7546771E-02  0.1178713E+00
         -3   -1    0    0    0  501 -0.00000000000E+00  0.00000000000E+00  0.29033172957E+02  0.29033172957E+02  0.00000000000E+00 0.  1.
          3   -1    0    0  501    0  0.00000000000E+00 -0.00000000000E+00 -0.79914508330E+03  0.79914508330E+03  0.00000000000E+00 0. -1.
         23    2    1    2    0    0 -0.43462469790E+01  0.45617208596E+02 -0.21542081518E+03  0.23855236963E+03  0.91658528581E+02 0.  0.
          5    1    1    2  502    0 -0.14959340773E+02 -0.58463602599E+02 -0.56169763336E+03  0.56494964025E+03  0.47000000000E+01 0. -1.
         -5    1    1    2    0  502  0.19305587752E+02  0.12846394003E+02  0.70065381956E+01  0.24676246368E+02  0.47000000000E+01 0.  1.
        -11    1    3    3    0    0  0.34977908001E+02 -0.71548389057E+01 -0.91929872597E+02  0.98619203219E+02  0.00000000000E+00 0. -1.
         11    1    3    3    0    0 -0.39324154980E+02  0.52772047501E+02 -0.12349094258E+03  0.13993316641E+03  0.00000000000E+00 0.  1.
<mgrwt>
<rscale>  0 0.16917301E+03</rscale>
<asrwt>0</asrwt>
<pdfrwt beam="2">  1        3 0.12294538E+00 0.19994118E+03</pdfrwt>
<pdfrwt beam="1">  1       -3 0.44666425E-02 0.19994118E+03</pdfrwt>
<totfact> 0.37295745E+02</totfact>
</mgrwt>
</event>
<event>
 8    1  0.7550631E-006  0.1716498E+03  0.7546771E-02  0.1182119E+00
          1   -1    0    0  501    0  0.00000000000E+00  0.00000000000E+00  0.10976493559E+04  0.10976493559E+04  0.00000000000E+00 0. -1.
         -1   -1    0    0    0  501 -0.00000000000E+00 -0.00000000000E+00 -0.24053149704E+02  0.24053149704E+02  0.00000000000E+00 0.  1.
         23    2    1    2    0    0 -0.86540611193E+02 -0.79728253639E+02  0.42190879477E+03  0.44778845494E+03  0.93067703618E+02 0.  0.
         23    2    1    2    0    0  0.86540611193E+02  0.79728253639E+02  0.65168741143E+03  0.67391405067E+03  0.12497117132E+03 0.  0.
          5    1    4    4  502    0  0.19735642532E+02  0.66642428273E+02  0.12737404597E+03  0.14517901507E+03  0.47000000000E+01 0.  1.
         -5    1    4    4    0  502  0.66804968661E+02  0.13085825366E+02  0.52431336547E+03  0.52873503560E+03  0.47000000000E+01 0.  1.
        -11    1    3    3    0    0  0.70704750466E+01 -0.42796598429E+02  0.75660132906E+02  0.87212362460E+02  0.00000000000E+00 0.  1.
         11    1    3    3    0    0 -0.93611086240E+02 -0.36931655210E+02  0.34624866186E+03  0.36057609248E+03  0.00000000000E+00 0. -1.
<mgrwt>
<rscale>  0 0.16596762E+03</rscale>
<asrwt>0</asrwt>
<pdfrwt beam="1">  1        1 0.16886909E+00 0.17164983E+03</pdfrwt>
<pdfrwt beam="2">  1       -1 0.37004854E-02 0.17164983E+03</pdfrwt>
<totfact> 0.37013572E+03</totfact>
</mgrwt>
</event>
<event>
 8    1  0.7550631E-006  0.1437021E+03  0.7546771E-02  0.1220124E+00
         -2   -1    0    0    0  501 -0.00000000000E+00  0.00000000000E+00  0.57885115575E+02  0.57885115575E+02  0.00000000000E+00 0.  1.
          2   -1    0    0  501    0  0.00000000000E+00 -0.00000000000E+00 -0.30046269075E+03  0.30046269075E+03  0.00000000000E+00 0. -1.
         23    2    1    2    0    0 -0.55484612028E+02 -0.44115440280E+02 -0.63998691889E+02  0.12913022038E+03  0.86914135844E+02 0.  0.
         23    2    1    2    0    0  0.55484612028E+02  0.44115440280E+02 -0.17857888328E+03  0.22921758594E+03  0.12500227961E+03 0.  0.
          5    1    4    4  502    0 -0.95466871062E+00 -0.35683424526E+02 -0.91121963476E+02  0.97977142262E+02  0.47000000000E+01 0.  1.
         -5    1    4    4    0  502  0.56439280739E+02  0.79798864806E+02 -0.87456919809E+02  0.13124044368E+03  0.47000000000E+01 0.  1.
        -11    1    3    3    0    0 -0.51485571387E+02 -0.14849116044E+02  0.52540337455E+01  0.53841110491E+02  0.00000000000E+00 0.  1.
         11    1    3    3    0    0 -0.39990406413E+01 -0.29266324236E+02 -0.69252725635E+02  0.75289109891E+02  0.00000000000E+00 0. -1.
<mgrwt>
<rscale>  0 0.13506788E+03</rscale>
<asrwt>0</asrwt>
<pdfrwt beam="2">  1        2 0.46225029E-01 0.14370207E+03</pdfrwt>
<pdfrwt beam="1">  1       -2 0.89054025E-02 0.14370207E+03</pdfrwt>
<totfact> 0.83061986E+03</totfact>
</mgrwt>
</event>
<event>
 8    1  0.7550631E-006  0.1321765E+03  0.7546771E-02  0.1238311E+00
         -1   -1    0    0    0  501 -0.00000000000E+00  0.00000000000E+00  0.88389052970E+02  0.88389052970E+02  0.00000000000E+00 0.  1.
          1   -1    0    0  501    0  0.00000000000E+00 -0.00000000000E+00 -0.15131811878E+03  0.15131811878E+03  0.00000000000E+00 0. -1.
         23    2    1    2    0    0  0.42886306606E+02  0.25491635284E+01 -0.22393103719E+02  0.10145449371E+03  0.89139383388E+02 0.  0.
         23    2    1    2    0    0 -0.42886306606E+02 -0.25491635284E+01 -0.40535962088E+02  0.13825267804E+03  0.12499962093E+03 0.  0.
          5    1    4    4  502    0 -0.56979571330E+02 -0.51209587656E+02 -0.64762620492E+01  0.77026783569E+02  0.47000000000E+01 0.  1.
         -5    1    4    4    0  502  0.14093264724E+02  0.48660424128E+02 -0.34059700039E+02  0.61225894469E+02  0.47000000000E+01 0.  1.
        -11    1    3    3    0    0 -0.10593847835E+02  0.17389370664E+02 -0.38594958517E+02  0.43637032976E+02  0.00000000000E+00 0. -1.
         11    1    3    3    0    0  0.53480154440E+02 -0.14840207136E+02  0.16201854797E+02  0.57817460734E+02  0.00000000000E+00 0.  1.
<mgrwt>
<rscale>  0 0.12294823E+03</rscale>
<asrwt>0</asrwt>
<pdfrwt beam="2">  1        1 0.23279710E-01 0.13217654E+03</pdfrwt>
<pdfrwt beam="1">  1       -1 0.13598316E-01 0.13217654E+03</pdfrwt>
<totfact> 0.74509703E+03</totfact>
</mgrwt>
</event>
<event>
 8    1  0.7550631E-006  0.1299509E+03  0.7546771E-02  0.1242141E+00
          1   -1    0    0  501    0  0.00000000000E+00  0.00000000000E+00  0.58069862812E+02  0.58069862812E+02  0.00000000000E+00 0. -1.
         -1   -1    0    0    0  501 -0.00000000000E+00 -0.00000000000E+00 -0.28783003970E+03  0.28783003970E+03  0.00000000000E+00 0.  1.
         23    2    1    2    0    0  0.24561511557E+02  0.25673097482E+02 -0.18478112414E+03  0.20838501369E+03  0.89542583778E+02 0.  0.
         23    2    1    2    0    0 -0.24561511557E+02 -0.25673097482E+02 -0.44979052750E+02  0.13751488882E+03  0.12499941470E+03 0.  0.
          5    1    4    4  502    0  0.16641452363E+02  0.40748702047E+02 -0.38977074241E+02  0.58980479581E+02  0.47000000000E+01 0.  1.
         -5    1    4    4    0  502 -0.41202963920E+02 -0.66421799529E+02 -0.60019785094E+01  0.78534409238E+02  0.47000000000E+01 0.  1.
        -11    1    3    3    0    0 -0.25351979993E+02  0.18795468683E+02 -0.23307519313E+02  0.39233059900E+02  0.00000000000E+00 0. -1.
         11    1    3    3    0    0  0.49913491550E+02  0.68776287989E+01 -0.16147360482E+03  0.16915195379E+03  0.00000000000E+00 0.  1.
<mgrwt>
<rscale>  0 0.12058113E+03</rscale>
<asrwt>0</asrwt>
<pdfrwt beam="1">  1        1 0.89338251E-02 0.12995087E+03</pdfrwt>
<pdfrwt beam="2">  1       -1 0.44281544E-01 0.12995087E+03</pdfrwt>
<totfact> 0.36792592E+03</totfact>
</mgrwt>
</event>
<event>
 8    1  0.7550631E-006  0.1472032E+03  0.7546771E-02  0.1214028E+00
         -1   -1    0    0    0  501 -0.00000000000E+00  0.00000000000E+00  0.19005098509E+03  0.19005098509E+03  0.00000000000E+00 0.  1.
          1   -1    0    0  501    0  0.00000000000E+00 -0.00000000000E+00 -0.93360359361E+02  0.93360359361E+02  0.00000000000E+00 0. -1.
         23    2    1    2    0    0 -0.76738505626E+02  0.12493488834E+02  0.52152890776E+02  0.12961800418E+03  0.89643836839E+02 0.  0.
         23    2    1    2    0    0  0.76738505626E+02 -0.12493488834E+02  0.44537734953E+02  0.15379334027E+03  0.12499558459E+03 0.  0.
          5    1    4    4  502    0  0.84979435460E+02 -0.50812451955E+02  0.54446944086E+02  0.11309274709E+03  0.47000000000E+01 0. -1.
         -5    1    4    4    0  502 -0.82409298341E+01  0.38318963121E+02 -0.99092091322E+01  0.40700593175E+02  0.47000000000E+01 0. -1.
        -11    1    3    3    0    0 -0.64798001770E+02  0.26854220142E+02  0.73266623992E+02  0.10142942553E+03  0.00000000000E+00 0.  1.
         11    1    3    3    0    0 -0.11940503856E+02 -0.14360731308E+02 -0.21113733216E+02  0.28188578650E+02  0.00000000000E+00 0. -1.
<mgrwt>
<rscale>  0 0.13948154E+03</rscale>
<asrwt>0</asrwt>
<pdfrwt beam="2">  1        1 0.14363132E-01 0.14720320E+03</pdfrwt>
<pdfrwt beam="1">  1       -1 0.29238613E-01 0.14720320E+03</pdfrwt>
<totfact> 0.40593787E+03</totfact>
</mgrwt>
</event>
<event>
 8    1  0.7550631E-006  0.2218786E+03  0.7546771E-02  0.1134564E+00
          1   -1    0    0  501    0  0.00000000000E+00  0.00000000000E+00  0.84999407853E+03  0.84999407853E+03  0.00000000000E+00 0. -1.
         -1   -1    0    0    0  501 -0.00000000000E+00 -0.00000000000E+00 -0.92693948534E+02  0.92693948534E+02  0.00000000000E+00 0.  1.
         23    2    1    2    0    0  0.98340896003E+02 -0.15470609973E+03  0.72823303970E+02  0.22314746723E+03  0.10433910777E+03 0.  0.
         23    2    1    2    0    0 -0.98340896003E+02  0.15470609973E+03  0.68447682602E+03  0.71954055983E+03  0.12500073103E+03 0.  0.
          5    1    4    4  502    0 -0.22504364197E+02 -0.83472083817E+01  0.22146777387E+03  0.22281424361E+03  0.47000000000E+01 0.  1.
         -5    1    4    4    0  502 -0.75836531806E+02  0.16305330811E+03  0.46300905216E+03  0.49672631622E+03  0.47000000000E+01 0.  1.
        -11    1    3    3    0    0  0.35012799429E+02 -0.10239042424E+03 -0.72243082032E+01  0.10845222787E+03  0.00000000000E+00 0. -1.
         11    1    3    3    0    0  0.63328096575E+02 -0.52315675487E+02  0.80047612173E+02  0.11469523936E+03  0.00000000000E+00 0.  1.
<mgrwt>
<rscale>  0 0.21908931E+03</rscale>
<asrwt>0</asrwt>
<pdfrwt beam="1">  1        1 0.13076831E+00 0.22187855E+03</pdfrwt>
<pdfrwt beam="2">  1       -1 0.14260608E-01 0.22187855E+03</pdfrwt>
<totfact> 0.73396023E+02</totfact>
</mgrwt>
</event>
<event>
 8    1  0.7550631E-006  0.1370997E+03  0.7546771E-02  0.1233900E+00
         -1   -1    0    0    0  501 -0.00000000000E+00  0.00000000000E+00  0.56355275795E+03  0.56355275795E+03  0.00000000000E+00 0.  1.
          1   -1    0    0  501    0  0.00000000000E+00 -0.00000000000E+00 -0.25474404116E+02  0.25474404116E+02  0.00000000000E+00 0. -1.
         23    2    1    2    0    0 -0.11582002188E+02  0.55103530397E+02  0.28693624713E+03  0.30290009666E+03  0.79028582181E+02 0.  0.
         23    2    1    2    0    0  0.11582002188E+02 -0.55103530397E+02  0.25114210670E+03  0.28612706541E+03  0.12500319181E+03 0.  0.
          5    1    4    4  502    0 -0.40622446592E+02  0.98591752075E+01  0.14566378167E+03  0.15161600771E+03  0.47000000000E+01 0. -1.
         -5    1    4    4    0  502  0.52204448780E+02 -0.64962705605E+02  0.10547832504E+03  0.13451105770E+03  0.47000000000E+01 0. -1.
        -11    1    3    3    0    0 -0.34577975168E+02 -0.22139493156E+01  0.12017876763E+03  0.12507387467E+03  0.00000000000E+00 0. -1.
         11    1    3    3    0    0  0.22995972980E+02  0.57317479713E+02  0.16675747950E+03  0.17782622198E+03  0.00000000000E+00 0.  1.
<mgrwt>
<rscale>  0 0.12575091E+03</rscale>
<asrwt>0</asrwt>
<pdfrwt beam="2">  1        1 0.39191395E-02 0.13709974E+03</pdfrwt>
<pdfrwt beam="1">  1       -1 0.86700415E-01 0.13709974E+03</pdfrwt>
<totfact> 0.31041786E+03</totfact>
</mgrwt>
</event>
<event>
 8    1  0.7550631E-006  0.1740908E+03  0.7546771E-02  0.1179672E+00
          2   -1    0    0  501    0  0.00000000000E+00  0.00000000000E+00  0.55492144084E+03  0.55492144084E+03  0.00000000000E+00 0. -1.
         -2   -1    0    0    0  501 -0.00000000000E+00 -0.00000000000E+00 -0.49952309369E+02  0.49952309369E+02  0.00000000000E+00 0.  1.
         23    2    1    2    0    0 -0.69881690266E+02 -0.98996772615E+02  0.17459578528E+03  0.23143812187E+03  0.91630259171E+02 0.  0.
         23    2    1    2    0    0  0.69881690266E+02  0.98996772615E+02  0.33037334619E+03  0.37343562833E+03  0.12499523597E+03 0.  0.
          5    1    4    4  502    0  0.76501049809E+02  0.81625687596E+02  0.12761606232E+03  0.16977371074E+03  0.47000000000E+01 0.  1.
         -5    1    4    4    0  502 -0.66193595432E+01  0.17371085018E+02  0.20275728386E+03  0.20366191759E+03  0.47000000000E+01 0.  1.
        -11    1    3    3    0    0 -0.52207143630E+02 -0.50732001046E+01  0.88122386448E+02  0.10255183177E+03  0.00000000000E+00 0. -1.
         11    1    3    3    0    0 -0.17674546636E+02 -0.93923572510E+02  0.86473398834E+02  0.12888629011E+03  0.00000000000E+00 0.  1.
<mgrwt>
<rscale>  0 0.16826207E+03</rscale>
<asrwt>0</asrwt>
<pdfrwt beam="1">  1        2 0.85372525E-01 0.17409084E+03</pdfrwt>
<pdfrwt beam="2">  1       -2 0.76849711E-02 0.17409084E+03</pdfrwt>
<totfact> 0.54334624E+03</totfact>
</mgrwt>
</event>
<event>
 8    1  0.7550631E-006  0.1511542E+03  0.7546771E-02  0.1208097E+00
         -2   -1    0    0    0  501 -0.00000000000E+00  0.00000000000E+00  0.25352064311E+02  0.25352064311E+02  0.00000000000E+00 0.  1.
          2   -1    0    0  501    0  0.00000000000E+00 -0.00000000000E+00 -0.75987255802E+03  0.75987255802E+03  0.00000000000E+00 0. -1.
         23    2    1    2    0    0  0.42721837164E+02  0.73274066630E+02 -0.28445466170E+03  0.31045431129E+03  0.90957026233E+02 0.  0.
         23    2    1    2    0    0 -0.42721837164E+02 -0.73274066630E+02 -0.45006583201E+03  0.47477031105E+03  0.12511335220E+03 0.  0.
          5    1    4    4  502    0  0.99725110488E+01 -0.36767617477E+02 -0.37051014139E+03  0.37249317248E+03  0.47000000000E+01 0. -1.
         -5    1    4    4    0  502 -0.52694348213E+02 -0.36506449153E+02 -0.79555690617E+02  0.10227713856E+03  0.47000000000E+01 0.  1.
        -11    1    3    3    0    0 -0.16015136429E+02  0.62003609103E+02 -0.13285790081E+03  0.14748611442E+03  0.00000000000E+00 0.  1.
         11    1    3    3    0    0  0.58736973593E+02  0.11270457527E+02 -0.15159676089E+03  0.16296819687E+03  0.00000000000E+00 0. -1.
<mgrwt>
<rscale>  0 0.14396020E+03</rscale>
<asrwt>0</asrwt>
<pdfrwt beam="2">  1        2 0.11690347E+00 0.15115421E+03</pdfrwt>
<pdfrwt beam="1">  1       -2 0.39003177E-02 0.15115421E+03</pdfrwt>
<totfact> 0.10433801E+04</totfact>
</mgrwt>
</event>
<event>
 8    1  0.7550631E-006  0.1387832E+03  0.7546771E-02  0.1226655E+00
         -1   -1    0    0    0  501 -0.00000000000E+00  0.00000000000E+00  0.57225113366E+02  0.57225113366E+02  0.00000000000E+00 0.  1.
          1   -1    0    0  501    0  0.00000000000E+00 -0.00000000000E+00 -0.27964189763E+03  0.27964189763E+03  0.00000000000E+00 0. -1.
         23    2    1    2    0    0  0.54819264183E+01 -0.60051118354E+02 -0.63315524448E+02  0.12574147941E+03  0.90365234877E+02 0.  0.
         23    2    1    2    0    0 -0.54819264183E+01  0.60051118354E+02 -0.15910125981E+03  0.21112553159E+03  0.12499836351E+03 0.  0.
          5    1    4    4  502    0  0.52427365423E+02  0.12083238976E+02 -0.10595321586E+03  0.11892353535E+03  0.47000000000E+01 0. -1.
         -5    1    4    4    0  502 -0.57909291841E+02  0.47967879378E+02 -0.53148043950E+02  0.92201996233E+02  0.47000000000E+01 0. -1.
        -11    1    3    3    0    0 -0.15142899901E+02 -0.59114340533E+02 -0.20136823133E+01  0.61056265776E+02  0.00000000000E+00 0.  1.
         11    1    3    3    0    0  0.20624826319E+02 -0.93677782159E+00 -0.61301842134E+02  0.64685213631E+02  0.00000000000E+00 0. -1.
<mgrwt>
<rscale>  0 0.13054115E+03</rscale>
<asrwt>0</asrwt>
<pdfrwt beam="2">  1        1 0.43021831E-01 0.13878321E+03</pdfrwt>
<pdfrwt beam="1">  1       -1 0.88038634E-02 0.13878321E+03</pdfrwt>
<totfact> 0.67873037E+03</totfact>
</mgrwt>
</event>
<event>
 8    1  0.7550631E-006  0.1768145E+03  0.7546771E-02  0.1176743E+00
         -2   -1    0    0    0  501 -0.00000000000E+00  0.00000000000E+00  0.58263701298E+02  0.58263701298E+02  0.00000000000E+00 0.  1.
          2   -1    0    0  501    0  0.00000000000E+00 -0.00000000000E+00 -0.65134250274E+03  0.65134250274E+03  0.00000000000E+00 0. -1.
         23    2    1    2    0    0  0.74342007209E+02 -0.10054661166E+03 -0.96548515879E+02  0.18253344627E+03  0.91435703834E+02 0.  0.
         23    2    1    2    0    0 -0.74342007209E+02  0.10054661166E+03 -0.49653028557E+03  0.52707275777E+03  0.12500804915E+03 0.  0.
          5    1    4    4  502    0  0.10433420275E+02  0.35562703014E+02 -0.30862437812E+03  0.31087724084E+03  0.47000000000E+01 0.  1.
         -5    1    4    4    0  502 -0.84775427483E+02  0.64983908646E+02 -0.18790590744E+03  0.21619551693E+03  0.47000000000E+01 0.  1.
        -11    1    3    3    0    0  0.61110646325E+02 -0.22815928405E+02 -0.10932256666E+02  0.66140697903E+02  0.00000000000E+00 0.  1.
         11    1    3    3    0    0  0.13231360883E+02 -0.77730683254E+02 -0.85616259213E+02  0.11639274836E+03  0.00000000000E+00 0. -1.
<mgrwt>
<rscale>  0 0.17106363E+03</rscale>
<asrwt>0</asrwt>
<pdfrwt beam="2">  1        2 0.10020653E+00 0.17681450E+03</pdfrwt>
<pdfrwt beam="1">  1       -2 0.89636468E-02 0.17681450E+03</pdfrwt>
<totfact> 0.35575523E+03</totfact>
</mgrwt>
</event>
<event>
 8    1  0.7550631E-006  0.1186345E+03  0.7546771E-02  0.1253501E+00
         -1   -1    0    0    0  501 -0.00000000000E+00  0.00000000000E+00  0.22579253012E+02  0.22579253012E+02  0.00000000000E+00 0.  1.
          1   -1    0    0  501    0  0.00000000000E+00 -0.00000000000E+00 -0.53650544723E+03  0.53650544723E+03  0.00000000000E+00 0. -1.
         23    2    1    2    0    0 -0.20950305059E+02 -0.34626714700E+02 -0.21455912184E+03  0.23706796226E+03  0.92345423872E+02 0.  0.
         23    2    1    2    0    0  0.20950305059E+02  0.34626714700E+02 -0.29936707238E+03  0.32201673799E+03  0.11151776032E+03 0.  0.
          5    1    4    4  502    0  0.47317519080E+02  0.62238414847E+02 -0.22581875226E+03  0.23901624791E+03  0.47000000000E+01 0. -1.
         -5    1    4    4    0  502 -0.26367214021E+02 -0.27611700147E+02 -0.73548320123E+02  0.83000490078E+02  0.47000000000E+01 0.  1.
        -11    1    3    3    0    0  0.21209683175E+02  0.16542758124E+02 -0.11015059665E+03  0.11338724553E+03  0.00000000000E+00 0. -1.
         11    1    3    3    0    0 -0.42159988234E+02 -0.51169472824E+02 -0.10440852519E+03  0.12368071672E+03  0.00000000000E+00 0.  1.
<mgrwt>
<rscale>  0 0.11390684E+03</rscale>
<asrwt>0</asrwt>
<pdfrwt beam="2">  1        1 0.82539302E-01 0.11863446E+03</pdfrwt>
<pdfrwt beam="1">  1       -1 0.34737311E-02 0.11863446E+03</pdfrwt>
<totfact> 0.11723141E+04</totfact>
</mgrwt>
</event>
<event>
 8    1  0.7550631E-006  0.1640013E+03  0.7546771E-02  0.1190902E+00
          2   -1    0    0  501    0  0.00000000000E+00  0.00000000000E+00  0.60418267994E+03  0.60418267994E+03  0.00000000000E+00 0. -1.
         -2   -1    0    0    0  501 -0.00000000000E+00 -0.00000000000E+00 -0.38917526420E+02  0.38917526420E+02  0.00000000000E+00 0.  1.
         23    2    1    2    0    0 -0.38313026970E+02  0.99010892560E+02  0.29001182356E+03  0.32269295391E+03  0.93556612904E+02 0.  0.
         23    2    1    2    0    0  0.38313026970E+02 -0.99010892560E+02  0.27525332997E+03  0.32040725246E+03  0.12500146754E+03 0.  0.
          5    1    4    4  502    0 -0.15211107689E+02 -0.10477097522E+02 -0.65689660796E+01  0.20159084428E+02  0.47000000000E+01 0. -1.
         -5    1    4    4    0  502  0.53524134659E+02 -0.88533795038E+02  0.28182229605E+03  0.30024816803E+03  0.47000000000E+01 0. -1.
        -11    1    3    3    0    0 -0.58553858804E+02  0.79726519629E+02  0.27201954558E+03  0.28944689580E+03  0.00000000000E+00 0. -1.
         11    1    3    3    0    0  0.20240831834E+02  0.19284372931E+02  0.17992277977E+02  0.33246058104E+02  0.00000000000E+00 0.  1.
<mgrwt>
<rscale>  0 0.15806253E+03</rscale>
<asrwt>0</asrwt>
<pdfrwt beam="1">  1        2 0.92951174E-01 0.16400126E+03</pdfrwt>
<pdfrwt beam="2">  1       -2 0.59873122E-02 0.16400126E+03</pdfrwt>
<totfact> 0.72153008E+03</totfact>
</mgrwt>
</event>
<event>
 8    1  0.7550631E-006  0.1392482E+03  0.7546771E-02  0.1225612E+00
         -1   -1    0    0    0  501 -0.00000000000E+00  0.00000000000E+00  0.21460784376E+02  0.21460784376E+02  0.00000000000E+00 0.  1.
          1   -1    0    0  501    0  0.00000000000E+00 -0.00000000000E+00 -0.73146149836E+03  0.73146149836E+03  0.00000000000E+00 0. -1.
         23    2    1    2    0    0  0.37446311559E+02  0.48604423316E+02 -0.27388819266E+03  0.29511862415E+03  0.91190153131E+02 0.  0.
         23    2    1    2    0    0 -0.37446311559E+02 -0.48604423316E+02 -0.43611252132E+03  0.45780365858E+03  0.12500176935E+03 0.  0.
          5    1    4    4  502    0 -0.42047721265E+02 -0.75268416826E+02 -0.17389379439E+03  0.19415068159E+03  0.47000000000E+01 0.  1.
         -5    1    4    4    0  502  0.46014097060E+01  0.26663993510E+02 -0.26221872693E+03  0.26365297699E+03  0.47000000000E+01 0.  1.
        -11    1    3    3    0    0  0.45037335515E+02  0.46273343928E+01 -0.22248980201E+03  0.22704952282E+03  0.00000000000E+00 0. -1.
         11    1    3    3    0    0 -0.75910239560E+01  0.43977088923E+02 -0.51398390645E+02  0.68069101329E+02  0.00000000000E+00 0.  1.
<mgrwt>
<rscale>  0 0.13125072E+03</rscale>
<asrwt>0</asrwt>
<pdfrwt beam="2">  1        1 0.11253254E+00 0.13924819E+03</pdfrwt>
<pdfrwt beam="1">  1       -1 0.33016590E-02 0.13924819E+03</pdfrwt>
<totfact> 0.83244908E+03</totfact>
</mgrwt>
</event>
<event>
 8    1  0.7550631E-006  0.1571305E+03  0.7546771E-02  0.1199799E+00
          3   -1    0    0  501    0  0.00000000000E+00  0.00000000000E+00  0.37201886499E+03  0.37201886499E+03  0.00000000000E+00 0. -1.
         -3   -1    0    0    0  501 -0.00000000000E+00 -0.00000000000E+00 -0.56633653160E+02  0.56633653160E+02  0.00000000000E+00 0.  1.
         23    2    1    2    0    0 -0.50512750511E+01 -0.95078670973E+02  0.12891281111E+03  0.18480431954E+03  0.92025293259E+02 0.  0.
         23    2    1    2    0    0  0.50512750511E+01  0.95078670973E+02  0.18647240072E+03  0.24384819860E+03  0.12499807471E+03 0.  0.
          5    1    4    4  502    0  0.49989301389E+02  0.40367977402E+02  0.15173410385E+03  0.16484487291E+03  0.47000000000E+01 0.  1.
         -5    1    4    4    0  502 -0.44938026338E+02  0.54710693571E+02  0.34738296868E+02  0.79003325699E+02  0.47000000000E+01 0.  1.
        -11    1    3    3    0    0 -0.33698744744E+01 -0.94585930227E+01 -0.14578270647E+02  0.17701610407E+02  0.00000000000E+00 0.  1.
         11    1    3    3    0    0 -0.16814005768E+01 -0.85620077950E+02  0.14349108176E+03  0.16710270913E+03  0.00000000000E+00 0. -1.
<mgrwt>
<rscale>  0 0.15055003E+03</rscale>
<asrwt>0</asrwt>
<pdfrwt beam="1">  1        3 0.57233670E-01 0.15713048E+03</pdfrwt>
<pdfrwt beam="2">  1       -3 0.87128699E-02 0.15713048E+03</pdfrwt>
<totfact> 0.66560180E+02</totfact>
</mgrwt>
</event>
<event>
 8    1  0.7550631E-006  0.1534942E+03  0.7546771E-02  0.1204472E+00
          1   -1    0    0  501    0  0.00000000000E+00  0.00000000000E+00  0.37877853707E+03  0.37877853707E+03  0.00000000000E+00 0. -1.
         -1   -1    0    0    0  501 -0.00000000000E+00 -0.00000000000E+00 -0.11069760693E+03  0.11069760693E+03  0.00000000000E+00 0.  1.
         23    2    1    2    0    0 -0.74420545792E+02 -0.48962470654E+02 -0.48821486472E+02  0.13735737827E+03  0.92454154349E+02 0.  0.
         23    2    1    2    0    0  0.74420545792E+02  0.48962470654E+02  0.31690241661E+03  0.35211876572E+03  0.12499896940E+03 0.  0.
          5    1    4    4  502    0  0.44976635609E+02 -0.39497602965E+02  0.13036148652E+03  0.14352409400E+03  0.47000000000E+01 0. -1.
         -5    1    4    4    0  502  0.29443910184E+02  0.88460073619E+02  0.18654093008E+03  0.20859467172E+03  0.47000000000E+01 0. -1.
        -11    1    3    3    0    0 -0.75836879766E+02  0.17622872811E+01 -0.40314964881E+02  0.85904798367E+02  0.00000000000E+00 0.  1.
         11    1    3    3    0    0  0.14163339739E+01 -0.50724757935E+02 -0.85065215915E+01  0.51452579907E+02  0.00000000000E+00 0. -1.
<mgrwt>
<rscale>  0 0.14679129E+03</rscale>
<asrwt>0</asrwt>
<pdfrwt beam="1">  1        1 0.58273621E-01 0.15349425E+03</pdfrwt>
<pdfrwt beam="2">  1       -1 0.17030401E-01 0.15349425E+03</pdfrwt>
<totfact> 0.16808662E+03</totfact>
</mgrwt>
</event>
<event>
 8    1  0.7550631E-006  0.1301430E+03  0.7546771E-02  0.1241538E+00
          1   -1    0    0  501    0  0.00000000000E+00  0.00000000000E+00  0.44611401268E+03  0.44611401268E+03  0.00000000000E+00 0. -1.
         -1   -1    0    0    0  501 -0.00000000000E+00 -0.00000000000E+00 -0.52706795309E+02  0.52706795309E+02  0.00000000000E+00 0.  1.
         23    2    1    2    0    0 -0.32205154202E+02 -0.16595638600E+02  0.14471615551E+02  0.98159608657E+02  0.90073824929E+02 0.  0.
         23    2    1    2    0    0  0.32205154202E+02  0.16595638600E+02  0.37893560182E+03  0.40066119933E+03  0.12499847658E+03 0.  0.
          5    1    4    4  502    0  0.51663944373E+02  0.25006407714E+02  0.68607313564E+02  0.89574198569E+02  0.47000000000E+01 0. -1.
         -5    1    4    4    0  502 -0.19458790171E+02 -0.84107691140E+01  0.31032828826E+03  0.31108700076E+03  0.47000000000E+01 0. -1.
        -11    1    3    3    0    0 -0.46846408898E+02 -0.25292249073E+02 -0.22235337837E+02  0.57694836325E+02  0.00000000000E+00 0.  1.
         11    1    3    3    0    0  0.14641254696E+02  0.86966104734E+01  0.36706953388E+02  0.40464772332E+02  0.00000000000E+00 0. -1.
<mgrwt>
<rscale>  0 0.12095001E+03</rscale>
<asrwt>0</asrwt>
<pdfrwt beam="1">  1        1 0.68632923E-01 0.13014302E+03</pdfrwt>
<pdfrwt beam="2">  1       -1 0.81087380E-02 0.13014302E+03</pdfrwt>
<totfact> 0.42704380E+03</totfact>
</mgrwt>
</event>
<event>
 8    1  0.7550631E-006  0.1291357E+03  0.7546771E-02  0.1243498E+00
         -1   -1    0    0    0  501 -0.00000000000E+00  0.00000000000E+00  0.17191225836E+02  0.17191225836E+02  0.00000000000E+00 0.  1.
          1   -1    0    0  501    0  0.00000000000E+00 -0.00000000000E+00 -0.73948934696E+03  0.73948934696E+03  0.00000000000E+00 0. -1.
         23    2    1    2    0    0  0.20650574670E+01  0.32397540944E+02 -0.27500864642E+03  0.29112294263E+03  0.89827317688E+02 0.  0.
         23    2    1    2    0    0 -0.20650574670E+01 -0.32397540944E+02 -0.44728947471E+03  0.46555763016E+03  0.12498867026E+03 0.  0.
          5    1    4    4  502    0 -0.74916940612E+01  0.25487418762E+02 -0.18249663790E+02  0.32571064206E+02  0.47000000000E+01 0. -1.
         -5    1    4    4    0  502  0.54266365942E+01 -0.57884959706E+02 -0.42903981092E+03  0.43298656595E+03  0.47000000000E+01 0. -1.
        -11    1    3    3    0    0 -0.32239715709E+02  0.47691384660E+02 -0.15337884277E+03  0.16382593460E+03  0.00000000000E+00 0. -1.
         11    1    3    3    0    0  0.34304773176E+02 -0.15293843716E+02 -0.12162980365E+03  0.12729700803E+03  0.00000000000E+00 0.  1.
<mgrwt>
<rscale>  0 0.11975699E+03</rscale>
<asrwt>0</asrwt>
<pdfrwt beam="2">  1        1 0.11376758E+00 0.12913571E+03</pdfrwt>
<pdfrwt beam="1">  1       -1 0.26448043E-02 0.12913571E+03</pdfrwt>
<totfact> 0.11261095E+04</totfact>
</mgrwt>
</event>
<event>
 8    1  0.7550631E-006  0.1262619E+03  0.7546771E-02  0.1248463E+00
         -1   -1    0    0    0  501 -0.00000000000E+00  0.00000000000E+00  0.35433333970E+02  0.35433333970E+02  0.00000000000E+00 0.  1.
          1   -1    0    0  501    0  0.00000000000E+00 -0.00000000000E+00 -0.33784455172E+03  0.33784455172E+03  0.00000000000E+00 0. -1.
         23    2    1    2    0    0 -0.11506391598E+02  0.15174087745E+02 -0.12269455252E+03  0.15364151183E+03  0.90493706698E+02 0.  0.
         23    2    1    2    0    0  0.11506391598E+02 -0.15174087745E+02 -0.17971666523E+03  0.21963637386E+03  0.12481749467E+03 0.  0.
          5    1    4    4  502    0 -0.44749705589E+02 -0.24003310167E+01 -0.19157124805E+02  0.48963079663E+02  0.47000000000E+01 0. -1.
         -5    1    4    4    0  502  0.56256097187E+02 -0.12773756728E+02 -0.16055954042E+03  0.17067329420E+03  0.47000000000E+01 0. -1.
        -11    1    3    3    0    0  0.51716944125E+01  0.49448130825E+02 -0.44815367849E+02  0.66934903157E+02  0.00000000000E+00 0.  1.
         11    1    3    3    0    0 -0.16678086011E+02 -0.34274043080E+02 -0.77879184675E+02  0.86706608673E+02  0.00000000000E+00 0. -1.
<mgrwt>
<rscale>  0 0.11680490E+03</rscale>
<asrwt>0</asrwt>
<pdfrwt beam="2">  1        1 0.51976084E-01 0.12626186E+03</pdfrwt>
<pdfrwt beam="1">  1       -1 0.54512822E-02 0.12626186E+03</pdfrwt>
<totfact> 0.10937346E+04</totfact>
</mgrwt>
</event>
<event>
 8    1  0.7550631E-006  0.1586312E+03  0.7546771E-02  0.1200256E+00
          2   -1    0    0  501    0  0.00000000000E+00  0.00000000000E+00  0.48549399753E+03  0.48549399753E+03  0.00000000000E+00 0. -1.
         -2   -1    0    0    0  501 -0.00000000000E+00 -0.00000000000E+00 -0.68398018136E+02  0.68398018136E+02  0.00000000000E+00 0.  1.
         23    2    1    2    0    0  0.70901447717E+02  0.67176947709E+02  0.23553400778E+02  0.12958125282E+03  0.81833860970E+02 0.  0.
         23    2    1    2    0    0 -0.70901447717E+02 -0.67176947709E+02  0.39354257862E+03  0.42431076285E+03  0.12499641873E+03 0.  0.
          5    1    4    4  502    0  0.12205616742E+02 -0.24562280415E+02  0.25883138997E+03  0.26032299386E+03  0.47000000000E+01 0. -1.
         -5    1    4    4    0  502 -0.83107064459E+02 -0.42614667294E+02  0.13471118865E+03  0.16398776900E+03  0.47000000000E+01 0. -1.
        -11    1    3    3    0    0  0.60941614171E+02  0.66200925455E+02 -0.13690923438E+02  0.91015846167E+02  0.00000000000E+00 0.  1.
         11    1    3    3    0    0  0.99598335459E+01  0.97602225369E+00  0.37244324216E+02  0.38565406649E+02  0.00000000000E+00 0. -1.
<mgrwt>
<rscale>  0 0.15017691E+03</rscale>
<asrwt>0</asrwt>
<pdfrwt beam="1">  1        2 0.74691382E-01 0.15863121E+03</pdfrwt>
<pdfrwt beam="2">  1       -2 0.10522772E-01 0.15863121E+03</pdfrwt>
<totfact> 0.38390669E+03</totfact>
</mgrwt>
</event>
<event>
 8    1  0.7550631E-006  0.1612435E+03  0.7546771E-02  0.1194695E+00
          2   -1    0    0  501    0  0.00000000000E+00  0.00000000000E+00  0.34938894469E+03  0.34938894469E+03  0.00000000000E+00 0. -1.
         -2   -1    0    0    0  501 -0.00000000000E+00 -0.00000000000E+00 -0.64602355754E+02  0.64602355754E+02  0.00000000000E+00 0.  1.
         23    2    1    2    0    0  0.19615062328E+02  0.99947699205E+02  0.10575240886E+03  0.17305003564E+03  0.91588479681E+02 0.  0.
         23    2    1    2    0    0 -0.19615062328E+02 -0.99947699205E+02  0.17903418008E+03  0.24094126480E+03  0.12500064880E+03 0.  0.
          5    1    4    4  502    0 -0.56891166719E+02 -0.67926392224E+02  0.47919667953E+02  0.10084138133E+03  0.47000000000E+01 0. -1.
         -5    1    4    4    0  502  0.37276104391E+02 -0.32021306980E+02  0.13111451212E+03  0.14009988347E+03  0.47000000000E+01 0. -1.
        -11    1    3    3    0    0 -0.28687402190E+02  0.24369255355E+02  0.63691436166E+02  0.73982610740E+02  0.00000000000E+00 0. -1.
         11    1    3    3    0    0  0.48302464518E+02  0.75578443849E+02  0.42060972692E+02  0.99067424904E+02  0.00000000000E+00 0.  1.
<mgrwt>
<rscale>  0 0.15480095E+03</rscale>
<asrwt>0</asrwt>
<pdfrwt beam="1">  1        2 0.53752144E-01 0.16124347E+03</pdfrwt>
<pdfrwt beam="2">  1       -2 0.99388242E-02 0.16124347E+03</pdfrwt>
<totfact> 0.59986831E+03</totfact>
</mgrwt>
</event>
<event>
 8    1  0.7550631E-006  0.2137366E+03  0.7546771E-02  0.1142598E+00
         -2   -1    0    0    0  501 -0.00000000000E+00  0.00000000000E+00  0.30779609501E+02  0.30779609501E+02  0.00000000000E+00 0.  1.
          2   -1    0    0  501    0  0.00000000000E+00 -0.00000000000E+00 -0.13909659065E+04  0.13909659065E+04  0.00000000000E+00 0. -1.
         23    2    1    2    0    0  0.16902873841E+03  0.38581362567E+02 -0.53018720334E+03  0.56466802373E+03  0.87705589850E+02 0.  0.
         23    2    1    2    0    0 -0.16902873841E+03 -0.38581362567E+02 -0.82999909367E+03  0.85707749229E+03  0.12499638530E+03 0.  0.
          5    1    4    4  502    0 -0.16327079836E+03 -0.66129869767E+02 -0.60081492312E+03  0.62612392952E+03  0.47000000000E+01 0. -1.
         -5    1    4    4    0  502 -0.57579400488E+01  0.27548507200E+02 -0.22918417055E+03  0.23095356277E+03  0.47000000000E+01 0. -1.
        -11    1    3    3    0    0  0.10005899763E+03  0.63984835082E+01 -0.17748135220E+03  0.20384399421E+03  0.00000000000E+00 0.  1.
         11    1    3    3    0    0  0.68969740781E+02  0.32182879059E+02 -0.35270585115E+03  0.36082402952E+03  0.00000000000E+00 0. -1.
<mgrwt>
<rscale>  0 0.20870168E+03</rscale>
<asrwt>0</asrwt>
<pdfrwt beam="2">  1        2 0.21399477E+00 0.21373660E+03</pdfrwt>
<pdfrwt beam="1">  1       -2 0.47353243E-02 0.21373660E+03</pdfrwt>
<totfact> 0.33172810E+03</totfact>
</mgrwt>
</event>
<event>
 8    1  0.7550631E-006  0.1584877E+03  0.7546771E-02  0.1197387E+00
          1   -1    0    0  501    0  0.00000000000E+00  0.00000000000E+00  0.85629980355E+03  0.85629980355E+03  0.00000000000E+00 0. -1.
         -1   -1    0    0    0  501 -0.00000000000E+00 -0.00000000000E+00 -0.27310080834E+02  0.27310080834E+02  0.00000000000E+00 0.  1.
         23    2    1    2    0    0 -0.31895885603E+02 -0.92063962546E+02  0.26619134267E+03  0.29892161660E+03  0.94885094917E+02 0.  0.
         23    2    1    2    0    0  0.31895885603E+02  0.92063962546E+02  0.56279838005E+03  0.58468826779E+03  0.12500093276E+03 0.  0.
          5    1    4    4  502    0 -0.45015824763E+02  0.49286834004E+02  0.18451778562E+03  0.19627664072E+03  0.47000000000E+01 0.  1.
         -5    1    4    4    0  502  0.76911710365E+02  0.42777128542E+02  0.37828059443E+03  0.38841162707E+03  0.47000000000E+01 0.  1.
        -11    1    3    3    0    0 -0.33711329178E+02 -0.51990191972E+02  0.24662395657E+03  0.25428883131E+03  0.00000000000E+00 0. -1.
         11    1    3    3    0    0  0.18154435748E+01 -0.40073770575E+02  0.19567386103E+02  0.44632785286E+02  0.00000000000E+00 0.  1.
<mgrwt>
<rscale>  0 0.15253949E+03</rscale>
<asrwt>0</asrwt>
<pdfrwt beam="1">  1        1 0.13173841E+00 0.15848771E+03</pdfrwt>
<pdfrwt beam="2">  1       -1 0.42015516E-02 0.15848771E+03</pdfrwt>
<totfact> 0.46376623E+03</totfact>
</mgrwt>
</event>
<event>
 8    1  0.7550631E-006  0.1264527E+03  0.7546771E-02  0.1247796E+00
          1   -1    0    0  501    0  0.00000000000E+00  0.00000000000E+00  0.38458047792E+02  0.38458047792E+02  0.00000000000E+00 0. -1.
         -1   -1    0    0    0  501 -0.00000000000E+00 -0.00000000000E+00 -0.31530026829E+03  0.31530026829E+03  0.00000000000E+00 0.  1.
         23    2    1    2    0    0  0.16120248552E+02  0.10266289287E+02 -0.12923560527E+03  0.15939265867E+03  0.91317680979E+02 0.  0.
         23    2    1    2    0    0 -0.16120248552E+02 -0.10266289287E+02 -0.14760661523E+03  0.19436565742E+03  0.12500014725E+03 0.  0.
          5    1    4    4  502    0  0.17156229553E+02 -0.28003835211E+02  0.80492140323E+01  0.34138407191E+02  0.47000000000E+01 0. -1.
         -5    1    4    4    0  502 -0.33276478106E+02  0.17737545924E+02 -0.15565582927E+03  0.16022725023E+03  0.47000000000E+01 0. -1.
        -11    1    3    3    0    0  0.52943546425E+02 -0.51628632535E+01 -0.68942384398E+02  0.87078852953E+02  0.00000000000E+00 0.  1.
         11    1    3    3    0    0 -0.36823297873E+02  0.15429152540E+02 -0.60293220870E+02  0.72313805716E+02  0.00000000000E+00 0. -1.
<mgrwt>
<rscale>  0 0.11719583E+03</rscale>
<asrwt>0</asrwt>
<pdfrwt beam="1">  1        1 0.59166228E-02 0.12645274E+03</pdfrwt>
<pdfrwt beam="2">  1       -1 0.48507733E-01 0.12645274E+03</pdfrwt>
<totfact> 0.54256721E+03</totfact>
</mgrwt>
</event>
<event>
 8    1  0.7550631E-006  0.1868352E+03  0.7546771E-02  0.1166281E+00
          1   -1    0    0  501    0  0.00000000000E+00  0.00000000000E+00  0.54480915651E+03  0.54480915651E+03  0.00000000000E+00 0. -1.
         -1   -1    0    0    0  501 -0.00000000000E+00 -0.00000000000E+00 -0.57713804418E+02  0.57713804418E+02  0.00000000000E+00 0.  1.
         23    2    1    2    0    0 -0.55001274247E+02 -0.12750579903E+03  0.20589294077E+03  0.26491048160E+03  0.92210580987E+02 0.  0.
         23    2    1    2    0    0  0.55001274247E+02  0.12750579903E+03  0.28120241132E+03  0.33761247933E+03  0.12499808442E+03 0.  0.
          5    1    4    4  502    0  0.46755817333E+02  0.37635778556E+02  0.22093214467E+03  0.22898834212E+03  0.47000000000E+01 0. -1.
         -5    1    4    4    0  502  0.82454569139E+01  0.89870020479E+02  0.60270266655E+02  0.10862413720E+03  0.47000000000E+01 0. -1.
        -11    1    3    3    0    0 -0.37497327803E+02 -0.12589654816E+03  0.20920076207E+03  0.24702418765E+03  0.00000000000E+00 0. -1.
         11    1    3    3    0    0 -0.17503946444E+02 -0.16092508694E+01 -0.33078213026E+01  0.17886293949E+02  0.00000000000E+00 0.  1.
<mgrwt>
<rscale>  0 0.18158150E+03</rscale>
<asrwt>0</asrwt>
<pdfrwt beam="1">  1        1 0.83816790E-01 0.18683519E+03</pdfrwt>
<pdfrwt beam="2">  1       -1 0.88790472E-02 0.18683519E+03</pdfrwt>
<totfact> 0.29071742E+03</totfact>
</mgrwt>
</event>
<event>
 8    1  0.7550631E-006  0.2501151E+03  0.7546771E-02  0.1115720E+00
         -4   -1    0    0    0  501 -0.00000000000E+00  0.00000000000E+00  0.16593207517E+03  0.16593207517E+03  0.00000000000E+00 0.  1.
          4   -1    0    0  501    0  0.00000000000E+00 -0.00000000000E+00 -0.36846953214E+03  0.36846953214E+03  0.00000000000E+00 0. -1.
         23    2    1    2    0    0  0.16508130187E+03  0.14023407656E+03 -0.45996908202E+02  0.23933801950E+03  0.90826975935E+02 0.  0.
         23    2    1    2    0    0 -0.16508130187E+03 -0.14023407656E+03 -0.15654054877E+03  0.29506358782E+03  0.12506056529E+03 0.  0.
          5    1    4    4  502    0 -0.10082986416E+03 -0.10116715435E+03 -0.27344294935E+02  0.14550345388E+03  0.47000000000E+01 0.  1.
         -5    1    4    4    0  502 -0.64251437712E+02 -0.39066922209E+02 -0.12919625383E+03  0.14956013394E+03  0.47000000000E+01 0.  1.
        -11    1    3    3    0    0  0.10911293355E+03  0.71406774920E+02  0.15610807350E+02  0.13133262001E+03  0.00000000000E+00 0.  1.
         11    1    3    3    0    0  0.55968368325E+02  0.68827301636E+02 -0.61607715552E+02  0.10800539949E+03  0.00000000000E+00 0. -1.
<mgrwt>
<rscale>  0 0.24621520E+03</rscale>
<asrwt>0</asrwt>
<pdfrwt beam="2">  1        4 0.56687621E-01 0.25011513E+03</pdfrwt>
<pdfrwt beam="1">  1       -4 0.25528011E-01 0.25011513E+03</pdfrwt>
<totfact> 0.78687302E+01</totfact>
</mgrwt>
</event>
<event>
 8    1  0.7550631E-006  0.1266982E+03  0.7546771E-02  0.1248077E+00
          2   -1    0    0  501    0  0.00000000000E+00  0.00000000000E+00  0.64653170271E+02  0.64653170271E+02  0.00000000000E+00 0. -1.
         -2   -1    0    0    0  501 -0.00000000000E+00 -0.00000000000E+00 -0.18607263108E+03  0.18607263108E+03  0.00000000000E+00 0.  1.
         23    2    1    2    0    0  0.18174672615E+02 -0.98808257784E+01 -0.43422630983E+02  0.10194427000E+03  0.89884146884E+02 0.  0.
         23    2    1    2    0    0 -0.18174672615E+02  0.98808257784E+01 -0.77996829825E+02  0.14878153135E+03  0.12499795665E+03 0.  0.
          5    1    4    4  502    0 -0.51708953527E+01 -0.27885592660E+01  0.34205291466E+02  0.35022937995E+02  0.47000000000E+01 0.  1.
         -5    1    4    4    0  502 -0.13003777263E+02  0.12669385044E+02 -0.11220212129E+03  0.11375859336E+03  0.47000000000E+01 0.  1.
        -11    1    3    3    0    0  0.19377070228E+02 -0.22245778619E+02  0.21078214038E+02  0.36257918088E+02  0.00000000000E+00 0. -1.
         11    1    3    3    0    0 -0.12023976127E+01  0.12364952841E+02 -0.64500845021E+02  0.65686351910E+02  0.00000000000E+00 0.  1.
<mgrwt>
<rscale>  0 0.11703092E+03</rscale>
<asrwt>0</asrwt>
<pdfrwt beam="1">  1        2 0.99466417E-02 0.12669822E+03</pdfrwt>
<pdfrwt beam="2">  1       -2 0.28626558E-01 0.12669822E+03</pdfrwt>
<totfact> 0.67576845E+03</totfact>
</mgrwt>
</event>
<event>
 8    1  0.7550631E-006  0.2233658E+03  0.7546771E-02  0.1133908E+00
         -2   -1    0    0    0  501 -0.00000000000E+00  0.00000000000E+00  0.61516739809E+03  0.61516739809E+03  0.00000000000E+00 0.  1.
          2   -1    0    0  501    0  0.00000000000E+00 -0.00000000000E+00 -0.80703770142E+02  0.80703770142E+02  0.00000000000E+00 0. -1.
         23    2    1    2    0    0  0.18689219830E+03 -0.26572886905E+02  0.17870130757E+03  0.27580082857E+03  0.92179865509E+02 0.  0.
         23    2    1    2    0    0 -0.18689219830E+03  0.26572886905E+02  0.35576232038E+03  0.42007033967E+03  0.11940456258E+03 0.  0.
          5    1    4    4  502    0 -0.16295424464E+03  0.17168340148E+02  0.18440891534E+03  0.24673381569E+03  0.47000000000E+01 0. -1.
         -5    1    4    4    0  502 -0.23937953656E+02  0.94045467569E+01  0.17135340504E+03  0.17333652398E+03  0.47000000000E+01 0.  1.
        -11    1    3    3    0    0  0.12137566017E+02 -0.19842355211E+02 -0.31851173012E+01  0.23477319723E+02  0.00000000000E+00 0.  1.
         11    1    3    3    0    0  0.17475463228E+03 -0.67305316942E+01  0.18188642488E+03  0.25232350884E+03  0.00000000000E+00 0. -1.
<mgrwt>
<rscale>  0 0.21996651E+03</rscale>
<asrwt>0</asrwt>
<pdfrwt beam="2">  1        2 0.12415965E-01 0.22336576E+03</pdfrwt>
<pdfrwt beam="1">  1       -2 0.94641135E-01 0.22336576E+03</pdfrwt>
<totfact> 0.47661858E+02</totfact>
</mgrwt>
</event>
<event>
 8    1  0.7550631E-006  0.1900996E+03  0.7546771E-02  0.1162729E+00
          1   -1    0    0  501    0  0.00000000000E+00  0.00000000000E+00  0.18019205342E+03  0.18019205342E+03  0.00000000000E+00 0. -1.
         -1   -1    0    0    0  501 -0.00000000000E+00 -0.00000000000E+00 -0.29218366857E+03  0.29218366857E+03  0.00000000000E+00 0.  1.
         23    2    1    2    0    0  0.13629106394E+03 -0.49208358569E+02 -0.19936230495E+03  0.26315935410E+03  0.92253999114E+02 0.  0.
         23    2    1    2    0    0 -0.13629106394E+03  0.49208358569E+02  0.87370689793E+02  0.20921636789E+03  0.12304931732E+03 0.  0.
          5    1    4    4  502    0 -0.88694453863E+01  0.56319528353E+02  0.50463612568E+02  0.76283828750E+02  0.47000000000E+01 0. -1.
         -5    1    4    4    0  502 -0.12742161856E+03 -0.71111697848E+01  0.36907077226E+02  0.13293253914E+03  0.47000000000E+01 0.  1.
        -11    1    3    3    0    0 -0.11502298079E+02 -0.62058653045E+01 -0.37876432981E+02  0.40067939810E+02  0.00000000000E+00 0. -1.
         11    1    3    3    0    0  0.14779336202E+03 -0.43002493264E+02 -0.16148587197E+03  0.22309141429E+03  0.00000000000E+00 0.  1.
<mgrwt>
<rscale>  0 0.18534354E+03</rscale>
<asrwt>0</asrwt>
<pdfrwt beam="1">  1        1 0.27721854E-01 0.19009958E+03</pdfrwt>
<pdfrwt beam="2">  1       -1 0.44951334E-01 0.19009958E+03</pdfrwt>
<totfact> 0.83643899E+02</totfact>
</mgrwt>
</event>
<event>
 8    1  0.7550631E-006  0.1645041E+03  0.7546771E-02  0.1191708E+00
         -1   -1    0    0    0  501 -0.00000000000E+00  0.00000000000E+00  0.15930111751E+03  0.15930111751E+03  0.00000000000E+00 0.  1.
          1   -1    0    0  501    0  0.00000000000E+00 -0.00000000000E+00 -0.14957269904E+03  0.14957269904E+03  0.00000000000E+00 0. -1.
         23    2    1    2    0    0 -0.64997909128E+02  0.84967195316E+02  0.35794109607E+02  0.14231748224E+03  0.86769205349E+02 0.  0.
         23    2    1    2    0    0  0.64997909128E+02 -0.84967195316E+02 -0.26065691140E+02  0.16655633431E+03  0.12496975544E+03 0.  0.
          5    1    4    4  502    0  0.86978025412E+01 -0.53565270702E+02  0.44882871138E+02  0.70579402916E+02  0.47000000000E+01 0.  1.
         -5    1    4    4    0  502  0.56300106587E+02 -0.31401924614E+02 -0.70948562277E+02  0.95976931397E+02  0.47000000000E+01 0.  1.
        -11    1    3    3    0    0 -0.73930377074E+02  0.57250598067E+02  0.53996048349E+02  0.10797640886E+03  0.00000000000E+00 0.  1.
         11    1    3    3    0    0  0.89324679453E+01  0.27716597249E+02 -0.18201938742E+02  0.34341073377E+02  0.00000000000E+00 0. -1.
<mgrwt>
<rscale>  0 0.15736192E+03</rscale>
<asrwt>0</asrwt>
<pdfrwt beam="2">  1        1 0.23011184E-01 0.16450408E+03</pdfrwt>
<pdfrwt beam="1">  1       -1 0.24507864E-01 0.16450408E+03</pdfrwt>
<totfact> 0.29887473E+03</totfact>
</mgrwt>
</event>
<event>
 8    1  0.7550631E-006  0.1375808E+03  0.7546771E-02  0.1228807E+00
          1   -1    0    0  501    0  0.00000000000E+00  0.00000000000E+00  0.78030677246E+03  0.78030677246E+03  0.00000000000E+00 0. -1.
         -1   -1    0    0    0  501 -0.00000000000E+00 -0.00000000000E+00 -0.25514658034E+02  0.25514658034E+02  0.00000000000E+00 0.  1.
         23    2    1    2    0    0 -0.57383331524E+02  0.31659961349E+01  0.14094646521E+03  0.17674674394E+03  0.89836713930E+02 0.  0.
         23    2    1    2    0    0  0.57383331524E+02 -0.31659961349E+01  0.61384564922E+03  0.62907468655E+03  0.12500243970E+03 0.  0.
          5    1    4    4  502    0  0.74530912446E+02  0.24828168950E+02  0.21671701241E+03  0.23056376201E+03  0.47000000000E+01 0. -1.
         -5    1    4    4    0  502 -0.17147580921E+02 -0.27994165085E+02  0.39712863681E+03  0.39851092455E+03  0.47000000000E+01 0. -1.
        -11    1    3    3    0    0  0.95396529632E+01 -0.29553010611E+02  0.53621478182E+02  0.61964896008E+02  0.00000000000E+00 0.  1.
         11    1    3    3    0    0 -0.66922984487E+02  0.32719006746E+02  0.87324987024E+02  0.11478184793E+03  0.00000000000E+00 0. -1.
<mgrwt>
<rscale>  0 0.12909374E+03</rscale>
<asrwt>0</asrwt>
<pdfrwt beam="1">  1        1 0.12004718E+00 0.13758081E+03</pdfrwt>
<pdfrwt beam="2">  1       -1 0.39253326E-02 0.13758081E+03</pdfrwt>
<totfact> 0.58711272E+03</totfact>
</mgrwt>
</event>
<event>
 8    1  0.7550631E-006  0.1397422E+03  0.7546771E-02  0.1224483E+00
         -1   -1    0    0    0  501 -0.00000000000E+00  0.00000000000E+00  0.14413268171E+02  0.14413268171E+02  0.00000000000E+00 0.  1.
          1   -1    0    0  501    0  0.00000000000E+00 -0.00000000000E+00 -0.12301166707E+04  0.12301166707E+04  0.00000000000E+00 0. -1.
         23    2    1    2    0    0  0.38426369314E+02  0.49237157200E+02 -0.34048023283E+03  0.35822103346E+03  0.92166351542E+02 0.  0.
         23    2    1    2    0    0 -0.38426369314E+02 -0.49237157200E+02 -0.87522316971E+03  0.88630890542E+03  0.12500798185E+03 0.  0.
          5    1    4    4  502    0 -0.69543855317E+02 -0.22199494230E+02 -0.27214347771E+03  0.28180370441E+03  0.47000000000E+01 0. -1.
         -5    1    4    4    0  502  0.31117486003E+02 -0.27037662970E+02 -0.60307969199E+03  0.60450520101E+03  0.47000000000E+01 0. -1.
        -11    1    3    3    0    0 -0.59942495869E+01 -0.24022765086E+02 -0.96882019471E+02  0.99995749746E+02  0.00000000000E+00 0. -1.
         11    1    3    3    0    0  0.44420618901E+02  0.73259922286E+02 -0.24359821336E+03  0.25822528371E+03  0.00000000000E+00 0.  1.
<mgrwt>
<rscale>  0 0.13202426E+03</rscale>
<asrwt>0</asrwt>
<pdfrwt beam="2">  1        1 0.18924868E+00 0.13974219E+03</pdfrwt>
<pdfrwt beam="1">  1       -1 0.22174264E-02 0.13974219E+03</pdfrwt>
<totfact> 0.62812355E+03</totfact>
</mgrwt>
</event>
<event>
 8    1  0.7550631E-006  0.1358856E+03  0.7546771E-02  0.1231584E+00
          3   -1    0    0  501    0  0.00000000000E+00  0.00000000000E+00  0.16368263813E+03  0.16368263813E+03  0.00000000000E+00 0. -1.
         -3   -1    0    0    0  501 -0.00000000000E+00 -0.00000000000E+00 -0.10646766362E+03  0.10646766362E+03  0.00000000000E+00 0.  1.
         23    2    1    2    0    0 -0.49135053357E+02 -0.20627109838E+02 -0.29929302105E+02  0.10872222394E+03  0.89916782222E+02 0.  0.
         23    2    1    2    0    0  0.49135053357E+02  0.20627109838E+02  0.87144276611E+02  0.16142807781E+03  0.12500067292E+03 0.  0.
          5    1    4    4  502    0  0.20746473004E+02 -0.36199920102E+02 -0.11925447697E+02  0.43648100305E+02  0.47000000000E+01 0.  1.
         -5    1    4    4    0  502  0.28388580353E+02  0.56827029940E+02  0.99069724308E+02  0.11777997750E+03  0.47000000000E+01 0.  1.
        -11    1    3    3    0    0 -0.62636069722E+02  0.83502917547E+01 -0.40496073868E+02  0.75052892025E+02  0.00000000000E+00 0.  1.
         11    1    3    3    0    0  0.13501016366E+02 -0.28977401593E+02  0.10566771763E+02  0.33669331913E+02  0.00000000000E+00 0. -1.
<mgrwt>
<rscale>  0 0.12725697E+03</rscale>
<asrwt>0</asrwt>
<pdfrwt beam="1">  1        3 0.25181944E-01 0.13588561E+03</pdfrwt>
<pdfrwt beam="2">  1       -3 0.16379641E-01 0.13588561E+03</pdfrwt>
<totfact> 0.10891690E+03</totfact>
</mgrwt>
</event>
<event>
 8    1  0.7550631E-006  0.1328801E+03  0.7546771E-02  0.1236649E+00
         -1   -1    0    0    0  501 -0.00000000000E+00  0.00000000000E+00  0.14951231868E+02  0.14951231868E+02  0.00000000000E+00 0.  1.
          1   -1    0    0  501    0  0.00000000000E+00 -0.00000000000E+00 -0.10293858209E+04  0.10293858209E+04  0.00000000000E+00 0. -1.
         23    2    1    2    0    0  0.32953505655E+02 -0.30757366485E+02 -0.27100284578E+03  0.28912325818E+03  0.90098650776E+02 0.  0.
         23    2    1    2    0    0 -0.32953505655E+02  0.30757366485E+02 -0.74343174328E+03  0.75521379462E+03  0.12500067813E+03 0.  0.
          5    1    4    4  502    0  0.10198019778E+02  0.70209694678E+02 -0.48671628356E+03  0.49188233503E+03  0.47000000000E+01 0. -1.
         -5    1    4    4    0  502 -0.43151525433E+02 -0.39452328193E+02 -0.25671545973E+03  0.26333145959E+03  0.47000000000E+01 0. -1.
        -11    1    3    3    0    0  0.15401646912E+02 -0.58689905419E+02 -0.11894070213E+03  0.13352380443E+03  0.00000000000E+00 0.  1.
         11    1    3    3    0    0  0.17551858743E+02  0.27932538934E+02 -0.15206214365E+03  0.15559945375E+03  0.00000000000E+00 0. -1.
<mgrwt>
<rscale>  0 0.12399429E+03</rscale>
<asrwt>0</asrwt>
<pdfrwt beam="2">  1        1 0.15836705E+00 0.13288009E+03</pdfrwt>
<pdfrwt beam="1">  1       -1 0.23001895E-02 0.13288009E+03</pdfrwt>
<totfact> 0.82095717E+03</totfact>
</mgrwt>
</event>
<event>
 8    1  0.7550631E-006  0.2100859E+03  0.7546771E-02  0.1145316E+00
         -2   -1    0    0    0  501 -0.00000000000E+00  0.00000000000E+00  0.36455402793E+03  0.36455402793E+03  0.00000000000E+00 0.  1.
          2   -1    0    0  501    0  0.00000000000E+00 -0.00000000000E+00 -0.13599553472E+03  0.13599553472E+03  0.00000000000E+00 0. -1.
         23    2    1    2    0    0  0.16130942775E+03  0.49898475585E+02  0.21784801255E+03  0.29019080318E+03  0.90787423893E+02 0.  0.
         23    2    1    2    0    0 -0.16130942775E+03 -0.49898475585E+02  0.10710480661E+02  0.21035875947E+03  0.12500201576E+03 0.  0.
          5    1    4    4  502    0 -0.14218742224E+02  0.36096053466E+02 -0.39617850629E+01  0.39279555079E+02  0.47000000000E+01 0. -1.
         -5    1    4    4    0  502 -0.14709068552E+03 -0.85994529051E+02  0.14672265724E+02  0.17107920439E+03  0.47000000000E+01 0. -1.
        -11    1    3    3    0    0  0.12242760454E+03  0.73102794208E+02  0.13821479807E+03  0.19858466023E+03  0.00000000000E+00 0.  1.
         11    1    3    3    0    0  0.38881823211E+02 -0.23204318623E+02  0.79633214481E+02  0.91606142958E+02  0.00000000000E+00 0. -1.
<mgrwt>
<rscale>  0 0.20533322E+03</rscale>
<asrwt>0</asrwt>
<pdfrwt beam="2">  1        2 0.20922390E-01 0.21008592E+03</pdfrwt>
<pdfrwt beam="1">  1       -2 0.56085235E-01 0.21008592E+03</pdfrwt>
<totfact> 0.79879865E+02</totfact>
</mgrwt>
</event>
<event>
 8    1  0.7550631E-006  0.3796292E+03  0.7546771E-02  0.1051987E+00
          2   -1    0    0  501    0  0.00000000000E+00  0.00000000000E+00  0.29470696881E+04  0.29470696881E+04  0.00000000000E+00 0. -1.
         -2   -1    0    0    0  501 -0.00000000000E+00 -0.00000000000E+00 -0.48160348657E+02  0.48160348657E+02  0.00000000000E+00 0.  1.
         23    2    1    2    0    0 -0.31863289393E+03 -0.16421327501E+03  0.12769039138E+04  0.13293909308E+04  0.91124754731E+02 0.  0.
         23    2    1    2    0    0  0.31863289393E+03  0.16421327501E+03  0.16220054256E+04  0.16658391059E+04  0.12500162187E+03 0.  0.
          5    1    4    4  502    0  0.12319762783E+03  0.92126430944E+02  0.45354614370E+03  0.47894794001E+03  0.47000000000E+01 0.  1.
         -5    1    4    4    0  502  0.19543526610E+03  0.72086844062E+02  0.11684592819E+04  0.11868911659E+04  0.47000000000E+01 0.  1.
        -11    1    3    3    0    0 -0.11075837596E+03 -0.26684820734E+02  0.52613438740E+03  0.53832786581E+03  0.00000000000E+00 0.  1.
         11    1    3    3    0    0 -0.20787451797E+03 -0.13752845427E+03  0.75076952641E+03  0.79106306496E+03  0.00000000000E+00 0. -1.
<mgrwt>
<rscale>  0 0.37716304E+03</rscale>
<asrwt>0</asrwt>
<pdfrwt beam="1">  1        2 0.45339520E+00 0.37962920E+03</pdfrwt>
<pdfrwt beam="2">  1       -2 0.74092867E-02 0.37962920E+03</pdfrwt>
<totfact> 0.23260477E+02</totfact>
</mgrwt>
</event>
<event>
 8    1  0.7550631E-006  0.1349108E+03  0.7546771E-02  0.1232676E+00
         -2   -1    0    0    0  501 -0.00000000000E+00  0.00000000000E+00  0.14801736439E+02  0.14801736439E+02  0.00000000000E+00 0. -1.
          2   -1    0    0  501    0  0.00000000000E+00 -0.00000000000E+00 -0.10600440391E+04  0.10600440391E+04  0.00000000000E+00 0.  1.
         23    2    1    2    0    0  0.42087881940E+02  0.28378390334E+02 -0.30428232393E+03  0.32170394991E+03  0.91263223076E+02 0.  0.
         23    2    1    2    0    0 -0.42087881940E+02 -0.28378390334E+02 -0.74095997876E+03  0.75314182566E+03  0.12499678632E+03 0.  0.
          5    1    4    4  502    0 -0.36233411922E+02 -0.39771190969E+02 -0.11517799459E+03  0.12721111668E+03  0.47000000000E+01 0.  1.
         -5    1    4    4    0  502 -0.58544700184E+01  0.11392800635E+02 -0.62578198417E+03  0.62593070898E+03  0.47000000000E+01 0.  1.
        -11    1    3    3    0    0  0.16588067285E+02  0.52145174973E+02 -0.25813315567E+03  0.26386930345E+03  0.00000000000E+00 0.  1.
         11    1    3    3    0    0  0.25499814655E+02 -0.23766784639E+02 -0.46149168267E+02  0.57834646461E+02  0.00000000000E+00 0. -1.
<mgrwt>
<rscale>  0 0.12654404E+03</rscale>
<asrwt>0</asrwt>
<pdfrwt beam="2">  1        2 0.16308378E+00 0.13491078E+03</pdfrwt>
<pdfrwt beam="1">  1       -2 0.22771890E-02 0.13491078E+03</pdfrwt>
<totfact> 0.14775038E+04</totfact>
</mgrwt>
</event>
<event>
 7    1  0.7550631E-006  0.2120196E+03  0.7546771E-02  0.1149499E+00
          2   -1    0    0  501    0  0.00000000000E+00  0.00000000000E+00  0.70492216093E+03  0.70492216093E+03  0.00000000000E+00 0. -1.
         -2   -1    0    0    0  501 -0.00000000000E+00 -0.00000000000E+00 -0.91026480675E+02  0.91026480675E+02  0.00000000000E+00 0.  1.
         23    2    1    2    0    0  0.61843577259E+02 -0.13230630793E+03  0.25794379507E+02  0.17079631111E+03  0.84713887341E+02 0.  0.
          5    1    1    2  502    0 -0.42546604487E+02  0.58350477630E+02  0.51236141503E+03  0.51744690685E+03  0.47000000000E+01 0. -1.
         -5    1    1    2    0  502 -0.19296972772E+02  0.73955830303E+02  0.75739885712E+02  0.10770542364E+03  0.47000000000E+01 0.  1.
        -11    1    3    3    0    0  0.33115748130E+02 -0.13472433115E+03  0.29175810540E+02  0.14176927064E+03  0.00000000000E+00 0.  1.
         11    1    3    3    0    0  0.28727829129E+02  0.24180232142E+01 -0.33814310329E+01  0.29027040472E+02  0.00000000000E+00 0. -1.
<mgrwt>
<rscale>  0 0.20028529E+03</rscale>
<asrwt>0</asrwt>
<pdfrwt beam="1">  1        2 0.10844956E+00 0.21201957E+03</pdfrwt>
<pdfrwt beam="2">  1       -2 0.14004074E-01 0.21201957E+03</pdfrwt>
<totfact> 0.15912999E+03</totfact>
</mgrwt>
</event>
<event>
 8    1  0.7550631E-006  0.1295650E+03  0.7546771E-02  0.1241669E+00
          1   -1    0    0  501    0  0.00000000000E+00  0.00000000000E+00  0.10086020120E+04  0.10086020120E+04  0.00000000000E+00 0. -1.
         -1   -1    0    0    0  501 -0.00000000000E+00 -0.00000000000E+00 -0.19198419056E+02  0.19198419056E+02  0.00000000000E+00 0.  1.
         23    2    1    2    0    0 -0.31259545854E+02 -0.13627099316E+02  0.15538797048E+03  0.18378079784E+03  0.92016863897E+02 0.  0.
         23    2    1    2    0    0  0.31259545854E+02  0.13627099316E+02  0.83401562248E+03  0.84401963323E+03  0.12499690277E+03 0.  0.
          5    1    4    4  502    0 -0.12288909359E+02  0.25065225290E+01  0.58392083504E+01  0.14611170473E+02  0.47000000000E+01 0.  1.
         -5    1    4    4    0  502  0.43548455213E+02  0.11120576787E+02  0.82817641413E+03  0.82940846276E+03  0.47000000000E+01 0.  1.
        -11    1    3    3    0    0  0.25805160704E+02 -0.35208665272E+01  0.10100021801E+03  0.10430410758E+03  0.00000000000E+00 0.  1.
         11    1    3    3    0    0 -0.57064706558E+02 -0.10106232789E+02  0.54387752473E+02  0.79476690261E+02  0.00000000000E+00 0. -1.
<mgrwt>
<rscale>  0 0.12087007E+03</rscale>
<asrwt>0</asrwt>
<pdfrwt beam="1">  1        1 0.15516950E+00 0.12956497E+03</pdfrwt>
<pdfrwt beam="2">  1       -1 0.29536037E-02 0.12956497E+03</pdfrwt>
<totfact> 0.59078872E+03</totfact>
</mgrwt>
</event>
<event>
 8    1  0.7550631E-006  0.1260189E+03  0.7546771E-02  0.1244963E+00
          1   -1    0    0  501    0  0.00000000000E+00  0.00000000000E+00  0.44652452400E+02  0.44652452400E+02  0.00000000000E+00 0. -1.
         -1   -1    0    0    0  501 -0.00000000000E+00 -0.00000000000E+00 -0.29731581603E+03  0.29731581603E+03  0.00000000000E+00 0.  1.
         23    2    1    2    0    0 -0.20782934721E+02 -0.34306557270E+02 -0.14615042848E+03  0.17696590254E+03  0.91368006811E+02 0.  0.
         23    2    1    2    0    0  0.20782934721E+02  0.34306557270E+02 -0.10651293515E+03  0.16500236589E+03  0.11946507920E+03 0.  0.
          5    1    4    4  502    0 -0.32106775163E+02  0.58099890890E+02 -0.68486225444E+02  0.95492907634E+02  0.47000000000E+01 0. -1.
         -5    1    4    4    0  502  0.52889709884E+02 -0.23793333620E+02 -0.38026709707E+02  0.69509458259E+02  0.47000000000E+01 0.  1.
        -11    1    3    3    0    0  0.19147348394E+02 -0.17302592276E+02 -0.12688358581E+03  0.12948144653E+03  0.00000000000E+00 0.  1.
         11    1    3    3    0    0 -0.39930283114E+02 -0.17003964994E+02 -0.19266842673E+02  0.47484456001E+02  0.00000000000E+00 0. -1.
<mgrwt>
<rscale>  0 0.11887564E+03</rscale>
<asrwt>0</asrwt>
<pdfrwt beam="1">  1        1 0.68696080E-02 0.12601895E+03</pdfrwt>
<pdfrwt beam="2">  1       -1 0.45740895E-01 0.12601895E+03</pdfrwt>
<totfact> 0.49274346E+03</totfact>
</mgrwt>
</event>
<event>
 8    1  0.7550631E-006  0.1323626E+03  0.7546771E-02  0.1236689E+00
         -1   -1    0    0    0  501 -0.00000000000E+00  0.00000000000E+00  0.26994162818E+02  0.26994162818E+02  0.00000000000E+00 0. -1.
          1   -1    0    0  501    0  0.00000000000E+00 -0.00000000000E+00 -0.50811499579E+03  0.50811499579E+03  0.00000000000E+00 0.  1.
         23    2    1    2    0    0 -0.38981043092E+02  0.19437133552E+02 -0.21269649169E+03  0.23582418062E+03  0.92064774508E+02 0.  0.
         23    2    1    2    0    0  0.38981043092E+02 -0.19437133552E+02 -0.26842434128E+03  0.29928497799E+03  0.12499018833E+03 0.  0.
          5    1    4    4  502    0  0.68218246083E+02  0.29725990882E+02 -0.16321224423E+03  0.17943714860E+03  0.47000000000E+01 0. -1.
         -5    1    4    4    0  502 -0.29237202992E+02 -0.49163124434E+02 -0.10521209705E+03  0.11984782939E+03  0.47000000000E+01 0. -1.
        -11    1    3    3    0    0  0.21020109130E+02  0.28916384010E+02 -0.11819524164E+03  0.12348326768E+03  0.00000000000E+00 0. -1.
         11    1    3    3    0    0 -0.60001152222E+02 -0.94792504578E+01 -0.94501250052E+02  0.11234091293E+03  0.00000000000E+00 0.  1.
<mgrwt>
<rscale>  0 0.12396909E+03</rscale>
<asrwt>0</asrwt>
<pdfrwt beam="2">  1        1 0.78171536E-01 0.13236265E+03</pdfrwt>
<pdfrwt beam="1">  1       -1 0.41529482E-02 0.13236265E+03</pdfrwt>
<totfact> 0.97741582E+03</totfact>
</mgrwt>
</event>
<event>
 8    1  0.7550631E-006  0.1360579E+03  0.7546771E-02  0.1232015E+00
         -1   -1    0    0    0  501 -0.00000000000E+00  0.00000000000E+00  0.20622321923E+02  0.20622321923E+02  0.00000000000E+00 0.  1.
          1   -1    0    0  501    0  0.00000000000E+00 -0.00000000000E+00 -0.87706784719E+03  0.87706784719E+03  0.00000000000E+00 0. -1.
         23    2    1    2    0    0  0.47240437175E+01  0.53533656286E+02 -0.17816140749E+03  0.20589461705E+03  0.88107532416E+02 0.  0.
         23    2    1    2    0    0 -0.47240437175E+01 -0.53533656286E+02 -0.67828411778E+03  0.69179555206E+03  0.12499428977E+03 0.  0.
          5    1    4    4  502    0 -0.13890351442E+02 -0.76408719238E+02 -0.22986446366E+03  0.24267467089E+03  0.47000000000E+01 0.  1.
         -5    1    4    4    0  502  0.91663077242E+01  0.22875062951E+02 -0.44841965412E+03  0.44912088117E+03  0.47000000000E+01 0.  1.
        -11    1    3    3    0    0 -0.22249866860E+02 -0.86501598317E+01 -0.98246858030E+02  0.10110552385E+03  0.00000000000E+00 0. -1.
         11    1    3    3    0    0  0.26973910578E+02  0.62183816118E+02 -0.79914549461E+02  0.10478909320E+03  0.00000000000E+00 0.  1.
<mgrwt>
<rscale>  0 0.12697466E+03</rscale>
<asrwt>0</asrwt>
<pdfrwt beam="2">  1        1 0.13493353E+00 0.13605786E+03</pdfrwt>
<pdfrwt beam="1">  1       -1 0.31726646E-02 0.13605786E+03</pdfrwt>
<totfact> 0.66995913E+03</totfact>
</mgrwt>
</event>
<event>
 8    1  0.7550631E-006  0.1502965E+03  0.7546771E-02  0.1209286E+00
          3   -1    0    0  501    0  0.00000000000E+00  0.00000000000E+00  0.15931667240E+03  0.15931667240E+03  0.00000000000E+00 0. -1.
         -3   -1    0    0    0  501 -0.00000000000E+00 -0.00000000000E+00 -0.12336042760E+03  0.12336042760E+03  0.00000000000E+00 0.  1.
         23    2    1    2    0    0  0.27853870285E+02  0.78651902808E+02 -0.14399782630E+02  0.12416912148E+03  0.90822117817E+02 0.  0.
         23    2    1    2    0    0 -0.27853870285E+02 -0.78651902808E+02  0.50356027425E+02  0.15850797851E+03  0.12500835912E+03 0.  0.
          5    1    4    4  502    0 -0.62351453591E+02 -0.89014021355E+01 -0.42920364704E+01  0.63304425611E+02  0.47000000000E+01 0.  1.
         -5    1    4    4    0  502  0.34497583306E+02 -0.69750500673E+02  0.54648063895E+02  0.95203552904E+02  0.47000000000E+01 0.  1.
        -11    1    3    3    0    0  0.11537591716E+02  0.97601532010E+02 -0.10141580004E+02  0.98802969177E+02  0.00000000000E+00 0. -1.
         11    1    3    3    0    0  0.16316278568E+02 -0.18949629201E+02 -0.42582026263E+01  0.25366152306E+02  0.00000000000E+00 0.  1.
<mgrwt>
<rscale>  0 0.14304744E+03</rscale>
<asrwt>0</asrwt>
<pdfrwt beam="1">  1        3 0.24510257E-01 0.15029654E+03</pdfrwt>
<pdfrwt beam="2">  1       -3 0.18978527E-01 0.15029654E+03</pdfrwt>
<totfact> 0.89905145E+02</totfact>
</mgrwt>
</event>
<event>
 8    1  0.7550631E-006  0.1446994E+03  0.7546771E-02  0.1216163E+00
         -1   -1    0    0    0  501 -0.00000000000E+00  0.00000000000E+00  0.24948197684E+02  0.24948197684E+02  0.00000000000E+00 0.  1.
          1   -1    0    0  501    0  0.00000000000E+00 -0.00000000000E+00 -0.80756639743E+03  0.80756639743E+03  0.00000000000E+00 0. -1.
         23    2    1    2    0    0 -0.72710829654E+02 -0.50961106985E+01 -0.20685244411E+03  0.23884456212E+03  0.94583064695E+02 0.  0.
         23    2    1    2    0    0  0.72710829654E+02  0.50961106985E+01 -0.57576575564E+03  0.59367003300E+03  0.12500027048E+03 0.  0.
          5    1    4    4  502    0 -0.25230249484E+02 -0.30906972062E+02 -0.15170317168E+03  0.15693230614E+03  0.47000000000E+01 0. -1.
         -5    1    4    4    0  502  0.97941079137E+02  0.36003082760E+02 -0.42406258396E+03  0.43673772686E+03  0.47000000000E+01 0. -1.
        -11    1    3    3    0    0 -0.32231645200E+02  0.44777052351E+02 -0.96753149922E+02  0.11137789453E+03  0.00000000000E+00 0.  1.
         11    1    3    3    0    0 -0.40479184453E+02 -0.49873163049E+02 -0.11009929419E+03  0.12746666759E+03  0.00000000000E+00 0. -1.
<mgrwt>
<rscale>  0 0.13791461E+03</rscale>
<asrwt>0</asrwt>
<pdfrwt beam="2">  1        1 0.12424098E+00 0.14469935E+03</pdfrwt>
<pdfrwt beam="1">  1       -1 0.38381845E-02 0.14469935E+03</pdfrwt>
<totfact> 0.57761938E+03</totfact>
</mgrwt>
</event>
<event>
 8    1  0.7550631E-006  0.1655328E+03  0.7546771E-02  0.1190071E+00
          2   -1    0    0  501    0  0.00000000000E+00  0.00000000000E+00  0.79315145823E+02  0.79315145823E+02  0.00000000000E+00 0. -1.
         -2   -1    0    0    0  501 -0.00000000000E+00 -0.00000000000E+00 -0.31367518680E+03  0.31367518680E+03  0.00000000000E+00 0.  1.
         23    2    1    2    0    0  0.39530319443E+02  0.10106835794E+03 -0.15641153300E+03  0.21002294497E+03  0.88699552580E+02 0.  0.
         23    2    1    2    0    0 -0.39530319443E+02 -0.10106835794E+03 -0.77948507974E+02  0.18296738765E+03  0.12499454354E+03 0.  0.
          5    1    4    4  502    0  0.41025902086E+02 -0.25913575573E+02 -0.48644058341E+02  0.68869241704E+02  0.47000000000E+01 0. -1.
         -5    1    4    4    0  502 -0.80556221529E+02 -0.75154782365E+02 -0.29304449633E+02  0.11409814594E+03  0.47000000000E+01 0. -1.
        -11    1    3    3    0    0  0.69142417228E+01  0.70481498234E+02 -0.14862542196E+03  0.16463585388E+03  0.00000000000E+00 0.  1.
         11    1    3    3    0    0  0.32616077721E+02  0.30586859704E+02 -0.77861110433E+01  0.45387091090E+02  0.00000000000E+00 0. -1.
<mgrwt>
<rscale>  0 0.15878873E+03</rscale>
<asrwt>0</asrwt>
<pdfrwt beam="1">  1        2 0.12202330E-01 0.16553276E+03</pdfrwt>
<pdfrwt beam="2">  1       -2 0.48257722E-01 0.16553276E+03</pdfrwt>
<totfact> 0.20164910E+03</totfact>
</mgrwt>
</event>
<event>
 8    1  0.7550631E-006  0.1250945E+03  0.7546771E-02  0.1247965E+00
         -1   -1    0    0    0  501 -0.00000000000E+00  0.00000000000E+00  0.31217489091E+03  0.31217489091E+03  0.00000000000E+00 0.  1.
          1   -1    0    0  501    0  0.00000000000E+00 -0.00000000000E+00 -0.41047881838E+02  0.41047881838E+02  0.00000000000E+00 0. -1.
         23    2    1    2    0    0 -0.26690782504E+01 -0.40772656565E+01  0.15611287690E+03  0.18329077109E+03  0.95919384698E+02 0.  0.
         23    2    1    2    0    0  0.26690782504E+01  0.40772656565E+01  0.11501413218E+03  0.16993200166E+03  0.12499954605E+03 0.  0.
          5    1    4    4  502    0  0.60529864560E+02 -0.17016644628E+02  0.63756170843E+02  0.89668110377E+02  0.47000000000E+01 0. -1.
         -5    1    4    4    0  502 -0.57860786309E+02  0.21093910284E+02  0.51257961335E+02  0.80263891281E+02  0.47000000000E+01 0. -1.
        -11    1    3    3    0    0 -0.31266876869E+02  0.15992182228E+02  0.14085480729E+03  0.14516695292E+03  0.00000000000E+00 0.  1.
         11    1    3    3    0    0  0.28597798619E+02 -0.20069447885E+02  0.15258069603E+02  0.38123818175E+02  0.00000000000E+00 0. -1.
<mgrwt>
<rscale>  0 0.11709685E+03</rscale>
<asrwt>0</asrwt>
<pdfrwt beam="2">  1        1 0.63150589E-02 0.12509450E+03</pdfrwt>
<pdfrwt beam="1">  1       -1 0.48026905E-01 0.12509450E+03</pdfrwt>
<totfact> 0.50538795E+03</totfact>
</mgrwt>
</event>
<event>
 8    1  0.7550631E-006  0.1410143E+03  0.7546771E-02  0.1222631E+00
          1   -1    0    0  501    0  0.00000000000E+00  0.00000000000E+00  0.78848114309E+03  0.78848114309E+03  0.00000000000E+00 0. -1.
         -1   -1    0    0    0  501 -0.00000000000E+00 -0.00000000000E+00 -0.29851039183E+02  0.29851039183E+02  0.00000000000E+00 0.  1.
         23    2    1    2    0    0  0.44878693097E+02 -0.47390546318E+02  0.12101859506E+03  0.16531344138E+03  0.91777298809E+02 0.  0.
         23    2    1    2    0    0 -0.44878693097E+02  0.47390546318E+02  0.63761150884E+03  0.65301874089E+03  0.12500031508E+03 0.  0.
          5    1    4    4  502    0 -0.26560327672E+02  0.85171044300E+02  0.52877917932E+03  0.53627331490E+03  0.47000000000E+01 0. -1.
         -5    1    4    4    0  502 -0.18318365425E+02 -0.37780497982E+02  0.10883232952E+03  0.11674542598E+03  0.47000000000E+01 0. -1.
        -11    1    3    3    0    0  0.49608612535E+02 -0.30306472992E+02  0.13215694025E+03  0.14437781546E+03  0.00000000000E+00 0. -1.
         11    1    3    3    0    0 -0.47299194383E+01 -0.17084073326E+02 -0.11138345182E+02  0.20935625921E+02  0.00000000000E+00 0.  1.
<mgrwt>
<rscale>  0 0.13330619E+03</rscale>
<asrwt>0</asrwt>
<pdfrwt beam="1">  1        1 0.12130478E+00 0.14101432E+03</pdfrwt>
<pdfrwt beam="2">  1       -1 0.45924682E-02 0.14101432E+03</pdfrwt>
<totfact> 0.45928240E+03</totfact>
</mgrwt>
</event>
<event>
 8    1  0.7550631E-006  0.2359369E+03  0.7546771E-02  0.1125380E+00
         -2   -1    0    0    0  501 -0.00000000000E+00  0.00000000000E+00  0.22696437951E+03  0.22696437951E+03  0.00000000000E+00 0.  1.
          2   -1    0    0  501    0  0.00000000000E+00 -0.00000000000E+00 -0.30044016991E+03  0.30044016991E+03  0.00000000000E+00 0. -1.
         23    2    1    2    0    0  0.22345844311E+02 -0.19885005537E+03  0.92968123885E+02  0.23866624175E+03  0.90982534661E+02 0.  0.
         23    2    1    2    0    0 -0.22345844311E+02  0.19885005537E+03 -0.16644391428E+03  0.28873830767E+03  0.12500220973E+03 0.  0.
          5    1    4    4  502    0 -0.26133077472E+02  0.10582686297E+03 -0.13930981528E+02  0.10999284027E+03  0.47000000000E+01 0. -1.
         -5    1    4    4    0  502  0.37872331605E+01  0.93023192397E+02 -0.15251293275E+03  0.17874546740E+03  0.47000000000E+01 0. -1.
        -11    1    3    3    0    0 -0.28980697309E+02 -0.46617014053E+02  0.40317173954E+01  0.55038909518E+02  0.00000000000E+00 0. -1.
         11    1    3    3    0    0  0.51326541620E+02 -0.15223304131E+03  0.88936406490E+02  0.18362733223E+03  0.00000000000E+00 0.  1.
<mgrwt>
<rscale>  0 0.23179877E+03</rscale>
<asrwt>0</asrwt>
<pdfrwt beam="2">  1        2 0.46221564E-01 0.23593693E+03</pdfrwt>
<pdfrwt beam="1">  1       -2 0.34917597E-01 0.23593693E+03</pdfrwt>
<totfact> 0.84292703E+02</totfact>
</mgrwt>
</event>
<event>
 8    1  0.7550631E-006  0.1742712E+03  0.7546771E-02  0.1179576E+00
          2   -1    0    0  501    0  0.00000000000E+00  0.00000000000E+00  0.86078296761E+03  0.86078296761E+03  0.00000000000E+00 0. -1.
         -2   -1    0    0    0  501 -0.00000000000E+00 -0.00000000000E+00 -0.36220129754E+02  0.36220129754E+02  0.00000000000E+00 0.  1.
         23    2    1    2    0    0 -0.10732030847E+03 -0.56817348282E+02  0.21609690410E+03  0.26407242526E+03  0.91052260516E+02 0.  0.
         23    2    1    2    0    0  0.10732030847E+03  0.56817348282E+02  0.60846593375E+03  0.63293067210E+03  0.12499833388E+03 0.  0.
          5    1    4    4  502    0  0.97202358180E+02 -0.14856060580E+02  0.40914009507E+03  0.42081671589E+03  0.47000000000E+01 0.  1.
         -5    1    4    4    0  502  0.10117950290E+02  0.71673408863E+02  0.19932583868E+03  0.21211395622E+03  0.47000000000E+01 0.  1.
        -11    1    3    3    0    0 -0.62728880123E+02 -0.74645286571E+02  0.10636749164E+03  0.14429440213E+03  0.00000000000E+00 0.  1.
         11    1    3    3    0    0 -0.44591428347E+02  0.17827938288E+02  0.10972941246E+03  0.11977802313E+03  0.00000000000E+00 0. -1.
<mgrwt>
<rscale>  0 0.16835303E+03</rscale>
<asrwt>0</asrwt>
<pdfrwt beam="1">  1        2 0.13242813E+00 0.17427118E+03</pdfrwt>
<pdfrwt beam="2">  1       -2 0.55723283E-02 0.17427118E+03</pdfrwt>
<totfact> 0.52523614E+03</totfact>
</mgrwt>
</event>
<event>
 8    1  0.7550631E-006  0.1383051E+03  0.7546771E-02  0.1226346E+00
          2   -1    0    0  501    0  0.00000000000E+00  0.00000000000E+00  0.70908705547E+03  0.70908705547E+03  0.00000000000E+00 0. -1.
         -2   -1    0    0    0  501 -0.00000000000E+00 -0.00000000000E+00 -0.30007763691E+02  0.30007763691E+02  0.00000000000E+00 0.  1.
         23    2    1    2    0    0 -0.44503419746E+02 -0.39023113064E+02  0.11977441543E+03  0.16294357937E+03  0.93280982745E+02 0.  0.
         23    2    1    2    0    0  0.44503419746E+02  0.39023113064E+02  0.55930487634E+03  0.57615123979E+03  0.12499979476E+03 0.  0.
          5    1    4    4  502    0  0.27397350949E+02 -0.40326689927E+02  0.31205051530E+03  0.31587097185E+03  0.47000000000E+01 0. -1.
         -5    1    4    4    0  502  0.17106068797E+02  0.79349802991E+02  0.24725436104E+03  0.26028026794E+03  0.47000000000E+01 0. -1.
        -11    1    3    3    0    0  0.25815255171E+02 -0.12779402080E+02  0.11100974985E+02  0.30870247208E+02  0.00000000000E+00 0.  1.
         11    1    3    3    0    0 -0.70318674917E+02 -0.26243710984E+02  0.10867344045E+03  0.13207333216E+03  0.00000000000E+00 0. -1.
<mgrwt>
<rscale>  0 0.13075087E+03</rscale>
<asrwt>0</asrwt>
<pdfrwt beam="1">  1        2 0.10909030E+00 0.13830512E+03</pdfrwt>
<pdfrwt beam="2">  1       -2 0.46165796E-02 0.13830512E+03</pdfrwt>
<totfact> 0.87739389E+03</totfact>
</mgrwt>
</event>
<event>
 8    1  0.7550631E-006  0.1369756E+03  0.7546771E-02  0.1229585E+00
          2   -1    0    0  501    0  0.00000000000E+00  0.00000000000E+00  0.96254811137E+02  0.96254811137E+02  0.00000000000E+00 0.  1.
         -2   -1    0    0    0  501 -0.00000000000E+00 -0.00000000000E+00 -0.15938377094E+03  0.15938377094E+03  0.00000000000E+00 0. -1.
         23    2    1    2    0    0 -0.89157768354E+01 -0.55311707759E+02 -0.39172420641E+01  0.10641280805E+03  0.90385091910E+02 0.  0.
         23    2    1    2    0    0  0.89157768354E+01  0.55311707759E+02 -0.59211717741E+02  0.14922577403E+03  0.12499371194E+03 0.  0.
          5    1    4    4  502    0  0.52357954072E+02  0.63433222778E+02 -0.10119034868E+02  0.83003698551E+02  0.47000000000E+01 0.  1.
         -5    1    4    4    0  502 -0.43442177236E+02 -0.81215150185E+01 -0.49092682873E+02  0.66222075480E+02  0.47000000000E+01 0.  1.
        -11    1    3    3    0    0  0.16820286687E+02 -0.63235193801E+02  0.22005145237E+02  0.69035050490E+02  0.00000000000E+00 0.  1.
         11    1    3    3    0    0 -0.25736063523E+02  0.79234860421E+01 -0.25922387301E+02  0.37377757558E+02  0.00000000000E+00 0. -1.
<mgrwt>
<rscale>  0 0.12857519E+03</rscale>
<asrwt>0</asrwt>
<pdfrwt beam="1">  1        2 0.14808433E-01 0.13697556E+03</pdfrwt>
<pdfrwt beam="2">  1       -2 0.24520580E-01 0.13697556E+03</pdfrwt>
<totfact> 0.55391496E+03</totfact>
</mgrwt>
</event>
<event>
 8    1  0.7550631E-006  0.1350621E+03  0.7546771E-02  0.1232640E+00
          1   -1    0    0  501    0  0.00000000000E+00  0.00000000000E+00  0.51539149888E+03  0.51539149888E+03  0.00000000000E+00 0. -1.
         -1   -1    0    0    0  501 -0.00000000000E+00 -0.00000000000E+00 -0.31943676276E+02  0.31943676276E+02  0.00000000000E+00 0.  1.
         23    2    1    2    0    0  0.32890162480E+02  0.39180933921E+02  0.11624662085E+03  0.15608271732E+03  0.90728327521E+02 0.  0.
         23    2    1    2    0    0 -0.32890162480E+02 -0.39180933921E+02  0.36720120176E+03  0.39125245784E+03  0.12499941930E+03 0.  0.
          5    1    4    4  502    0 -0.42144809250E+02 -0.60071214511E+02  0.35911212012E+03  0.36656287397E+03  0.47000000000E+01 0.  1.
         -5    1    4    4    0  502  0.92546467700E+01  0.20890280589E+02  0.80890816380E+01  0.24689583870E+02  0.47000000000E+01 0.  1.
        -11    1    3    3    0    0  0.22377716210E+02  0.52534879419E+02  0.23428890933E+02  0.61721865402E+02  0.00000000000E+00 0.  1.
         11    1    3    3    0    0  0.10512446270E+02 -0.13353945498E+02  0.92817729918E+02  0.94360851915E+02  0.00000000000E+00 0. -1.
<mgrwt>
<rscale>  0 0.12656728E+03</rscale>
<asrwt>0</asrwt>
<pdfrwt beam="1">  1        1 0.79290994E-01 0.13506207E+03</pdfrwt>
<pdfrwt beam="2">  1       -1 0.49144121E-02 0.13506207E+03</pdfrwt>
<totfact> 0.74958498E+03</totfact>
</mgrwt>
</event>
<event>
 8    1  0.7550631E-006  0.1613963E+03  0.7546771E-02  0.1195290E+00
         -2   -1    0    0    0  501 -0.00000000000E+00  0.00000000000E+00  0.21877195049E+02  0.21877195049E+02  0.00000000000E+00 0.  1.
          2   -1    0    0  501    0  0.00000000000E+00 -0.00000000000E+00 -0.10144975601E+04  0.10144975601E+04  0.00000000000E+00 0. -1.
         23    2    1    2    0    0 -0.30522286043E+02 -0.97432539309E+02 -0.39659922295E+03  0.41888794474E+03  0.88042358803E+02 0.  0.
         23    2    1    2    0    0  0.30522286043E+02  0.97432539309E+02 -0.59602114211E+03  0.61748681042E+03  0.12499619809E+03 0.  0.
          5    1    4    4  502    0 -0.31610866048E+02  0.32514985824E+01 -0.46722203574E+02  0.56699853635E+02  0.47000000000E+01 0.  1.
         -5    1    4    4    0  502  0.62133152091E+02  0.94181040727E+02 -0.54929893853E+03  0.56078695678E+03  0.47000000000E+01 0.  1.
        -11    1    3    3    0    0  0.20901637538E+02 -0.59074610351E+02 -0.26731376435E+03  0.27456026051E+03  0.00000000000E+00 0. -1.
         11    1    3    3    0    0 -0.51423923581E+02 -0.38357928957E+02 -0.12928545860E+03  0.14432768423E+03  0.00000000000E+00 0.  1.
<mgrwt>
<rscale>  0 0.15429716E+03</rscale>
<asrwt>0</asrwt>
<pdfrwt beam="2">  1        2 0.15607658E+00 0.16139628E+03</pdfrwt>
<pdfrwt beam="1">  1       -2 0.33657217E-02 0.16139628E+03</pdfrwt>
<totfact> 0.89423584E+03</totfact>
</mgrwt>
</event>
<event>
 8    1  0.7550631E-006  0.1486516E+03  0.7546771E-02  0.1210820E+00
          1   -1    0    0  501    0  0.00000000000E+00  0.00000000000E+00  0.88133920625E+02  0.88133920625E+02  0.00000000000E+00 0. -1.
         -1   -1    0    0    0  501 -0.00000000000E+00 -0.00000000000E+00 -0.20990943875E+03  0.20990943875E+03  0.00000000000E+00 0.  1.
         23    2    1    2    0    0  0.46016088679E+02  0.65986105159E+02 -0.56797858842E+02  0.13581080138E+03  0.93525026123E+02 0.  0.
         23    2    1    2    0    0 -0.46016088679E+02 -0.65986105159E+02 -0.64977659285E+02  0.16223255800E+03  0.12500264068E+03 0.  0.
          5    1    4    4  502    0  0.43229645298E+02 -0.26502759977E+02 -0.20867606578E+02  0.55034039678E+02  0.47000000000E+01 0.  1.
         -5    1    4    4    0  502 -0.89245733977E+02 -0.39483345183E+02 -0.44110052707E+02  0.10719851832E+03  0.47000000000E+01 0.  1.
        -11    1    3    3    0    0  0.22969301932E+02  0.14545527580E+02  0.24691188449E+02  0.36726230284E+02  0.00000000000E+00 0. -1.
         11    1    3    3    0    0  0.23046786747E+02  0.51440577579E+02 -0.81489047291E+02  0.99084571097E+02  0.00000000000E+00 0.  1.
<mgrwt>
<rscale>  0 0.14188092E+03</rscale>
<asrwt>0</asrwt>
<pdfrwt beam="1">  1        1 0.13559065E-01 0.14865163E+03</pdfrwt>
<pdfrwt beam="2">  1       -1 0.32293760E-01 0.14865163E+03</pdfrwt>
<totfact> 0.37017970E+03</totfact>
</mgrwt>
</event>
<event>
 8    1  0.7550631E-006  0.2515410E+03  0.7546771E-02  0.1114800E+00
         -1   -1    0    0    0  501 -0.00000000000E+00  0.00000000000E+00  0.30835677569E+03  0.30835677569E+03  0.00000000000E+00 0.  1.
          1   -1    0    0  501    0  0.00000000000E+00 -0.00000000000E+00 -0.19477756129E+03  0.19477756129E+03  0.00000000000E+00 0. -1.
         23    2    1    2    0    0 -0.16096649222E+03  0.14743678345E+03  0.30809805606E+02  0.23832562086E+03  0.90565118577E+02 0.  0.
         23    2    1    2    0    0  0.16096649222E+03 -0.14743678345E+03  0.82769408786E+02  0.26480871612E+03  0.12500025747E+03 0.  0.
          5    1    4    4  502    0  0.22503155896E+02 -0.25823145874E+02 -0.32449667465E+02  0.47416218815E+02  0.47000000000E+01 0.  1.
         -5    1    4    4    0  502  0.13846333633E+03 -0.12161363758E+03  0.11521907625E+03  0.21739249731E+03  0.47000000000E+01 0.  1.
        -11    1    3    3    0    0 -0.52309110472E+02  0.68990574465E+02 -0.29360383505E+02  0.91421958647E+02  0.00000000000E+00 0. -1.
         11    1    3    3    0    0 -0.10865738175E+03  0.78446208990E+02  0.60170189111E+02  0.14690366221E+03  0.00000000000E+00 0.  1.
<mgrwt>
<rscale>  0 0.24764774E+03</rscale>
<asrwt>0</asrwt>
<pdfrwt beam="2">  1        1 0.29965779E-01 0.25154101E+03</pdfrwt>
<pdfrwt beam="1">  1       -1 0.47439504E-01 0.25154101E+03</pdfrwt>
<totfact> 0.68858969E+02</totfact>
</mgrwt>
</event>
<event>
 8    1  0.7550631E-006  0.1370891E+03  0.7546771E-02  0.1226710E+00
          2   -1    0    0  501    0  0.00000000000E+00  0.00000000000E+00  0.72385768354E+03  0.72385768354E+03  0.00000000000E+00 0.  1.
         -2   -1    0    0    0  501 -0.00000000000E+00 -0.00000000000E+00 -0.35012298194E+02  0.35012298194E+02  0.00000000000E+00 0. -1.
         23    2    1    2    0    0  0.51084047363E+02  0.23666714987E+02  0.88879540823E+02  0.14344131795E+03  0.97499464737E+02 0.  0.
         23    2    1    2    0    0 -0.51084047363E+02 -0.23666714987E+02  0.59996584452E+03  0.61542866379E+03  0.12499492920E+03 0.  0.
          5    1    4    4  502    0 -0.71689207128E+02  0.15819307386E+02  0.50618311424E+03  0.51150076055E+03  0.47000000000E+01 0. -1.
         -5    1    4    4    0  502  0.20605159765E+02 -0.39486022373E+02  0.93782730287E+02  0.10392790324E+03  0.47000000000E+01 0. -1.
        -11    1    3    3    0    0  0.71609894713E+02  0.32471217614E+02  0.91852254633E+02  0.12090985764E+03  0.00000000000E+00 0.  1.
         11    1    3    3    0    0 -0.20525847351E+02 -0.88045026267E+01 -0.29727138098E+01  0.22531460303E+02  0.00000000000E+00 0. -1.
<mgrwt>
<rscale>  0 0.13050415E+03</rscale>
<asrwt>0</asrwt>
<pdfrwt beam="1">  1        2 0.11136271E+00 0.13708912E+03</pdfrwt>
<pdfrwt beam="2">  1       -2 0.53865080E-02 0.13708912E+03</pdfrwt>
<totfact> 0.67867537E+03</totfact>
</mgrwt>
</event>
<event>
 8    1  0.7550631E-006  0.1518867E+03  0.7546771E-02  0.1207011E+00
          1   -1    0    0  501    0  0.00000000000E+00  0.00000000000E+00  0.96616418380E+02  0.96616418380E+02  0.00000000000E+00 0. -1.
         -1   -1    0    0    0  501 -0.00000000000E+00 -0.00000000000E+00 -0.28501443244E+03  0.28501443244E+03  0.00000000000E+00 0.  1.
         23    2    1    2    0    0  0.54800429487E+02 -0.66698527547E+02 -0.19239645433E+03  0.22969154002E+03  0.91049586888E+02 0.  0.
         23    2    1    2    0    0 -0.54800429487E+02  0.66698527547E+02  0.39984402619E+01  0.15193931080E+03  0.12497114064E+03 0.  0.
          5    1    4    4  502    0  0.27041950452E+01  0.51055326834E+02  0.53628255675E+02  0.74243106587E+02  0.47000000000E+01 0.  1.
         -5    1    4    4    0  502 -0.57504624532E+02  0.15643200713E+02 -0.49629815413E+02  0.77696204213E+02  0.47000000000E+01 0.  1.
        -11    1    3    3    0    0  0.61264869417E+02 -0.38556759056E+01 -0.81062994309E+02  0.10168313286E+03  0.00000000000E+00 0.  1.
         11    1    3    3    0    0 -0.64644399295E+01 -0.62842851641E+02 -0.11133346002E+03  0.12800840717E+03  0.00000000000E+00 0. -1.
<mgrwt>
<rscale>  0 0.14480102E+03</rscale>
<asrwt>0</asrwt>
<pdfrwt beam="1">  1        1 0.14864065E-01 0.15188669E+03</pdfrwt>
<pdfrwt beam="2">  1       -1 0.43848373E-01 0.15188669E+03</pdfrwt>
<totfact> 0.19303089E+03</totfact>
</mgrwt>
</event>
<event>
 8    1  0.7550631E-006  0.1592136E+03  0.7546771E-02  0.1197333E+00
          2   -1    0    0  501    0  0.00000000000E+00  0.00000000000E+00  0.90560585284E+03  0.90560585284E+03  0.00000000000E+00 0.  1.
         -2   -1    0    0    0  501 -0.00000000000E+00 -0.00000000000E+00 -0.31085991744E+02  0.31085991744E+02  0.00000000000E+00 0. -1.
         23    2    1    2    0    0  0.12526017974E+02 -0.97837730860E+02  0.18250547508E+03  0.22659827735E+03  0.91155955151E+02 0.  0.
         23    2    1    2    0    0 -0.12526017974E+02  0.97837730860E+02  0.69201438601E+03  0.71009356722E+03  0.12497936254E+03 0.  0.
          5    1    4    4  502    0 -0.19611607709E+02  0.12709362818E+03  0.56725885662E+03  0.58167181975E+03  0.47000000000E+01 0.  1.
         -5    1    4    4    0  502  0.70855897345E+01 -0.29255897320E+02  0.12475552939E+03  0.12842174747E+03  0.47000000000E+01 0.  1.
        -11    1    3    3    0    0  0.44374501284E+02 -0.59191379907E+02  0.14897230164E+03  0.16632937947E+03  0.00000000000E+00 0.  1.
         11    1    3    3    0    0 -0.31848483310E+02 -0.38646350953E+02  0.33533173443E+02  0.60268897885E+02  0.00000000000E+00 0. -1.
<mgrwt>
<rscale>  0 0.15258443E+03</rscale>
<asrwt>0</asrwt>
<pdfrwt beam="1">  1        2 0.13932396E+00 0.15921358E+03</pdfrwt>
<pdfrwt beam="2">  1       -2 0.47824610E-02 0.15921358E+03</pdfrwt>
<totfact> 0.61708311E+03</totfact>
</mgrwt>
</event>
<event>
 8    1  0.7550631E-006  0.1407903E+03  0.7546771E-02  0.1223677E+00
         -2   -1    0    0    0  501 -0.00000000000E+00  0.00000000000E+00  0.22513234938E+02  0.22513234938E+02  0.00000000000E+00 0.  1.
          2   -1    0    0  501    0  0.00000000000E+00 -0.00000000000E+00 -0.88610084405E+03  0.88610084405E+03  0.00000000000E+00 0. -1.
         23    2    1    2    0    0 -0.58635504206E+02 -0.27482047609E+02 -0.18518431290E+03  0.21575554821E+03  0.89798895012E+02 0.  0.
         23    2    1    2    0    0  0.58635504206E+02  0.27482047609E+02 -0.67840329621E+03  0.69285853078E+03  0.12501410346E+03 0.  0.
          5    1    4    4  502    0  0.39670777387E+01  0.67510181368E+02 -0.24666793358E+03  0.25581345108E+03  0.47000000000E+01 0. -1.
         -5    1    4    4    0  502  0.54668426468E+02 -0.40028133759E+02 -0.43173536263E+03  0.43704507970E+03  0.47000000000E+01 0. -1.
        -11    1    3    3    0    0 -0.37556915500E+02 -0.58388912180E+02 -0.14551920119E+03  0.16123158773E+03  0.00000000000E+00 0. -1.
         11    1    3    3    0    0 -0.21078588706E+02  0.30906864570E+02 -0.39665111708E+02  0.54523960478E+02  0.00000000000E+00 0.  1.
<mgrwt>
<rscale>  0 0.13258018E+03</rscale>
<asrwt>0</asrwt>
<pdfrwt beam="2">  1        2 0.13632320E+00 0.14079031E+03</pdfrwt>
<pdfrwt beam="1">  1       -2 0.34635749E-02 0.14079031E+03</pdfrwt>
<totfact> 0.10208987E+04</totfact>
</mgrwt>
</event>
<event>
 7    1  0.7550631E-006  0.4245768E+03  0.7546771E-02  0.1076793E+00
         -1   -1    0    0    0  501 -0.00000000000E+00  0.00000000000E+00  0.17462198602E+03  0.17462198602E+03  0.00000000000E+00 0.  1.
          1   -1    0    0  501    0  0.00000000000E+00 -0.00000000000E+00 -0.98868845821E+03  0.98868845821E+03  0.00000000000E+00 0. -1.
         23    2    1    2    0    0  0.31120461677E+02 -0.92056382478E+02  0.92765475392E+02  0.16200648056E+03  0.90541734182E+02 0.  0.
          5    1    1    2  502    0 -0.15174982634E+03  0.16468323552E+03 -0.78073747463E+03  0.81223252345E+03  0.47000000000E+01 0. -1.
         -5    1    1    2    0  502  0.12062936466E+03 -0.72626853038E+02 -0.12609447295E+03  0.18907144023E+03  0.47000000000E+01 0.  1.
        -11    1    3    3    0    0 -0.97493018179E+01  0.10411462239E+02  0.34313674621E+02  0.37160135870E+02  0.00000000000E+00 0. -1.
         11    1    3    3    0    0  0.40869763495E+02 -0.10246784472E+03  0.58451800771E+02  0.12484634469E+03  0.00000000000E+00 0.  1.
<mgrwt>
<rscale>  0 0.31752766E+03</rscale>
<asrwt>0</asrwt>
<pdfrwt beam="2">  1        1 0.15210592E+00 0.42457679E+03</pdfrwt>
<pdfrwt beam="1">  1       -1 0.26864921E-01 0.42457679E+03</pdfrwt>
<totfact> 0.19895071E+02</totfact>
</mgrwt>
</event>
<event>
 8    1  0.7550631E-006  0.1373274E+03  0.7546771E-02  0.1228086E+00
         -2   -1    0    0    0  501 -0.00000000000E+00  0.00000000000E+00  0.10951195274E+03  0.10951195274E+03  0.00000000000E+00 0.  1.
          2   -1    0    0  501    0  0.00000000000E+00 -0.00000000000E+00 -0.14487099904E+03  0.14487099904E+03  0.00000000000E+00 0. -1.
         23    2    1    2    0    0  0.42667267520E+02  0.37655622075E+02  0.11088857087E+02  0.10941318359E+03  0.92789225672E+02 0.  0.
         23    2    1    2    0    0 -0.42667267520E+02 -0.37655622075E+02 -0.46447903390E+02  0.14496976819E+03  0.12498153611E+03 0.  0.
          5    1    4    4  502    0  0.39941752654E+02  0.16852441497E+01  0.38775149326E+01  0.40438951210E+02  0.47000000000E+01 0. -1.
         -5    1    4    4    0  502 -0.82609020174E+02 -0.39340866224E+02 -0.50325418323E+02  0.10453081698E+03  0.47000000000E+01 0. -1.
        -11    1    3    3    0    0  0.53998001028E+02  0.53997103945E+01 -0.24958635387E+02  0.59731687300E+02  0.00000000000E+00 0. -1.
         11    1    3    3    0    0 -0.11330733508E+02  0.32255911680E+02  0.36047492474E+02  0.49681496292E+02  0.00000000000E+00 0.  1.
<mgrwt>
<rscale>  0 0.12957610E+03</rscale>
<asrwt>0</asrwt>
<pdfrwt beam="2">  1        2 0.22287846E-01 0.13732744E+03</pdfrwt>
<pdfrwt beam="1">  1       -2 0.16847993E-01 0.13732744E+03</pdfrwt>
<totfact> 0.65598777E+03</totfact>
</mgrwt>
</event>
<event>
 8    1  0.7550631E-006  0.1801915E+03  0.7546771E-02  0.1171529E+00
         -2   -1    0    0    0  501 -0.00000000000E+00  0.00000000000E+00  0.51731856071E+02  0.51731856071E+02  0.00000000000E+00 0.  1.
          2   -1    0    0  501    0  0.00000000000E+00 -0.00000000000E+00 -0.70424087040E+03  0.70424087040E+03  0.00000000000E+00 0. -1.
         23    2    1    2    0    0 -0.13485753670E+02  0.12907692193E+03 -0.15256657961E+03  0.22454876344E+03  0.10150304737E+03 0.  0.
         23    2    1    2    0    0  0.13485753670E+02 -0.12907692193E+03 -0.49994243472E+03  0.53142396302E+03  0.12500509236E+03 0.  0.
          5    1    4    4  502    0 -0.49236563417E+02 -0.80803497114E+02 -0.20201908782E+03  0.22313055857E+03  0.47000000000E+01 0. -1.
         -5    1    4    4    0  502  0.62722317087E+02 -0.48273424814E+02 -0.29792334690E+03  0.30829340446E+03  0.47000000000E+01 0. -1.
        -11    1    3    3    0    0 -0.19834332587E+02  0.33913929792E+02  0.57666607036E+01  0.39709063938E+02  0.00000000000E+00 0.  1.
         11    1    3    3    0    0  0.63485789165E+01  0.95162992135E+02 -0.15833324031E+03  0.18483969951E+03  0.00000000000E+00 0. -1.
<mgrwt>
<rscale>  0 0.17620296E+03</rscale>
<asrwt>0</asrwt>
<pdfrwt beam="2">  1        2 0.10834474E+00 0.18019154E+03</pdfrwt>
<pdfrwt beam="1">  1       -2 0.79587476E-02 0.18019154E+03</pdfrwt>
<totfact> 0.39058447E+03</totfact>
</mgrwt>
</event>
<event>
 8    1  0.7550631E-006  0.1415100E+03  0.7546771E-02  0.1223579E+00
         -1   -1    0    0    0  501 -0.00000000000E+00  0.00000000000E+00  0.13782820148E+02  0.13782820148E+02  0.00000000000E+00 0.  1.
          1   -1    0    0  501    0  0.00000000000E+00 -0.00000000000E+00 -0.12917635663E+04  0.12917635663E+04  0.00000000000E+00 0. -1.
         23    2    1    2    0    0  0.22259175780E+02  0.62431240563E+02 -0.34474729779E+03  0.36164503945E+03  0.86852199297E+02 0.  0.
         23    2    1    2    0    0 -0.22259175780E+02 -0.62431240563E+02 -0.93323344836E+03  0.94390134700E+03  0.12502780895E+03 0.  0.
          5    1    4    4  502    0  0.27091853635E+02 -0.82005138812E+02 -0.64603443090E+03  0.65179857873E+03  0.47000000000E+01 0.  1.
         -5    1    4    4    0  502 -0.49351029415E+02  0.19573898249E+02 -0.28719901746E+03  0.29210276826E+03  0.47000000000E+01 0.  1.
        -11    1    3    3    0    0  0.97940712387E+01 -0.73626656530E+01 -0.29916203813E+01  0.12612789915E+02  0.00000000000E+00 0.  1.
         11    1    3    3    0    0  0.12465104541E+02  0.69793906216E+02 -0.34175567741E+03  0.34903224953E+03  0.00000000000E+00 0. -1.
<mgrwt>
<rscale>  0 0.13264770E+03</rscale>
<asrwt>0</asrwt>
<pdfrwt beam="2">  1        1 0.19873290E+00 0.14151001E+03</pdfrwt>
<pdfrwt beam="1">  1       -1 0.21204334E-02 0.14151001E+03</pdfrwt>
<totfact> 0.60918280E+03</totfact>
</mgrwt>
</event>
<event>
 8    1  0.7550631E-006  0.1463304E+03  0.7546771E-02  0.1215904E+00
          3   -1    0    0  501    0  0.00000000000E+00  0.00000000000E+00  0.59162517778E+03  0.59162517778E+03  0.00000000000E+00 0. -1.
         -3   -1    0    0    0  501 -0.00000000000E+00 -0.00000000000E+00 -0.63622385965E+02  0.63622385965E+02  0.00000000000E+00 0.  1.
         23    2    1    2    0    0  0.26506721697E+02  0.71319179297E+02  0.94911020812E+01  0.11648328803E+03  0.87688332975E+02 0.  0.
         23    2    1    2    0    0 -0.26506721697E+02 -0.71319179297E+02  0.51851168974E+03  0.53876427572E+03  0.12499416294E+03 0.  0.
          5    1    4    4  502    0 -0.20957107315E+02 -0.41131607477E+01  0.41221053170E+03  0.41279017779E+03  0.47000000000E+01 0. -1.
         -5    1    4    4    0  502 -0.55496143820E+01 -0.67206018549E+02  0.10630115804E+03  0.12597409793E+03  0.47000000000E+01 0. -1.
        -11    1    3    3    0    0  0.48534110762E+02  0.77605766226E+02 -0.39664039711E+00  0.91533448436E+02  0.00000000000E+00 0.  1.
         11    1    3    3    0    0 -0.22027389065E+02 -0.62865869290E+01  0.98877424783E+01  0.24949839590E+02  0.00000000000E+00 0. -1.
<mgrwt>
<rscale>  0 0.13810363E+03</rscale>
<asrwt>0</asrwt>
<pdfrwt beam="1">  1        3 0.91019255E-01 0.14633035E+03</pdfrwt>
<pdfrwt beam="2">  1       -3 0.97880598E-02 0.14633035E+03</pdfrwt>
<totfact> 0.20232652E+02</totfact>
</mgrwt>
</event>
<event>
 8    1  0.7550631E-006  0.1918394E+03  0.7546771E-02  0.1159752E+00
          1   -1    0    0  501    0  0.00000000000E+00  0.00000000000E+00  0.20135054136E+03  0.20135054136E+03  0.00000000000E+00 0. -1.
         -1   -1    0    0    0  501 -0.00000000000E+00 -0.00000000000E+00 -0.32530376727E+03  0.32530376727E+03  0.00000000000E+00 0.  1.
         23    2    1    2    0    0  0.88303812078E+02 -0.12575978475E+03 -0.24224849850E+03  0.30127431984E+03  0.92026051101E+02 0.  0.
         23    2    1    2    0    0 -0.88303812078E+02  0.12575978475E+03  0.11829527259E+03  0.22537998880E+03  0.11484459563E+03 0.  0.
          5    1    4    4  502    0 -0.57723790767E+02  0.11379110497E+03  0.30141347549E+02  0.13119086257E+03  0.47000000000E+01 0. -1.
         -5    1    4    4    0  502 -0.30580021311E+02  0.11968679777E+02  0.88153925039E+02  0.94189126223E+02  0.47000000000E+01 0.  1.
        -11    1    3    3    0    0  0.97772228871E+02 -0.65437793562E+02 -0.16889540602E+03  0.20583287332E+03  0.00000000000E+00 0.  1.
         11    1    3    3    0    0 -0.94684167929E+01 -0.60321991183E+02 -0.73353092479E+02  0.95441446516E+02  0.00000000000E+00 0. -1.
<mgrwt>
<rscale>  0 0.18857577E+03</rscale>
<asrwt>0</asrwt>
<pdfrwt beam="1">  1        1 0.30977007E-01 0.19183943E+03</pdfrwt>
<pdfrwt beam="2">  1       -1 0.50046733E-01 0.19183943E+03</pdfrwt>
<totfact> 0.59822093E+02</totfact>
</mgrwt>
</event>
<event>
 8    1  0.7550631E-006  0.3170311E+03  0.7546771E-02  0.1078367E+00
          1   -1    0    0  501    0  0.00000000000E+00  0.00000000000E+00  0.32874620142E+03  0.32874620142E+03  0.00000000000E+00 0. -1.
         -1   -1    0    0    0  501 -0.00000000000E+00 -0.00000000000E+00 -0.30207858853E+03  0.30207858853E+03  0.00000000000E+00 0.  1.
         23    2    1    2    0    0 -0.24857854335E+03  0.15196002272E+03 -0.35443995254E+02  0.30776661141E+03  0.92632983219E+02 0.  0.
         23    2    1    2    0    0  0.24857854335E+03 -0.15196002272E+03  0.62111608150E+02  0.32305817854E+03  0.12500237653E+03 0.  0.
          5    1    4    4  502    0  0.20624664963E+03 -0.59187143613E+02  0.48912170151E+02  0.22012562059E+03  0.47000000000E+01 0.  1.
         -5    1    4    4    0  502  0.42331893727E+02 -0.92772879102E+02  0.13199438000E+02  0.10293255795E+03  0.47000000000E+01 0.  1.
        -11    1    3    3    0    0 -0.15500180278E+03  0.40590639989E+02 -0.20600947066E+02  0.16154738605E+03  0.00000000000E+00 0.  1.
         11    1    3    3    0    0 -0.93576740572E+02  0.11136938273E+03 -0.14843048188E+02  0.14621922536E+03  0.00000000000E+00 0. -1.
<mgrwt>
<rscale>  0 0.31416441E+03</rscale>
<asrwt>0</asrwt>
<pdfrwt beam="1">  1        1 0.50576339E-01 0.31703113E+03</pdfrwt>
<pdfrwt beam="2">  1       -1 0.46473629E-01 0.31703113E+03</pdfrwt>
<totfact> 0.36811928E+02</totfact>
</mgrwt>
</event>
<event>
 8    1  0.7550631E-006  0.1805935E+03  0.7546771E-02  0.1173713E+00
          2   -1    0    0  501    0  0.00000000000E+00  0.00000000000E+00  0.19106493922E+03  0.19106493922E+03  0.00000000000E+00 0. -1.
         -2   -1    0    0    0  501 -0.00000000000E+00 -0.00000000000E+00 -0.19527343131E+03  0.19527343131E+03  0.00000000000E+00 0.  1.
         23    2    1    2    0    0 -0.10279071565E+03 -0.80200142808E+02 -0.96835299705E+02  0.18337598079E+03  0.85156802015E+02 0.  0.
         23    2    1    2    0    0  0.10279071565E+03  0.80200142808E+02  0.92626807616E+02  0.20296238975E+03  0.12496404296E+03 0.  0.
          5    1    4    4  502    0  0.60197708469E+02  0.10023378711E+03  0.10141790232E+03  0.15484914302E+03  0.47000000000E+01 0.  1.
         -5    1    4    4    0  502  0.42593007185E+02 -0.20033644299E+02 -0.87910946994E+01  0.48113246731E+02  0.47000000000E+01 0.  1.
        -11    1    3    3    0    0 -0.57527389887E+02  0.33518837274E+01 -0.19423259832E+02  0.60810350552E+02  0.00000000000E+00 0.  1.
         11    1    3    3    0    0 -0.45263325768E+02 -0.83552026536E+02 -0.77412039873E+02  0.12256563024E+03  0.00000000000E+00 0. -1.
<mgrwt>
<rscale>  0 0.17402626E+03</rscale>
<asrwt>0</asrwt>
<pdfrwt beam="1">  1        2 0.29394606E-01 0.18059348E+03</pdfrwt>
<pdfrwt beam="2">  1       -2 0.30042066E-01 0.18059348E+03</pdfrwt>
<totfact> 0.18035669E+03</totfact>
</mgrwt>
</event>
<event>
 8    1  0.7550631E-006  0.1337363E+03  0.7546771E-02  0.1234471E+00
          1   -1    0    0  501    0  0.00000000000E+00  0.00000000000E+00  0.18880383417E+04  0.18880383417E+04  0.00000000000E+00 0. -1.
         -1   -1    0    0    0  501 -0.00000000000E+00 -0.00000000000E+00 -0.14619965032E+02  0.14619965032E+02  0.00000000000E+00 0.  1.
         23    2    1    2    0    0 -0.42981979621E+02 -0.20333905795E+02  0.21173676423E+03  0.23560366486E+03  0.91737185878E+02 0.  0.
         23    2    1    2    0    0  0.42981979621E+02  0.20333905795E+02  0.16616816125E+04  0.16670546419E+04  0.12499791826E+03 0.  0.
          5    1    4    4  502    0  0.30532388975E+02  0.36268917275E+02  0.16178881813E+04  0.16185894842E+04  0.47000000000E+01 0.  1.
         -5    1    4    4    0  502  0.12449590645E+02 -0.15935011480E+02  0.43793431122E+02  0.48465157666E+02  0.47000000000E+01 0.  1.
        -11    1    3    3    0    0 -0.40491553507E+02  0.43458730254E+01  0.20620672230E+03  0.21018959261E+03  0.00000000000E+00 0. -1.
         11    1    3    3    0    0 -0.24904261138E+01 -0.24679778820E+02  0.55300419275E+01  0.25414072255E+02  0.00000000000E+00 0.  1.
<mgrwt>
<rscale>  0 0.12538375E+03</rscale>
<asrwt>0</asrwt>
<pdfrwt beam="1">  1        1 0.29046724E+00 0.13373630E+03</pdfrwt>
<pdfrwt beam="2">  1       -1 0.22492269E-02 0.13373630E+03</pdfrwt>
<totfact> 0.23008322E+03</totfact>
</mgrwt>
</event>
<event>
 8    1  0.7550631E-006  0.1633946E+03  0.7546771E-02  0.1192336E+00
         -2   -1    0    0    0  501 -0.00000000000E+00  0.00000000000E+00  0.70213192972E+02  0.70213192972E+02  0.00000000000E+00 0.  1.
          2   -1    0    0  501    0  0.00000000000E+00 -0.00000000000E+00 -0.32497151012E+03  0.32497151012E+03  0.00000000000E+00 0. -1.
         23    2    1    2    0    0 -0.94149253264E+02  0.46999453017E+02 -0.11251815539E+03  0.17855124973E+03  0.90261747242E+02 0.  0.
         23    2    1    2    0    0  0.94149253264E+02 -0.46999453017E+02 -0.14224016176E+03  0.21663345336E+03  0.12499903609E+03 0.  0.
          5    1    4    4  502    0  0.10082859710E+03  0.13879838827E+02 -0.92047601357E+02  0.13730952929E+03  0.47000000000E+01 0.  1.
         -5    1    4    4    0  502 -0.66793438357E+01 -0.60879291844E+02 -0.50192560401E+02  0.79323924065E+02  0.47000000000E+01 0.  1.
        -11    1    3    3    0    0  0.17174616171E+02  0.97606502627E+01 -0.26351478309E+02  0.32933844951E+02  0.00000000000E+00 0. -1.
         11    1    3    3    0    0 -0.11132386944E+03  0.37238802755E+02 -0.86166677081E+02  0.14561740478E+03  0.00000000000E+00 0.  1.
<mgrwt>
<rscale>  0 0.15681876E+03</rscale>
<asrwt>0</asrwt>
<pdfrwt beam="2">  1        2 0.49995617E-01 0.16339458E+03</pdfrwt>
<pdfrwt beam="1">  1       -2 0.10802030E-01 0.16339458E+03</pdfrwt>
<totfact> 0.56847539E+03</totfact>
</mgrwt>
</event>
<event>
 8    1  0.7550631E-006  0.1526815E+03  0.7546771E-02  0.1204117E+00
         -1   -1    0    0    0  501 -0.00000000000E+00  0.00000000000E+00  0.32408325946E+02  0.32408325946E+02  0.00000000000E+00 0.  1.
          1   -1    0    0  501    0  0.00000000000E+00 -0.00000000000E+00 -0.90977497501E+03  0.90977497501E+03  0.00000000000E+00 0. -1.
         23    2    1    2    0    0 -0.30596898147E+02 -0.82160644780E+02 -0.15216085563E+03  0.20107932948E+03  0.97946051633E+02 0.  0.
         23    2    1    2    0    0  0.30596898147E+02  0.82160644780E+02 -0.72520579343E+03  0.74110397148E+03  0.12500044793E+03 0.  0.
          5    1    4    4  502    0 -0.26763450954E+02  0.56589380643E+01 -0.36905729796E+02  0.46178228406E+02  0.47000000000E+01 0. -1.
         -5    1    4    4    0  502  0.57360349101E+02  0.76501706716E+02 -0.68830006364E+03  0.69492574307E+03  0.47000000000E+01 0. -1.
        -11    1    3    3    0    0  0.20459874695E+02 -0.73623897843E+02 -0.68087701959E+02  0.10234754498E+03  0.00000000000E+00 0.  1.
         11    1    3    3    0    0 -0.51056772842E+02 -0.85367469364E+01 -0.84073153668E+02  0.98731784492E+02  0.00000000000E+00 0. -1.
<mgrwt>
<rscale>  0 0.14707294E+03</rscale>
<asrwt>0</asrwt>
<pdfrwt beam="2">  1        1 0.13996538E+00 0.15268154E+03</pdfrwt>
<pdfrwt beam="1">  1       -1 0.49858963E-02 0.15268154E+03</pdfrwt>
<totfact> 0.32661128E+03</totfact>
</mgrwt>
</event>
<event>
 8    1  0.7550631E-006  0.1542881E+03  0.7546771E-02  0.1204326E+00
         -1   -1    0    0    0  501 -0.00000000000E+00  0.00000000000E+00  0.18361873246E+02  0.18361873246E+02  0.00000000000E+00 0.  1.
          1   -1    0    0  501    0  0.00000000000E+00 -0.00000000000E+00 -0.11645820235E+04  0.11645820235E+04  0.00000000000E+00 0. -1.
         23    2    1    2    0    0 -0.40157082666E+02  0.81026655057E+02 -0.35883781358E+03  0.38058751058E+03  0.88906505021E+02 0.  0.
         23    2    1    2    0    0  0.40157082666E+02 -0.81026655057E+02 -0.78738233668E+03  0.80235638617E+03  0.12500766457E+03 0.  0.
          5    1    4    4  502    0  0.67314425205E+01 -0.68685297536E+02 -0.16468990761E+03  0.17862765207E+03  0.47000000000E+01 0.  1.
         -5    1    4    4    0  502  0.33425640145E+02 -0.12341357521E+02 -0.62269242907E+03  0.62372873410E+03  0.47000000000E+01 0.  1.
        -11    1    3    3    0    0  0.26530747609E+01  0.83800563730E+02 -0.23118263910E+03  0.24591662390E+03  0.00000000000E+00 0.  1.
         11    1    3    3    0    0 -0.42810157426E+02 -0.27739086728E+01 -0.12765517448E+03  0.13467088668E+03  0.00000000000E+00 0. -1.
<mgrwt>
<rscale>  0 0.14690711E+03</rscale>
<asrwt>0</asrwt>
<pdfrwt beam="2">  1        1 0.17916651E+00 0.15428813E+03</pdfrwt>
<pdfrwt beam="1">  1       -1 0.28249028E-02 0.15428813E+03</pdfrwt>
<totfact> 0.49189784E+03</totfact>
</mgrwt>
</event>
<event>
 8    1  0.7550631E-006  0.1426519E+03  0.7546771E-02  0.1215800E+00
         -1   -1    0    0    0  501 -0.00000000000E+00  0.00000000000E+00  0.14730147536E+03  0.14730147536E+03  0.00000000000E+00 0.  1.
          1   -1    0    0  501    0  0.00000000000E+00 -0.00000000000E+00 -0.56963877172E+03  0.56963877172E+03  0.00000000000E+00 0. -1.
         23    2    1    2    0    0  0.60103567925E+01 -0.87348666272E+02  0.10930543148E+03  0.16649175293E+03  0.90032841532E+02 0.  0.
         23    2    1    2    0    0 -0.60103567925E+01  0.87348666272E+02 -0.53164272785E+03  0.55044849415E+03  0.11262167088E+03 0.  0.
          5    1    4    4  502    0  0.20717136481E+02  0.24973781341E+02 -0.40811713425E+03  0.40943201483E+03  0.47000000000E+01 0. -1.
         -5    1    4    4    0  502 -0.26727493274E+02  0.62374884932E+02 -0.12352559360E+03  0.14101647932E+03  0.47000000000E+01 0.  1.
        -11    1    3    3    0    0 -0.19695323878E+02 -0.31336382192E+02  0.96761986803E+02  0.10359901892E+03  0.00000000000E+00 0.  1.
         11    1    3    3    0    0  0.25705680670E+02 -0.56012284081E+02  0.12543444677E+02  0.62892734008E+02  0.00000000000E+00 0. -1.
<mgrwt>
<rscale>  0 0.13817941E+03</rscale>
<asrwt>0</asrwt>
<pdfrwt beam="2">  1        1 0.87636735E-01 0.14265187E+03</pdfrwt>
<pdfrwt beam="1">  1       -1 0.22661765E-01 0.14265187E+03</pdfrwt>
<totfact> 0.62577954E+02</totfact>
</mgrwt>
</event>
<event>
 8    1  0.7550631E-006  0.1299372E+03  0.7546771E-02  0.1241129E+00
         -3   -1    0    0    0  501 -0.00000000000E+00  0.00000000000E+00  0.56141676214E+02  0.56141676214E+02  0.00000000000E+00 0. -1.
          3   -1    0    0  501    0  0.00000000000E+00 -0.00000000000E+00 -0.23210152877E+03  0.23210152877E+03  0.00000000000E+00 0.  1.
         23    2    1    2    0    0 -0.59797540381E+01  0.34961735463E+02 -0.74910265037E+02  0.12363854656E+03  0.91743457443E+02 0.  0.
         23    2    1    2    0    0  0.59797540381E+01 -0.34961735463E+02 -0.10104958752E+03  0.16460465842E+03  0.12500237610E+03 0.  0.
          5    1    4    4  502    0 -0.57981462819E+02 -0.13711689336E+02 -0.31173969827E+02  0.67407468799E+02  0.47000000000E+01 0. -1.
         -5    1    4    4    0  502  0.63961216857E+02 -0.21250046127E+02 -0.69875617694E+02  0.97197189622E+02  0.47000000000E+01 0. -1.
        -11    1    3    3    0    0 -0.40547447506E+02  0.11093048359E+02 -0.69581723349E+02  0.81294326034E+02  0.00000000000E+00 0.  1.
         11    1    3    3    0    0  0.34567693468E+02  0.23868687104E+02 -0.53285416879E+01  0.42344220530E+02  0.00000000000E+00 0. -1.
<mgrwt>
<rscale>  0 0.12120099E+03</rscale>
<asrwt>0</asrwt>
<pdfrwt beam="2">  1        3 0.35707927E-01 0.12993719E+03</pdfrwt>
<pdfrwt beam="1">  1       -3 0.86371811E-02 0.12993719E+03</pdfrwt>
<totfact> 0.16571014E+03</totfact>
</mgrwt>
</event>
<event>
 8    1  0.7550631E-006  0.1377647E+03  0.7546771E-02  0.1229008E+00
          1   -1    0    0  501    0  0.00000000000E+00  0.00000000000E+00  0.91103794152E+02  0.91103794152E+02  0.00000000000E+00 0. -1.
         -1   -1    0    0    0  501 -0.00000000000E+00 -0.00000000000E+00 -0.16689817150E+03  0.16689817150E+03  0.00000000000E+00 0.  1.
         23    2    1    2    0    0  0.47821038915E+02 -0.32672760493E+02 -0.53174005005E+02  0.11839252391E+03  0.88515274772E+02 0.  0.
         23    2    1    2    0    0 -0.47821038915E+02  0.32672760493E+02 -0.22620372339E+02  0.13960944174E+03  0.12499901574E+03 0.  0.
          5    1    4    4  502    0 -0.17904568560E+02 -0.37325377266E+02 -0.43804488148E+02  0.60453953926E+02  0.47000000000E+01 0. -1.
         -5    1    4    4    0  502 -0.29916470355E+02  0.69998137759E+02  0.21184115809E+02  0.79155487813E+02  0.47000000000E+01 0. -1.
        -11    1    3    3    0    0  0.38122443996E+02 -0.15561913421E+02 -0.77108134111E+02  0.87413718784E+02  0.00000000000E+00 0.  1.
         11    1    3    3    0    0  0.96985949185E+01 -0.17110847072E+02  0.23934129105E+02  0.30978805124E+02  0.00000000000E+00 0. -1.
<mgrwt>
<rscale>  0 0.12895967E+03</rscale>
<asrwt>0</asrwt>
<pdfrwt beam="1">  1        1 0.14015969E-01 0.13776471E+03</pdfrwt>
<pdfrwt beam="2">  1       -1 0.25676641E-01 0.13776471E+03</pdfrwt>
<totfact> 0.51802644E+03</totfact>
</mgrwt>
</event>
<event>
 8    1  0.7550631E-006  0.1275657E+03  0.7546771E-02  0.1247037E+00
          2   -1    0    0  501    0  0.00000000000E+00  0.00000000000E+00  0.13116332653E+04  0.13116332653E+04  0.00000000000E+00 0.  1.
         -2   -1    0    0    0  501 -0.00000000000E+00 -0.00000000000E+00 -0.12628526616E+02  0.12628526616E+02  0.00000000000E+00 0. -1.
         23    2    1    2    0    0  0.10295042244E+02 -0.23286306671E+02  0.23226181486E+03  0.24991851275E+03  0.88687498551E+02 0.  0.
         23    2    1    2    0    0 -0.10295042244E+02  0.23286306671E+02  0.10667429238E+04  0.10743432791E+04  0.12499910395E+03 0.  0.
          5    1    4    4  502    0  0.24850287689E+02  0.58545269863E+02  0.34324240766E+03  0.34911677965E+03  0.47000000000E+01 0. -1.
         -5    1    4    4    0  502 -0.35145329933E+02 -0.35258963192E+02  0.72350051613E+03  0.72522649948E+03  0.47000000000E+01 0. -1.
        -11    1    3    3    0    0  0.22651355334E+02 -0.34042600260E+02  0.22973142757E+03  0.23334204796E+03  0.00000000000E+00 0.  1.
         11    1    3    3    0    0 -0.12356313090E+02  0.10756293589E+02  0.25303872818E+01  0.16576464785E+02  0.00000000000E+00 0. -1.
<mgrwt>
<rscale>  0 0.11764281E+03</rscale>
<asrwt>0</asrwt>
<pdfrwt beam="1">  1        2 0.20178963E+00 0.12756573E+03</pdfrwt>
<pdfrwt beam="2">  1       -2 0.19428513E-02 0.12756573E+03</pdfrwt>
<totfact> 0.13437072E+04</totfact>
</mgrwt>
</event>
<event>
 8    1  0.7550631E-006  0.1351572E+03  0.7546771E-02  0.1231956E+00
          1   -1    0    0  501    0  0.00000000000E+00  0.00000000000E+00  0.38066948041E+03  0.38066948041E+03  0.00000000000E+00 0. -1.
         -1   -1    0    0    0  501 -0.00000000000E+00 -0.00000000000E+00 -0.53538048791E+02  0.53538048791E+02  0.00000000000E+00 0.  1.
         23    2    1    2    0    0  0.30245281248E+02  0.41923719260E+02  0.32911270434E+02  0.11042833750E+03  0.91863435196E+02 0.  0.
         23    2    1    2    0    0 -0.30245281248E+02 -0.41923719260E+02  0.29422016118E+03  0.32377919170E+03  0.12488028851E+03 0.  0.
          5    1    4    4  502    0 -0.25451976906E+02  0.29172200613E+02  0.27641844549E+02  0.47801485198E+02  0.47000000000E+01 0. -1.
         -5    1    4    4    0  502 -0.47933043419E+01 -0.71095919873E+02  0.26657831663E+03  0.27597770651E+03  0.47000000000E+01 0. -1.
        -11    1    3    3    0    0  0.35239642119E+02 -0.40794528469E+01  0.49822277106E+02  0.61161537000E+02  0.00000000000E+00 0. -1.
         11    1    3    3    0    0 -0.49943608705E+01  0.46003172107E+02 -0.16911006672E+02  0.49266800496E+02  0.00000000000E+00 0.  1.
<mgrwt>
<rscale>  0 0.12701347E+03</rscale>
<asrwt>0</asrwt>
<pdfrwt beam="1">  1        1 0.58564534E-01 0.13515717E+03</pdfrwt>
<pdfrwt beam="2">  1       -1 0.82366231E-02 0.13515717E+03</pdfrwt>
<totfact> 0.51075300E+03</totfact>
</mgrwt>
</event>
<event>
 8    1  0.7550631E-006  0.1268744E+03  0.7546771E-02  0.1247594E+00
         -1   -1    0    0    0  501 -0.00000000000E+00  0.00000000000E+00  0.13201572416E+03  0.13201572416E+03  0.00000000000E+00 0.  1.
          1   -1    0    0  501    0  0.00000000000E+00 -0.00000000000E+00 -0.96001199333E+02  0.96001199333E+02  0.00000000000E+00 0. -1.
         23    2    1    2    0    0 -0.61209146780E+01  0.20835837123E+02  0.40181054839E+02  0.10107414748E+03  0.90165782954E+02 0.  0.
         23    2    1    2    0    0  0.61209146780E+01 -0.20835837123E+02 -0.41665300156E+01  0.12694277601E+03  0.12500204280E+03 0.  0.
          5    1    4    4  502    0 -0.16456560245E+01 -0.73369257437E+02 -0.11885902880E+01  0.73547663916E+02  0.47000000000E+01 0. -1.
         -5    1    4    4    0  502  0.77665707024E+01  0.52533420314E+02 -0.29779397276E+01  0.53395112093E+02  0.47000000000E+01 0. -1.
        -11    1    3    3    0    0  0.15461168704E+02 -0.67285877735E+01 -0.23192299670E+02  0.28674106702E+02  0.00000000000E+00 0. -1.
         11    1    3    3    0    0 -0.21582083382E+02  0.27564424897E+02  0.63373354509E+02  0.72400040779E+02  0.00000000000E+00 0.  1.
<mgrwt>
<rscale>  0 0.11731459E+03</rscale>
<asrwt>0</asrwt>
<pdfrwt beam="2">  1        1 0.14769415E-01 0.12687438E+03</pdfrwt>
<pdfrwt beam="1">  1       -1 0.20310111E-01 0.12687438E+03</pdfrwt>
<totfact> 0.70459508E+03</totfact>
</mgrwt>
</event>
<event>
 8    1  0.7550631E-006  0.3593972E+03  0.7546771E-02  0.1059794E+00
         -1   -1    0    0    0  501 -0.00000000000E+00  0.00000000000E+00  0.60751213193E+02  0.60751213193E+02  0.00000000000E+00 0.  1.
          1   -1    0    0  501    0  0.00000000000E+00 -0.00000000000E+00 -0.20702962452E+04  0.20702962452E+04  0.00000000000E+00 0. -1.
         23    2    1    2    0    0 -0.26197770104E+03  0.21191500235E+03 -0.10123937782E+04  0.10711054947E+04  0.93731181851E+02 0.  0.
         23    2    1    2    0    0  0.26197770104E+03 -0.21191500235E+03 -0.99715125376E+03  0.10599419637E+04  0.12500423788E+03 0.  0.
          5    1    4    4  502    0  0.31360619707E+02  0.13406606105E+02 -0.13924587034E+03  0.14343893461E+03  0.47000000000E+01 0. -1.
         -5    1    4    4    0  502  0.23061708133E+03 -0.22532160845E+03 -0.85790538342E+03  0.91650302909E+03  0.47000000000E+01 0. -1.
        -11    1    3    3    0    0 -0.17121287891E+03  0.83213824796E+02 -0.49802102306E+03  0.53316351146E+03  0.00000000000E+00 0. -1.
         11    1    3    3    0    0 -0.90764822127E+02  0.12870117755E+03 -0.51437275515E+03  0.53794198319E+03  0.00000000000E+00 0.  1.
<mgrwt>
<rscale>  0 0.35696101E+03</rscale>
<asrwt>0</asrwt>
<pdfrwt beam="2">  1        1 0.31850707E+00 0.35939719E+03</pdfrwt>
<pdfrwt beam="1">  1       -1 0.93463418E-02 0.35939719E+03</pdfrwt>
<totfact> 0.20243086E+02</totfact>
</mgrwt>
</event>
<event>
 8    1  0.7550631E-006  0.1573632E+03  0.7546771E-02  0.1199504E+00
          2   -1    0    0  501    0  0.00000000000E+00  0.00000000000E+00  0.22724752233E+03  0.22724752233E+03  0.00000000000E+00 0. -1.
         -2   -1    0    0    0  501 -0.00000000000E+00 -0.00000000000E+00 -0.98215716305E+02  0.98215716305E+02  0.00000000000E+00 0.  1.
         23    2    1    2    0    0 -0.73323373233E+02  0.61343401616E+02  0.98304355379E+02  0.16512811741E+03  0.92001189609E+02 0.  0.
         23    2    1    2    0    0  0.73323373233E+02 -0.61343401616E+02  0.30727450642E+02  0.16033512122E+03  0.12499537947E+03 0.  0.
          5    1    4    4  502    0  0.74696378697E+02 -0.27309417585E+02 -0.34328123196E+02  0.86751733824E+02  0.47000000000E+01 0. -1.
         -5    1    4    4    0  502 -0.13730054641E+01 -0.34033984031E+02  0.65055573839E+02  0.73583387395E+02  0.47000000000E+01 0. -1.
        -11    1    3    3    0    0 -0.57811986679E+02  0.22567380164E+02  0.42351994836E+01  0.62204898247E+02  0.00000000000E+00 0.  1.
         11    1    3    3    0    0 -0.15511386554E+02  0.38776021451E+02  0.94069155895E+02  0.10292321916E+03  0.00000000000E+00 0. -1.
<mgrwt>
<rscale>  0 0.15079169E+03</rscale>
<asrwt>0</asrwt>
<pdfrwt beam="1">  1        2 0.34961157E-01 0.15736319E+03</pdfrwt>
<pdfrwt beam="2">  1       -2 0.15110110E-01 0.15736319E+03</pdfrwt>
<totfact> 0.48371641E+03</totfact>
</mgrwt>
</event>
<event>
 8    1  0.7550631E-006  0.1280010E+03  0.7546771E-02  0.1240336E+00
          1   -1    0    0  501    0  0.00000000000E+00  0.00000000000E+00  0.97519904035E+03  0.97519904035E+03  0.00000000000E+00 0. -1.
         -1   -1    0    0    0  501 -0.00000000000E+00 -0.00000000000E+00 -0.13884724097E+02  0.13884724097E+02  0.00000000000E+00 0.  1.
         23    2    1    2    0    0 -0.94783247240E+01  0.57306428657E+02  0.41374986454E+03  0.42675727624E+03  0.86942262521E+02 0.  0.
         23    2    1    2    0    0  0.94783247240E+01 -0.57306428657E+02  0.54756445171E+03  0.56232648821E+03  0.11406307533E+03 0.  0.
          5    1    4    4  502    0 -0.37132324736E+02 -0.69519751770E+02  0.36590814057E+03  0.37432961780E+03  0.47000000000E+01 0. -1.
         -5    1    4    4    0  502  0.46610649460E+02  0.12213323112E+02  0.18165631114E+03  0.18799687041E+03  0.47000000000E+01 0.  1.
        -11    1    3    3    0    0 -0.25474634975E+02  0.75878346846E+02  0.31443207841E+03  0.32445956987E+03  0.00000000000E+00 0.  1.
         11    1    3    3    0    0  0.15996310251E+02 -0.18571918188E+02  0.99317786135E+02  0.10229770637E+03  0.00000000000E+00 0. -1.
<mgrwt>
<rscale>  0 0.12168905E+03</rscale>
<asrwt>0</asrwt>
<pdfrwt beam="1">  1        1 0.15003057E+00 0.12800098E+03</pdfrwt>
<pdfrwt beam="2">  1       -1 0.21361122E-02 0.12800098E+03</pdfrwt>
<totfact> 0.99857920E+03</totfact>
</mgrwt>
</event>
<event>
 8    1  0.7550631E-006  0.1326153E+03  0.7546771E-02  0.1238661E+00
          3   -1    0    0  501    0  0.00000000000E+00  0.00000000000E+00  0.82133363003E+02  0.82133363003E+02  0.00000000000E+00 0. -1.
         -3   -1    0    0    0  501 -0.00000000000E+00 -0.00000000000E+00 -0.17041541524E+03  0.17041541524E+03  0.00000000000E+00 0.  1.
         23    2    1    2    0    0 -0.17734132677E+02  0.40586492672E+02 -0.67289259094E+02  0.11828224136E+03  0.86608783518E+02 0.  0.
         23    2    1    2    0    0  0.17734132677E+02 -0.40586492672E+02 -0.20992793148E+02  0.13426653689E+03  0.12500017086E+03 0.  0.
          5    1    4    4  502    0  0.30428099323E+02  0.40162668223E+02 -0.10946097141E+02  0.51776598863E+02  0.47000000000E+01 0.  1.
         -5    1    4    4    0  502 -0.12693966646E+02 -0.80749160896E+02 -0.10046696007E+02  0.82489938024E+02  0.47000000000E+01 0.  1.
        -11    1    3    3    0    0  0.65522520172E+01  0.15805843526E+02 -0.79636162732E+02  0.81453515030E+02  0.00000000000E+00 0.  1.
         11    1    3    3    0    0 -0.24286384694E+02  0.24780649147E+02  0.12346903638E+02  0.36828726330E+02  0.00000000000E+00 0. -1.
<mgrwt>
<rscale>  0 0.12272918E+03</rscale>
<asrwt>0</asrwt>
<pdfrwt beam="1">  1        3 0.12635902E-01 0.13261525E+03</pdfrwt>
<pdfrwt beam="2">  1       -3 0.26217756E-01 0.13261525E+03</pdfrwt>
<totfact> 0.15689550E+03</totfact>
</mgrwt>
</event>
<event>
 8    1  0.7550631E-006  0.1121151E+03  0.7546771E-02  0.1266708E+00
          1   -1    0    0  501    0  0.00000000000E+00  0.00000000000E+00  0.31425892732E+03  0.31425892732E+03  0.00000000000E+00 0. -1.
         -1   -1    0    0    0  501 -0.00000000000E+00 -0.00000000000E+00 -0.38405885338E+02  0.38405885338E+02  0.00000000000E+00 0.  1.
         23    2    1    2    0    0  0.23101543505E+01 -0.18197355403E+02  0.61573636860E+02  0.11082712086E+03  0.90304249104E+02 0.  0.
         23    2    1    2    0    0 -0.23101543505E+01  0.18197355403E+02  0.21427940512E+03  0.24183769179E+03  0.11060436319E+03 0.  0.
          5    1    4    4  502    0  0.31565048536E+01  0.52209667950E+01  0.22397497771E+03  0.22410734628E+03  0.47000000000E+01 0. -1.
         -5    1    4    4    0  502 -0.54666592041E+01  0.12976388608E+02 -0.96955725880E+01  0.17730345512E+02  0.47000000000E+01 0.  1.
        -11    1    3    3    0    0  0.50027508663E+01 -0.40022775389E+02  0.74931267924E+02  0.85097267752E+02  0.00000000000E+00 0.  1.
         11    1    3    3    0    0 -0.26925965159E+01  0.21825419986E+02 -0.13357631064E+02  0.25729853113E+02  0.00000000000E+00 0. -1.
<mgrwt>
<rscale>  0 0.10675058E+03</rscale>
<asrwt>0</asrwt>
<pdfrwt beam="1">  1        1 0.48347526E-01 0.11211514E+03</pdfrwt>
<pdfrwt beam="2">  1       -1 0.59085980E-02 0.11211514E+03</pdfrwt>
<totfact> 0.10515801E+04</totfact>
</mgrwt>
</event>
<event>
 7    1  0.7550631E-006  0.1473962E+03  0.7546771E-02  0.1217689E+00
         -1   -1    0    0    0  501 -0.00000000000E+00  0.00000000000E+00  0.93232269910E+02  0.93232269910E+02  0.00000000000E+00 0.  1.
          1   -1    0    0  501    0  0.00000000000E+00 -0.00000000000E+00 -0.46257010967E+03  0.46257010967E+03  0.00000000000E+00 0. -1.
         23    2    1    2    0    0 -0.14243762544E+02 -0.61129482156E+02  0.43282842639E+02  0.11764547207E+03  0.89595503630E+02 0.  0.
          5    1    1    2  502    0  0.67836332473E+02  0.64163612286E+02 -0.26522586318E+03  0.28122159527E+03  0.47000000000E+01 0. -1.
         -5    1    1    2    0  502 -0.53592569928E+02 -0.30341301298E+01 -0.14739481921E+03  0.15693531224E+03  0.47000000000E+01 0.  1.
        -11    1    3    3    0    0  0.76607255923E+01 -0.77737806594E+02  0.44917574371E+02  0.90107945143E+02  0.00000000000E+00 0.  1.
         11    1    3    3    0    0 -0.21904488137E+02  0.16608324438E+02 -0.16347317315E+01  0.27537526923E+02  0.00000000000E+00 0. -1.
<mgrwt>
<rscale>  0 0.13680853E+03</rscale>
<asrwt>0</asrwt>
<pdfrwt beam="2">  1        1 0.71164632E-01 0.14739623E+03</pdfrwt>
<pdfrwt beam="1">  1       -1 0.14343426E-01 0.14739623E+03</pdfrwt>
<totfact> 0.17067218E+03</totfact>
</mgrwt>
</event>
<event>
 8    1  0.7550631E-006  0.1760600E+03  0.7546771E-02  0.1177467E+00
          1   -1    0    0  501    0  0.00000000000E+00  0.00000000000E+00  0.14877521500E+04  0.14877521500E+04  0.00000000000E+00 0. -1.
         -1   -1    0    0    0  501 -0.00000000000E+00 -0.00000000000E+00 -0.18501746667E+02  0.18501746667E+02  0.00000000000E+00 0.  1.
         23    2    1    2    0    0 -0.77664565722E+02 -0.96643563532E+02  0.61791972918E+03  0.63690872084E+03  0.91957402274E+02 0.  0.
         23    2    1    2    0    0  0.77664565722E+02  0.96643563532E+02  0.85133067417E+03  0.86934517584E+03  0.12500141934E+03 0.  0.
          5    1    4    4  502    0  0.96404144382E+02  0.23810492449E+02  0.43126215421E+03  0.44257184079E+03  0.47000000000E+01 0. -1.
         -5    1    4    4    0  502 -0.18739578659E+02  0.72833071083E+02  0.42006851996E+03  0.42677333505E+03  0.47000000000E+01 0. -1.
        -11    1    3    3    0    0 -0.89577887517E+02 -0.10266009720E+03  0.59487427791E+03  0.61027755981E+03  0.00000000000E+00 0.  1.
         11    1    3    3    0    0  0.11913321794E+02  0.60165336725E+01  0.23045451274E+02  0.26631161034E+02  0.00000000000E+00 0. -1.
<mgrwt>
<rscale>  0 0.17036535E+03</rscale>
<asrwt>0</asrwt>
<pdfrwt beam="1">  1        1 0.22888485E+00 0.17605998E+03</pdfrwt>
<pdfrwt beam="2">  1       -1 0.28464237E-02 0.17605998E+03</pdfrwt>
<totfact> 0.29606222E+03</totfact>
</mgrwt>
</event>
<event>
 8    1  0.7550631E-006  0.1570647E+03  0.7546771E-02  0.1199484E+00
         -1   -1    0    0    0  501 -0.00000000000E+00  0.00000000000E+00  0.97080891041E+02  0.97080891041E+02  0.00000000000E+00 0.  1.
          1   -1    0    0  501    0  0.00000000000E+00 -0.00000000000E+00 -0.26762134687E+03  0.26762134687E+03  0.00000000000E+00 0. -1.
         23    2    1    2    0    0  0.31165071859E+02 -0.89844899154E+02 -0.87170317911E+00  0.13349495665E+03  0.93684448952E+02 0.  0.
         23    2    1    2    0    0 -0.31165071859E+02  0.89844899154E+02 -0.16966875265E+03  0.23120728127E+03  0.12500381465E+03 0.  0.
          5    1    4    4  502    0 -0.20700227977E+02  0.14073560605E+02  0.16183197678E+02  0.30175328225E+02  0.47000000000E+01 0. -1.
         -5    1    4    4    0  502 -0.10464843883E+02  0.75771338549E+02 -0.18585195033E+03  0.20103195305E+03  0.47000000000E+01 0. -1.
        -11    1    3    3    0    0  0.13576834742E+02 -0.10015607556E+03 -0.22738260619E+02  0.10359825485E+03  0.00000000000E+00 0. -1.
         11    1    3    3    0    0  0.17588237117E+02  0.10311176404E+02  0.21866557440E+02  0.29896701791E+02  0.00000000000E+00 0.  1.
<mgrwt>
<rscale>  0 0.15080747E+03</rscale>
<asrwt>0</asrwt>
<pdfrwt beam="2">  1        1 0.41172514E-01 0.15706470E+03</pdfrwt>
<pdfrwt beam="1">  1       -1 0.14935522E-01 0.15706470E+03</pdfrwt>
<totfact> 0.31926613E+03</totfact>
</mgrwt>
</event>
<event>
 8    1  0.7550631E-006  0.1546919E+03  0.7546771E-02  0.1203379E+00
          1   -1    0    0  501    0  0.00000000000E+00  0.00000000000E+00  0.32775094056E+02  0.32775094056E+02  0.00000000000E+00 0. -1.
         -1   -1    0    0    0  501 -0.00000000000E+00 -0.00000000000E+00 -0.64510678187E+03  0.64510678187E+03  0.00000000000E+00 0.  1.
         23    2    1    2    0    0 -0.11299819680E+02  0.90428883877E+02 -0.35640565096E+03  0.37883718873E+03  0.90485128981E+02 0.  0.
         23    2    1    2    0    0  0.11299819680E+02 -0.90428883877E+02 -0.25592603685E+03  0.29904468719E+03  0.12499807852E+03 0.  0.
          5    1    4    4  502    0  0.47517573237E+02 -0.29341538113E+02 -0.20233184971E+03  0.20995026323E+03  0.47000000000E+01 0.  1.
         -5    1    4    4    0  502 -0.36217753557E+02 -0.61087345764E+02 -0.53594187149E+02  0.89094423963E+02  0.47000000000E+01 0.  1.
        -11    1    3    3    0    0  0.40186020943E+01  0.94561309240E+02 -0.34847505488E+03  0.36109950739E+03  0.00000000000E+00 0.  1.
         11    1    3    3    0    0 -0.15318421774E+02 -0.41324253630E+01 -0.79305960804E+01  0.17737681337E+02  0.00000000000E+00 0. -1.
<mgrwt>
<rscale>  0 0.14765969E+03</rscale>
<asrwt>0</asrwt>
<pdfrwt beam="1">  1        1 0.50423218E-02 0.15469192E+03</pdfrwt>
<pdfrwt beam="2">  1       -1 0.99247205E-01 0.15469192E+03</pdfrwt>
<totfact> 0.16522639E+03</totfact>
</mgrwt>
</event>
<event>
 7    1  0.7550631E-006  0.1590038E+03  0.7546771E-02  0.1210482E+00
         -2   -1    0    0    0  501 -0.00000000000E+00  0.00000000000E+00  0.12220198665E+02  0.12220198665E+02  0.00000000000E+00 0.  1.
          2   -1    0    0  501    0  0.00000000000E+00 -0.00000000000E+00 -0.26552573999E+04  0.26552573999E+04  0.00000000000E+00 0. -1.
         23    2    1    2    0    0 -0.71052574085E+01 -0.49081625397E+02 -0.25970432293E+03  0.27884664563E+03  0.88598113954E+02 0.  0.
          5    1    1    2  502    0 -0.31652774189E+02  0.64021954443E+02 -0.21733098532E+04  0.21744881045E+04  0.47000000000E+01 0. -1.
         -5    1    1    2    0  502  0.38758031598E+02 -0.14940329046E+02 -0.21002302515E+03  0.21414284844E+03  0.47000000000E+01 0.  1.
        -11    1    3    3    0    0  0.98392516346E+01  0.23875305284E+02 -0.52187818592E+02  0.58227222882E+02  0.00000000000E+00 0. -1.
         11    1    3    3    0    0 -0.16944509043E+02 -0.72956930682E+02 -0.20751650433E+03  0.22061942275E+03  0.00000000000E+00 0.  1.
<mgrwt>
<rscale>  0 0.14213741E+03</rscale>
<asrwt>0</asrwt>
<pdfrwt beam="2">  1        2 0.40850164E+00 0.15900384E+03</pdfrwt>
<pdfrwt beam="1">  1       -2 0.18800283E-02 0.15900384E+03</pdfrwt>
<totfact> 0.28135007E+03</totfact>
</mgrwt>
</event>
<event>
 8    1  0.7550631E-006  0.1595711E+03  0.7546771E-02  0.1196952E+00
          2   -1    0    0  501    0  0.00000000000E+00  0.00000000000E+00  0.79743042157E+03  0.79743042157E+03  0.00000000000E+00 0. -1.
         -2   -1    0    0    0  501 -0.00000000000E+00 -0.00000000000E+00 -0.27858628694E+02  0.27858628694E+02  0.00000000000E+00 0.  1.
         23    2    1    2    0    0  0.15496281949E+02  0.97975596156E+02  0.28569811392E+03  0.31578276099E+03  0.90862465556E+02 0.  0.
         23    2    1    2    0    0 -0.15496281949E+02 -0.97975596156E+02  0.48387367896E+03  0.50950628927E+03  0.12499427757E+03 0.  0.
          5    1    4    4  502    0 -0.39707663953E+02  0.14536613097E+02  0.98709708371E+02  0.10748817713E+03  0.47000000000E+01 0. -1.
         -5    1    4    4    0  502  0.24211382003E+02 -0.11251220925E+03  0.38516397059E+03  0.40201811214E+03  0.47000000000E+01 0. -1.
        -11    1    3    3    0    0 -0.52377168719E+01 -0.14702901860E+02  0.68097933572E+02  0.69863707015E+02  0.00000000000E+00 0. -1.
         11    1    3    3    0    0  0.20733998821E+02  0.11267849802E+03  0.21760018035E+03  0.24591905398E+03  0.00000000000E+00 0.  1.
<mgrwt>
<rscale>  0 0.15290139E+03</rscale>
<asrwt>0</asrwt>
<pdfrwt beam="1">  1        2 0.12268159E+00 0.15957106E+03</pdfrwt>
<pdfrwt beam="2">  1       -2 0.42859435E-02 0.15957106E+03</pdfrwt>
<totfact> 0.85652732E+03</totfact>
</mgrwt>
</event>
<event>
 8    1  0.7550631E-006  0.1344321E+03  0.7546771E-02  0.1233267E+00
          2   -1    0    0  501    0  0.00000000000E+00  0.00000000000E+00  0.47018834601E+02  0.47018834601E+02  0.00000000000E+00 0. -1.
         -2   -1    0    0    0  501 -0.00000000000E+00 -0.00000000000E+00 -0.33271596112E+03  0.33271596112E+03  0.00000000000E+00 0.  1.
         23    2    1    2    0    0  0.49470919381E+02 -0.61254610557E+00 -0.18277300000E+03  0.21042629073E+03  0.91790561745E+02 0.  0.
         23    2    1    2    0    0 -0.49470919381E+02  0.61254610557E+00 -0.10292412653E+03  0.16930850500E+03  0.12499698783E+03 0.  0.
          5    1    4    4  502    0 -0.84612155458E+02 -0.21836289498E+02 -0.46824336165E+02  0.99250435000E+02  0.47000000000E+01 0. -1.
         -5    1    4    4    0  502  0.35141236077E+02  0.22448835604E+02 -0.56099790362E+02  0.70058069997E+02  0.47000000000E+01 0. -1.
        -11    1    3    3    0    0  0.35043456281E+02 -0.44103686681E+02 -0.12142047915E+03  0.13385108055E+03  0.00000000000E+00 0.  1.
         11    1    3    3    0    0  0.14427463100E+02  0.43491140575E+02 -0.61352520843E+02  0.76575210178E+02  0.00000000000E+00 0. -1.
<mgrwt>
<rscale>  0 0.12616016E+03</rscale>
<asrwt>0</asrwt>
<pdfrwt beam="1">  1        2 0.72336670E-02 0.13443212E+03</pdfrwt>
<pdfrwt beam="2">  1       -2 0.51187070E-01 0.13443212E+03</pdfrwt>
<totfact> 0.33885161E+03</totfact>
</mgrwt>
</event>
<event>
 8    1  0.7550631E-006  0.1251353E+03  0.7546771E-02  0.1250430E+00
          1   -1    0    0  501    0  0.00000000000E+00  0.00000000000E+00  0.43896991444E+02  0.43896991444E+02  0.00000000000E+00 0. -1.
         -1   -1    0    0    0  501 -0.00000000000E+00 -0.00000000000E+00 -0.26968665517E+03  0.26968665517E+03  0.00000000000E+00 0.  1.
         23    2    1    2    0    0 -0.54598767458E+01 -0.11520772730E+00 -0.11129771746E+03  0.14397455679E+03  0.91168347370E+02 0.  0.
         23    2    1    2    0    0  0.54598767458E+01  0.11520772730E+00 -0.11449194626E+03  0.16960908983E+03  0.12501605524E+03 0.  0.
          5    1    4    4  502    0  0.37407489880E+02  0.38175696788E+02 -0.11087135139E+02  0.54787942925E+02  0.47000000000E+01 0. -1.
         -5    1    4    4    0  502 -0.31947613134E+02 -0.38060489061E+02 -0.10340481113E+03  0.11482114690E+03  0.47000000000E+01 0. -1.
        -11    1    3    3    0    0  0.37119624581E+02  0.65326456745E+01 -0.19213307079E+02  0.42304765186E+02  0.00000000000E+00 0.  1.
         11    1    3    3    0    0 -0.42579501327E+02 -0.66478534018E+01 -0.92084410384E+02  0.10166979160E+03  0.00000000000E+00 0. -1.
<mgrwt>
<rscale>  0 0.11566189E+03</rscale>
<asrwt>0</asrwt>
<pdfrwt beam="1">  1        1 0.67533832E-02 0.12513528E+03</pdfrwt>
<pdfrwt beam="2">  1       -1 0.41490255E-01 0.12513528E+03</pdfrwt>
<totfact> 0.59923392E+03</totfact>
</mgrwt>
</event>
<event>
 8    1  0.7550631E-006  0.1356932E+03  0.7546771E-02  0.1231308E+00
         -2   -1    0    0    0  501 -0.00000000000E+00  0.00000000000E+00  0.66847224367E+02  0.66847224367E+02  0.00000000000E+00 0.  1.
          2   -1    0    0  501    0  0.00000000000E+00 -0.00000000000E+00 -0.34913344623E+03  0.34913344623E+03  0.00000000000E+00 0. -1.
         23    2    1    2    0    0 -0.52622699653E+02  0.43298601290E+01 -0.31521256917E+01  0.10561234768E+03  0.91411902279E+02 0.  0.
         23    2    1    2    0    0  0.52622699653E+02 -0.43298601290E+01 -0.27913409617E+03  0.31036832292E+03  0.12499902407E+03 0.  0.
          5    1    4    4  502    0 -0.13134545313E+02 -0.43353686432E+02 -0.45020549625E+02  0.64039037284E+02  0.47000000000E+01 0. -1.
         -5    1    4    4    0  502  0.65757244966E+02  0.39023826303E+02 -0.23411354654E+03  0.24632928563E+03  0.47000000000E+01 0. -1.
        -11    1    3    3    0    0 -0.45776929142E+02  0.31343287589E+02  0.29378361602E+02  0.62777520252E+02  0.00000000000E+00 0.  1.
         11    1    3    3    0    0 -0.68457705102E+01 -0.27013427460E+02 -0.32530487294E+02  0.42834827426E+02  0.00000000000E+00 0. -1.
<mgrwt>
<rscale>  0 0.12743799E+03</rscale>
<asrwt>0</asrwt>
<pdfrwt beam="2">  1        2 0.53712838E-01 0.13569323E+03</pdfrwt>
<pdfrwt beam="1">  1       -2 0.10284188E-01 0.13569323E+03</pdfrwt>
<totfact> 0.56322647E+03</totfact>
</mgrwt>
</event>
<event>
 8    1  0.7550631E-006  0.2066964E+03  0.7546771E-02  0.1148472E+00
          1   -1    0    0  501    0  0.00000000000E+00  0.00000000000E+00  0.83069194436E+03  0.83069194436E+03  0.00000000000E+00 0. -1.
         -1   -1    0    0    0  501 -0.00000000000E+00 -0.00000000000E+00 -0.46684356336E+02  0.46684356336E+02  0.00000000000E+00 0.  1.
         23    2    1    2    0    0  0.10851096389E+03  0.12379025393E+03  0.39289194716E+03  0.43500217798E+03  0.88114450895E+02 0.  0.
         23    2    1    2    0    0 -0.10851096389E+03 -0.12379025393E+03  0.39111564087E+03  0.44237412271E+03  0.12499905465E+03 0.  0.
          5    1    4    4  502    0 -0.28721011612E+01 -0.20864369002E+02 -0.27678904765E+01  0.21755966460E+02  0.47000000000E+01 0.  1.
         -5    1    4    4    0  502 -0.10563886273E+03 -0.10292588493E+03  0.39388353134E+03  0.42061815625E+03  0.47000000000E+01 0.  1.
        -11    1    3    3    0    0  0.85198493856E+02  0.12318997584E+03  0.25981425551E+03  0.29989665031E+03  0.00000000000E+00 0.  1.
         11    1    3    3    0    0  0.23312470031E+02  0.60027809135E+00  0.13307769165E+03  0.13510552767E+03  0.00000000000E+00 0. -1.
<mgrwt>
<rscale>  0 0.20150928E+03</rscale>
<asrwt>0</asrwt>
<pdfrwt beam="1">  1        1 0.12779875E+00 0.20669644E+03</pdfrwt>
<pdfrwt beam="2">  1       -1 0.71822093E-02 0.20669644E+03</pdfrwt>
<totfact> 0.21961760E+03</totfact>
</mgrwt>
</event>
<event>
 8    1  0.7550631E-006  0.1727132E+03  0.7546771E-02  0.1181312E+00
         -1   -1    0    0    0  501 -0.00000000000E+00  0.00000000000E+00  0.43579693059E+02  0.43579693059E+02  0.00000000000E+00 0.  1.
          1   -1    0    0  501    0  0.00000000000E+00 -0.00000000000E+00 -0.66760552634E+03  0.66760552634E+03  0.00000000000E+00 0. -1.
         23    2    1    2    0    0 -0.98242018675E+02  0.67475061668E+02 -0.17718232727E+03  0.23212470427E+03  0.91016059323E+02 0.  0.
         23    2    1    2    0    0  0.98242018675E+02 -0.67475061668E+02 -0.44684350601E+03  0.47906051513E+03  0.12500192043E+03 0.  0.
          5    1    4    4  502    0  0.62122250191E+02 -0.96465921270E+02 -0.38431919018E+03  0.40110868586E+03  0.47000000000E+01 0.  1.
         -5    1    4    4    0  502  0.36119768484E+02  0.28990859602E+02 -0.62524315835E+02  0.77951829269E+02  0.47000000000E+01 0.  1.
        -11    1    3    3    0    0 -0.53320920163E+02  0.68515316946E+02 -0.16355696066E+03  0.18517113319E+03  0.00000000000E+00 0.  1.
         11    1    3    3    0    0 -0.44921098511E+02 -0.10402552778E+01 -0.13625366608E+02  0.46953571086E+02  0.00000000000E+00 0. -1.
<mgrwt>
<rscale>  0 0.16672041E+03</rscale>
<asrwt>0</asrwt>
<pdfrwt beam="2">  1        1 0.10270853E+00 0.17271323E+03</pdfrwt>
<pdfrwt beam="1">  1       -1 0.67045687E-02 0.17271323E+03</pdfrwt>
<totfact> 0.33551125E+03</totfact>
</mgrwt>
</event>
<event>
 8    1  0.7550631E-006  0.1332239E+03  0.7546771E-02  0.1228153E+00
          2   -1    0    0  501    0  0.00000000000E+00  0.00000000000E+00  0.80965394146E+03  0.80965394146E+03  0.00000000000E+00 0. -1.
         -2   -1    0    0    0  501 -0.00000000000E+00 -0.00000000000E+00 -0.53529685929E+02  0.53529685929E+02  0.00000000000E+00 0.  1.
         23    2    1    2    0    0  0.47270965422E+01 -0.42588114408E+02  0.42708579904E+02  0.13990217208E+03  0.12614476614E+03 0.  0.
         23    2    1    2    0    0 -0.47270965422E+01  0.42588114408E+02  0.71341567563E+03  0.72328145531E+03  0.11107675016E+03 0.  0.
          5    1    4    4  502    0 -0.32276179787E+02  0.26515676802E+02  0.65669414076E+03  0.65803808203E+03  0.47000000000E+01 0. -1.
         -5    1    4    4    0  502  0.27549083245E+02  0.16072437606E+02  0.56721534872E+02  0.65243373276E+02  0.47000000000E+01 0.  1.
        -11    1    3    3    0    0  0.33578795854E+02 -0.74024898930E+02  0.25773565978E+01  0.81325666057E+02  0.00000000000E+00 0.  1.
         11    1    3    3    0    0 -0.28851699312E+02  0.31436784522E+02  0.40131223306E+02  0.58576506026E+02  0.00000000000E+00 0. -1.
<mgrwt>
<rscale>  0 0.12953096E+03</rscale>
<asrwt>0</asrwt>
<pdfrwt beam="1">  1        2 0.12456214E+00 0.13322385E+03</pdfrwt>
<pdfrwt beam="2">  1       -2 0.82353369E-02 0.13322385E+03</pdfrwt>
<totfact> 0.30921405E+03</totfact>
</mgrwt>
</event>
<event>
 8    1  0.7550631E-006  0.1381064E+03  0.7546771E-02  0.1227269E+00
          2   -1    0    0  501    0  0.00000000000E+00  0.00000000000E+00  0.57192707719E+03  0.57192707719E+03  0.00000000000E+00 0. -1.
         -2   -1    0    0    0  501 -0.00000000000E+00 -0.00000000000E+00 -0.45616113793E+02  0.45616113793E+02  0.00000000000E+00 0.  1.
         23    2    1    2    0    0  0.56854564688E+02 -0.14760316179E+02  0.46696589766E+02  0.11844066262E+03  0.91636840876E+02 0.  0.
         23    2    1    2    0    0 -0.56854564688E+02  0.14760316179E+02  0.47961437364E+03  0.49910252837E+03  0.12499231164E+03 0.  0.
          5    1    4    4  502    0  0.39666164142E+02  0.89822924883E+01  0.12663870390E+03  0.13309221420E+03  0.47000000000E+01 0.  1.
         -5    1    4    4    0  502 -0.96520728830E+02  0.57780236904E+01  0.35297566974E+03  0.36601031417E+03  0.47000000000E+01 0.  1.
        -11    1    3    3    0    0  0.21640705317E+02 -0.51390062306E+02  0.36420062893E+02  0.66600897979E+02  0.00000000000E+00 0.  1.
         11    1    3    3    0    0  0.35213859370E+02  0.36629746127E+02  0.10276526873E+02  0.51839764638E+02  0.00000000000E+00 0. -1.
<mgrwt>
<rscale>  0 0.13012607E+03</rscale>
<asrwt>0</asrwt>
<pdfrwt beam="1">  1        2 0.87988776E-01 0.13810643E+03</pdfrwt>
<pdfrwt beam="2">  1       -2 0.70178640E-02 0.13810643E+03</pdfrwt>
<totfact> 0.59706263E+03</totfact>
</mgrwt>
</event>
<event>
 8    1  0.8422895E-006  0.3629116E+03  0.7546771E-02  0.1058441E+00
         -2   -1    0    0    0  501 -0.00000000000E+00  0.00000000000E+00  0.45420518892E+03  0.45420518892E+03  0.00000000000E+00 0.  1.
          2   -1    0    0  501    0  0.00000000000E+00 -0.00000000000E+00 -0.28840037429E+03  0.28840037429E+03  0.00000000000E+00 0. -1.
         23    2    1    2    0    0  0.33789732562E+03 -0.43645254268E+02  0.13724516143E+03  0.37857190057E+03  0.91656634677E+02 0.  0.
         23    2    1    2    0    0 -0.33789732562E+03  0.43645254268E+02  0.28559653197E+02  0.36403366264E+03  0.12500137143E+03 0.  0.
          5    1    4    4  502    0 -0.13628664534E+03 -0.33933381435E+02  0.44420155795E+02  0.14737966045E+03  0.47000000000E+01 0.  1.
         -5    1    4    4    0  502 -0.20161068028E+03  0.77578635703E+02 -0.15860502598E+02  0.21665400218E+03  0.47000000000E+01 0.  1.
        -11    1    3    3    0    0  0.11448060628E+03 -0.24554285145E+02  0.94137098225E+02  0.15023486745E+03  0.00000000000E+00 0.  1.
         11    1    3    3    0    0  0.22341671934E+03 -0.19090969123E+02  0.43108063208E+02  0.22833703312E+03  0.00000000000E+00 0. -1.
<mgrwt>
<rscale>  0 0.36036144E+03</rscale>
<asrwt>0</asrwt>
<pdfrwt beam="2">  1        2 0.44369289E-01 0.36291163E+03</pdfrwt>
<pdfrwt beam="1">  1       -2 0.69877721E-01 0.36291163E+03</pdfrwt>
<totfact> 0.21902202E+02</totfact>
</mgrwt>
</event>
<event>
 8    1  0.7550631E-006  0.1524391E+03  0.7546771E-02  0.1205986E+00
         -1   -1    0    0    0  501 -0.00000000000E+00  0.00000000000E+00  0.28847838054E+02  0.28847838054E+02  0.00000000000E+00 0.  1.
          1   -1    0    0  501    0  0.00000000000E+00 -0.00000000000E+00 -0.12509967627E+04  0.12509967627E+04  0.00000000000E+00 0. -1.
         23    2    1    2    0    0 -0.31965071257E+02  0.81175981781E+02 -0.14801233960E+03  0.19494503124E+03  0.92111925036E+02 0.  0.
         23    2    1    2    0    0  0.31965071257E+02 -0.81175981781E+02 -0.10741365850E+04  0.10848995695E+04  0.12500546704E+03 0.  0.
          5    1    4    4  502    0  0.55062362298E+01 -0.80522304284E+02 -0.31249563158E+03  0.32278440154E+03  0.47000000000E+01 0.  1.
         -5    1    4    4    0  502  0.26458835027E+02 -0.65367749707E+00 -0.76164095346E+03  0.76211516796E+03  0.47000000000E+01 0.  1.
        -11    1    3    3    0    0  0.14749313121E+02  0.54210736500E+02 -0.26743903460E+02  0.62222042410E+02  0.00000000000E+00 0.  1.
         11    1    3    3    0    0 -0.46714384378E+02  0.26965245281E+02 -0.12126843614E+03  0.13272298883E+03  0.00000000000E+00 0. -1.
<mgrwt>
<rscale>  0 0.14560010E+03</rscale>
<asrwt>0</asrwt>
<pdfrwt beam="2">  1        1 0.19246101E+00 0.15243908E+03</pdfrwt>
<pdfrwt beam="1">  1       -1 0.44381296E-02 0.15243908E+03</pdfrwt>
<totfact> 0.22107164E+03</totfact>
</mgrwt>
</event>
<event>
 8    1  0.7550631E-006  0.1283573E+03  0.7546771E-02  0.1245353E+00
          2   -1    0    0  501    0  0.00000000000E+00  0.00000000000E+00  0.23397779354E+03  0.23397779354E+03  0.00000000000E+00 0.  1.
         -2   -1    0    0    0  501 -0.00000000000E+00 -0.00000000000E+00 -0.65404478415E+02  0.65404478415E+02  0.00000000000E+00 0. -1.
         23    2    1    2    0    0  0.29056724288E+02  0.25750326060E+01  0.83186355962E+01  0.94060162282E+02  0.89034770798E+02 0.  0.
         23    2    1    2    0    0 -0.29056724288E+02 -0.25750326060E+01  0.16025467952E+03  0.20532210967E+03  0.12499872955E+03 0.  0.
          5    1    4    4  502    0 -0.52344783433E+02 -0.52358721956E+01  0.17110347861E+03  0.17906948680E+03  0.47000000000E+01 0. -1.
         -5    1    4    4    0  502  0.23288059145E+02  0.26608395896E+01 -0.10848799084E+02  0.26252622871E+02  0.47000000000E+01 0. -1.
        -11    1    3    3    0    0  0.55371126096E+02  0.23018672103E+02  0.11547847384E+01  0.59976281964E+02  0.00000000000E+00 0. -1.
         11    1    3    3    0    0 -0.26314401808E+02 -0.20443639497E+02  0.71638508578E+01  0.34083880317E+02  0.00000000000E+00 0.  1.
<mgrwt>
<rscale>  0 0.11864261E+03</rscale>
<asrwt>0</asrwt>
<pdfrwt beam="1">  1        2 0.35996583E-01 0.12835734E+03</pdfrwt>
<pdfrwt beam="2">  1       -2 0.10062228E-01 0.12835734E+03</pdfrwt>
<totfact> 0.88790595E+03</totfact>
</mgrwt>
</event>
<event>
 8    1  0.7550631E-006  0.3597380E+03  0.7546771E-02  0.1059769E+00
          2   -1    0    0  501    0  0.00000000000E+00  0.00000000000E+00  0.60175685313E+03  0.60175685313E+03  0.00000000000E+00 0. -1.
         -2   -1    0    0    0  501 -0.00000000000E+00 -0.00000000000E+00 -0.22052246909E+03  0.22052246909E+03  0.00000000000E+00 0.  1.
         23    2    1    2    0    0  0.98867661852E+02  0.32250433419E+03  0.92630443073E+02  0.36108126936E+03  0.89528900209E+02 0.  0.
         23    2    1    2    0    0 -0.98867661852E+02 -0.32250433419E+03  0.28860394096E+03  0.46119805286E+03  0.12501019594E+03 0.  0.
          5    1    4    4  502    0 -0.11598838087E+03 -0.20610338023E+03  0.22896117453E+03  0.32920695206E+03  0.47000000000E+01 0.  1.
         -5    1    4    4    0  502  0.17120719022E+02 -0.11640095396E+03  0.59642766431E+02  0.13199110080E+03  0.47000000000E+01 0.  1.
        -11    1    3    3    0    0  0.37385698088E+02  0.14875469641E+03  0.87754153681E+02  0.17671004956E+03  0.00000000000E+00 0. -1.
         11    1    3    3    0    0  0.61481963764E+02  0.17374963777E+03  0.48762893919E+01  0.18437121980E+03  0.00000000000E+00 0.  1.
<mgrwt>
<rscale>  0 0.35702227E+03</rscale>
<asrwt>0</asrwt>
<pdfrwt beam="1">  1        2 0.92577977E-01 0.35973797E+03</pdfrwt>
<pdfrwt beam="2">  1       -2 0.33926534E-01 0.35973797E+03</pdfrwt>
<totfact> 0.41020779E+02</totfact>
</mgrwt>
</event>
<event>
 8    1  0.7550631E-006  0.1457853E+03  0.7546771E-02  0.1216032E+00
         -4   -1    0    0    0  501 -0.00000000000E+00  0.00000000000E+00  0.72020391671E+03  0.72020391671E+03  0.00000000000E+00 0.  1.
          4   -1    0    0  501    0  0.00000000000E+00 -0.00000000000E+00 -0.26613842188E+02  0.26613842188E+02  0.00000000000E+00 0. -1.
         23    2    1    2    0    0  0.56328411833E+02 -0.49563876602E+02  0.42936154241E+03  0.44503959205E+03  0.89885685989E+02 0.  0.
         23    2    1    2    0    0 -0.56328411833E+02  0.49563876602E+02  0.26422853211E+03  0.30177816685E+03  0.12499550777E+03 0.  0.
          5    1    4    4  502    0 -0.12401400626E+01  0.80379922401E+02  0.17201802415E+03  0.18993356866E+03  0.47000000000E+01 0.  1.
         -5    1    4    4    0  502 -0.55088271770E+02 -0.30816045799E+02  0.92210507969E+02  0.11184459819E+03  0.47000000000E+01 0.  1.
        -11    1    3    3    0    0  0.32680353497E+01 -0.52158027456E+02  0.11629389904E+03  0.12749670912E+03  0.00000000000E+00 0. -1.
         11    1    3    3    0    0  0.53060376483E+02  0.25941508535E+01  0.31306764337E+03  0.31754288292E+03  0.00000000000E+00 0.  1.
<mgrwt>
<rscale>  0 0.13801001E+03</rscale>
<asrwt>0</asrwt>
<pdfrwt beam="2">  1        4 0.40944378E-02 0.14578527E+03</pdfrwt>
<pdfrwt beam="1">  1       -4 0.11080059E+00 0.14578527E+03</pdfrwt>
<totfact> 0.37338240E+02</totfact>
</mgrwt>
</event>
<event>
 8    1  0.7550631E-006  0.1279638E+03  0.7546771E-02  0.1238943E+00
         -2   -1    0    0    0  501 -0.00000000000E+00  0.00000000000E+00  0.84822958970E+01  0.84822958970E+01  0.00000000000E+00 0.  1.
          2   -1    0    0  501    0  0.00000000000E+00 -0.00000000000E+00 -0.23346951935E+04  0.23346951935E+04  0.00000000000E+00 0. -1.
         23    2    1    2    0    0  0.19843478866E+01  0.55907526102E+02 -0.45373213345E+03  0.46632934796E+03  0.91981643454E+02 0.  0.
         23    2    1    2    0    0 -0.19843478866E+01 -0.55907526102E+02 -0.18724807642E+04  0.18768481414E+04  0.11508755267E+03 0.  0.
          5    1    4    4  502    0 -0.19306656698E+02 -0.60952605729E+02 -0.18204385769E+04  0.18215670916E+04  0.47000000000E+01 0. -1.
         -5    1    4    4    0  502  0.17322308812E+02  0.50450796271E+01 -0.52042187285E+02  0.55281049813E+02  0.47000000000E+01 0.  1.
        -11    1    3    3    0    0 -0.42105762637E+02  0.44021061923E+02 -0.29126032014E+03  0.29756230142E+03  0.00000000000E+00 0.  1.
         11    1    3    3    0    0  0.44090110524E+02  0.11886464179E+02 -0.16247181331E+03  0.16876704654E+03  0.00000000000E+00 0. -1.
<mgrwt>
<rscale>  0 0.12255380E+03</rscale>
<asrwt>0</asrwt>
<pdfrwt beam="2">  1        2 0.35918373E+00 0.12796380E+03</pdfrwt>
<pdfrwt beam="1">  1       -2 0.13049691E-02 0.12796380E+03</pdfrwt>
<totfact> 0.70776902E+03</totfact>
</mgrwt>
</event>
<event>
 8    1  0.7550631E-006  0.1562472E+03  0.7546771E-02  0.1201075E+00
         -2   -1    0    0    0  501 -0.00000000000E+00  0.00000000000E+00  0.14111832985E+02  0.14111832985E+02  0.00000000000E+00 0.  1.
          2   -1    0    0  501    0  0.00000000000E+00 -0.00000000000E+00 -0.15370478616E+04  0.15370478616E+04  0.00000000000E+00 0. -1.
         23    2    1    2    0    0 -0.82626555457E+02  0.44288071028E+02 -0.52669502976E+03  0.54274048587E+03  0.91493167620E+02 0.  0.
         23    2    1    2    0    0  0.82626555457E+02 -0.44288071028E+02 -0.99624099885E+03  0.10084192087E+04  0.12499836725E+03 0.  0.
          5    1    4    4  502    0  0.10169552424E+03 -0.27926018549E+02 -0.94767702663E+03  0.95353850419E+03  0.47000000000E+01 0. -1.
         -5    1    4    4    0  502 -0.19068968785E+02 -0.16362052480E+02 -0.48563972217E+02  0.54880704527E+02  0.47000000000E+01 0. -1.
        -11    1    3    3    0    0 -0.32986899937E+02 -0.22587411995E+02 -0.94745169265E+02  0.10283469185E+03  0.00000000000E+00 0.  1.
         11    1    3    3    0    0 -0.49639655520E+02  0.66875483023E+02 -0.43194986050E+03  0.43990579402E+03  0.00000000000E+00 0. -1.
<mgrwt>
<rscale>  0 0.14951075E+03</rscale>
<asrwt>0</asrwt>
<pdfrwt beam="2">  1        2 0.23646884E+00 0.15624715E+03</pdfrwt>
<pdfrwt beam="1">  1       -2 0.21710518E-02 0.15624715E+03</pdfrwt>
<totfact> 0.87738702E+03</totfact>
</mgrwt>
</event>
<event>
 8    1  0.7550631E-006  0.2252527E+03  0.7546771E-02  0.1132354E+00
         -2   -1    0    0    0  501 -0.00000000000E+00  0.00000000000E+00  0.13106779433E+03  0.13106779433E+03  0.00000000000E+00 0.  1.
          2   -1    0    0  501    0  0.00000000000E+00 -0.00000000000E+00 -0.62499044937E+03  0.62499044937E+03  0.00000000000E+00 0. -1.
         23    2    1    2    0    0 -0.83389674752E+02 -0.16781577760E+03  0.47274789519E+00  0.21276680956E+03  0.10076466986E+03 0.  0.
         23    2    1    2    0    0  0.83389674752E+02  0.16781577760E+03 -0.49439540294E+03  0.54329143414E+03  0.12499117928E+03 0.  0.
          5    1    4    4  502    0  0.23072789734E+02  0.16170085540E+03 -0.33607818572E+03  0.37369794913E+03  0.47000000000E+01 0. -1.
         -5    1    4    4    0  502  0.60316885018E+02  0.61149221965E+01 -0.15831721722E+03  0.16959348502E+03  0.47000000000E+01 0. -1.
        -11    1    3    3    0    0 -0.65893198652E+02 -0.27590225850E+02 -0.11178779852E+01  0.71444970727E+02  0.00000000000E+00 0. -1.
         11    1    3    3    0    0 -0.17496476101E+02 -0.14022555175E+03  0.15906258804E+01  0.14132183883E+03  0.00000000000E+00 0.  1.
<mgrwt>
<rscale>  0 0.22206401E+03</rscale>
<asrwt>0</asrwt>
<pdfrwt beam="2">  1        2 0.96152377E-01 0.22525268E+03</pdfrwt>
<pdfrwt beam="1">  1       -2 0.20164276E-01 0.22525268E+03</pdfrwt>
<totfact> 0.99813091E+02</totfact>
</mgrwt>
</event>
<event>
 8    1  0.7550631E-006  0.1860131E+03  0.7546771E-02  0.1167839E+00
          4   -1    0    0  501    0  0.00000000000E+00  0.00000000000E+00  0.10848194228E+03  0.10848194228E+03  0.00000000000E+00 0. -1.
         -4   -1    0    0    0  501 -0.00000000000E+00 -0.00000000000E+00 -0.30362936086E+03  0.30362936086E+03  0.00000000000E+00 0.  1.
         23    2    1    2    0    0 -0.13528984903E+03 -0.25939697198E+02 -0.35057198792E+02  0.16669377354E+03  0.87072359616E+02 0.  0.
         23    2    1    2    0    0  0.13528984903E+03  0.25939697198E+02 -0.16009021978E+03  0.24541752961E+03  0.12499869691E+03 0.  0.
          5    1    4    4  502    0  0.14376529128E+03  0.13101980644E+02 -0.82833421266E+02  0.16650401362E+03  0.47000000000E+01 0. -1.
         -5    1    4    4    0  502 -0.84754422560E+01  0.12837716554E+02 -0.77256798517E+02  0.78913515983E+02  0.47000000000E+01 0. -1.
        -11    1    3    3    0    0 -0.98403190127E+02 -0.27421764559E+01 -0.61165509576E+02  0.11589619028E+03  0.00000000000E+00 0.  1.
         11    1    3    3    0    0 -0.36886658898E+02 -0.23197520742E+02  0.26108310783E+02  0.50797583261E+02  0.00000000000E+00 0. -1.
<mgrwt>
<rscale>  0 0.17996238E+03</rscale>
<asrwt>0</asrwt>
<pdfrwt beam="1">  1        4 0.16689530E-01 0.18601313E+03</pdfrwt>
<pdfrwt beam="2">  1       -4 0.46712209E-01 0.18601313E+03</pdfrwt>
<totfact> 0.24458508E+02</totfact>
</mgrwt>
</event>
<event>
 8    1  0.7550631E-006  0.4280111E+03  0.7546771E-02  0.1035199E+00
          2   -1    0    0  501    0  0.00000000000E+00  0.00000000000E+00  0.11683957452E+04  0.11683957452E+04  0.00000000000E+00 0. -1.
         -2   -1    0    0    0  501 -0.00000000000E+00 -0.00000000000E+00 -0.24322850464E+03  0.24322850464E+03  0.00000000000E+00 0.  1.
         23    2    1    2    0    0  0.23557407450E+03  0.33476644253E+03  0.31046237697E+02  0.42033929653E+03  0.90319099373E+02 0.  0.
         23    2    1    2    0    0 -0.23557407450E+03 -0.33476644253E+03  0.89412100290E+03  0.99128495334E+03  0.12501909963E+03 0.  0.
          5    1    4    4  502    0 -0.13685157437E+03 -0.15753059605E+03  0.31719011613E+03  0.37970501955E+03  0.47000000000E+01 0. -1.
         -5    1    4    4    0  502 -0.98722500133E+02 -0.17723584648E+03  0.57693088677E+03  0.61157993379E+03  0.47000000000E+01 0. -1.
        -11    1    3    3    0    0  0.63502607956E+02  0.15289139170E+03 -0.13222384976E+02  0.16608187842E+03  0.00000000000E+00 0. -1.
         11    1    3    3    0    0  0.17207146655E+03  0.18187505083E+03  0.44268622674E+02  0.25425741812E+03  0.00000000000E+00 0.  1.
<mgrwt>
<rscale>  0 0.42578887E+03</rscale>
<asrwt>0</asrwt>
<pdfrwt beam="1">  1        2 0.17975319E+00 0.42801109E+03</pdfrwt>
<pdfrwt beam="2">  1       -2 0.37419771E-01 0.42801109E+03</pdfrwt>
<totfact> 0.13922948E+02</totfact>
</mgrwt>
</event>
<event>
 8    1  0.7550631E-006  0.2427566E+03  0.7546771E-02  0.1120440E+00
          2   -1    0    0  501    0  0.00000000000E+00  0.00000000000E+00  0.56266084191E+03  0.56266084191E+03  0.00000000000E+00 0. -1.
         -2   -1    0    0    0  501 -0.00000000000E+00 -0.00000000000E+00 -0.98862740785E+02  0.98862740785E+02  0.00000000000E+00 0.  1.
         23    2    1    2    0    0  0.15179538548E+03 -0.14235187250E+03  0.24343965698E+03  0.33366901184E+03  0.93628244759E+02 0.  0.
         23    2    1    2    0    0 -0.15179538548E+03  0.14235187250E+03  0.22035844415E+03  0.32785457085E+03  0.12499952426E+03 0.  0.
          5    1    4    4  502    0 -0.74250978410E+02  0.19414341914E+02  0.14485140757E+03  0.16399434363E+03  0.47000000000E+01 0. -1.
         -5    1    4    4    0  502 -0.77544407072E+02  0.12293753058E+03  0.75507036575E+02  0.16386022722E+03  0.47000000000E+01 0. -1.
        -11    1    3    3    0    0  0.10221901953E+03 -0.32560405223E+02  0.10426914812E+03  0.14960268444E+03  0.00000000000E+00 0.  1.
         11    1    3    3    0    0  0.49576365952E+02 -0.10979146727E+03  0.13917050886E+03  0.18406632740E+03  0.00000000000E+00 0. -1.
<mgrwt>
<rscale>  0 0.23903087E+03</rscale>
<asrwt>0</asrwt>
<pdfrwt beam="1">  1        2 0.86563204E-01 0.24275662E+03</pdfrwt>
<pdfrwt beam="2">  1       -2 0.15209653E-01 0.24275662E+03</pdfrwt>
<totfact> 0.18138749E+03</totfact>
</mgrwt>
</event>
<event>
 8    1  0.7550631E-006  0.1414213E+03  0.7546771E-02  0.1221826E+00
          2   -1    0    0  501    0  0.00000000000E+00  0.00000000000E+00  0.52511324533E+03  0.52511324533E+03  0.00000000000E+00 0. -1.
         -2   -1    0    0    0  501 -0.00000000000E+00 -0.00000000000E+00 -0.33193793605E+02  0.33193793605E+02  0.00000000000E+00 0.  1.
         23    2    1    2    0    0 -0.82653168321E+01 -0.65627070862E+02  0.14870823015E+03  0.18710101065E+03  0.92289883414E+02 0.  0.
         23    2    1    2    0    0  0.82653168321E+01  0.65627070862E+02  0.34321122157E+03  0.37120602828E+03  0.12499897970E+03 0.  0.
          5    1    4    4  502    0 -0.13178667417E+02  0.46375924224E+02  0.30734570888E+02  0.57368174715E+02  0.47000000000E+01 0.  1.
         -5    1    4    4    0  502  0.21443984249E+02  0.19251146639E+02  0.31247665068E+03  0.31383785356E+03  0.47000000000E+01 0.  1.
        -11    1    3    3    0    0  0.40356848723E+02 -0.38930536979E+02  0.92236940763E+02  0.10794403730E+03  0.00000000000E+00 0.  1.
         11    1    3    3    0    0 -0.48622165555E+02 -0.26696533883E+02  0.56471289389E+02  0.79156973350E+02  0.00000000000E+00 0. -1.
<mgrwt>
<rscale>  0 0.13386863E+03</rscale>
<asrwt>0</asrwt>
<pdfrwt beam="1">  1        2 0.80786647E-01 0.14142126E+03</pdfrwt>
<pdfrwt beam="2">  1       -2 0.51067379E-02 0.14142126E+03</pdfrwt>
<totfact> 0.10655450E+04</totfact>
</mgrwt>
</event>
<event>
 8    1  0.7550631E-006  0.1459457E+03  0.7546771E-02  0.1215437E+00
          1   -1    0    0  501    0  0.00000000000E+00  0.00000000000E+00  0.72254543690E+03  0.72254543690E+03  0.00000000000E+00 0. -1.
         -1   -1    0    0    0  501 -0.00000000000E+00 -0.00000000000E+00 -0.38268582421E+02  0.38268582421E+02  0.00000000000E+00 0.  1.
         23    2    1    2    0    0  0.60936339795E+02 -0.44267788786E+02  0.89095127312E+02  0.14799966221E+03  0.91066369605E+02 0.  0.
         23    2    1    2    0    0 -0.60936339795E+02  0.44267788786E+02  0.59518172717E+03  0.61281435711E+03  0.12500909283E+03 0.  0.
          5    1    4    4  502    0 -0.50095927053E+02  0.56687369708E+02  0.59008145057E+03  0.59492963290E+03  0.47000000000E+01 0. -1.
         -5    1    4    4    0  502 -0.10840412742E+02 -0.12419580922E+02  0.51002765967E+01  0.17884724210E+02  0.47000000000E+01 0. -1.
        -11    1    3    3    0    0  0.40241581500E+02 -0.71557592426E+02  0.74171388071E+02  0.11064026719E+03  0.00000000000E+00 0. -1.
         11    1    3    3    0    0  0.20694758295E+02  0.27289803640E+02  0.14923739241E+02  0.37359395024E+02  0.00000000000E+00 0.  1.
<mgrwt>
<rscale>  0 0.13844502E+03</rscale>
<asrwt>0</asrwt>
<pdfrwt beam="1">  1        1 0.11116083E+00 0.14594570E+03</pdfrwt>
<pdfrwt beam="2">  1       -1 0.58874748E-02 0.14594570E+03</pdfrwt>
<totfact> 0.36182237E+03</totfact>
</mgrwt>
</event>
<event>
 8    1  0.7550631E-006  0.1994423E+03  0.7546771E-02  0.1154598E+00
          2   -1    0    0  501    0  0.00000000000E+00  0.00000000000E+00  0.30712431727E+02  0.30712431727E+02  0.00000000000E+00 0. -1.
         -2   -1    0    0    0  501 -0.00000000000E+00 -0.00000000000E+00 -0.11728983237E+04  0.11728983237E+04  0.00000000000E+00 0.  1.
         23    2    1    2    0    0 -0.14457077768E+03 -0.57030921215E+02 -0.56633910546E+03  0.59420386757E+03  0.90471089974E+02 0.  0.
         23    2    1    2    0    0  0.14457077768E+03  0.57030921215E+02 -0.57584678654E+03  0.60940688789E+03  0.12499599076E+03 0.  0.
          5    1    4    4  502    0  0.31529004249E+02  0.16309986723E+01 -0.34458159146E+03  0.34605678933E+03  0.47000000000E+01 0.  1.
         -5    1    4    4    0  502  0.11304177343E+03  0.55399922543E+02 -0.23126519507E+03  0.26335009856E+03  0.47000000000E+01 0.  1.
        -11    1    3    3    0    0 -0.83719998633E+02 -0.13643111590E+02 -0.16045323959E+03  0.18149494417E+03  0.00000000000E+00 0. -1.
         11    1    3    3    0    0 -0.60850779047E+02 -0.43387809625E+02 -0.40588586587E+03  0.41270892339E+03  0.00000000000E+00 0.  1.
<mgrwt>
<rscale>  0 0.19434686E+03</rscale>
<asrwt>0</asrwt>
<pdfrwt beam="1">  1        2 0.47249892E-02 0.19944231E+03</pdfrwt>
<pdfrwt beam="2">  1       -2 0.18044591E+00 0.19944231E+03</pdfrwt>
<totfact> 0.32576209E+02</totfact>
</mgrwt>
</event>
<event>
 8    1  0.7550631E-006  0.1327726E+03  0.7546771E-02  0.1236035E+00
         -2   -1    0    0    0  501 -0.00000000000E+00  0.00000000000E+00  0.15240953247E+02  0.15240953247E+02  0.00000000000E+00 0. -1.
          2   -1    0    0  501    0  0.00000000000E+00 -0.00000000000E+00 -0.20519426914E+04  0.20519426914E+04  0.00000000000E+00 0.  1.
         23    2    1    2    0    0 -0.43701044684E+02 -0.98966266175E+01 -0.19050433686E+03  0.21621811256E+03  0.91927391520E+02 0.  0.
         23    2    1    2    0    0  0.43701044684E+02  0.98966266175E+01 -0.18461974013E+04  0.18509655320E+04  0.12498332652E+03 0.  0.
          5    1    4    4  502    0 -0.39375849817E+02 -0.12708447693E+02 -0.38982314012E+03  0.39204098353E+03  0.47000000000E+01 0.  1.
         -5    1    4    4    0  502  0.83076894501E+02  0.22605074311E+02 -0.14563742611E+04  0.14589245485E+04  0.47000000000E+01 0.  1.
        -11    1    3    3    0    0 -0.50372345834E+02  0.22556854512E+02 -0.16620821449E+03  0.17513239413E+03  0.00000000000E+00 0.  1.
         11    1    3    3    0    0  0.66713011495E+01 -0.32453481129E+02 -0.24296122365E+02  0.41085718424E+02  0.00000000000E+00 0. -1.
<mgrwt>
<rscale>  0 0.12438393E+03</rscale>
<asrwt>0</asrwt>
<pdfrwt beam="2">  1        2 0.31568340E+00 0.13277257E+03</pdfrwt>
<pdfrwt beam="1">  1       -2 0.23447627E-02 0.13277257E+03</pdfrwt>
<totfact> 0.42491639E+03</totfact>
</mgrwt>
</event>
<event>
 8    1  0.7550631E-006  0.2517020E+03  0.7546771E-02  0.1114655E+00
         -2   -1    0    0    0  501 -0.00000000000E+00  0.00000000000E+00  0.66823211623E+03  0.66823211623E+03  0.00000000000E+00 0.  1.
          2   -1    0    0  501    0  0.00000000000E+00 -0.00000000000E+00 -0.12282134858E+03  0.12282134858E+03  0.00000000000E+00 0. -1.
         23    2    1    2    0    0 -0.20335777070E+03 -0.79867429381E+02  0.47333252565E+03  0.52923449431E+03  0.91171711298E+02 0.  0.
         23    2    1    2    0    0  0.20335777070E+03  0.79867429381E+02  0.72078242000E+02  0.26181897050E+03  0.12498284347E+03 0.  0.
          5    1    4    4  502    0  0.30942310069E+01 -0.14717850066E+01 -0.24387619249E+02  0.25071625182E+02  0.47000000000E+01 0.  1.
         -5    1    4    4    0  502  0.20026353970E+03  0.81339214388E+02  0.96465861249E+02  0.23674734532E+03  0.47000000000E+01 0.  1.
        -11    1    3    3    0    0 -0.17657004325E+03 -0.90243682362E+02  0.34686236034E+03  0.39954273789E+03  0.00000000000E+00 0. -1.
         11    1    3    3    0    0 -0.26787727451E+02  0.10376252981E+02  0.12647016531E+03  0.12969175642E+03  0.00000000000E+00 0.  1.
<mgrwt>
<rscale>  0 0.24787491E+03</rscale>
<asrwt>0</asrwt>
<pdfrwt beam="2">  1        2 0.18895592E-01 0.25170201E+03</pdfrwt>
<pdfrwt beam="1">  1       -2 0.10280494E+00 0.25170201E+03</pdfrwt>
<totfact> 0.23928164E+02</totfact>
</mgrwt>
</event>
<event>
 8    1  0.7550631E-006  0.1348828E+03  0.7546771E-02  0.1233342E+00
         -2   -1    0    0    0  501 -0.00000000000E+00  0.00000000000E+00  0.13207865463E+03  0.13207865463E+03  0.00000000000E+00 0.  1.
          2   -1    0    0  501    0  0.00000000000E+00 -0.00000000000E+00 -0.15318634203E+03  0.15318634203E+03  0.00000000000E+00 0. -1.
         23    2    1    2    0    0 -0.50317009444E+02  0.61729456408E+01  0.68110987506E+02  0.12354508789E+03  0.89746172210E+02 0.  0.
         23    2    1    2    0    0  0.50317009444E+02 -0.61729456408E+01 -0.89218674908E+02  0.16171990877E+03  0.12499380082E+03 0.  0.
          5    1    4    4  502    0  0.39651274611E+01  0.53820806137E+02 -0.16661795828E+02  0.56675451911E+02  0.47000000000E+01 0. -1.
         -5    1    4    4    0  502  0.46351881983E+02 -0.59993751778E+02 -0.72556879080E+02  0.10504445686E+03  0.47000000000E+01 0. -1.
        -11    1    3    3    0    0  0.19640247505E+02 -0.20275414748E+02  0.20496678892E+02  0.34884747539E+02  0.00000000000E+00 0. -1.
         11    1    3    3    0    0 -0.69957256949E+02  0.26448360389E+02  0.47614308614E+02  0.88660340355E+02  0.00000000000E+00 0.  1.
<mgrwt>
<rscale>  0 0.12611152E+03</rscale>
<asrwt>0</asrwt>
<pdfrwt beam="2">  1        2 0.23567130E-01 0.13488275E+03</pdfrwt>
<pdfrwt beam="1">  1       -2 0.20319793E-01 0.13488275E+03</pdfrwt>
<totfact> 0.44987717E+03</totfact>
</mgrwt>
</event>
<event>
 7    1  0.7550631E-006  0.2633117E+03  0.7546771E-02  0.1105680E+00
          2   -1    0    0  501    0  0.00000000000E+00  0.00000000000E+00  0.62628423693E+03  0.62628423693E+03  0.00000000000E+00 0. -1.
         -2   -1    0    0    0  501 -0.00000000000E+00 -0.00000000000E+00 -0.14936793603E+03  0.14936793603E+03  0.00000000000E+00 0.  1.
         23    2    1    2    0    0 -0.11941143190E+02  0.22752978278E+03  0.43825624867E+03  0.50951750108E+03  0.12500860553E+03 0.  0.
          5    1    3    3  502    0  0.19921911200E+02  0.67053744764E+02  0.25196554331E+03  0.26153740125E+03  0.47000000000E+01 0.  1.
         -5    1    3    3    0  502 -0.31863054390E+02  0.16047603801E+03  0.18629070535E+03  0.24798009983E+03  0.47000000000E+01 0.  1.
        -11    1    1    2    0    0  0.49713379030E+02 -0.22224105585E+02  0.11058558619E+02  0.55566380504E+02  0.00000000000E+00 0. -1.
         11    1    1    2    0    0 -0.37772235840E+02 -0.20530567719E+03  0.27601493619E+02  0.21056829139E+03  0.00000000000E+00 0.  1.
<mgrwt>
<rscale>  0 0.26245051E+03</rscale>
<asrwt>0</asrwt>
<pdfrwt beam="1">  1        2 0.96351419E-01 0.26331172E+03</pdfrwt>
<pdfrwt beam="2">  1       -2 0.22979683E-01 0.26331172E+03</pdfrwt>
<totfact> 0.79406176E+02</totfact>
</mgrwt>
</event>
<event>
 7    1  0.7550631E-006  0.1324927E+03  0.7546771E-02  0.1239915E+00
         -2   -1    0    0    0  501 -0.00000000000E+00  0.00000000000E+00  0.34809418687E+02  0.34809418687E+02  0.00000000000E+00 0.  1.
          2   -1    0    0  501    0  0.00000000000E+00 -0.00000000000E+00 -0.45894323019E+03  0.45894323019E+03  0.00000000000E+00 0. -1.
         23    2    1    2    0    0  0.25773361453E+02  0.10687358225E+02 -0.77544647908E+02  0.12270230113E+03  0.90907626172E+02 0.  0.
          5    1    1    2  502    0 -0.62674173529E+02  0.36155330484E+02 -0.19919026020E+03  0.21197667256E+03  0.47000000000E+01 0. -1.
         -5    1    1    2    0  502  0.36900812077E+02 -0.46842688709E+02 -0.14739890339E+03  0.15907367519E+03  0.47000000000E+01 0.  1.
        -11    1    3    3    0    0  0.19572600517E+02 -0.18734606444E+02  0.10962159917E+02  0.29227403574E+02  0.00000000000E+00 0.  1.
         11    1    3    3    0    0  0.62007609360E+01  0.29421964669E+02 -0.88506807825E+02  0.93474897553E+02  0.00000000000E+00 0. -1.
<mgrwt>
<rscale>  0 0.12194980E+03</rscale>
<asrwt>0</asrwt>
<pdfrwt beam="2">  1        2 0.70606649E-01 0.13249269E+03</pdfrwt>
<pdfrwt beam="1">  1       -2 0.53552953E-02 0.13249269E+03</pdfrwt>
<totfact> 0.11444516E+04</totfact>
</mgrwt>
</event>
<event>
 8    1  0.7550631E-006  0.1428019E+03  0.7546771E-02  0.1219947E+00
          2   -1    0    0  501    0  0.00000000000E+00  0.00000000000E+00  0.21504519705E+03  0.21504519705E+03  0.00000000000E+00 0. -1.
         -2   -1    0    0    0  501 -0.00000000000E+00 -0.00000000000E+00 -0.77288477900E+02  0.77288477900E+02  0.00000000000E+00 0.  1.
         23    2    1    2    0    0 -0.67548772623E+02 -0.14248562971E+02  0.54093644221E+02  0.12682874028E+03  0.91616312885E+02 0.  0.
         23    2    1    2    0    0  0.67548772623E+02  0.14248562971E+02  0.83663074929E+02  0.16550493467E+03  0.12500606011E+03 0.  0.
          5    1    4    4  502    0 -0.14379498148E+01  0.54841727249E+02  0.61014763488E+02  0.82186216063E+02  0.47000000000E+01 0.  1.
         -5    1    4    4    0  502  0.68986722438E+02 -0.40593164277E+02  0.22648311442E+02  0.83318718605E+02  0.47000000000E+01 0.  1.
        -11    1    3    3    0    0 -0.23092316489E+02 -0.42266942608E+02  0.56477368828E+02  0.74225620294E+02  0.00000000000E+00 0. -1.
         11    1    3    3    0    0 -0.44456456134E+02  0.28018379637E+02 -0.23837246062E+01  0.52603119988E+02  0.00000000000E+00 0.  1.
<mgrwt>
<rscale>  0 0.13519323E+03</rscale>
<asrwt>0</asrwt>
<pdfrwt beam="1">  1        2 0.33083876E-01 0.14280187E+03</pdfrwt>
<pdfrwt beam="2">  1       -2 0.11890535E-01 0.14280187E+03</pdfrwt>
<totfact> 0.75191754E+03</totfact>
</mgrwt>
</event>
<event>
 8    1  0.7550631E-006  0.1521996E+03  0.7546771E-02  0.1207366E+00
          1   -1    0    0  501    0  0.00000000000E+00  0.00000000000E+00  0.72520063163E+03  0.72520063163E+03  0.00000000000E+00 0. -1.
         -1   -1    0    0    0  501 -0.00000000000E+00 -0.00000000000E+00 -0.40664976929E+02  0.40664976929E+02  0.00000000000E+00 0.  1.
         23    2    1    2    0    0  0.85968555433E+02 -0.12153515689E+02  0.92284493183E+02  0.15437059781E+03  0.88179097974E+02 0.  0.
         23    2    1    2    0    0 -0.85968555433E+02  0.12153515689E+02  0.59225116152E+03  0.61149501075E+03  0.12500563741E+03 0.  0.
          5    1    4    4  502    0 -0.14459103470E+02 -0.38491810836E+02  0.37369593969E+03  0.37598062519E+03  0.47000000000E+01 0.  1.
         -5    1    4    4    0  502 -0.71509451963E+02  0.50645326525E+02  0.21855522183E+03  0.23551438556E+03  0.47000000000E+01 0.  1.
        -11    1    3    3    0    0  0.17957389184E+02  0.35077941994E+02  0.18798168274E+02  0.43661206709E+02  0.00000000000E+00 0.  1.
         11    1    3    3    0    0  0.68011166249E+02 -0.47231457683E+02  0.73486324908E+02  0.11070939110E+03  0.00000000000E+00 0. -1.
<mgrwt>
<rscale>  0 0.14452588E+03</rscale>
<asrwt>0</asrwt>
<pdfrwt beam="1">  1        1 0.11156932E+00 0.15219957E+03</pdfrwt>
<pdfrwt beam="2">  1       -1 0.62561508E-02 0.15219957E+03</pdfrwt>
<totfact> 0.32916790E+03</totfact>
</mgrwt>
</event>
<event>
 8    1  0.7550631E-006  0.1348654E+03  0.7546771E-02  0.1233381E+00
          3   -1    0    0  501    0  0.00000000000E+00  0.00000000000E+00  0.91640329982E+02  0.91640329982E+02  0.00000000000E+00 0. -1.
         -3   -1    0    0    0  501 -0.00000000000E+00 -0.00000000000E+00 -0.15442870345E+03  0.15442870345E+03  0.00000000000E+00 0.  1.
         23    2    1    2    0    0 -0.50210605031E+02 -0.64933775871E+01 -0.29025567878E+02  0.10704167984E+03  0.89733877779E+02 0.  0.
         23    2    1    2    0    0  0.50210605031E+02  0.64933775871E+01 -0.33762805591E+02  0.13902735360E+03  0.12500163678E+03 0.  0.
          5    1    4    4  502    0  0.89237176524E-02 -0.51659672485E+02 -0.34065746732E+02  0.62058737832E+02  0.47000000000E+01 0.  1.
         -5    1    4    4    0  502  0.50201681313E+02  0.58153050072E+02  0.30294114149E+00  0.76968615765E+02  0.47000000000E+01 0.  1.
        -11    1    3    3    0    0 -0.47130005095E+01 -0.26364758206E+02  0.22872542791E+02  0.35220250749E+02  0.00000000000E+00 0. -1.
         11    1    3    3    0    0 -0.45497604522E+02  0.19871380619E+02 -0.51898110670E+02  0.71821429086E+02  0.00000000000E+00 0.  1.
<mgrwt>
<rscale>  0 0.12608623E+03</rscale>
<asrwt>0</asrwt>
<pdfrwt beam="1">  1        3 0.14098512E-01 0.13486541E+03</pdfrwt>
<pdfrwt beam="2">  1       -3 0.23758262E-01 0.13486541E+03</pdfrwt>
<totfact> 0.15616875E+03</totfact>
</mgrwt>
</event>
<event>
 8    1  0.7550631E-006  0.1407416E+03  0.7546771E-02  0.1223458E+00
          1   -1    0    0  501    0  0.00000000000E+00  0.00000000000E+00  0.71871976550E+02  0.71871976550E+02  0.00000000000E+00 0. -1.
         -1   -1    0    0    0  501 -0.00000000000E+00 -0.00000000000E+00 -0.22103015977E+03  0.22103015977E+03  0.00000000000E+00 0.  1.
         23    2    1    2    0    0 -0.64426444825E+02 -0.59514517719E+01 -0.65306344031E+02  0.12907496383E+03  0.90604862704E+02 0.  0.
         23    2    1    2    0    0  0.64426444825E+02  0.59514517719E+01 -0.83851839189E+02  0.16382717249E+03  0.12498809919E+03 0.  0.
          5    1    4    4  502    0  0.97835820337E+02  0.16824602210E+01 -0.85147014799E+02  0.12979515608E+03  0.47000000000E+01 0. -1.
         -5    1    4    4    0  502 -0.33409375512E+02  0.42689915509E+01  0.12951756101E+01  0.34032016408E+02  0.47000000000E+01 0. -1.
        -11    1    3    3    0    0 -0.29119196700E+02 -0.79919655102E+01  0.20344275376E+02  0.36410007824E+02  0.00000000000E+00 0. -1.
         11    1    3    3    0    0 -0.35307248125E+02  0.20405137383E+01 -0.85650619407E+02  0.92664956004E+02  0.00000000000E+00 0.  1.
<mgrwt>
<rscale>  0 0.13273170E+03</rscale>
<asrwt>0</asrwt>
<pdfrwt beam="1">  1        1 0.11057227E-01 0.14074165E+03</pdfrwt>
<pdfrwt beam="2">  1       -1 0.34004640E-01 0.14074165E+03</pdfrwt>
<totfact> 0.44168320E+03</totfact>
</mgrwt>
</event>
<event>
 8    1  0.7550631E-006  0.1746405E+03  0.7546771E-02  0.1178828E+00
         -2   -1    0    0    0  501 -0.00000000000E+00  0.00000000000E+00  0.72836133596E+02  0.72836133596E+02  0.00000000000E+00 0.  1.
          2   -1    0    0  501    0  0.00000000000E+00 -0.00000000000E+00 -0.37045267884E+03  0.37045267884E+03  0.00000000000E+00 0. -1.
         23    2    1    2    0    0 -0.10551578317E+03 -0.61163763648E+02 -0.12689216671E+03  0.19906326697E+03  0.93005246121E+02 0.  0.
         23    2    1    2    0    0  0.10551578317E+03  0.61163763648E+02 -0.17072437853E+03  0.24422554546E+03  0.12499886858E+03 0.  0.
          5    1    4    4  502    0  0.69058939611E+02  0.92762113443E+02 -0.77925082132E+02  0.13952904807E+03  0.47000000000E+01 0.  1.
         -5    1    4    4    0  502  0.36456843557E+02 -0.31598349796E+02 -0.92799296402E+02  0.10469649739E+03  0.47000000000E+01 0.  1.
        -11    1    3    3    0    0 -0.43965256527E+02 -0.50244837009E+02 -0.11388689576E+02  0.67728795042E+02  0.00000000000E+00 0.  1.
         11    1    3    3    0    0 -0.61550526641E+02 -0.10918926639E+02 -0.11550347713E+03  0.13133447193E+03  0.00000000000E+00 0. -1.
<mgrwt>
<rscale>  0 0.16906313E+03</rscale>
<asrwt>0</asrwt>
<pdfrwt beam="2">  1        2 0.56992719E-01 0.17464050E+03</pdfrwt>
<pdfrwt beam="1">  1       -2 0.11205559E-01 0.17464050E+03</pdfrwt>
<totfact> 0.46768771E+03</totfact>
</mgrwt>
</event>
<event>
 8    1  0.7550631E-006  0.1610336E+03  0.7546771E-02  0.1194443E+00
          3   -1    0    0  501    0  0.00000000000E+00  0.00000000000E+00  0.20594963487E+03  0.20594963487E+03  0.00000000000E+00 0. -1.
         -3   -1    0    0    0  501 -0.00000000000E+00 -0.00000000000E+00 -0.10879607360E+03  0.10879607360E+03  0.00000000000E+00 0.  1.
         23    2    1    2    0    0 -0.10012845633E+03 -0.16854638157E+02  0.48219773341E+02  0.14644138499E+03  0.93862378530E+02 0.  0.
         23    2    1    2    0    0  0.10012845633E+03  0.16854638157E+02  0.48933787938E+02  0.16830432348E+03  0.12498817186E+03 0.  0.
          5    1    4    4  502    0  0.83014935062E+02  0.67579357990E+02  0.35960955633E+02  0.11302092461E+03  0.47000000000E+01 0.  1.
         -5    1    4    4    0  502  0.17113521266E+02 -0.50724719834E+02  0.12972832305E+02  0.55283398867E+02  0.47000000000E+01 0.  1.
        -11    1    3    3    0    0 -0.39649574240E+02 -0.10077274956E+02 -0.27501996336E+02  0.49295030281E+02  0.00000000000E+00 0.  1.
         11    1    3    3    0    0 -0.60478882088E+02 -0.67773632002E+01  0.75721769677E+02  0.97146354711E+02  0.00000000000E+00 0. -1.
<mgrwt>
<rscale>  0 0.15501482E+03</rscale>
<asrwt>0</asrwt>
<pdfrwt beam="1">  1        3 0.31684559E-01 0.16103363E+03</pdfrwt>
<pdfrwt beam="2">  1       -3 0.16737857E-01 0.16103363E+03</pdfrwt>
<totfact> 0.70558733E+02</totfact>
</mgrwt>
</event>
<event>
 8    1  0.7550631E-006  0.1301491E+03  0.7546771E-02  0.1240841E+00
          4   -1    0    0  501    0  0.00000000000E+00  0.00000000000E+00  0.10647678270E+03  0.10647678270E+03  0.00000000000E+00 0. -1.
         -4   -1    0    0    0  501 -0.00000000000E+00 -0.00000000000E+00 -0.12763943217E+03  0.12763943217E+03  0.00000000000E+00 0.  1.
         23    2    1    2    0    0  0.36277423910E+02 -0.45942635482E+00  0.13636513962E+02  0.99395174718E+02  0.91526956062E+02 0.  0.
         23    2    1    2    0    0 -0.36277423910E+02  0.45942635482E+00 -0.34799163432E+02  0.13472104016E+03  0.12499005692E+03 0.  0.
          5    1    4    4  502    0 -0.44873250192E+02  0.48716152664E+02 -0.50074491736E+02  0.83164997660E+02  0.47000000000E+01 0. -1.
         -5    1    4    4    0  502  0.85958262817E+01 -0.48256726310E+02  0.15275328304E+02  0.51556042501E+02  0.47000000000E+01 0. -1.
        -11    1    3    3    0    0  0.22168167542E+02  0.42365653613E+01 -0.38802320345E+02  0.44888709074E+02  0.00000000000E+00 0.  1.
         11    1    3    3    0    0  0.14109256368E+02 -0.46959917161E+01  0.52438834307E+02  0.54506465644E+02  0.00000000000E+00 0. -1.
<mgrwt>
<rscale>  0 0.12137816E+03</rscale>
<asrwt>0</asrwt>
<pdfrwt beam="1">  1        4 0.16381044E-01 0.13014906E+03</pdfrwt>
<pdfrwt beam="2">  1       -4 0.19636836E-01 0.13014906E+03</pdfrwt>
<totfact> 0.12291831E+03</totfact>
</mgrwt>
</event>
<event>
 8    1  0.7550631E-006  0.1289775E+03  0.7546771E-02  0.1243838E+00
          1   -1    0    0  501    0  0.00000000000E+00  0.00000000000E+00  0.24108512428E+03  0.24108512428E+03  0.00000000000E+00 0. -1.
         -1   -1    0    0    0  501 -0.00000000000E+00 -0.00000000000E+00 -0.52246200206E+02  0.52246200206E+02  0.00000000000E+00 0.  1.
         23    2    1    2    0    0 -0.20413835961E+02  0.24356005785E+02  0.87383421634E+02  0.12923253185E+03  0.89751017798E+02 0.  0.
         23    2    1    2    0    0  0.20413835961E+02 -0.24356005785E+02  0.10145550244E+03  0.16409879264E+03  0.12500102021E+03 0.  0.
          5    1    4    4  502    0 -0.21890898164E+02 -0.65636974726E+02  0.60536379680E+02  0.92055239603E+02  0.47000000000E+01 0. -1.
         -5    1    4    4    0  502  0.42304734124E+02  0.41280968942E+02  0.40919122761E+02  0.72043553033E+02  0.47000000000E+01 0. -1.
        -11    1    3    3    0    0  0.20499264822E+02  0.19665690435E+02 -0.42948512560E+01  0.28729862266E+02  0.00000000000E+00 0.  1.
         11    1    3    3    0    0 -0.40913100782E+02  0.46903153493E+01  0.91678272890E+02  0.10050266959E+03  0.00000000000E+00 0. -1.
<mgrwt>
<rscale>  0 0.11955219E+03</rscale>
<asrwt>0</asrwt>
<pdfrwt beam="1">  1        1 0.37090018E-01 0.12897750E+03</pdfrwt>
<pdfrwt beam="2">  1       -1 0.80378771E-02 0.12897750E+03</pdfrwt>
<totfact> 0.93069982E+03</totfact>
</mgrwt>
</event>
<event>
 8    1  0.7550631E-006  0.1277998E+03  0.7546771E-02  0.1239608E+00
         -1   -1    0    0    0  501 -0.00000000000E+00  0.00000000000E+00  0.19128883994E+03  0.19128883994E+03  0.00000000000E+00 0.  1.
          1   -1    0    0  501    0  0.00000000000E+00 -0.00000000000E+00 -0.76475973771E+02  0.76475973771E+02  0.00000000000E+00 0. -1.
         23    2    1    2    0    0  0.50561396203E+02  0.37299483198E+02  0.85448078520E+02  0.13663483481E+03  0.86139408682E+02 0.  0.
         23    2    1    2    0    0 -0.50561396203E+02 -0.37299483198E+02  0.29364787650E+02  0.13112997890E+03  0.11128824907E+03 0.  0.
          5    1    4    4  502    0  0.21520747975E+02  0.21757207457E+02  0.21085631596E+02  0.37459478501E+02  0.47000000000E+01 0. -1.
         -5    1    4    4    0  502 -0.72082144178E+02 -0.59056690654E+02  0.82791560536E+01  0.93670500401E+02  0.47000000000E+01 0.  1.
        -11    1    3    3    0    0  0.34858422971E+02  0.58071613282E+02  0.27491530178E+02  0.73097237655E+02  0.00000000000E+00 0. -1.
         11    1    3    3    0    0  0.15702973232E+02 -0.20772130085E+02  0.57956548342E+02  0.63537597156E+02  0.00000000000E+00 0.  1.
<mgrwt>
<rscale>  0 0.12213964E+03</rscale>
<asrwt>0</asrwt>
<pdfrwt beam="2">  1        1 0.11765535E-01 0.12779977E+03</pdfrwt>
<pdfrwt beam="1">  1       -1 0.29429052E-01 0.12779977E+03</pdfrwt>
<totfact> 0.51653688E+03</totfact>
</mgrwt>
</event>
<event>
 8    1  0.7550631E-006  0.1289404E+03  0.7546771E-02  0.1242957E+00
         -4   -1    0    0    0  501 -0.00000000000E+00  0.00000000000E+00  0.11765200527E+03  0.11765200527E+03  0.00000000000E+00 0.  1.
          4   -1    0    0  501    0  0.00000000000E+00 -0.00000000000E+00 -0.11009005348E+03  0.11009005348E+03  0.00000000000E+00 0. -1.
         23    2    1    2    0    0  0.26928417250E+02  0.16063164185E+02  0.16893877970E+02  0.98464428199E+02  0.91796925921E+02 0.  0.
         23    2    1    2    0    0 -0.26928417250E+02 -0.16063164185E+02 -0.93319261820E+01  0.12927763055E+03  0.12506980457E+03 0.  0.
          5    1    4    4  502    0 -0.27730614580E+02 -0.23618509939E+02 -0.64051077049E+02  0.73833945228E+02  0.47000000000E+01 0.  1.
         -5    1    4    4    0  502  0.80219733037E+00  0.75553457538E+01  0.54719150867E+02  0.55443685318E+02  0.47000000000E+01 0.  1.
        -11    1    3    3    0    0  0.38537528092E+02 -0.37053222710E+00 -0.29080502004E+02  0.48279954043E+02  0.00000000000E+00 0. -1.
         11    1    3    3    0    0 -0.11609110842E+02  0.16433696412E+02  0.45974379974E+02  0.50184474156E+02  0.00000000000E+00 0.  1.
<mgrwt>
<rscale>  0 0.12008520E+03</rscale>
<asrwt>0</asrwt>
<pdfrwt beam="2">  1        4 0.16936931E-01 0.12894038E+03</pdfrwt>
<pdfrwt beam="1">  1       -4 0.18100309E-01 0.12894038E+03</pdfrwt>
<totfact> 0.13376865E+03</totfact>
</mgrwt>
</event>
<event>
 8    1  0.7550631E-006  0.1251492E+03  0.7546771E-02  0.1249936E+00
          1   -1    0    0  501    0  0.00000000000E+00  0.00000000000E+00  0.42790728301E+03  0.42790728301E+03  0.00000000000E+00 0. -1.
         -1   -1    0    0    0  501 -0.00000000000E+00 -0.00000000000E+00 -0.27620988850E+02  0.27620988850E+02  0.00000000000E+00 0.  1.
         23    2    1    2    0    0 -0.50885794400E+01  0.25776193302E+01  0.17578356255E+03  0.19849947923E+03  0.92030672227E+02 0.  0.
         23    2    1    2    0    0  0.50885794400E+01 -0.25776193302E+01  0.22450273161E+03  0.25702879263E+03  0.12501914244E+03 0.  0.
          5    1    4    4  502    0 -0.32155245232E+02 -0.49631848606E+02  0.14962182083E+03  0.16095359412E+03  0.47000000000E+01 0. -1.
         -5    1    4    4    0  502  0.37243824672E+02  0.47054229276E+02  0.74880910777E+02  0.96075198505E+02  0.47000000000E+01 0. -1.
        -11    1    3    3    0    0  0.15685769340E+01 -0.42038499676E+02  0.11746344824E+03  0.12476921720E+03  0.00000000000E+00 0. -1.
         11    1    3    3    0    0 -0.66571563741E+01  0.44616119006E+02  0.58320114316E+02  0.73730262036E+02  0.00000000000E+00 0.  1.
<mgrwt>
<rscale>  0 0.11594776E+03</rscale>
<asrwt>0</asrwt>
<pdfrwt beam="1">  1        1 0.65831885E-01 0.12514921E+03</pdfrwt>
<pdfrwt beam="2">  1       -1 0.42493832E-02 0.12514921E+03</pdfrwt>
<totfact> 0.11736991E+04</totfact>
</mgrwt>
</event>
<event>
 6    1  0.7550631E-006  0.1617609E+03  0.7546771E-02  0.1267966E+00
          2   -1    0    0  501    0  0.00000000000E+00  0.00000000000E+00  0.10153841646E+04  0.10153841646E+04  0.00000000000E+00 0. -1.
         -2   -1    0    0    0  501 -0.00000000000E+00 -0.00000000000E+00 -0.10521241323E+02  0.10521241323E+02  0.00000000000E+00 0.  1.
          5    1    1    2  502    0 -0.62905659844E+02  0.19474415058E+02  0.31940837503E+03  0.32615973835E+03  0.47000000000E+01 0. -1.
         -5    1    1    2    0  502  0.86283644431E+02 -0.36359325023E+02  0.62799194106E+03  0.63495104997E+03  0.47000000000E+01 0.  1.
        -11    1    1    2    0    0 -0.13231104636E+02  0.88674755722E+01  0.22922888549E+02  0.27913313532E+02  0.00000000000E+00 0. -1.
         11    1    1    2    0    0 -0.10146879950E+02  0.80174343933E+01  0.34539718665E+02  0.36881304105E+02  0.00000000000E+00 0.  1.
<mgrwt>
<rscale>  0 0.10610048E+03</rscale>
<asrwt>0</asrwt>
<pdfrwt beam="1">  1        2 0.15621287E+00 0.16176090E+03</pdfrwt>
<pdfrwt beam="2">  1       -2 0.16186533E-02 0.16176090E+03</pdfrwt>
<totfact> 0.26107821E+04</totfact>
</mgrwt>
</event>
<event>
 8    1  0.7550631E-006  0.1627780E+03  0.7546771E-02  0.1192362E+00
          2   -1    0    0  501    0  0.00000000000E+00  0.00000000000E+00  0.11121696895E+04  0.11121696895E+04  0.00000000000E+00 0. -1.
         -2   -1    0    0    0  501 -0.00000000000E+00 -0.00000000000E+00 -0.43894864266E+02  0.43894864266E+02  0.00000000000E+00 0.  1.
         23    2    1    2    0    0 -0.10406993944E+03  0.53043675888E+01  0.95075323480E+02  0.16934577578E+03  0.93701579652E+02 0.  0.
         23    2    1    2    0    0  0.10406993944E+03 -0.53043675888E+01  0.97319950171E+03  0.98671877794E+03  0.12505194124E+03 0.  0.
          5    1    4    4  502    0 -0.19926145414E+02 -0.17310861123E+02  0.35874294974E+03  0.35974339629E+03  0.47000000000E+01 0.  1.
         -5    1    4    4    0  502  0.12399608485E+03  0.12006493535E+02  0.61445655197E+03  0.62697538165E+03  0.47000000000E+01 0.  1.
        -11    1    3    3    0    0 -0.73563078274E+02 -0.15755767716E+02  0.91761196640E+01  0.75788995729E+02  0.00000000000E+00 0.  1.
         11    1    3    3    0    0 -0.30506861162E+02  0.21060135305E+02  0.85899203816E+02  0.93556780049E+02  0.00000000000E+00 0. -1.
<mgrwt>
<rscale>  0 0.15679630E+03</rscale>
<asrwt>0</asrwt>
<pdfrwt beam="1">  1        2 0.17110301E+00 0.16277800E+03</pdfrwt>
<pdfrwt beam="2">  1       -2 0.67530569E-02 0.16277800E+03</pdfrwt>
<totfact> 0.27479629E+03</totfact>
</mgrwt>
</event>
<event>
 8    1  0.7550631E-006  0.1274208E+03  0.7546771E-02  0.1245822E+00
          2   -1    0    0  501    0  0.00000000000E+00  0.00000000000E+00  0.12768007940E+04  0.12768007940E+04  0.00000000000E+00 0. -1.
         -2   -1    0    0    0  501 -0.00000000000E+00 -0.00000000000E+00 -0.13329985258E+02  0.13329985258E+02  0.00000000000E+00 0.  1.
         23    2    1    2    0    0 -0.22825552013E+02  0.97496708373E+01  0.22947586362E+03  0.24831428362E+03  0.91568278139E+02 0.  0.
         23    2    1    2    0    0  0.22825552013E+02 -0.97496708373E+01  0.10339949451E+04  0.10418164956E+04  0.12498000693E+03 0.  0.
          5    1    4    4  502    0  0.15573070498E+02 -0.18478175230E+02  0.10277357044E+04  0.10280305110E+04  0.47000000000E+01 0. -1.
         -5    1    4    4    0  502  0.72524815147E+01  0.87285043926E+01  0.62592406964E+01  0.13785984591E+02  0.47000000000E+01 0. -1.
        -11    1    3    3    0    0  0.22698693957E+02  0.98696090775E+01  0.14744904057E+02  0.28810624539E+02  0.00000000000E+00 0.  1.
         11    1    3    3    0    0 -0.45524245971E+02 -0.11993824018E+00  0.21473095956E+03  0.21950365908E+03  0.00000000000E+00 0. -1.
<mgrwt>
<rscale>  0 0.11836287E+03</rscale>
<asrwt>0</asrwt>
<pdfrwt beam="1">  1        2 0.19643080E+00 0.12742081E+03</pdfrwt>
<pdfrwt beam="2">  1       -2 0.20507680E-02 0.12742081E+03</pdfrwt>
<totfact> 0.12971789E+04</totfact>
</mgrwt>
</event>
<event>
 7    1  0.7550631E-006  0.1770354E+03  0.7546771E-02  0.1178947E+00
         -1   -1    0    0    0  501 -0.00000000000E+00  0.00000000000E+00  0.73578261712E+02  0.73578261712E+02  0.00000000000E+00 0.  1.
          1   -1    0    0  501    0  0.00000000000E+00 -0.00000000000E+00 -0.90595894171E+03  0.90595894171E+03  0.00000000000E+00 0. -1.
         23    2    1    2    0    0 -0.22700500911E+02 -0.10804978472E+03 -0.20128890602E+02  0.14821626748E+03  0.96813330631E+02 0.  0.
          5    1    1    2  502    0 -0.23510594031E+02  0.11650262893E+03 -0.69172832270E+03  0.70188016997E+03  0.47000000000E+01 0. -1.
         -5    1    1    2    0  502  0.46211094942E+02 -0.84528442085E+01 -0.12052346670E+03  0.12944076598E+03  0.47000000000E+01 0.  1.
        -11    1    3    3    0    0 -0.45934155960E+02 -0.59339607836E+02 -0.46365347661E+02  0.88209303396E+02  0.00000000000E+00 0. -1.
         11    1    3    3    0    0  0.23233655049E+02 -0.48710176884E+02  0.26236457059E+02  0.60006964080E+02  0.00000000000E+00 0.  1.
<mgrwt>
<rscale>  0 0.16895009E+03</rscale>
<asrwt>0</asrwt>
<pdfrwt beam="2">  1        1 0.13937830E+00 0.17703539E+03</pdfrwt>
<pdfrwt beam="1">  1       -1 0.11319732E-01 0.17703539E+03</pdfrwt>
<totfact> 0.95293769E+02</totfact>
</mgrwt>
</event>
<event>
 8    1  0.7550631E-006  0.1895348E+03  0.7546771E-02  0.1163991E+00
         -1   -1    0    0    0  501 -0.00000000000E+00  0.00000000000E+00  0.17954492836E+03  0.17954492836E+03  0.00000000000E+00 0.  1.
          1   -1    0    0  501    0  0.00000000000E+00 -0.00000000000E+00 -0.18542205175E+03  0.18542205175E+03  0.00000000000E+00 0. -1.
         23    2    1    2    0    0 -0.11415926072E+03  0.85241613132E+02  0.32875243559E+02  0.17151105294E+03  0.89648146784E+02 0.  0.
         23    2    1    2    0    0  0.11415926072E+03 -0.85241613132E+02 -0.38752366950E+02  0.19345592717E+03  0.12499992158E+03 0.  0.
          5    1    4    4  502    0  0.11111607923E+03 -0.74295524709E+01 -0.20434385536E+02  0.11332093992E+03  0.47000000000E+01 0. -1.
         -5    1    4    4    0  502  0.30431814949E+01 -0.77812060662E+02 -0.18317981414E+02  0.80134987247E+02  0.47000000000E+01 0. -1.
        -11    1    3    3    0    0 -0.41807176526E+02  0.73347908646E+02  0.47313674516E+02  0.96779850734E+02  0.00000000000E+00 0.  1.
         11    1    3    3    0    0 -0.72352084197E+02  0.11893704486E+02 -0.14438430957E+02  0.74731202202E+02  0.00000000000E+00 0. -1.
<mgrwt>
<rscale>  0 0.18399570E+03</rscale>
<asrwt>0</asrwt>
<pdfrwt beam="2">  1        1 0.28526469E-01 0.18953482E+03</pdfrwt>
<pdfrwt beam="1">  1       -1 0.27622297E-01 0.18953482E+03</pdfrwt>
<totfact> 0.18776716E+03</totfact>
</mgrwt>
</event>
<event>
 8    1  0.7550631E-006  0.1529859E+03  0.7546771E-02  0.1205850E+00
         -1   -1    0    0    0  501 -0.00000000000E+00  0.00000000000E+00  0.24430531846E+02  0.24430531846E+02  0.00000000000E+00 0.  1.
          1   -1    0    0  501    0  0.00000000000E+00 -0.00000000000E+00 -0.13615612329E+04  0.13615612329E+04  0.00000000000E+00 0. -1.
         23    2    1    2    0    0  0.55276804113E+02  0.68697524421E+02 -0.18510641661E+03  0.22385380851E+03  0.89840231405E+02 0.  0.
         23    2    1    2    0    0 -0.55276804113E+02 -0.68697524421E+02 -0.11520242844E+04  0.11621379562E+04  0.12501920831E+03 0.  0.
          5    1    4    4  502    0  0.16979560000E+02 -0.15856956626E+02 -0.74425186510E+03  0.74462922131E+03  0.47000000000E+01 0. -1.
         -5    1    4    4    0  502 -0.72256364113E+02 -0.52840567795E+02 -0.40777241935E+03  0.41750873492E+03  0.47000000000E+01 0. -1.
        -11    1    3    3    0    0  0.11890439902E+02  0.59355291714E+02 -0.41112368801E+02  0.73175542935E+02  0.00000000000E+00 0.  1.
         11    1    3    3    0    0  0.43386364211E+02  0.93422327074E+01 -0.14399404781E+03  0.15067826558E+03  0.00000000000E+00 0. -1.
<mgrwt>
<rscale>  0 0.14570650E+03</rscale>
<asrwt>0</asrwt>
<pdfrwt beam="2">  1        1 0.20947096E+00 0.15298587E+03</pdfrwt>
<pdfrwt beam="1">  1       -1 0.37585434E-02 0.15298587E+03</pdfrwt>
<totfact> 0.23810356E+03</totfact>
</mgrwt>
</event>
<event>
 8    1  0.7550631E-006  0.1277482E+03  0.7546771E-02  0.1245008E+00
         -2   -1    0    0    0  501 -0.00000000000E+00  0.00000000000E+00  0.41239906911E+02  0.41239906911E+02  0.00000000000E+00 0.  1.
          2   -1    0    0  501    0  0.00000000000E+00 -0.00000000000E+00 -0.31520396419E+03  0.31520396419E+03  0.00000000000E+00 0. -1.
         23    2    1    2    0    0 -0.35706162409E+01 -0.26087686550E+02 -0.82940814697E+02  0.12664074600E+03  0.92007516624E+02 0.  0.
         23    2    1    2    0    0  0.35706162409E+01  0.26087686550E+02 -0.19102324259E+03  0.22980312510E+03  0.12500512154E+03 0.  0.
          5    1    4    4  502    0  0.11231122096E+02  0.39791771031E+02 -0.37137228233E+01  0.41778043067E+02  0.47000000000E+01 0.  1.
         -5    1    4    4    0  502 -0.76605058553E+01 -0.13704084481E+02 -0.18730951976E+03  0.18802508204E+03  0.47000000000E+01 0.  1.
        -11    1    3    3    0    0  0.87167086981E+01 -0.58185379747E+02 -0.65688655236E+02  0.88184572650E+02  0.00000000000E+00 0. -1.
         11    1    3    3    0    0 -0.12287324939E+02  0.32097693197E+02 -0.17252159462E+02  0.38456173351E+02  0.00000000000E+00 0.  1.
<mgrwt>
<rscale>  0 0.11884893E+03</rscale>
<asrwt>0</asrwt>
<pdfrwt beam="2">  1        2 0.48492919E-01 0.12774818E+03</pdfrwt>
<pdfrwt beam="1">  1       -2 0.63446009E-02 0.12774818E+03</pdfrwt>
<totfact> 0.13182160E+04</totfact>
</mgrwt>
</event>
<event>
 8    1  0.7550631E-006  0.1461649E+03  0.7546771E-02  0.1212211E+00
         -2   -1    0    0    0  501 -0.00000000000E+00  0.00000000000E+00  0.38715772787E+03  0.38715772787E+03  0.00000000000E+00 0.  1.
          2   -1    0    0  501    0  0.00000000000E+00 -0.00000000000E+00 -0.50751689204E+02  0.50751689204E+02  0.00000000000E+00 0. -1.
         23    2    1    2    0    0  0.72984668598E+02 -0.20312807020E+02  0.20889483936E+03  0.24394222266E+03  0.10065476693E+03 0.  0.
         23    2    1    2    0    0 -0.72984668598E+02  0.20312807020E+02  0.12751119930E+03  0.19396719441E+03  0.12499917832E+03 0.  0.
          5    1    4    4  502    0 -0.37970231035E+01 -0.15246417716E+02  0.11363083514E+03  0.11480821980E+03  0.47000000000E+01 0. -1.
         -5    1    4    4    0  502 -0.69187645494E+02  0.35559224737E+02  0.13880364160E+02  0.79158974615E+02  0.47000000000E+01 0. -1.
        -11    1    3    3    0    0  0.53496927869E+02 -0.38778043640E+02  0.50167285373E+02  0.82960318717E+02  0.00000000000E+00 0. -1.
         11    1    3    3    0    0  0.19487740728E+02  0.18465236620E+02  0.15872755399E+03  0.16098190394E+03  0.00000000000E+00 0.  1.
<mgrwt>
<rscale>  0 0.14083381E+03</rscale>
<asrwt>0</asrwt>
<pdfrwt beam="2">  1        2 0.78079525E-02 0.14616486E+03</pdfrwt>
<pdfrwt beam="1">  1       -2 0.59562725E-01 0.14616486E+03</pdfrwt>
<totfact> 0.22768500E+03</totfact>
</mgrwt>
</event>
<event>
 8    1  0.7550631E-006  0.1278081E+03  0.7546771E-02  0.1244928E+00
          1   -1    0    0  501    0  0.00000000000E+00  0.00000000000E+00  0.10436246084E+03  0.10436246084E+03  0.00000000000E+00 0. -1.
         -1   -1    0    0    0  501 -0.00000000000E+00 -0.00000000000E+00 -0.13503536526E+03  0.13503536526E+03  0.00000000000E+00 0.  1.
         23    2    1    2    0    0 -0.13260875427E+02 -0.23118706433E+02 -0.53363733652E+02  0.10959107543E+03  0.91935794662E+02 0.  0.
         23    2    1    2    0    0  0.13260875427E+02  0.23118706433E+02  0.22690829230E+02  0.12980675067E+03  0.12499837352E+03 0.  0.
          5    1    4    4  502    0 -0.38118730658E+02 -0.69418399327E+01 -0.30738014993E+02  0.49680401914E+02  0.47000000000E+01 0.  1.
         -5    1    4    4    0  502  0.51379606085E+02  0.30060546365E+02  0.53428844223E+02  0.80126348751E+02  0.47000000000E+01 0.  1.
        -11    1    3    3    0    0 -0.30654251276E+02  0.19801243415E+02  0.30301184641E+01  0.36619038491E+02  0.00000000000E+00 0. -1.
         11    1    3    3    0    0  0.17393375849E+02 -0.42919949848E+02 -0.56393852116E+02  0.72972036938E+02  0.00000000000E+00 0.  1.
<mgrwt>
<rscale>  0 0.11889695E+03</rscale>
<asrwt>0</asrwt>
<pdfrwt beam="1">  1        1 0.16055763E-01 0.12780813E+03</pdfrwt>
<pdfrwt beam="2">  1       -1 0.20774672E-01 0.12780813E+03</pdfrwt>
<totfact> 0.61039559E+03</totfact>
</mgrwt>
</event>
<event>
 8    1  0.7550631E-006  0.1222792E+03  0.7546771E-02  0.1249589E+00
         -1   -1    0    0    0  501 -0.00000000000E+00  0.00000000000E+00  0.22544824511E+03  0.22544824511E+03  0.00000000000E+00 0.  1.
          1   -1    0    0  501    0  0.00000000000E+00 -0.00000000000E+00 -0.10327462836E+03  0.10327462836E+03  0.00000000000E+00 0. -1.
         23    2    1    2    0    0 -0.20643226843E+02  0.26640149569E+02  0.17034573225E+03  0.19729701250E+03  0.93662170929E+02 0.  0.
         23    2    1    2    0    0  0.20643226843E+02 -0.26640149569E+02 -0.48172115502E+02  0.13142586096E+03  0.11754302971E+03 0.  0.
          5    1    4    4  502    0  0.55920372752E+02 -0.42139517613E+02 -0.58382881024E+02  0.91287884355E+02  0.47000000000E+01 0. -1.
         -5    1    4    4    0  502 -0.35277145909E+02  0.15499368044E+02  0.10210765522E+02  0.40137976603E+02  0.47000000000E+01 0.  1.
        -11    1    3    3    0    0  0.20903192195E+02 -0.23726551427E+02  0.78319235671E+02  0.84461798245E+02  0.00000000000E+00 0. -1.
         11    1    3    3    0    0 -0.41546419038E+02  0.50366700996E+02  0.92026496580E+02  0.11283521426E+03  0.00000000000E+00 0.  1.
<mgrwt>
<rscale>  0 0.11614891E+03</rscale>
<asrwt>0</asrwt>
<pdfrwt beam="2">  1        1 0.15888404E-01 0.12227921E+03</pdfrwt>
<pdfrwt beam="1">  1       -1 0.34684345E-01 0.12227921E+03</pdfrwt>
<totfact> 0.26418138E+03</totfact>
</mgrwt>
</event>
<event>
 8    1  0.7550631E-006  0.1441692E+03  0.7546771E-02  0.1217929E+00
         -2   -1    0    0    0  501 -0.00000000000E+00  0.00000000000E+00  0.33776187724E+02  0.33776187724E+02  0.00000000000E+00 0.  1.
          2   -1    0    0  501    0  0.00000000000E+00 -0.00000000000E+00 -0.50221796589E+03  0.50221796589E+03  0.00000000000E+00 0. -1.
         23    2    1    2    0    0  0.40556041096E+02  0.59285357950E+02 -0.20893783800E+03  0.23913213567E+03  0.91485583711E+02 0.  0.
         23    2    1    2    0    0 -0.40556041096E+02 -0.59285357950E+02 -0.25950394017E+03  0.29686201794E+03  0.12500086639E+03 0.  0.
          5    1    4    4  502    0 -0.65729230679E+02 -0.84971297922E+02 -0.18448842469E+03  0.21353810452E+03  0.47000000000E+01 0.  1.
         -5    1    4    4    0  502  0.25173189583E+02  0.25685939972E+02 -0.75015515480E+02  0.83323913427E+02  0.47000000000E+01 0.  1.
        -11    1    3    3    0    0  0.31848727681E+02  0.18427667752E+02 -0.13365529291E+02  0.39147896072E+02  0.00000000000E+00 0.  1.
         11    1    3    3    0    0  0.87073134151E+01  0.40857690198E+02 -0.19557230870E+03  0.19998423960E+03  0.00000000000E+00 0. -1.
<mgrwt>
<rscale>  0 0.13663541E+03</rscale>
<asrwt>0</asrwt>
<pdfrwt beam="2">  1        2 0.77264299E-01 0.14416922E+03</pdfrwt>
<pdfrwt beam="1">  1       -2 0.51963368E-02 0.14416922E+03</pdfrwt>
<totfact> 0.10918661E+04</totfact>
</mgrwt>
</event>
<event>
 8    1  0.7550631E-006  0.1644305E+03  0.7546771E-02  0.1190844E+00
         -2   -1    0    0    0  501 -0.00000000000E+00  0.00000000000E+00  0.14404634610E+03  0.14404634610E+03  0.00000000000E+00 0.  1.
          2   -1    0    0  501    0  0.00000000000E+00 -0.00000000000E+00 -0.16362779597E+03  0.16362779597E+03  0.00000000000E+00 0. -1.
         23    2    1    2    0    0  0.85328378216E+02  0.64252242540E+02 -0.26689736608E+02  0.14309001990E+03  0.91395453690E+02 0.  0.
         23    2    1    2    0    0 -0.85328378216E+02 -0.64252242540E+02  0.71082867427E+01  0.16458412217E+03  0.12501249029E+03 0.  0.
          5    1    4    4  502    0  0.19433489181E+02 -0.43675995575E+02  0.28135577072E+02  0.55668247578E+02  0.47000000000E+01 0.  1.
         -5    1    4    4    0  502 -0.10476186740E+03 -0.20576246965E+02 -0.21027290329E+02  0.10891587459E+03  0.47000000000E+01 0.  1.
        -11    1    3    3    0    0 -0.81079802075E+01  0.44292592561E+02 -0.79421225189E+01  0.45723630749E+02  0.00000000000E+00 0.  1.
         11    1    3    3    0    0  0.93436358423E+02  0.19959649979E+02 -0.18747614089E+02  0.97366389153E+02  0.00000000000E+00 0. -1.
<mgrwt>
<rscale>  0 0.15811274E+03</rscale>
<asrwt>0</asrwt>
<pdfrwt beam="2">  1        2 0.25173507E-01 0.16443055E+03</pdfrwt>
<pdfrwt beam="1">  1       -2 0.22160977E-01 0.16443055E+03</pdfrwt>
<totfact> 0.36453776E+03</totfact>
</mgrwt>
</event>
<event>
 8    1  0.7550631E-006  0.1267157E+03  0.7546771E-02  0.1249179E+00
          2   -1    0    0  501    0  0.00000000000E+00  0.00000000000E+00  0.13500803714E+04  0.13500803714E+04  0.00000000000E+00 0. -1.
         -2   -1    0    0    0  501 -0.00000000000E+00 -0.00000000000E+00 -0.10619387834E+02  0.10619387834E+02  0.00000000000E+00 0.  1.
         23    2    1    2    0    0  0.13090967928E+02 -0.16138893100E+02  0.29220656633E+03  0.30580701945E+03  0.87757725731E+02 0.  0.
         23    2    1    2    0    0 -0.13090967928E+02  0.16138893100E+02  0.10472544173E+04  0.10548927398E+04  0.12500016289E+03 0.  0.
          5    1    4    4  502    0  0.12830021862E+02 -0.38062891987E+02  0.14233122437E+03  0.14796506560E+03  0.47000000000E+01 0.  1.
         -5    1    4    4    0  502 -0.25920989790E+02  0.54201785087E+02  0.90492319289E+03  0.90692767421E+03  0.47000000000E+01 0.  1.
        -11    1    3    3    0    0 -0.61109144895E+01  0.30457597163E+02  0.53735188163E+02  0.62068340945E+02  0.00000000000E+00 0.  1.
         11    1    3    3    0    0  0.19201882418E+02 -0.46596490263E+02  0.23847137816E+03  0.24373867850E+03  0.00000000000E+00 0. -1.
<mgrwt>
<rscale>  0 0.11638740E+03</rscale>
<asrwt>0</asrwt>
<pdfrwt beam="1">  1        2 0.20770454E+00 0.12671574E+03</pdfrwt>
<pdfrwt beam="2">  1       -2 0.16337530E-02 0.12671574E+03</pdfrwt>
<totfact> 0.16457317E+04</totfact>
</mgrwt>
</event>
<event>
 7    1  0.7550631E-006  0.2299841E+03  0.7546771E-02  0.1149899E+00
          2   -1    0    0  501    0  0.00000000000E+00  0.00000000000E+00  0.21029100844E+04  0.21029100844E+04  0.00000000000E+00 0. -1.
         -2   -1    0    0    0  501 -0.00000000000E+00 -0.00000000000E+00 -0.53395212870E+02  0.53395212870E+02  0.00000000000E+00 0.  1.
         23    2    1    2    0    0 -0.15659563709E+02 -0.78713629516E+02  0.44856395875E+02  0.13849750607E+03  0.10357801663E+03 0.  0.
          5    1    1    2  502    0  0.60030816386E+02 -0.57701440093E+02  0.58545601773E+03  0.59136620955E+03  0.47000000000E+01 0. -1.
         -5    1    1    2    0  502 -0.44371252677E+02  0.13641506961E+03  0.14192024579E+04  0.14264415816E+04  0.47000000000E+01 0.  1.
        -11    1    3    3    0    0  0.41129418556E+01 -0.72059323752E+02  0.73531965957E+02  0.10303597647E+03  0.00000000000E+00 0. -1.
         11    1    3    3    0    0 -0.19772505565E+02 -0.66543057633E+01 -0.28675570082E+02  0.35461529592E+02  0.00000000000E+00 0.  1.
<mgrwt>
<rscale>  0 0.19981032E+03</rscale>
<asrwt>0</asrwt>
<pdfrwt beam="1">  1        2 0.32352457E+00 0.22998408E+03</pdfrwt>
<pdfrwt beam="2">  1       -2 0.82146497E-02 0.22998408E+03</pdfrwt>
<totfact> 0.59967944E+02</totfact>
</mgrwt>
</event>
<event>
 8    1  0.7550631E-006  0.1829646E+03  0.7546771E-02  0.1170458E+00
         -1   -1    0    0    0  501 -0.00000000000E+00  0.00000000000E+00  0.40839537567E+02  0.40839537567E+02  0.00000000000E+00 0.  1.
          1   -1    0    0  501    0  0.00000000000E+00 -0.00000000000E+00 -0.72869246032E+03  0.72869246032E+03  0.00000000000E+00 0. -1.
         23    2    1    2    0    0  0.12234885373E+03  0.53909539112E+02 -0.34807953571E+03  0.38362784821E+03  0.90196908626E+02 0.  0.
         23    2    1    2    0    0 -0.12234885373E+03 -0.53909539112E+02 -0.33977338704E+03  0.38590414968E+03  0.12490227292E+03 0.  0.
          5    1    4    4  502    0 -0.39634729042E+02  0.38499117229E+02 -0.72998962764E+02  0.91673509469E+02  0.47000000000E+01 0. -1.
         -5    1    4    4    0  502 -0.82714124683E+02 -0.92408656340E+02 -0.26677442428E+03  0.29423064021E+03  0.47000000000E+01 0. -1.
        -11    1    3    3    0    0  0.11432946856E+03  0.93584612227E+01 -0.22643645956E+03  0.25383514019E+03  0.00000000000E+00 0.  1.
         11    1    3    3    0    0  0.80193851678E+01  0.44551077889E+02 -0.12164307615E+03  0.12979270802E+03  0.00000000000E+00 0. -1.
<mgrwt>
<rscale>  0 0.17728415E+03</rscale>
<asrwt>0</asrwt>
<pdfrwt beam="2">  1        1 0.11210652E+00 0.18296464E+03</pdfrwt>
<pdfrwt beam="1">  1       -1 0.62830064E-02 0.18296464E+03</pdfrwt>
<totfact> 0.32665692E+03</totfact>
</mgrwt>
</event>
<event>
 8    1  0.7550631E-006  0.1260839E+03  0.7546771E-02  0.1248706E+00
         -1   -1    0    0    0  501 -0.00000000000E+00  0.00000000000E+00  0.11692882883E+03  0.11692882883E+03  0.00000000000E+00 0.  1.
          1   -1    0    0  501    0  0.00000000000E+00 -0.00000000000E+00 -0.10308742023E+03  0.10308742023E+03  0.00000000000E+00 0. -1.
         23    2    1    2    0    0 -0.13933765056E+00 -0.16490536969E+02 -0.49053523965E+01  0.92546252286E+02  0.90932882422E+02 0.  0.
         23    2    1    2    0    0  0.13933765056E+00  0.16490536969E+02  0.18746760996E+02  0.12746999678E+03  0.12500080722E+03 0.  0.
          5    1    4    4  502    0 -0.56260488848E+02 -0.12317611909E+02  0.26354019863E+02  0.63510554489E+02  0.47000000000E+01 0.  1.
         -5    1    4    4    0  502  0.56399826498E+02  0.28808148877E+02 -0.76072588671E+01  0.63959442292E+02  0.47000000000E+01 0.  1.
        -11    1    3    3    0    0  0.40508379099E+01  0.32893542544E+02  0.18258573547E+02  0.37838735931E+02  0.00000000000E+00 0.  1.
         11    1    3    3    0    0 -0.41901755605E+01 -0.49384079513E+02 -0.23163925944E+02  0.54707516355E+02  0.00000000000E+00 0. -1.
<mgrwt>
<rscale>  0 0.11666264E+03</rscale>
<asrwt>0</asrwt>
<pdfrwt beam="2">  1        1 0.15859603E-01 0.12608394E+03</pdfrwt>
<pdfrwt beam="1">  1       -1 0.17989051E-01 0.12608394E+03</pdfrwt>
<totfact> 0.77973331E+03</totfact>
</mgrwt>
</event>
<event>
 8    1  0.7550631E-006  0.1596814E+03  0.7546771E-02  0.1196803E+00
         -1   -1    0    0    0  501 -0.00000000000E+00  0.00000000000E+00  0.90602515219E+03  0.90602515219E+03  0.00000000000E+00 0.  1.
          1   -1    0    0  501    0  0.00000000000E+00 -0.00000000000E+00 -0.25239378073E+02  0.25239378073E+02  0.00000000000E+00 0. -1.
         23    2    1    2    0    0  0.98260463904E+02  0.14746693936E+02  0.51149656466E+03  0.52893051151E+03  0.90918461273E+02 0.  0.
         23    2    1    2    0    0 -0.98260463904E+02 -0.14746693936E+02  0.36928920946E+03  0.40233401875E+03  0.12500223468E+03 0.  0.
          5    1    4    4  502    0 -0.12360679611E+03  0.20323325213E+01  0.33006689896E+03  0.35248974199E+03  0.47000000000E+01 0.  1.
         -5    1    4    4    0  502  0.25346332206E+02 -0.16779026458E+02  0.39222310499E+02  0.49844276763E+02  0.47000000000E+01 0.  1.
        -11    1    3    3    0    0  0.61354010198E+02  0.52926120062E+02  0.28518044991E+03  0.29646817327E+03  0.00000000000E+00 0.  1.
         11    1    3    3    0    0  0.36906453706E+02 -0.38179426126E+02  0.22631611475E+03  0.23246233824E+03  0.00000000000E+00 0. -1.
<mgrwt>
<rscale>  0 0.15302649E+03</rscale>
<asrwt>0</asrwt>
<pdfrwt beam="2">  1        1 0.38829819E-02 0.15968138E+03</pdfrwt>
<pdfrwt beam="1">  1       -1 0.13938846E+00 0.15968138E+03</pdfrwt>
<totfact> 0.10687773E+03</totfact>
</mgrwt>
</event>
<event>
 8    1  0.7550631E-006  0.1307010E+03  0.7546771E-02  0.1239755E+00
         -1   -1    0    0    0  501 -0.00000000000E+00  0.00000000000E+00  0.60756089758E+02  0.60756089758E+02  0.00000000000E+00 0.  1.
          1   -1    0    0  501    0  0.00000000000E+00 -0.00000000000E+00 -0.21823367641E+03  0.21823367641E+03  0.00000000000E+00 0. -1.
         23    2    1    2    0    0 -0.37286568813E+02 -0.82854990703E+01 -0.74008590402E+02  0.12390967836E+03  0.91746385370E+02 0.  0.
         23    2    1    2    0    0  0.37286568813E+02  0.82854990703E+01 -0.83468996249E+02  0.15508008781E+03  0.12499529028E+03 0.  0.
          5    1    4    4  502    0 -0.72656224687E+01 -0.45157613443E+02  0.43214016372E+00  0.45981257778E+02  0.47000000000E+01 0.  1.
         -5    1    4    4    0  502  0.44552191282E+02  0.53443112513E+02 -0.83901136413E+02  0.10909883003E+03  0.47000000000E+01 0.  1.
        -11    1    3    3    0    0  0.13930725106E+02 -0.69125301270E+01  0.14744061036E+02  0.21429780927E+02  0.00000000000E+00 0.  1.
         11    1    3    3    0    0 -0.51217293919E+02 -0.13729689432E+01 -0.88752651438E+02  0.10247989743E+03  0.00000000000E+00 0. -1.
<mgrwt>
<rscale>  0 0.12204887E+03</rscale>
<asrwt>0</asrwt>
<pdfrwt beam="2">  1        1 0.33574411E-01 0.13070103E+03</pdfrwt>
<pdfrwt beam="1">  1       -1 0.93470908E-02 0.13070103E+03</pdfrwt>
<totfact> 0.83866104E+03</totfact>
</mgrwt>
</event>
<event>
 8    1  0.7550631E-006  0.1528578E+03  0.7546771E-02  0.1205944E+00
         -1   -1    0    0    0  501 -0.00000000000E+00  0.00000000000E+00  0.12598956288E+03  0.12598956288E+03  0.00000000000E+00 0.  1.
          1   -1    0    0  501    0  0.00000000000E+00 -0.00000000000E+00 -0.19902843612E+03  0.19902843612E+03  0.00000000000E+00 0. -1.
         23    2    1    2    0    0  0.25388244023E+02 -0.83811282024E+02  0.43024546268E+02  0.13309033546E+03  0.90515368215E+02 0.  0.
         23    2    1    2    0    0 -0.25388244023E+02  0.83811282024E+02 -0.11606341952E+03  0.19192766353E+03  0.12528613950E+03 0.  0.
          5    1    4    4  502    0  0.21141424432E+02 -0.20751150444E+02 -0.16647654214E+01  0.30040497926E+02  0.47000000000E+01 0. -1.
         -5    1    4    4    0  502 -0.46529668455E+02  0.10456243247E+03 -0.11439865409E+03  0.16188716561E+03  0.47000000000E+01 0.  1.
        -11    1    3    3    0    0  0.17858540959E+02 -0.98004962730E+01  0.54164034329E+02  0.57868124448E+02  0.00000000000E+00 0.  1.
         11    1    3    3    0    0  0.75297030636E+01 -0.74010785751E+02 -0.11139488061E+02  0.75222211015E+02  0.00000000000E+00 0. -1.
<mgrwt>
<rscale>  0 0.14563314E+03</rscale>
<asrwt>0</asrwt>
<pdfrwt beam="2">  1        1 0.30619759E-01 0.15285781E+03</pdfrwt>
<pdfrwt beam="1">  1       -1 0.19383010E-01 0.15285781E+03</pdfrwt>
<totfact> 0.30460208E+03</totfact>
</mgrwt>
</event>
<event>
 8    1  0.7550631E-006  0.1195875E+03  0.7546771E-02  0.1253328E+00
         -1   -1    0    0    0  501 -0.00000000000E+00  0.00000000000E+00  0.12978277497E+03  0.12978277497E+03  0.00000000000E+00 0.  1.
          1   -1    0    0  501    0  0.00000000000E+00 -0.00000000000E+00 -0.21957840454E+03  0.21957840454E+03  0.00000000000E+00 0. -1.
         23    2    1    2    0    0 -0.29784034324E+02 -0.33715863330E+02  0.89867528314E+02  0.13353715713E+03  0.87932653483E+02 0.  0.
         23    2    1    2    0    0  0.29784034324E+02  0.33715863330E+02 -0.17966315788E+03  0.21582402237E+03  0.11080302429E+03 0.  0.
          5    1    4    4  502    0 -0.11823249484E+02  0.64695163271E+02 -0.11739183270E+03  0.13464095129E+03  0.47000000000E+01 0. -1.
         -5    1    4    4    0  502  0.41607283808E+02 -0.30979299941E+02 -0.62271325181E+02  0.81183071083E+02  0.47000000000E+01 0.  1.
        -11    1    3    3    0    0 -0.24216095214E+02 -0.45806326673E+02  0.10271118627E+03  0.11504010873E+03  0.00000000000E+00 0.  1.
         11    1    3    3    0    0 -0.55679391101E+01  0.12090463342E+02 -0.12843657960E+02  0.18497048401E+02  0.00000000000E+00 0. -1.
<mgrwt>
<rscale>  0 0.11400481E+03</rscale>
<asrwt>0</asrwt>
<pdfrwt beam="2">  1        1 0.33781293E-01 0.11958745E+03</pdfrwt>
<pdfrwt beam="1">  1       -1 0.19966581E-01 0.11958745E+03</pdfrwt>
<totfact> 0.25428741E+03</totfact>
</mgrwt>
</event>
<event>
 8    1  0.7550631E-006  0.1369271E+03  0.7546771E-02  0.1229817E+00
         -2   -1    0    0    0  501 -0.00000000000E+00  0.00000000000E+00  0.39727885309E+02  0.39727885309E+02  0.00000000000E+00 0.  1.
          2   -1    0    0  501    0  0.00000000000E+00 -0.00000000000E+00 -0.37128878744E+03  0.37128878744E+03  0.00000000000E+00 0. -1.
         23    2    1    2    0    0  0.11315815021E+02  0.54995977608E+02 -0.14141291550E+03  0.17669789603E+03  0.89843912238E+02 0.  0.
         23    2    1    2    0    0 -0.11315815021E+02 -0.54995977608E+02 -0.19014798663E+03  0.23431877673E+03  0.12488565604E+03 0.  0.
          5    1    4    4  502    0  0.24126222727E+02 -0.81303441962E+02 -0.15843211939E+03  0.17976415313E+03  0.47000000000E+01 0.  1.
         -5    1    4    4    0  502 -0.35442037748E+02  0.26307464354E+02 -0.31715867246E+02  0.54554623595E+02  0.47000000000E+01 0.  1.
        -11    1    3    3    0    0  0.46624719776E+02  0.24405861839E+02 -0.10505840468E+03  0.11750225096E+03  0.00000000000E+00 0. -1.
         11    1    3    3    0    0 -0.35308904755E+02  0.30590115769E+02 -0.36354510820E+02  0.59195645066E+02  0.00000000000E+00 0.  1.
<mgrwt>
<rscale>  0 0.12842161E+03</rscale>
<asrwt>0</asrwt>
<pdfrwt beam="2">  1        2 0.57121352E-01 0.13692711E+03</pdfrwt>
<pdfrwt beam="1">  1       -2 0.61119823E-02 0.13692711E+03</pdfrwt>
<totfact> 0.11791451E+04</totfact>
</mgrwt>
</event>
<event>
 8    1  0.7550631E-006  0.1393111E+03  0.7546771E-02  0.1225469E+00
          2   -1    0    0  501    0  0.00000000000E+00  0.00000000000E+00  0.44363586243E+02  0.44363586243E+02  0.00000000000E+00 0. -1.
         -2   -1    0    0    0  501 -0.00000000000E+00 -0.00000000000E+00 -0.37786906521E+03  0.37786906521E+03  0.00000000000E+00 0.  1.
         23    2    1    2    0    0 -0.20728626114E+00 -0.61520407184E+02 -0.20507214914E+03  0.23275253503E+03  0.91292676273E+02 0.  0.
         23    2    1    2    0    0  0.20728626114E+00  0.61520407184E+02 -0.12843332983E+03  0.18948011643E+03  0.12499116306E+03 0.  0.
          5    1    4    4  502    0 -0.51285802869E+02  0.40208353428E+02 -0.11452084526E+03  0.13184862252E+03  0.47000000000E+01 0.  1.
         -5    1    4    4    0  502  0.51493089131E+02  0.21312053756E+02 -0.13912484575E+02  0.57631493912E+02  0.47000000000E+01 0.  1.
        -11    1    3    3    0    0  0.25199134596E+02 -0.14607920612E+02 -0.10441103409E+02  0.30941951609E+02  0.00000000000E+00 0. -1.
         11    1    3    3    0    0 -0.25406420857E+02 -0.46912486571E+02 -0.19463104573E+03  0.20181058342E+03  0.00000000000E+00 0.  1.
<mgrwt>
<rscale>  0 0.13134799E+03</rscale>
<asrwt>0</asrwt>
<pdfrwt beam="1">  1        2 0.68251669E-02 0.13931114E+03</pdfrwt>
<pdfrwt beam="2">  1       -2 0.58133704E-01 0.13931114E+03</pdfrwt>
<totfact> 0.28298721E+03</totfact>
</mgrwt>
</event>
<event>
 8    1  0.7550631E-006  0.1441806E+03  0.7546771E-02  0.1218992E+00
         -1   -1    0    0    0  501 -0.00000000000E+00  0.00000000000E+00  0.14139099967E+03  0.14139099967E+03  0.00000000000E+00 0.  1.
          1   -1    0    0  501    0  0.00000000000E+00 -0.00000000000E+00 -0.11901878452E+03  0.11901878452E+03  0.00000000000E+00 0. -1.
         23    2    1    2    0    0 -0.67434282189E+02  0.25033335094E+02 -0.42388983604E+01  0.11379393944E+03  0.88074071749E+02 0.  0.
         23    2    1    2    0    0  0.67434282189E+02 -0.25033335094E+02  0.26611113517E+02  0.14661584475E+03  0.12495600941E+03 0.  0.
          5    1    4    4  502    0  0.29973837709E+02  0.51344975110E+01 -0.48418606559E+02  0.57369377483E+02  0.47000000000E+01 0. -1.
         -5    1    4    4    0  502  0.37460444480E+02 -0.30167832605E+02  0.75029720076E+02  0.89246467265E+02  0.47000000000E+01 0. -1.
        -11    1    3    3    0    0 -0.25110621287E+00 -0.20781185314E+02 -0.22312445506E+02  0.30492063588E+02  0.00000000000E+00 0. -1.
         11    1    3    3    0    0 -0.67183175976E+02  0.45814520408E+02  0.18073547146E+02  0.83301875855E+02  0.00000000000E+00 0.  1.
<mgrwt>
<rscale>  0 0.13587345E+03</rscale>
<asrwt>0</asrwt>
<pdfrwt beam="2">  1        1 0.18310582E-01 0.14418063E+03</pdfrwt>
<pdfrwt beam="1">  1       -1 0.21752462E-01 0.14418063E+03</pdfrwt>
<totfact> 0.48250399E+03</totfact>
</mgrwt>
</event>
<event>
 8    1  0.7550631E-006  0.1819480E+03  0.7546771E-02  0.1170981E+00
          3   -1    0    0  501    0  0.00000000000E+00  0.00000000000E+00  0.18586262104E+03  0.18586262104E+03  0.00000000000E+00 0. -1.
         -3   -1    0    0    0  501 -0.00000000000E+00 -0.00000000000E+00 -0.16644349903E+03  0.16644349903E+03  0.00000000000E+00 0.  1.
         23    2    1    2    0    0 -0.92209967966E+02 -0.94751072958E+02 -0.27592597646E+02  0.16438280277E+03  0.93701175999E+02 0.  0.
         23    2    1    2    0    0  0.92209967966E+02  0.94751072958E+02  0.47011719665E+02  0.18792331730E+03  0.12499850950E+03 0.  0.
          5    1    4    4  502    0  0.28013300190E+02  0.91283594291E+02  0.71064241300E+02  0.11912034237E+03  0.47000000000E+01 0.  1.
         -5    1    4    4    0  502  0.64196667777E+02  0.34674786676E+01 -0.24052521635E+02  0.68802974928E+02  0.47000000000E+01 0.  1.
        -11    1    3    3    0    0  0.11541066731E+02 -0.40765606431E+02  0.57760485388E+01  0.42759719663E+02  0.00000000000E+00 0.  1.
         11    1    3    3    0    0 -0.10375103470E+03 -0.53985466528E+02 -0.33368646185E+02  0.12162308311E+03  0.00000000000E+00 0. -1.
<mgrwt>
<rscale>  0 0.17675553E+03</rscale>
<asrwt>0</asrwt>
<pdfrwt beam="1">  1        3 0.28594249E-01 0.18194799E+03</pdfrwt>
<pdfrwt beam="2">  1       -3 0.25606692E-01 0.18194799E+03</pdfrwt>
<totfact> 0.40749596E+02</totfact>
</mgrwt>
</event>
<event>
 8    1  0.7550631E-006  0.4116090E+03  0.7546771E-02  0.1040599E+00
         -1   -1    0    0    0  501 -0.00000000000E+00  0.00000000000E+00  0.65950699194E+02  0.65950699194E+02  0.00000000000E+00 0.  1.
          1   -1    0    0  501    0  0.00000000000E+00 -0.00000000000E+00 -0.25560571848E+04  0.25560571848E+04  0.00000000000E+00 0. -1.
         23    2    1    2    0    0  0.36498345211E+03 -0.14346934758E+03 -0.10603982200E+04  0.11342284376E+04  0.90738027522E+02 0.  0.
         23    2    1    2    0    0 -0.36498345211E+03  0.14346934758E+03 -0.14297082656E+04  0.14877794464E+04  0.12500232962E+03 0.  0.
          5    1    4    4  502    0 -0.10588327911E+03 -0.15763708876E+02 -0.34800166917E+03  0.36412499922E+03  0.47000000000E+01 0.  1.
         -5    1    4    4    0  502 -0.25910017300E+03  0.15923305645E+03 -0.10817065964E+04  0.11236544472E+04  0.47000000000E+01 0.  1.
        -11    1    3    3    0    0  0.27810981639E+03 -0.10610222100E+03 -0.90090838907E+03  0.94880908341E+03  0.00000000000E+00 0.  1.
         11    1    3    3    0    0  0.86873635725E+02 -0.37367126577E+02 -0.15948983098E+03  0.18541935422E+03  0.00000000000E+00 0. -1.
<mgrwt>
<rscale>  0 0.40932002E+03</rscale>
<asrwt>0</asrwt>
<pdfrwt beam="2">  1        1 0.39323954E+00 0.41160898E+03</pdfrwt>
<pdfrwt beam="1">  1       -1 0.10146262E-01 0.41160898E+03</pdfrwt>
<totfact> 0.83863569E+01</totfact>
</mgrwt>
</event>
<event>
 8    1  0.7550631E-006  0.1564291E+03  0.7546771E-02  0.1200338E+00
          2   -1    0    0  501    0  0.00000000000E+00  0.00000000000E+00  0.53954517810E+03  0.53954517810E+03  0.00000000000E+00 0. -1.
         -2   -1    0    0    0  501 -0.00000000000E+00 -0.00000000000E+00 -0.42036230575E+02  0.42036230575E+02  0.00000000000E+00 0.  1.
         23    2    1    2    0    0 -0.91789296061E+02  0.20496363553E+02  0.14846600160E+03  0.19908822147E+03  0.93533900304E+02 0.  0.
         23    2    1    2    0    0  0.91789296061E+02 -0.20496363553E+02  0.34904294593E+03  0.38249318721E+03  0.12499873747E+03 0.  0.
          5    1    4    4  502    0  0.24833562727E+02 -0.12703639198E+02  0.29395232649E+03  0.29531025809E+03  0.47000000000E+01 0.  1.
         -5    1    4    4    0  502  0.66955733334E+02 -0.77927243554E+01  0.55090619440E+02  0.87182929117E+02  0.47000000000E+01 0.  1.
        -11    1    3    3    0    0 -0.71947359792E+02  0.14821370213E+02  0.30846381500E+02  0.79671794555E+02  0.00000000000E+00 0.  1.
         11    1    3    3    0    0 -0.19841936269E+02  0.56749933404E+01  0.11761962010E+03  0.11941642691E+03  0.00000000000E+00 0. -1.
<mgrwt>
<rscale>  0 0.15010965E+03</rscale>
<asrwt>0</asrwt>
<pdfrwt beam="1">  1        2 0.83006945E-01 0.15642909E+03</pdfrwt>
<pdfrwt beam="2">  1       -2 0.64671128E-02 0.15642909E+03</pdfrwt>
<totfact> 0.72728550E+03</totfact>
</mgrwt>
</event>
<event>
 8    1  0.7550631E-006  0.1370168E+03  0.7546771E-02  0.1228264E+00
         -1   -1    0    0    0  501 -0.00000000000E+00  0.00000000000E+00  0.26278161668E+03  0.26278161668E+03  0.00000000000E+00 0.  1.
          1   -1    0    0  501    0  0.00000000000E+00 -0.00000000000E+00 -0.66386651892E+02  0.66386651892E+02  0.00000000000E+00 0. -1.
         23    2    1    2    0    0  0.49801577834E+02  0.25902393018E+02  0.14786727651E+03  0.18381166839E+03  0.93652906284E+02 0.  0.
         23    2    1    2    0    0 -0.49801577834E+02 -0.25902393018E+02  0.48527688279E+02  0.14535660018E+03  0.12498989386E+03 0.  0.
          5    1    4    4  502    0  0.24560921652E+01  0.46771965944E+02  0.12101213983E+02  0.48602248578E+02  0.47000000000E+01 0. -1.
         -5    1    4    4    0  502 -0.52257669999E+02 -0.72674358962E+02  0.36426474296E+02  0.96754351602E+02  0.47000000000E+01 0. -1.
        -11    1    3    3    0    0  0.92267687523E+01 -0.12243778804E+02 -0.87049801641E+01  0.17630089639E+02  0.00000000000E+00 0. -1.
         11    1    3    3    0    0  0.40574809082E+02  0.38146171823E+02  0.15657225667E+03  0.16618157875E+03  0.00000000000E+00 0.  1.
<mgrwt>
<rscale>  0 0.12945654E+03</rscale>
<asrwt>0</asrwt>
<pdfrwt beam="2">  1        1 0.10213331E-01 0.13701680E+03</pdfrwt>
<pdfrwt beam="1">  1       -1 0.40427940E-01 0.13701680E+03</pdfrwt>
<totfact> 0.36294341E+03</totfact>
</mgrwt>
</event>
<event>
 8    1  0.7550631E-006  0.2235849E+03  0.7546771E-02  0.1134351E+00
          1   -1    0    0  501    0  0.00000000000E+00  0.00000000000E+00  0.14458639051E+03  0.14458639051E+03  0.00000000000E+00 0. -1.
         -1   -1    0    0    0  501 -0.00000000000E+00 -0.00000000000E+00 -0.38605183311E+03  0.38605183311E+03  0.00000000000E+00 0.  1.
         23    2    1    2    0    0  0.16573359129E+03  0.83048772996E+02 -0.22585966388E+03  0.30650936519E+03  0.92577973651E+02 0.  0.
         23    2    1    2    0    0 -0.16573359129E+03 -0.83048772996E+02 -0.15605778722E+02  0.22412885844E+03  0.12500193150E+03 0.  0.
          5    1    4    4  502    0 -0.14301856077E+03 -0.11522609135E+03 -0.92276773804E+01  0.18395271372E+03  0.47000000000E+01 0. -1.
         -5    1    4    4    0  502 -0.22715030515E+02  0.32177318358E+02 -0.63781013417E+01  0.40176144723E+02  0.47000000000E+01 0. -1.
        -11    1    3    3    0    0  0.12797524780E+03  0.61440962360E+02 -0.22109356126E+03  0.26274515930E+03  0.00000000000E+00 0.  1.
         11    1    3    3    0    0  0.37758343484E+02  0.21607810635E+02 -0.47661026219E+01  0.43764205892E+02  0.00000000000E+00 0. -1.
<mgrwt>
<rscale>  0 0.21937331E+03</rscale>
<asrwt>0</asrwt>
<pdfrwt beam="1">  1        1 0.22244060E-01 0.22358489E+03</pdfrwt>
<pdfrwt beam="2">  1       -1 0.59392589E-01 0.22358489E+03</pdfrwt>
<totfact> 0.66023415E+02</totfact>
</mgrwt>
</event>
<event>
 8    1  0.7550631E-006  0.1619382E+03  0.7546771E-02  0.1193917E+00
          2   -1    0    0  501    0  0.00000000000E+00  0.00000000000E+00  0.10958173104E+04  0.10958173104E+04  0.00000000000E+00 0.  1.
         -2   -1    0    0    0  501 -0.00000000000E+00 -0.00000000000E+00 -0.20555360117E+02  0.20555360117E+02  0.00000000000E+00 0. -1.
         23    2    1    2    0    0 -0.74796008556E+01  0.10268006431E+03  0.45663593892E+03  0.47690247383E+03  0.91216494122E+02 0.  0.
         23    2    1    2    0    0  0.74796008556E+01 -0.10268006431E+03  0.61862601132E+03  0.63947019664E+03  0.12499940190E+03 0.  0.
          5    1    4    4  502    0 -0.28353668174E+02 -0.17353867631E+02  0.34870945730E+02  0.48406198743E+02  0.47000000000E+01 0.  1.
         -5    1    4    4    0  502  0.35833269030E+02 -0.85326196677E+02  0.58375506559E+03  0.59106399789E+03  0.47000000000E+01 0.  1.
        -11    1    3    3    0    0 -0.42687169636E+01  0.18944686378E+02  0.88462725303E+01  0.21339625680E+02  0.00000000000E+00 0. -1.
         11    1    3    3    0    0 -0.32108838920E+01  0.83735377930E+02  0.44778966639E+03  0.45556284815E+03  0.00000000000E+00 0.  1.
<mgrwt>
<rscale>  0 0.15546263E+03</rscale>
<asrwt>0</asrwt>
<pdfrwt beam="1">  1        2 0.16858723E+00 0.16193823E+03</pdfrwt>
<pdfrwt beam="2">  1       -2 0.31623639E-02 0.16193823E+03</pdfrwt>
<totfact> 0.87867116E+03</totfact>
</mgrwt>
</event>
<event>
 8    1  0.7550631E-006  0.1253891E+03  0.7546771E-02  0.1249748E+00
         -1   -1    0    0    0  501 -0.00000000000E+00  0.00000000000E+00  0.49938226373E+02  0.49938226373E+02  0.00000000000E+00 0.  1.
          1   -1    0    0  501    0  0.00000000000E+00 -0.00000000000E+00 -0.26550903409E+03  0.26550903409E+03  0.00000000000E+00 0. -1.
         23    2    1    2    0    0 -0.91271123092E+01  0.36578304536E+01 -0.41577868350E+02  0.10098054901E+03  0.91496820927E+02 0.  0.
         23    2    1    2    0    0  0.91271123092E+01 -0.36578304536E+01 -0.17399293937E+03  0.21446671145E+03  0.12500297384E+03 0.  0.
          5    1    4    4  502    0  0.78706329638E+01  0.60362654101E+02 -0.89679057045E+02  0.10848972369E+03  0.47000000000E+01 0.  1.
         -5    1    4    4    0  502  0.12564793454E+01 -0.64020484555E+02 -0.84313882323E+02  0.10597698776E+03  0.47000000000E+01 0.  1.
        -11    1    3    3    0    0  0.27599618432E+02 -0.11627144127E+02  0.13653707168E+02  0.32914330277E+02  0.00000000000E+00 0.  1.
         11    1    3    3    0    0 -0.36726730741E+02  0.15284974581E+02 -0.55231575518E+02  0.68066218736E+02  0.00000000000E+00 0. -1.
<mgrwt>
<rscale>  0 0.11605657E+03</rscale>
<asrwt>0</asrwt>
<pdfrwt beam="2">  1        1 0.40847545E-01 0.12538910E+03</pdfrwt>
<pdfrwt beam="1">  1       -1 0.76828039E-02 0.12538910E+03</pdfrwt>
<totfact> 0.88244349E+03</totfact>
</mgrwt>
</event>
<event>
 8    1  0.7550631E-006  0.1625915E+03  0.7546771E-02  0.1193216E+00
          2   -1    0    0  501    0  0.00000000000E+00  0.00000000000E+00  0.56504887118E+03  0.56504887118E+03  0.00000000000E+00 0. -1.
         -2   -1    0    0    0  501 -0.00000000000E+00 -0.00000000000E+00 -0.55145102490E+02  0.55145102490E+02  0.00000000000E+00 0.  1.
         23    2    1    2    0    0 -0.76429623592E+02  0.70488415929E+02  0.77600866313E+02  0.15832623557E+03  0.90747993225E+02 0.  0.
         23    2    1    2    0    0  0.76429623592E+02 -0.70488415929E+02  0.43230290238E+03  0.46186773810E+03  0.12500361576E+03 0.  0.
          5    1    4    4  502    0  0.82297305786E+02  0.19944321051E+01  0.16018508564E+03  0.18016152742E+03  0.47000000000E+01 0. -1.
         -5    1    4    4    0  502 -0.58676821942E+01 -0.72482848034E+02  0.27211781673E+03  0.28170621068E+03  0.47000000000E+01 0. -1.
        -11    1    3    3    0    0 -0.76022384609E+02  0.27524230553E+02  0.14739759019E+02  0.82184224308E+02  0.00000000000E+00 0.  1.
         11    1    3    3    0    0 -0.40723898276E+00  0.42964185375E+02  0.62861107294E+02  0.76142011260E+02  0.00000000000E+00 0. -1.
<mgrwt>
<rscale>  0 0.15606192E+03</rscale>
<asrwt>0</asrwt>
<pdfrwt beam="1">  1        2 0.86930591E-01 0.16259154E+03</pdfrwt>
<pdfrwt beam="2">  1       -2 0.84838623E-02 0.16259154E+03</pdfrwt>
<totfact> 0.45515708E+03</totfact>
</mgrwt>
</event>
<event>
 8    1  0.7550631E-006  0.1407096E+03  0.7546771E-02  0.1222979E+00
         -3   -1    0    0    0  501 -0.00000000000E+00  0.00000000000E+00  0.24557932584E+02  0.24557932584E+02  0.00000000000E+00 0.  1.
          3   -1    0    0  501    0  0.00000000000E+00 -0.00000000000E+00 -0.73832535304E+03  0.73832535304E+03  0.00000000000E+00 0. -1.
         23    2    1    2    0    0  0.63600072322E+02 -0.11314510249E+02 -0.19270063353E+03  0.22315207855E+03  0.92142979423E+02 0.  0.
         23    2    1    2    0    0 -0.63600072322E+02  0.11314510249E+02 -0.52106678693E+03  0.53973120708E+03  0.12500476835E+03 0.  0.
          5    1    4    4  502    0 -0.11035698203E+02  0.48189111264E+02 -0.39565964662E+03  0.39876386878E+03  0.47000000000E+01 0.  1.
         -5    1    4    4    0  502 -0.52564374119E+02 -0.36874601015E+02 -0.12540714031E+03  0.14096733830E+03  0.47000000000E+01 0.  1.
        -11    1    3    3    0    0  0.16665623326E+02 -0.36803326750E+02 -0.25853082847E+02  0.47964671930E+02  0.00000000000E+00 0.  1.
         11    1    3    3    0    0  0.46934448996E+02  0.25488816501E+02 -0.16684755068E+03  0.17518740662E+03  0.00000000000E+00 0. -1.
<mgrwt>
<rscale>  0 0.13306417E+03</rscale>
<asrwt>0</asrwt>
<pdfrwt beam="2">  1        3 0.11358851E+00 0.14070956E+03</pdfrwt>
<pdfrwt beam="1">  1       -3 0.37781437E-02 0.14070956E+03</pdfrwt>
<totfact> 0.55903171E+02</totfact>
</mgrwt>
</event>
<event>
 8    1  0.7550631E-006  0.1366849E+03  0.7546771E-02  0.1229720E+00
         -1   -1    0    0    0  501 -0.00000000000E+00  0.00000000000E+00  0.29075911279E+02  0.29075911279E+02  0.00000000000E+00 0.  1.
          1   -1    0    0  501    0  0.00000000000E+00 -0.00000000000E+00 -0.51306713079E+03  0.51306713079E+03  0.00000000000E+00 0. -1.
         23    2    1    2    0    0  0.39451536204E+02 -0.38794618254E+02 -0.18973890752E+03  0.21769399223E+03  0.91259931591E+02 0.  0.
         23    2    1    2    0    0 -0.39451536204E+02  0.38794618254E+02 -0.29425231199E+03  0.32444904983E+03  0.12498526598E+03 0.  0.
          5    1    4    4  502    0 -0.28945058981E+02 -0.38695463290E+02 -0.17620907764E+03  0.18277550263E+03  0.47000000000E+01 0.  1.
         -5    1    4    4    0  502 -0.10506477223E+02  0.77490081544E+02 -0.11804323434E+03  0.14167354720E+03  0.47000000000E+01 0.  1.
        -11    1    3    3    0    0  0.59188473981E+02  0.41602922663E+01 -0.10053281559E+03  0.11673658593E+03  0.00000000000E+00 0.  1.
         11    1    3    3    0    0 -0.19736937777E+02 -0.42954910520E+02 -0.89206091932E+02  0.10095740631E+03  0.00000000000E+00 0. -1.
<mgrwt>
<rscale>  0 0.12848577E+03</rscale>
<asrwt>0</asrwt>
<pdfrwt beam="2">  1        1 0.78933395E-01 0.13668490E+03</pdfrwt>
<pdfrwt beam="1">  1       -1 0.44732177E-02 0.13668490E+03</pdfrwt>
<totfact> 0.86700568E+03</totfact>
</mgrwt>
</event>
<event>
 8    1  0.7550631E-006  0.1459036E+03  0.7546771E-02  0.1222137E+00
         -1   -1    0    0    0  501 -0.00000000000E+00  0.00000000000E+00  0.19158049021E+03  0.19158049021E+03  0.00000000000E+00 0.  1.
          1   -1    0    0  501    0  0.00000000000E+00 -0.00000000000E+00 -0.94177513059E+02  0.94177513059E+02  0.00000000000E+00 0. -1.
         23    2    1    2    0    0 -0.51015847760E+02  0.55342540490E+02  0.94869334186E+02  0.13983237271E+03  0.69910574160E+02 0.  0.
         23    2    1    2    0    0  0.51015847760E+02 -0.55342540490E+02  0.25336429638E+01  0.14592563055E+03  0.12498982677E+03 0.  0.
          5    1    4    4  502    0  0.53740041986E+02  0.28655674711E+02  0.78398809483E+01  0.61584848291E+02  0.47000000000E+01 0. -1.
         -5    1    4    4    0  502 -0.27241942259E+01 -0.83998215201E+02 -0.53062379845E+01  0.84340782262E+02  0.47000000000E+01 0. -1.
        -11    1    3    3    0    0 -0.14288324637E+02  0.56477641108E+02  0.82631228501E+02  0.10110291830E+03  0.00000000000E+00 0.  1.
         11    1    3    3    0    0 -0.36727523122E+02 -0.11351006175E+01  0.12238105685E+02  0.38729454410E+02  0.00000000000E+00 0. -1.
<mgrwt>
<rscale>  0 0.13365065E+03</rscale>
<asrwt>0</asrwt>
<pdfrwt beam="2">  1        1 0.14488848E-01 0.14590363E+03</pdfrwt>
<pdfrwt beam="1">  1       -1 0.29473922E-01 0.14590363E+03</pdfrwt>
<totfact> 0.39580109E+03</totfact>
</mgrwt>
</event>
<event>
 8    1  0.7550631E-006  0.2378128E+03  0.7546771E-02  0.1124015E+00
          1   -1    0    0  501    0  0.00000000000E+00  0.00000000000E+00  0.16599323224E+04  0.16599323224E+04  0.00000000000E+00 0. -1.
         -1   -1    0    0    0  501 -0.00000000000E+00 -0.00000000000E+00 -0.53457611138E+02  0.53457611138E+02  0.00000000000E+00 0.  1.
         23    2    1    2    0    0  0.11635022691E+03 -0.16549171810E+03  0.24234994133E+03  0.32869093669E+03  0.91538809992E+02 0.  0.
         23    2    1    2    0    0 -0.11635022691E+03  0.16549171810E+03  0.13641247700E+04  0.13846989969E+04  0.12502015793E+03 0.  0.
          5    1    4    4  502    0 -0.13322998219E+03  0.17301322782E+03  0.12728393419E+04  0.12914433342E+04  0.47000000000E+01 0.  1.
         -5    1    4    4    0  502  0.16879755280E+02 -0.75215097194E+01  0.91285428074E+02  0.93255662699E+02  0.47000000000E+01 0.  1.
        -11    1    3    3    0    0  0.76351305869E+02 -0.16292116448E+03  0.17952629081E+03  0.25417025167E+03  0.00000000000E+00 0. -1.
         11    1    3    3    0    0  0.39998921039E+02 -0.25705536241E+01  0.62823650528E+02  0.74520685020E+02  0.00000000000E+00 0.  1.
<mgrwt>
<rscale>  0 0.23376901E+03</rscale>
<asrwt>0</asrwt>
<pdfrwt beam="1">  1        1 0.25537416E+00 0.23781279E+03</pdfrwt>
<pdfrwt beam="2">  1       -1 0.82242491E-02 0.23781279E+03</pdfrwt>
<totfact> 0.46629404E+02</totfact>
</mgrwt>
</event>
<event>
 8    1  0.7550631E-006  0.1184332E+03  0.7546771E-02  0.1253523E+00
          2   -1    0    0  501    0  0.00000000000E+00  0.00000000000E+00  0.10073994266E+04  0.10073994266E+04  0.00000000000E+00 0. -1.
         -2   -1    0    0    0  501 -0.00000000000E+00 -0.00000000000E+00 -0.36679526262E+02  0.36679526262E+02  0.00000000000E+00 0.  1.
         23    2    1    2    0    0  0.42886280016E+02  0.69134273251E+01  0.45046966942E+02  0.11086042859E+03  0.91508343361E+02 0.  0.
         23    2    1    2    0    0 -0.42886280016E+02 -0.69134273251E+01  0.92567293342E+03  0.93321852430E+03  0.11017897231E+03 0.  0.
          5    1    4    4  502    0 -0.62608491129E+02 -0.19737011398E+02  0.30216830220E+03  0.30925255963E+03  0.47000000000E+01 0. -1.
         -5    1    4    4    0  502  0.19722211113E+02  0.12823584073E+02  0.62350463121E+03  0.62396596467E+03  0.47000000000E+01 0.  1.
        -11    1    3    3    0    0 -0.25485730932E+02  0.17862080091E+02  0.71798010917E+01  0.31939410296E+02  0.00000000000E+00 0. -1.
         11    1    3    3    0    0  0.68372010948E+02 -0.10948652766E+02  0.37867165850E+02  0.78921018290E+02  0.00000000000E+00 0.  1.
<mgrwt>
<rscale>  0 0.11389454E+03</rscale>
<asrwt>0</asrwt>
<pdfrwt beam="1">  1        2 0.15498451E+00 0.11843325E+03</pdfrwt>
<pdfrwt beam="2">  1       -2 0.56430048E-02 0.11843325E+03</pdfrwt>
<totfact> 0.41210307E+03</totfact>
</mgrwt>
</event>
<event>
 8    1  0.7550631E-006  0.1358539E+03  0.7546771E-02  0.1231262E+00
          2   -1    0    0  501    0  0.00000000000E+00  0.00000000000E+00  0.52908197359E+03  0.52908197359E+03  0.00000000000E+00 0.  1.
         -2   -1    0    0    0  501 -0.00000000000E+00 -0.00000000000E+00 -0.45826957488E+02  0.45826957488E+02  0.00000000000E+00 0. -1.
         23    2    1    2    0    0 -0.24155275869E+02  0.47412231634E+02  0.42245585852E+02  0.11344864496E+03  0.90854325478E+02 0.  0.
         23    2    1    2    0    0  0.24155275869E+02 -0.47412231634E+02  0.44100943025E+03  0.46146028612E+03  0.12499952414E+03 0.  0.
          5    1    4    4  502    0  0.58668176219E+02  0.18120018841E+02  0.19331843659E+03  0.20289011289E+03  0.47000000000E+01 0. -1.
         -5    1    4    4    0  502 -0.34512900350E+02 -0.65532250475E+02  0.24769099366E+03  0.25857017323E+03  0.47000000000E+01 0. -1.
        -11    1    3    3    0    0 -0.39235064332E+02  0.64139893219E+02  0.12629116261E+02  0.76241791380E+02  0.00000000000E+00 0. -1.
         11    1    3    3    0    0  0.15079788463E+02 -0.16727661585E+02  0.29616469590E+02  0.37206853578E+02  0.00000000000E+00 0.  1.
<mgrwt>
<rscale>  0 0.12746779E+03</rscale>
<asrwt>0</asrwt>
<pdfrwt beam="1">  1        2 0.81397222E-01 0.13585389E+03</pdfrwt>
<pdfrwt beam="2">  1       -2 0.70503015E-02 0.13585389E+03</pdfrwt>
<totfact> 0.64615948E+03</totfact>
</mgrwt>
</event>
<event>
 8    1  0.7550631E-006  0.1777518E+03  0.7546771E-02  0.1175415E+00
         -3   -1    0    0    0  501 -0.00000000000E+00  0.00000000000E+00  0.28084392385E+03  0.28084392385E+03  0.00000000000E+00 0.  1.
          3   -1    0    0  501    0  0.00000000000E+00 -0.00000000000E+00 -0.15679257274E+03  0.15679257274E+03  0.00000000000E+00 0. -1.
         23    2    1    2    0    0  0.10412371669E+03  0.71610026997E+02  0.19132918981E+03  0.24757857477E+03  0.93373162455E+02 0.  0.
         23    2    1    2    0    0 -0.10412371669E+03 -0.71610026997E+02 -0.67277838693E+02  0.19005792182E+03  0.12500384683E+03 0.  0.
          5    1    4    4  502    0  0.56249648044E+01 -0.35474709013E+02  0.23383150389E+02  0.43115622815E+02  0.47000000000E+01 0. -1.
         -5    1    4    4    0  502 -0.10974868149E+03 -0.36135317984E+02 -0.90660989082E+02  0.14694229901E+03  0.47000000000E+01 0. -1.
        -11    1    3    3    0    0  0.71089815127E+02  0.71601812161E+02  0.18926486603E+03  0.21448023414E+03  0.00000000000E+00 0.  1.
         11    1    3    3    0    0  0.33033901563E+02  0.82148359361E-02  0.20643237747E+01  0.33098340632E+02  0.00000000000E+00 0. -1.
<mgrwt>
<rscale>  0 0.17235421E+03</rscale>
<asrwt>0</asrwt>
<pdfrwt beam="2">  1        3 0.24121934E-01 0.17775181E+03</pdfrwt>
<pdfrwt beam="1">  1       -3 0.43206758E-01 0.17775181E+03</pdfrwt>
<totfact> 0.20650986E+02</totfact>
</mgrwt>
</event>
<event>
 8    1  0.7550631E-006  0.2013073E+03  0.7546771E-02  0.1152831E+00
         -1   -1    0    0    0  501 -0.00000000000E+00  0.00000000000E+00  0.19399372729E+03  0.19399372729E+03  0.00000000000E+00 0.  1.
          1   -1    0    0  501    0  0.00000000000E+00 -0.00000000000E+00 -0.31256831227E+03  0.31256831227E+03  0.00000000000E+00 0. -1.
         23    2    1    2    0    0  0.14446277834E+03 -0.63501903082E+02  0.10121411675E+03  0.20851553196E+03  0.91282219620E+02 0.  0.
         23    2    1    2    0    0 -0.14446277834E+03  0.63501903082E+02 -0.21978870173E+03  0.29804650760E+03  0.12499064469E+03 0.  0.
          5    1    4    4  502    0  0.20012276342E+02 -0.41319955968E+01 -0.39748323185E+02  0.44939779572E+02  0.47000000000E+01 0.  1.
         -5    1    4    4    0  502 -0.16447505468E+03  0.67633898679E+02 -0.18004037855E+03  0.25310672803E+03  0.47000000000E+01 0.  1.
        -11    1    3    3    0    0  0.52402253679E+02  0.90102292231E+01  0.68752232665E+02  0.86914037518E+02  0.00000000000E+00 0.  1.
         11    1    3    3    0    0  0.92060524663E+02 -0.72512132305E+02  0.32461884083E+02  0.12160149444E+03  0.00000000000E+00 0. -1.
<mgrwt>
<rscale>  0 0.19637819E+03</rscale>
<asrwt>0</asrwt>
<pdfrwt beam="2">  1        1 0.48087433E-01 0.20130735E+03</pdfrwt>
<pdfrwt beam="1">  1       -1 0.29845189E-01 0.20130735E+03</pdfrwt>
<totfact> 0.85782887E+02</totfact>
</mgrwt>
</event>
<event>
 8    1  0.7550631E-006  0.1825225E+03  0.7546771E-02  0.1171874E+00
          1   -1    0    0  501    0  0.00000000000E+00  0.00000000000E+00  0.21863624638E+04  0.21863624638E+04  0.00000000000E+00 0. -1.
         -1   -1    0    0    0  501 -0.00000000000E+00 -0.00000000000E+00 -0.16706794845E+02  0.16706794845E+02  0.00000000000E+00 0.  1.
         23    2    1    2    0    0 -0.13297768761E+03 -0.24614204838E+01  0.51783401941E+03  0.54119404731E+03  0.83963094209E+02 0.  0.
         23    2    1    2    0    0  0.13297768761E+03  0.24614204838E+01  0.16518216495E+04  0.16618752113E+04  0.12500132867E+03 0.  0.
          5    1    4    4  502    0  0.13804743778E+03 -0.34559334554E+02  0.14050877186E+04  0.14122836222E+04  0.47000000000E+01 0.  1.
         -5    1    4    4    0  502 -0.50697501749E+01  0.37020755038E+02  0.24673393090E+03  0.24959158906E+03  0.47000000000E+01 0.  1.
        -11    1    3    3    0    0 -0.37716650052E+02  0.15099670328E+01  0.44500378947E+02  0.58353315399E+02  0.00000000000E+00 0.  1.
         11    1    3    3    0    0 -0.95261037554E+02 -0.39713875166E+01  0.47333364047E+03  0.48284073191E+03  0.00000000000E+00 0. -1.
<mgrwt>
<rscale>  0 0.17585709E+03</rscale>
<asrwt>0</asrwt>
<pdfrwt beam="1">  1        1 0.33636323E+00 0.18252248E+03</pdfrwt>
<pdfrwt beam="2">  1       -1 0.25702779E-02 0.18252248E+03</pdfrwt>
<totfact> 0.12187275E+03</totfact>
</mgrwt>
</event>
<event>
 8    1  0.7550631E-006  0.1264029E+03  0.7546771E-02  0.1249050E+00
         -2   -1    0    0    0  501 -0.00000000000E+00  0.00000000000E+00  0.99030978449E+02  0.99030978449E+02  0.00000000000E+00 0. -1.
          2   -1    0    0  501    0  0.00000000000E+00 -0.00000000000E+00 -0.12254051345E+03  0.12254051345E+03  0.00000000000E+00 0.  1.
         23    2    1    2    0    0 -0.12970824929E+02 -0.13575843228E+02  0.75686662970E+01  0.91404127700E+02  0.89134078962E+02 0.  0.
         23    2    1    2    0    0  0.12970824929E+02  0.13575843228E+02 -0.31078201298E+02  0.13016736420E+03  0.12500056915E+03 0.  0.
          5    1    4    4  502    0  0.60928621610E+02 -0.15080019569E+02 -0.38238625085E+02  0.73647718022E+02  0.47000000000E+01 0.  1.
         -5    1    4    4    0  502 -0.47957796681E+02  0.28655862797E+02  0.71604237868E+01  0.56519646177E+02  0.47000000000E+01 0.  1.
        -11    1    3    3    0    0 -0.28433823210E+02  0.11700310915E+01 -0.34197625882E+02  0.44489649257E+02  0.00000000000E+00 0.  1.
         11    1    3    3    0    0  0.15462998281E+02 -0.14745874320E+02  0.41766292179E+02  0.46914478443E+02  0.00000000000E+00 0. -1.
<mgrwt>
<rscale>  0 0.11646238E+03</rscale>
<asrwt>0</asrwt>
<pdfrwt beam="2">  1        2 0.18852387E-01 0.12640288E+03</pdfrwt>
<pdfrwt beam="1">  1       -2 0.15235535E-01 0.12640288E+03</pdfrwt>
<totfact> 0.92882520E+03</totfact>
</mgrwt>
</event>
<event>
 8    1  0.7550631E-006  0.1252937E+03  0.7546771E-02  0.1249259E+00
          1   -1    0    0  501    0  0.00000000000E+00  0.00000000000E+00  0.18783757771E+03  0.18783757771E+03  0.00000000000E+00 0. -1.
         -1   -1    0    0    0  501 -0.00000000000E+00 -0.00000000000E+00 -0.63503093906E+02  0.63503093906E+02  0.00000000000E+00 0.  1.
         23    2    1    2    0    0  0.83482361221E+01 -0.17740894097E+01  0.52924805645E+02  0.10712606106E+03  0.92747600863E+02 0.  0.
         23    2    1    2    0    0 -0.83482361221E+01  0.17740894097E+01  0.71409678155E+02  0.14421461055E+03  0.12500268526E+03 0.  0.
          5    1    4    4  502    0 -0.58244962355E+02 -0.15821449456E+02  0.67919853463E+02  0.90983462217E+02  0.47000000000E+01 0. -1.
         -5    1    4    4    0  502  0.49896726233E+02  0.17595538865E+02  0.34898246915E+01  0.53231148335E+02  0.47000000000E+01 0. -1.
        -11    1    3    3    0    0 -0.77748402144E+01  0.42148039519E+02  0.39905152189E+02  0.58560452072E+02  0.00000000000E+00 0. -1.
         11    1    3    3    0    0  0.16123076336E+02 -0.43922128928E+02  0.13019653456E+02  0.48565608987E+02  0.00000000000E+00 0.  1.
<mgrwt>
<rscale>  0 0.11634035E+03</rscale>
<asrwt>0</asrwt>
<pdfrwt beam="1">  1        1 0.28898089E-01 0.12529370E+03</pdfrwt>
<pdfrwt beam="2">  1       -1 0.97697069E-02 0.12529370E+03</pdfrwt>
<totfact> 0.94132345E+03</totfact>
</mgrwt>
</event>
<event>
 8    1  0.7550631E-006  0.3068625E+03  0.7546771E-02  0.1083118E+00
          4   -1    0    0  501    0  0.00000000000E+00  0.00000000000E+00  0.55029170628E+03  0.55029170628E+03  0.00000000000E+00 0. -1.
         -4   -1    0    0    0  501 -0.00000000000E+00 -0.00000000000E+00 -0.18074674234E+03  0.18074674234E+03  0.00000000000E+00 0.  1.
         23    2    1    2    0    0 -0.10676438531E+03 -0.25912156440E+03  0.75720047739E+02  0.30618830032E+03  0.97340282096E+02 0.  0.
         23    2    1    2    0    0  0.10676438531E+03  0.25912156440E+03  0.29382491620E+03  0.42485014830E+03  0.12498779149E+03 0.  0.
          5    1    4    4  502    0  0.10690778133E+03  0.26910537638E+03  0.25971674813E+03  0.38900110098E+03  0.47000000000E+01 0. -1.
         -5    1    4    4    0  502 -0.14339602180E+00 -0.99838119842E+01  0.34108168072E+02  0.35849047315E+02  0.47000000000E+01 0. -1.
        -11    1    3    3    0    0 -0.58132257584E+02 -0.16837960764E+03 -0.43154621346E+00  0.17813264123E+03  0.00000000000E+00 0.  1.
         11    1    3    3    0    0 -0.48632127728E+02 -0.90741956759E+02  0.76151593952E+02  0.12805565909E+03  0.00000000000E+00 0. -1.
<mgrwt>
<rscale>  0 0.30428399E+03</rscale>
<asrwt>0</asrwt>
<pdfrwt beam="1">  1        4 0.84660262E-01 0.30686246E+03</pdfrwt>
<pdfrwt beam="2">  1       -4 0.27807191E-01 0.30686246E+03</pdfrwt>
<totfact> 0.28447354E+01</totfact>
</mgrwt>
</event>
<event>
 8    1  0.7550631E-006  0.1642348E+03  0.7546771E-02  0.1190159E+00
          2   -1    0    0  501    0  0.00000000000E+00  0.00000000000E+00  0.40069328545E+02  0.40069328545E+02  0.00000000000E+00 0.  1.
         -2   -1    0    0    0  501 -0.00000000000E+00 -0.00000000000E+00 -0.63863189406E+03  0.63863189406E+03  0.00000000000E+00 0. -1.
         23    2    1    2    0    0  0.10455268571E+03  0.21109994828E+02 -0.37400560589E+03  0.40049466349E+03  0.95597522324E+02 0.  0.
         23    2    1    2    0    0 -0.10455268571E+03 -0.21109994828E+02 -0.22455695962E+03  0.27820655911E+03  0.12488460853E+03 0.  0.
          5    1    4    4  502    0  0.18890303206E+02  0.29839895421E+01  0.12063796871E+01  0.19730511923E+02  0.47000000000E+01 0. -1.
         -5    1    4    4    0  502 -0.12344298892E+03 -0.24093984370E+02 -0.22576333931E+03  0.25847604719E+03  0.47000000000E+01 0. -1.
        -11    1    3    3    0    0  0.19318377876E+02  0.38007206562E+02 -0.21604483159E+03  0.22021152725E+03  0.00000000000E+00 0. -1.
         11    1    3    3    0    0  0.85234307835E+02 -0.16897211735E+02 -0.15796077430E+03  0.18028313624E+03  0.00000000000E+00 0.  1.
<mgrwt>
<rscale>  0 0.15871203E+03</rscale>
<asrwt>0</asrwt>
<pdfrwt beam="1">  1        2 0.61645122E-02 0.16423478E+03</pdfrwt>
<pdfrwt beam="2">  1       -2 0.98251059E-01 0.16423478E+03</pdfrwt>
<totfact> 0.10440134E+03</totfact>
</mgrwt>
</event>
<event>
 8    1  0.7550631E-006  0.1618938E+03  0.7546771E-02  0.1192578E+00
         -2   -1    0    0    0  501 -0.00000000000E+00  0.00000000000E+00  0.37379509568E+02  0.37379509568E+02  0.00000000000E+00 0.  1.
          2   -1    0    0  501    0  0.00000000000E+00 -0.00000000000E+00 -0.68944410330E+03  0.68944410330E+03  0.00000000000E+00 0. -1.
         23    2    1    2    0    0  0.99646714012E+02  0.25571549313E+02 -0.18891262225E+03  0.23619202968E+03  0.97546523711E+02 0.  0.
         23    2    1    2    0    0 -0.99646714012E+02 -0.25571549313E+02 -0.46315197148E+03  0.49063158320E+03  0.12500491987E+03 0.  0.
          5    1    4    4  502    0  0.16868149341E+02  0.28019242010E+02 -0.79846895137E+02  0.86413130067E+02  0.47000000000E+01 0.  1.
         -5    1    4    4    0  502 -0.11651486335E+03 -0.53590791323E+02 -0.38330507635E+03  0.40421845313E+03  0.47000000000E+01 0.  1.
        -11    1    3    3    0    0  0.29226642708E+02 -0.65376674621E+01 -0.14321489758E+03  0.14631283139E+03  0.00000000000E+00 0. -1.
         11    1    3    3    0    0  0.70420071305E+02  0.32109216775E+02 -0.45697724671E+02  0.89879198286E+02  0.00000000000E+00 0.  1.
<mgrwt>
<rscale>  0 0.15660969E+03</rscale>
<asrwt>0</asrwt>
<pdfrwt beam="2">  1        2 0.10606833E+00 0.16189380E+03</pdfrwt>
<pdfrwt beam="1">  1       -2 0.57506936E-02 0.16189380E+03</pdfrwt>
<totfact> 0.65708697E+03</totfact>
</mgrwt>
</event>
<event>
 8    1  0.7550631E-006  0.1423586E+03  0.7546771E-02  0.1221036E+00
         -2   -1    0    0    0  501 -0.00000000000E+00  0.00000000000E+00  0.23091495870E+02  0.23091495870E+02  0.00000000000E+00 0.  1.
          2   -1    0    0  501    0  0.00000000000E+00 -0.00000000000E+00 -0.10746568645E+04  0.10746568645E+04  0.00000000000E+00 0. -1.
         23    2    1    2    0    0  0.64337900097E+02  0.22402591075E+02 -0.16659412791E+03  0.20140018149E+03  0.90372496769E+02 0.  0.
         23    2    1    2    0    0 -0.64337900097E+02 -0.22402591075E+02 -0.88497124070E+03  0.89634817887E+03  0.12499887765E+03 0.  0.
          5    1    4    4  502    0 -0.94875017207E+02  0.12097252617E+02 -0.56916797592E+03  0.57716712244E+03  0.47000000000E+01 0.  1.
         -5    1    4    4    0  502  0.30537117110E+02 -0.34499843692E+02 -0.31580326478E+03  0.31918105642E+03  0.47000000000E+01 0.  1.
        -11    1    3    3    0    0 -0.10933711242E+02  0.19968875318E+02 -0.94287833712E+02  0.96997410322E+02  0.00000000000E+00 0. -1.
         11    1    3    3    0    0  0.75271611339E+02  0.24337157561E+01 -0.72306294201E+02  0.10440277117E+03  0.00000000000E+00 0.  1.
<mgrwt>
<rscale>  0 0.13442334E+03</rscale>
<asrwt>0</asrwt>
<pdfrwt beam="2">  1        2 0.16533183E+00 0.14235856E+03</pdfrwt>
<pdfrwt beam="1">  1       -2 0.35525377E-02 0.14235856E+03</pdfrwt>
<totfact> 0.75640852E+03</totfact>
</mgrwt>
</event>
<event>
 8    1  0.7550631E-006  0.1805737E+03  0.7546771E-02  0.1172926E+00
          2   -1    0    0  501    0  0.00000000000E+00  0.00000000000E+00  0.18824750064E+03  0.18824750064E+03  0.00000000000E+00 0. -1.
         -2   -1    0    0    0  501 -0.00000000000E+00 -0.00000000000E+00 -0.15283369770E+03  0.15283369770E+03  0.00000000000E+00 0.  1.
         23    2    1    2    0    0  0.11265783406E+03 -0.65498741139E+02  0.20149834795E+02  0.15986353600E+03  0.90379542112E+02 0.  0.
         23    2    1    2    0    0 -0.11265783406E+03  0.65498741139E+02  0.15263968139E+02  0.18121766235E+03  0.12499991902E+03 0.  0.
          5    1    4    4  502    0 -0.12786795375E+03  0.56323162238E+02 -0.20221684924E+02  0.14125692458E+03  0.47000000000E+01 0.  1.
         -5    1    4    4    0  502  0.15210119690E+02  0.91755789009E+01  0.35485653063E+02  0.39960737762E+02  0.47000000000E+01 0.  1.
        -11    1    3    3    0    0  0.11453728491E+03 -0.79434173714E+02  0.54088062333E+01  0.13949133583E+03  0.00000000000E+00 0.  1.
         11    1    3    3    0    0 -0.18794508412E+01  0.13935432575E+02  0.14741028562E+02  0.20372200165E+02  0.00000000000E+00 0. -1.
<mgrwt>
<rscale>  0 0.17480699E+03</rscale>
<asrwt>0</asrwt>
<pdfrwt beam="1">  1        2 0.28961154E-01 0.18057368E+03</pdfrwt>
<pdfrwt beam="2">  1       -2 0.23512877E-01 0.18057368E+03</pdfrwt>
<totfact> 0.28314873E+03</totfact>
</mgrwt>
</event>
<event>
 7    1  0.7550631E-006  0.2258453E+03  0.7546771E-02  0.1136403E+00
         -2   -1    0    0    0  501 -0.00000000000E+00  0.00000000000E+00  0.56293427457E+02  0.56293427457E+02  0.00000000000E+00 0. -1.
          2   -1    0    0  501    0  0.00000000000E+00 -0.00000000000E+00 -0.12270922638E+04  0.12270922638E+04  0.00000000000E+00 0.  1.
         23    2    1    2    0    0  0.15217052500E+03 -0.71511849435E+02 -0.16517368925E+03  0.25271209934E+03  0.91166025700E+02 0.  0.
          5    1    1    2  502    0 -0.16286702656E+03  0.24507003017E+02 -0.89302616871E+03  0.90809916283E+03  0.47000000000E+01 0.  1.
         -5    1    1    2    0  502  0.10696501550E+02  0.47004846418E+02 -0.11259897835E+03  0.12257442905E+03  0.47000000000E+01 0. -1.
        -11    1    3    3    0    0  0.63685129406E+02  0.15586295291E+02 -0.42271216240E+02  0.78010153383E+02  0.00000000000E+00 0.  1.
         11    1    3    3    0    0  0.88485395599E+02 -0.87098144726E+02 -0.12290247301E+03  0.17470194596E+03  0.00000000000E+00 0. -1.
<mgrwt>
<rscale>  0 0.21665334E+03</rscale>
<asrwt>0</asrwt>
<pdfrwt beam="2">  1        2 0.18878341E+00 0.22584534E+03</pdfrwt>
<pdfrwt beam="1">  1       -2 0.86605279E-02 0.22584534E+03</pdfrwt>
<totfact> 0.16106082E+03</totfact>
</mgrwt>
</event>
<event>
 8    1  0.7550631E-006  0.1414914E+03  0.7546771E-02  0.1221799E+00
          4   -1    0    0  501    0  0.00000000000E+00  0.00000000000E+00  0.94685683437E+02  0.94685683437E+02  0.00000000000E+00 0. -1.
         -4   -1    0    0    0  501 -0.00000000000E+00 -0.00000000000E+00 -0.18310361461E+03  0.18310361461E+03  0.00000000000E+00 0.  1.
         23    2    1    2    0    0 -0.54156109511E+02 -0.38229391239E+02 -0.50240966215E+01  0.11355060529E+03  0.92055026278E+02 0.  0.
         23    2    1    2    0    0  0.54156109511E+02  0.38229391239E+02 -0.83393834550E+02  0.16423869275E+03  0.12500178401E+03 0.  0.
          5    1    4    4  502    0  0.74328406571E+02  0.61751231577E+02 -0.90081232973E+02  0.13219169852E+03  0.47000000000E+01 0.  1.
         -5    1    4    4    0  502 -0.20172297060E+02 -0.23521840338E+02  0.66873984226E+01  0.32046994230E+02  0.47000000000E+01 0.  1.
        -11    1    3    3    0    0 -0.22005684468E+02  0.21754652637E+02  0.24398873223E+02  0.39405838080E+02  0.00000000000E+00 0. -1.
         11    1    3    3    0    0 -0.32150425043E+02 -0.59984043877E+02 -0.29422969844E+02  0.74144767211E+02  0.00000000000E+00 0.  1.
<mgrwt>
<rscale>  0 0.13388703E+03</rscale>
<asrwt>0</asrwt>
<pdfrwt beam="1">  1        4 0.14567028E-01 0.14149140E+03</pdfrwt>
<pdfrwt beam="2">  1       -4 0.28169787E-01 0.14149140E+03</pdfrwt>
<totfact> 0.79266446E+02</totfact>
</mgrwt>
</event>
<event>
 8    1  0.7550631E-006  0.1580338E+03  0.7546771E-02  0.1198550E+00
         -4   -1    0    0    0  501 -0.00000000000E+00  0.00000000000E+00  0.21249826381E+03  0.21249826381E+03  0.00000000000E+00 0.  1.
          4   -1    0    0  501    0  0.00000000000E+00 -0.00000000000E+00 -0.10039542127E+03  0.10039542127E+03  0.00000000000E+00 0. -1.
         23    2    1    2    0    0  0.46553791484E+01  0.96540107815E+02  0.58970242506E+02  0.14616705212E+03  0.92442699291E+02 0.  0.
         23    2    1    2    0    0 -0.46553791484E+01 -0.96540107815E+02  0.53132600030E+02  0.16672663295E+03  0.12503212379E+03 0.  0.
          5    1    4    4  502    0  0.29974562920E+02 -0.41306147945E+02  0.80854044448E+02  0.95729508428E+02  0.47000000000E+01 0.  1.
         -5    1    4    4    0  502 -0.34629942068E+02 -0.55233959870E+02 -0.27721444417E+02  0.70997124527E+02  0.47000000000E+01 0.  1.
        -11    1    3    3    0    0 -0.11344561752E+01  0.80493017934E+02  0.83696242188E+02  0.11612697311E+03  0.00000000000E+00 0.  1.
         11    1    3    3    0    0  0.57898353236E+01  0.16047089880E+02 -0.24725999682E+02  0.30040079011E+02  0.00000000000E+00 0. -1.
<mgrwt>
<rscale>  0 0.15157610E+03</rscale>
<asrwt>0</asrwt>
<pdfrwt beam="2">  1        4 0.15445449E-01 0.15803385E+03</pdfrwt>
<pdfrwt beam="1">  1       -4 0.32692041E-01 0.15803385E+03</pdfrwt>
<totfact> 0.55118275E+02</totfact>
</mgrwt>
</event>
<event>
 8    1  0.7550631E-006  0.1298597E+03  0.7546771E-02  0.1242115E+00
          1   -1    0    0  501    0  0.00000000000E+00  0.00000000000E+00  0.27023700902E+02  0.27023700902E+02  0.00000000000E+00 0. -1.
         -1   -1    0    0    0  501 -0.00000000000E+00 -0.00000000000E+00 -0.47494384887E+03  0.47494384887E+03  0.00000000000E+00 0.  1.
         23    2    1    2    0    0  0.32912060490E+02 -0.12530975305E+02 -0.19960686532E+03  0.22174793898E+03  0.89938972023E+02 0.  0.
         23    2    1    2    0    0 -0.32912060490E+02  0.12530975305E+02 -0.24831328264E+03  0.28021961079E+03  0.12499325929E+03 0.  0.
          5    1    4    4  502    0 -0.50561547774E+02  0.16719199989E+02 -0.30395776620E+02  0.61497926778E+02  0.47000000000E+01 0. -1.
         -5    1    4    4    0  502  0.17649487285E+02 -0.41882246845E+01 -0.21791750602E+03  0.21872168401E+03  0.47000000000E+01 0. -1.
        -11    1    3    3    0    0 -0.29776984034E+02 -0.14718179804E+02 -0.57333271647E+02  0.66260075707E+02  0.00000000000E+00 0. -1.
         11    1    3    3    0    0  0.62689044523E+02  0.21872044991E+01 -0.14227359368E+03  0.15548786327E+03  0.00000000000E+00 0.  1.
<mgrwt>
<rscale>  0 0.12059704E+03</rscale>
<asrwt>0</asrwt>
<pdfrwt beam="1">  1        1 0.41574922E-02 0.12985971E+03</pdfrwt>
<pdfrwt beam="2">  1       -1 0.73068288E-01 0.12985971E+03</pdfrwt>
<totfact> 0.40462592E+03</totfact>
</mgrwt>
</event>
<event>
 8    1  0.7550631E-006  0.1404852E+03  0.7546771E-02  0.1223969E+00
          2   -1    0    0  501    0  0.00000000000E+00  0.00000000000E+00  0.14688313285E+03  0.14688313285E+03  0.00000000000E+00 0.  1.
         -2   -1    0    0    0  501 -0.00000000000E+00 -0.00000000000E+00 -0.11483419581E+03  0.11483419581E+03  0.00000000000E+00 0. -1.
         23    2    1    2    0    0 -0.31983774185E+02 -0.55565761179E+02 -0.18744833722E+02  0.11233154821E+03  0.90313300817E+02 0.  0.
         23    2    1    2    0    0  0.31983774185E+02  0.55565761179E+02  0.50793770768E+02  0.14938578046E+03  0.12500235449E+03 0.  0.
          5    1    4    4  502    0 -0.17680548842E+02  0.45089591968E+02  0.77750994513E+02  0.91722299682E+02  0.47000000000E+01 0. -1.
         -5    1    4    4    0  502  0.49664323027E+02  0.10476169211E+02 -0.26957223745E+02  0.57663480776E+02  0.47000000000E+01 0. -1.
        -11    1    3    3    0    0 -0.20132017777E+02 -0.17312207166E+02  0.35857057839E+02  0.44617701124E+02  0.00000000000E+00 0.  1.
         11    1    3    3    0    0 -0.11851756408E+02 -0.38253554012E+02 -0.54601891561E+02  0.67713847082E+02  0.00000000000E+00 0. -1.
<mgrwt>
<rscale>  0 0.13237786E+03</rscale>
<asrwt>0</asrwt>
<pdfrwt beam="1">  1        2 0.22597405E-01 0.14048525E+03</pdfrwt>
<pdfrwt beam="2">  1       -2 0.17666799E-01 0.14048525E+03</pdfrwt>
<totfact> 0.59790675E+03</totfact>
</mgrwt>
</event>
<event>
 7    1  0.7550631E-006  0.1212666E+03  0.7546771E-02  0.1284245E+00
          2   -1    0    0  501    0  0.00000000000E+00  0.00000000000E+00  0.33178624604E+03  0.33178624604E+03  0.00000000000E+00 0. -1.
         -2   -1    0    0    0  501 -0.00000000000E+00 -0.00000000000E+00 -0.23179760175E+02  0.23179760175E+02  0.00000000000E+00 0.  1.
         23    2    1    2    0    0 -0.27545234350E+02 -0.22316797587E+01  0.23962228531E+03  0.26855991051E+03  0.11807567738E+03 0.  0.
          5    1    3    3  502    0 -0.10457789429E+02  0.42606674080E+02  0.20373050737E+03  0.20845360075E+03  0.47000000000E+01 0. -1.
         -5    1    3    3    0  502 -0.17087444921E+02 -0.44838353839E+02  0.35891777941E+02  0.60106309757E+02  0.47000000000E+01 0.  1.
        -11    1    1    2    0    0  0.51884179150E+01  0.21311100249E+02  0.36633697343E+02  0.42697897551E+02  0.00000000000E+00 0. -1.
         11    1    1    2    0    0  0.22356816435E+02 -0.19079420490E+02  0.32350503211E+02  0.43708198148E+02  0.00000000000E+00 0.  1.
<mgrwt>
<rscale>  0 0.98145589E+02</rscale>
<asrwt>0</asrwt>
<pdfrwt beam="1">  1        2 0.51044035E-01 0.12126659E+03</pdfrwt>
<pdfrwt beam="2">  1       -2 0.35661172E-02 0.12126659E+03</pdfrwt>
<totfact> 0.29406226E+04</totfact>
</mgrwt>
</event>
<event>
 8    1  0.7550631E-006  0.1630670E+03  0.7546771E-02  0.1192440E+00
          1   -1    0    0  501    0  0.00000000000E+00  0.00000000000E+00  0.28016907549E+03  0.28016907549E+03  0.00000000000E+00 0. -1.
         -1   -1    0    0    0  501 -0.00000000000E+00 -0.00000000000E+00 -0.11144556435E+03  0.11144556435E+03  0.00000000000E+00 0.  1.
         23    2    1    2    0    0  0.10175416193E+03  0.24736573317E+02 -0.21780927572E+02  0.14085024820E+03  0.91643745464E+02 0.  0.
         23    2    1    2    0    0 -0.10175416193E+03 -0.24736573317E+02  0.19050443871E+03  0.25076439164E+03  0.12500012566E+03 0.  0.
          5    1    4    4  502    0 -0.18817636558E+02  0.27838106404E+02 -0.26491524932E+01  0.34031920644E+02  0.47000000000E+01 0.  1.
         -5    1    4    4    0  502 -0.82936525368E+02 -0.52574679721E+02  0.19315359121E+03  0.21673247099E+03  0.47000000000E+01 0.  1.
        -11    1    3    3    0    0  0.50683228843E+02  0.47923161299E+02 -0.41774671388E+02  0.81305241187E+02  0.00000000000E+00 0.  1.
         11    1    3    3    0    0  0.51070933082E+02 -0.23186587982E+02  0.19993743816E+02  0.59545007010E+02  0.00000000000E+00 0. -1.
<mgrwt>
<rscale>  0 0.15672922E+03</rscale>
<asrwt>0</asrwt>
<pdfrwt beam="1">  1        1 0.43102934E-01 0.16306698E+03</pdfrwt>
<pdfrwt beam="2">  1       -1 0.17145472E-01 0.16306698E+03</pdfrwt>
<totfact> 0.24283687E+03</totfact>
</mgrwt>
</event>
<event>
 8    1  0.7550631E-006  0.1596641E+03  0.7546771E-02  0.1196740E+00
          1   -1    0    0  501    0  0.00000000000E+00  0.00000000000E+00  0.17947325775E+04  0.17947325775E+04  0.00000000000E+00 0. -1.
         -1   -1    0    0    0  501 -0.00000000000E+00 -0.00000000000E+00 -0.14169842422E+02  0.14169842422E+02  0.00000000000E+00 0.  1.
         23    2    1    2    0    0  0.99333122634E+02  0.99977512351E+00  0.48074965694E+03  0.49931978789E+03  0.91279510983E+02 0.  0.
         23    2    1    2    0    0 -0.99333122634E+02 -0.99977512351E+00  0.12998130782E+04  0.13095826321E+04  0.12499825290E+03 0.  0.
          5    1    4    4  502    0 -0.47997691509E+02 -0.12753586118E+02  0.14100856924E+03  0.14957252070E+03  0.47000000000E+01 0. -1.
         -5    1    4    4    0  502 -0.51335431125E+02  0.11753810994E+02  0.11588045089E+04  0.11600101114E+04  0.47000000000E+01 0. -1.
        -11    1    3    3    0    0  0.84905170751E+02 -0.34743293014E+02  0.39145634661E+03  0.40206225355E+03  0.00000000000E+00 0. -1.
         11    1    3    3    0    0  0.14427951883E+02  0.35743068137E+02  0.89293310337E+02  0.97257534342E+02  0.00000000000E+00 0.  1.
<mgrwt>
<rscale>  0 0.15307860E+03</rscale>
<asrwt>0</asrwt>
<pdfrwt beam="1">  1        1 0.27611252E+00 0.15966412E+03</pdfrwt>
<pdfrwt beam="2">  1       -1 0.21799772E-02 0.15966412E+03</pdfrwt>
<totfact> 0.27635943E+03</totfact>
</mgrwt>
</event>
<event>
 8    1  0.7550631E-006  0.1393312E+03  0.7546771E-02  0.1227234E+00
         -1   -1    0    0    0  501 -0.00000000000E+00  0.00000000000E+00  0.26102660429E+02  0.26102660429E+02  0.00000000000E+00 0.  1.
          1   -1    0    0  501    0  0.00000000000E+00 -0.00000000000E+00 -0.58005241027E+03  0.58005241027E+03  0.00000000000E+00 0. -1.
         23    2    1    2    0    0 -0.58553935702E+02 -0.19019645769E+02 -0.21721966769E+03  0.24173726440E+03  0.86384087965E+02 0.  0.
         23    2    1    2    0    0  0.58553935702E+02  0.19019645769E+02 -0.33673008215E+03  0.36441780630E+03  0.12499151577E+03 0.  0.
          5    1    4    4  502    0  0.39841999842E+02  0.76081895869E+01 -0.33939684945E+03  0.34184438114E+03  0.47000000000E+01 0.  1.
         -5    1    4    4    0  502  0.18711935860E+02  0.11411456182E+02  0.26667673006E+01  0.22573425164E+02  0.47000000000E+01 0.  1.
        -11    1    3    3    0    0  0.14094706490E+02  0.18490042802E+02 -0.63573443188E+02  0.67691396149E+02  0.00000000000E+00 0. -1.
         11    1    3    3    0    0 -0.72648642192E+02 -0.37509688571E+02 -0.15364622451E+03  0.17404586825E+03  0.00000000000E+00 0.  1.
<mgrwt>
<rscale>  0 0.13014952E+03</rscale>
<asrwt>0</asrwt>
<pdfrwt beam="2">  1        1 0.89238841E-01 0.13933122E+03</pdfrwt>
<pdfrwt beam="1">  1       -1 0.40157935E-02 0.13933122E+03</pdfrwt>
<totfact> 0.86422010E+03</totfact>
</mgrwt>
</event>
<event>
 8    1  0.7550631E-006  0.2242490E+03  0.7546771E-02  0.1133911E+00
          4   -1    0    0  501    0  0.00000000000E+00  0.00000000000E+00  0.20062887705E+03  0.20062887705E+03  0.00000000000E+00 0. -1.
         -4   -1    0    0    0  501 -0.00000000000E+00 -0.00000000000E+00 -0.23564751601E+03  0.23564751601E+03  0.00000000000E+00 0.  1.
         23    2    1    2    0    0 -0.18469030369E+03 -0.23496718645E+02 -0.42531836607E+02  0.21190158425E+03  0.91818953484E+02 0.  0.
         23    2    1    2    0    0  0.18469030369E+03  0.23496718645E+02  0.75131976507E+01  0.22437480881E+03  0.12500001051E+03 0.  0.
          5    1    4    4  502    0  0.67130258254E+02  0.70124236004E+02 -0.41719028730E+01  0.97279878814E+02  0.47000000000E+01 0.  1.
         -5    1    4    4    0  502  0.11756004543E+03 -0.46627517360E+02  0.11685100524E+02  0.12709493000E+03  0.47000000000E+01 0.  1.
        -11    1    3    3    0    0 -0.16189764086E+03 -0.37930726872E+02 -0.63229982738E+02  0.17789777085E+03  0.00000000000E+00 0.  1.
         11    1    3    3    0    0 -0.22792662828E+02  0.14434008228E+02  0.20698146131E+02  0.34003813398E+02  0.00000000000E+00 0. -1.
<mgrwt>
<rscale>  0 0.21996274E+03</rscale>
<asrwt>0</asrwt>
<pdfrwt beam="1">  1        4 0.30865981E-01 0.22424898E+03</pdfrwt>
<pdfrwt beam="2">  1       -4 0.36253464E-01 0.22424898E+03</pdfrwt>
<totfact> 0.13419511E+02</totfact>
</mgrwt>
</event>
<event>
 8    1  0.7550631E-006  0.1341265E+03  0.7546771E-02  0.1234224E+00
         -2   -1    0    0    0  501 -0.00000000000E+00  0.00000000000E+00  0.27200394940E+02  0.27200394940E+02  0.00000000000E+00 0.  1.
          2   -1    0    0  501    0  0.00000000000E+00 -0.00000000000E+00 -0.10675355338E+04  0.10675355338E+04  0.00000000000E+00 0. -1.
         23    2    1    2    0    0  0.23280676363E+02 -0.39764815478E+02 -0.95482861472E+02  0.14041117367E+03  0.92060254268E+02 0.  0.
         23    2    1    2    0    0 -0.23280676363E+02  0.39764815478E+02 -0.94485227735E+03  0.95432475503E+03  0.12596301680E+03 0.  0.
          5    1    4    4  502    0 -0.46001420380E+02  0.19133503487E+02 -0.88912430738E+03  0.89053149613E+03  0.47000000000E+01 0. -1.
         -5    1    4    4    0  502  0.22720744017E+02  0.20631311992E+02 -0.55727969974E+02  0.63793258896E+02  0.47000000000E+01 0.  1.
        -11    1    3    3    0    0  0.31387226110E+02  0.39640273490E+00  0.51023083140E+01  0.31801708259E+02  0.00000000000E+00 0.  1.
         11    1    3    3    0    0 -0.81065497471E+01 -0.40161218213E+02 -0.10058516979E+03  0.10860946542E+03  0.00000000000E+00 0. -1.
<mgrwt>
<rscale>  0 0.12554243E+03</rscale>
<asrwt>0</asrwt>
<pdfrwt beam="2">  1        2 0.16423620E+00 0.13412648E+03</pdfrwt>
<pdfrwt beam="1">  1       -2 0.41846770E-02 0.13412648E+03</pdfrwt>
<totfact> 0.59732606E+03</totfact>
</mgrwt>
</event>
<event>
 8    1  0.7550631E-006  0.2539596E+03  0.7546771E-02  0.1113342E+00
         -2   -1    0    0    0  501 -0.00000000000E+00  0.00000000000E+00  0.56384624671E+02  0.56384624671E+02  0.00000000000E+00 0.  1.
          2   -1    0    0  501    0  0.00000000000E+00 -0.00000000000E+00 -0.13291770888E+04  0.13291770888E+04  0.00000000000E+00 0. -1.
         23    2    1    2    0    0 -0.23756674644E+02 -0.21978675702E+03 -0.31671826554E+03  0.39633304573E+03  0.88875335511E+02 0.  0.
         23    2    1    2    0    0  0.23756674644E+02  0.21978675702E+03 -0.95607419861E+03  0.98922866776E+03  0.12499954288E+03 0.  0.
          5    1    4    4  502    0 -0.14091654388E+02  0.33062318913E+02 -0.39522962351E+03  0.39688819201E+03  0.47000000000E+01 0. -1.
         -5    1    4    4    0  502  0.37848329032E+02  0.18672443810E+03 -0.56084457509E+03  0.59234047575E+03  0.47000000000E+01 0. -1.
        -11    1    3    3    0    0 -0.25631949466E+02 -0.14932049355E+03 -0.14084771148E+03  0.20686151033E+03  0.00000000000E+00 0.  1.
         11    1    3    3    0    0  0.18752748223E+01 -0.70466263470E+02 -0.17587055405E+03  0.18947153540E+03  0.00000000000E+00 0. -1.
<mgrwt>
<rscale>  0 0.24994117E+03</rscale>
<asrwt>0</asrwt>
<pdfrwt beam="2">  1        2 0.20448875E+00 0.25395961E+03</pdfrwt>
<pdfrwt beam="1">  1       -2 0.86745589E-02 0.25395961E+03</pdfrwt>
<totfact> 0.14087520E+03</totfact>
</mgrwt>
</event>
<event>
 7    1  0.7550631E-006  0.1552122E+03  0.7546771E-02  0.1204367E+00
         -1   -1    0    0    0  501 -0.00000000000E+00  0.00000000000E+00  0.45543908908E+03  0.45543908908E+03  0.00000000000E+00 0.  1.
          1   -1    0    0  501    0  0.00000000000E+00 -0.00000000000E+00 -0.49217995850E+02  0.49217995850E+02  0.00000000000E+00 0. -1.
         23    2    1    2    0    0 -0.73373830024E+02  0.41533576446E+02  0.27331701423E+03  0.30031834304E+03  0.91543213791E+02 0.  0.
          5    1    1    2  502    0  0.59408954023E+02 -0.35109113486E+02 -0.12956332442E+01  0.69179782693E+02  0.47000000000E+01 0. -1.
         -5    1    1    2    0  502  0.13964876001E+02 -0.64244629600E+01  0.13419971224E+03  0.13515895920E+03  0.47000000000E+01 0.  1.
        -11    1    3    3    0    0  0.17315424006E+02  0.26627599939E+02  0.56283422646E+02  0.64627212935E+02  0.00000000000E+00 0. -1.
         11    1    3    3    0    0 -0.90689254030E+02  0.14905976507E+02  0.21703359158E+03  0.23569113010E+03  0.00000000000E+00 0.  1.
<mgrwt>
<rscale>  0 0.14687471E+03</rscale>
<asrwt>0</asrwt>
<pdfrwt beam="2">  1        1 0.75719997E-02 0.15521220E+03</pdfrwt>
<pdfrwt beam="1">  1       -1 0.70067549E-01 0.15521220E+03</pdfrwt>
<totfact> 0.19615648E+03</totfact>
</mgrwt>
</event>
<event>
 8    1  0.7550631E-006  0.1254255E+03  0.7546771E-02  0.1248124E+00
         -1   -1    0    0    0  501 -0.00000000000E+00  0.00000000000E+00  0.37426956890E+02  0.37426956890E+02  0.00000000000E+00 0.  1.
          1   -1    0    0  501    0  0.00000000000E+00 -0.00000000000E+00 -0.32601262952E+03  0.32601262952E+03  0.00000000000E+00 0. -1.
         23    2    1    2    0    0  0.21189177661E+02 -0.20731220703E+02 -0.11215973985E+03  0.14697328902E+03  0.90236221553E+02 0.  0.
         23    2    1    2    0    0 -0.21189177661E+02  0.20731220703E+02 -0.17642593277E+03  0.21646629738E+03  0.12187199591E+03 0.  0.
          5    1    4    4  502    0  0.21476543319E+02  0.33997437611E+02 -0.16529468758E+03  0.17018076101E+03  0.47000000000E+01 0. -1.
         -5    1    4    4    0  502 -0.42665720980E+02 -0.13266216907E+02 -0.11131245194E+02  0.46285536373E+02  0.47000000000E+01 0.  1.
        -11    1    3    3    0    0 -0.15384652651E+02 -0.80351350020E+01  0.91604662662E+01  0.19625622892E+02  0.00000000000E+00 0.  1.
         11    1    3    3    0    0  0.36573830312E+02 -0.12696085701E+02 -0.12132020612E+03  0.12734766613E+03  0.00000000000E+00 0. -1.
<mgrwt>
<rscale>  0 0.11700332E+03</rscale>
<asrwt>0</asrwt>
<pdfrwt beam="2">  1        1 0.50155789E-01 0.12542547E+03</pdfrwt>
<pdfrwt beam="1">  1       -1 0.57579934E-02 0.12542547E+03</pdfrwt>
<totfact> 0.10535123E+04</totfact>
</mgrwt>
</event>
<event>
 8    1  0.7550631E-006  0.1448979E+03  0.7546771E-02  0.1217024E+00
          2   -1    0    0  501    0  0.00000000000E+00  0.00000000000E+00  0.81736685227E+02  0.81736685227E+02  0.00000000000E+00 0. -1.
         -2   -1    0    0    0  501 -0.00000000000E+00 -0.00000000000E+00 -0.22816918617E+03  0.22816918617E+03  0.00000000000E+00 0.  1.
         23    2    1    2    0    0  0.27303318853E+02  0.68001370439E+02 -0.11016048386E+03  0.16053699873E+03  0.90923804112E+02 0.  0.
         23    2    1    2    0    0 -0.27303318853E+02 -0.68001370439E+02 -0.36272017081E+02  0.14936887267E+03  0.12500297315E+03 0.  0.
          5    1    4    4  502    0  0.13185184012E+01  0.18520789042E+02 -0.53213137754E+02  0.56555160217E+02  0.47000000000E+01 0.  1.
         -5    1    4    4    0  502 -0.28621837254E+02 -0.86522159481E+02  0.16941120672E+02  0.92813712450E+02  0.47000000000E+01 0.  1.
        -11    1    3    3    0    0  0.10047161686E+02  0.14907544131E+02  0.15049378374E+02  0.23444916707E+02  0.00000000000E+00 0. -1.
         11    1    3    3    0    0  0.17256157167E+02  0.53093826307E+02 -0.12520986223E+03  0.13709208202E+03  0.00000000000E+00 0.  1.
<mgrwt>
<rscale>  0 0.13728896E+03</rscale>
<asrwt>0</asrwt>
<pdfrwt beam="1">  1        2 0.12574875E-01 0.14489790E+03</pdfrwt>
<pdfrwt beam="2">  1       -2 0.35102951E-01 0.14489790E+03</pdfrwt>
<totfact> 0.35452804E+03</totfact>
</mgrwt>
</event>
<event>
 8    1  0.7550631E-006  0.1334752E+03  0.7546771E-02  0.1233031E+00
         -1   -1    0    0    0  501 -0.00000000000E+00  0.00000000000E+00  0.27237699234E+02  0.27237699234E+02  0.00000000000E+00 0.  1.
          1   -1    0    0  501    0  0.00000000000E+00 -0.00000000000E+00 -0.11721745825E+04  0.11721745825E+04  0.00000000000E+00 0. -1.
         23    2    1    2    0    0  0.25176270569E+02  0.39442173181E+02 -0.10165667593E+03  0.14762845375E+03  0.96283700445E+02 0.  0.
         23    2    1    2    0    0 -0.25176270569E+02 -0.39442173181E+02 -0.10432802073E+04  0.10517838280E+04  0.12500440055E+03 0.  0.
          5    1    4    4  502    0 -0.10179934952E+02 -0.56012215819E+02 -0.10088633736E+04  0.10104792902E+04  0.47000000000E+01 0. -1.
         -5    1    4    4    0  502 -0.14996335617E+02  0.16570042638E+02 -0.34416833794E+02  0.41304537806E+02  0.47000000000E+01 0. -1.
        -11    1    3    3    0    0  0.50330729741E+02  0.46030074674E+02 -0.36244464600E+02  0.77237370132E+02  0.00000000000E+00 0.  1.
         11    1    3    3    0    0 -0.25154459172E+02 -0.65879014928E+01 -0.65412211328E+02  0.70391083620E+02  0.00000000000E+00 0. -1.
<mgrwt>
<rscale>  0 0.12631325E+03</rscale>
<asrwt>0</asrwt>
<pdfrwt beam="2">  1        1 0.18033452E+00 0.13347520E+03</pdfrwt>
<pdfrwt beam="1">  1       -1 0.41904161E-02 0.13347520E+03</pdfrwt>
<totfact> 0.27179240E+03</totfact>
</mgrwt>
</event>
<event>
 8    1  0.7550631E-006  0.1397871E+03  0.7546771E-02  0.1224049E+00
          2   -1    0    0  501    0  0.00000000000E+00  0.00000000000E+00  0.78370792025E+02  0.78370792025E+02  0.00000000000E+00 0. -1.
         -2   -1    0    0    0  501 -0.00000000000E+00 -0.00000000000E+00 -0.20672593816E+03  0.20672593816E+03  0.00000000000E+00 0.  1.
         23    2    1    2    0    0 -0.56993792239E+02 -0.25802459836E+02 -0.37315928385E+02  0.11827776133E+03  0.93183104828E+02 0.  0.
         23    2    1    2    0    0  0.56993792239E+02  0.25802459836E+02 -0.91039217751E+02  0.16681896886E+03  0.12500547954E+03 0.  0.
          5    1    4    4  502    0 -0.99276899381E+01 -0.31022478648E+02  0.85223471875E+01  0.33995199816E+02  0.47000000000E+01 0. -1.
         -5    1    4    4    0  502  0.66921482177E+02  0.56824938483E+02 -0.99561564939E+02  0.13282376905E+03  0.47000000000E+01 0. -1.
        -11    1    3    3    0    0 -0.14041251299E+02  0.34723024963E+02 -0.18176052155E+02  0.41631887689E+02  0.00000000000E+00 0.  1.
         11    1    3    3    0    0 -0.42952540940E+02 -0.60525484799E+02 -0.19139876230E+02  0.76645873636E+02  0.00000000000E+00 0. -1.
<mgrwt>
<rscale>  0 0.13232269E+03</rscale>
<asrwt>0</asrwt>
<pdfrwt beam="1">  1        2 0.12057045E-01 0.13978709E+03</pdfrwt>
<pdfrwt beam="2">  1       -2 0.31803990E-01 0.13978709E+03</pdfrwt>
<totfact> 0.44584427E+03</totfact>
</mgrwt>
</event>
<event>
 8    1  0.7550631E-006  0.2063372E+03  0.7546771E-02  0.1148613E+00
         -1   -1    0    0    0  501 -0.00000000000E+00  0.00000000000E+00  0.77085375414E+02  0.77085375414E+02  0.00000000000E+00 0.  1.
          1   -1    0    0  501    0  0.00000000000E+00 -0.00000000000E+00 -0.56624735988E+03  0.56624735988E+03  0.00000000000E+00 0. -1.
         23    2    1    2    0    0 -0.58744999999E+02 -0.15327618664E+03 -0.12566811883E+03  0.22535806768E+03  0.89717435104E+02 0.  0.
         23    2    1    2    0    0  0.58744999999E+02  0.15327618664E+03 -0.36349386563E+03  0.41797466762E+03  0.12502187009E+03 0.  0.
          5    1    4    4  502    0  0.85214027163E+02  0.57124830990E+02 -0.22414318181E+03  0.24655006123E+03  0.47000000000E+01 0. -1.
         -5    1    4    4    0  502 -0.26469027165E+02  0.96151355649E+02 -0.13935068382E+03  0.17142460638E+03  0.47000000000E+01 0. -1.
        -11    1    3    3    0    0  0.78519894951E+01 -0.88696295659E+02 -0.88135849221E+02  0.12528613060E+03  0.00000000000E+00 0.  1.
         11    1    3    3    0    0 -0.66596989494E+02 -0.64579890980E+02 -0.37532269611E+02  0.10007193708E+03  0.00000000000E+00 0. -1.
<mgrwt>
<rscale>  0 0.20134089E+03</rscale>
<asrwt>0</asrwt>
<pdfrwt beam="2">  1        1 0.87114978E-01 0.20633718E+03</pdfrwt>
<pdfrwt beam="1">  1       -1 0.11859289E-01 0.20633718E+03</pdfrwt>
<totfact> 0.17698266E+03</totfact>
</mgrwt>
</event>
<event>
 8    1  0.7550631E-006  0.1773746E+03  0.7546771E-02  0.1178433E+00
          1   -1    0    0  501    0  0.00000000000E+00  0.00000000000E+00  0.28916566047E+03  0.28916566047E+03  0.00000000000E+00 0. -1.
         -1   -1    0    0    0  501 -0.00000000000E+00 -0.00000000000E+00 -0.10634203278E+03  0.10634203278E+03  0.00000000000E+00 0.  1.
         23    2    1    2    0    0  0.86735186467E+02  0.91176666847E+02  0.10287227965E+02  0.14805961703E+03  0.77328170721E+02 0.  0.
         23    2    1    2    0    0 -0.86735186467E+02 -0.91176666847E+02  0.17253639972E+03  0.24744807622E+03  0.12500225616E+03 0.  0.
          5    1    4    4  502    0 -0.44118903623E+02 -0.11849873871E+03  0.12356130681E+03  0.17685563399E+03  0.47000000000E+01 0. -1.
         -5    1    4    4    0  502 -0.42616282844E+02  0.27322071862E+02  0.48975092911E+02  0.70592442230E+02  0.47000000000E+01 0. -1.
        -11    1    3    3    0    0  0.22341543529E+02  0.35930516165E+01 -0.25045268696E+02  0.33753815655E+02  0.00000000000E+00 0.  1.
         11    1    3    3    0    0  0.64393642938E+02  0.87583615231E+02  0.35332496661E+02  0.11430580138E+03  0.00000000000E+00 0. -1.
<mgrwt>
<rscale>  0 0.16943963E+03</rscale>
<asrwt>0</asrwt>
<pdfrwt beam="1">  1        1 0.44487024E-01 0.17737458E+03</pdfrwt>
<pdfrwt beam="2">  1       -1 0.16360313E-01 0.17737458E+03</pdfrwt>
<totfact> 0.25227015E+03</totfact>
</mgrwt>
</event>
<event>
 8    1  0.7550631E-006  0.1297919E+03  0.7546771E-02  0.1241764E+00
          2   -1    0    0  501    0  0.00000000000E+00  0.00000000000E+00  0.11617326198E+03  0.11617326198E+03  0.00000000000E+00 0. -1.
         -2   -1    0    0    0  501 -0.00000000000E+00 -0.00000000000E+00 -0.11399102738E+03  0.11399102738E+03  0.00000000000E+00 0.  1.
         23    2    1    2    0    0  0.73220724431E+01  0.34166588821E+02 -0.17189867933E+02  0.98934677420E+02  0.90948393609E+02 0.  0.
         23    2    1    2    0    0 -0.73220724431E+01 -0.34166588821E+02  0.19372102528E+02  0.13122961194E+03  0.12499985663E+03 0.  0.
          5    1    4    4  502    0 -0.64718481457E+02 -0.12729940070E+02  0.22097450257E+02  0.69720302094E+02  0.47000000000E+01 0.  1.
         -5    1    4    4    0  502  0.57396409014E+02 -0.21436648751E+02 -0.27253477291E+01  0.61509309845E+02  0.47000000000E+01 0.  1.
        -11    1    3    3    0    0 -0.28810029727E+02  0.34430441722E+02  0.18120610571E+02  0.48413114520E+02  0.00000000000E+00 0. -1.
         11    1    3    3    0    0  0.36132102170E+02 -0.26385290130E+00 -0.35310478504E+02  0.50521562899E+02  0.00000000000E+00 0.  1.
<mgrwt>
<rscale>  0 0.12081161E+03</rscale>
<asrwt>0</asrwt>
<pdfrwt beam="1">  1        2 0.17872810E-01 0.12979188E+03</pdfrwt>
<pdfrwt beam="2">  1       -2 0.17537081E-01 0.12979188E+03</pdfrwt>
<totfact> 0.78455580E+03</totfact>
</mgrwt>
</event>
<event>
 8    1  0.7550631E-006  0.2417943E+03  0.7546771E-02  0.1121220E+00
          3   -1    0    0  501    0  0.00000000000E+00  0.00000000000E+00  0.97955696885E+02  0.97955696885E+02  0.00000000000E+00 0. -1.
         -3   -1    0    0    0  501 -0.00000000000E+00 -0.00000000000E+00 -0.59021384505E+03  0.59021384505E+03  0.00000000000E+00 0.  1.
         23    2    1    2    0    0  0.14770866992E+02  0.20644960330E+03 -0.31677342559E+03  0.38940646682E+03  0.91936804544E+02 0.  0.
         23    2    1    2    0    0 -0.14770866992E+02 -0.20644960330E+03 -0.17548472258E+03  0.29876307511E+03  0.12499947992E+03 0.  0.
          5    1    4    4  502    0 -0.29672745119E+02 -0.87801498856E+02 -0.83118924401E+01  0.93170556294E+02  0.47000000000E+01 0.  1.
         -5    1    4    4    0  502  0.14901878126E+02 -0.11864810444E+03 -0.16717283014E+03  0.20559251882E+03  0.47000000000E+01 0.  1.
        -11    1    3    3    0    0 -0.33622630618E+02  0.10229514052E+03 -0.11727230424E+03  0.15920920327E+03  0.00000000000E+00 0.  1.
         11    1    3    3    0    0  0.48393497611E+02  0.10415446277E+03 -0.19950112135E+03  0.23019726355E+03  0.00000000000E+00 0. -1.
<mgrwt>
<rscale>  0 0.23787059E+03</rscale>
<asrwt>0</asrwt>
<pdfrwt beam="1">  1        3 0.15070107E-01 0.24179431E+03</pdfrwt>
<pdfrwt beam="2">  1       -3 0.90802130E-01 0.24179431E+03</pdfrwt>
<totfact> 0.10292331E+02</totfact>
</mgrwt>
</event>
<event>
 8    1  0.7550631E-006  0.1424009E+03  0.7546771E-02  0.1220944E+00
          2   -1    0    0  501    0  0.00000000000E+00  0.00000000000E+00  0.10564351762E+04  0.10564351762E+04  0.00000000000E+00 0. -1.
         -2   -1    0    0    0  501 -0.00000000000E+00 -0.00000000000E+00 -0.17912214705E+02  0.17912214705E+02  0.00000000000E+00 0.  1.
         23    2    1    2    0    0  0.45942762344E+02  0.50422132469E+02  0.27102156700E+03  0.29374735353E+03  0.90452689698E+02 0.  0.
         23    2    1    2    0    0 -0.45942762344E+02 -0.50422132469E+02  0.76750139451E+03  0.78060003739E+03  0.12499959576E+03 0.  0.
          5    1    4    4  502    0 -0.23821400084E+02 -0.59626789206E+02  0.15804841615E+03  0.17065815228E+03  0.47000000000E+01 0.  1.
         -5    1    4    4    0  502 -0.22121362260E+02  0.92046567372E+01  0.60945297836E+03  0.60994188510E+03  0.47000000000E+01 0.  1.
        -11    1    3    3    0    0  0.26625348872E+02  0.46421670626E+02  0.26859154920E+03  0.27387095686E+03  0.00000000000E+00 0. -1.
         11    1    3    3    0    0  0.19317413472E+02  0.40004618425E+01  0.24300177932E+01  0.19876396672E+02  0.00000000000E+00 0.  1.
<mgrwt>
<rscale>  0 0.13448794E+03</rscale>
<asrwt>0</asrwt>
<pdfrwt beam="1">  1        2 0.16252844E+00 0.14240094E+03</pdfrwt>
<pdfrwt beam="2">  1       -2 0.27557262E-02 0.14240094E+03</pdfrwt>
<totfact> 0.11269927E+04</totfact>
</mgrwt>
</event>
<event>
 7    1  0.7550631E-006  0.2725096E+03  0.7546771E-02  0.1130223E+00
         -2   -1    0    0    0  501 -0.00000000000E+00  0.00000000000E+00  0.77226293341E+02  0.77226293341E+02  0.00000000000E+00 0.  1.
          2   -1    0    0  501    0  0.00000000000E+00 -0.00000000000E+00 -0.51751715929E+03  0.51751715929E+03  0.00000000000E+00 0. -1.
         23    2    1    2    0    0 -0.23265135468E+02 -0.83112193940E+02 -0.12337846134E+03  0.17677817719E+03  0.92624920505E+02 0.  0.
          5    1    1    2  502    0 -0.62863569634E+02  0.11174994251E+03 -0.29895106940E+03  0.32532093375E+03  0.47000000000E+01 0. -1.
         -5    1    1    2    0  502  0.86128705102E+02 -0.28637748570E+02 -0.17961335212E+02  0.92644341696E+02  0.47000000000E+01 0.  1.
        -11    1    3    3    0    0  0.26847582742E+02 -0.68445699496E+02 -0.61832421702E+02  0.96066929024E+02  0.00000000000E+00 0.  1.
         11    1    3    3    0    0 -0.50112718210E+02 -0.14666494445E+02 -0.61546039640E+02  0.80711248169E+02  0.00000000000E+00 0. -1.
<mgrwt>
<rscale>  0 0.22498173E+03</rscale>
<asrwt>0</asrwt>
<pdfrwt beam="2">  1        2 0.79618024E-01 0.27250963E+03</pdfrwt>
<pdfrwt beam="1">  1       -2 0.11880968E-01 0.27250963E+03</pdfrwt>
<totfact> 0.29980001E+03</totfact>
</mgrwt>
</event>
<event>
 8    1  0.7550631E-006  0.1629703E+03  0.7546771E-02  0.1192647E+00
         -2   -1    0    0    0  501 -0.00000000000E+00  0.00000000000E+00  0.26765251804E+02  0.26765251804E+02  0.00000000000E+00 0. -1.
          2   -1    0    0  501    0  0.00000000000E+00 -0.00000000000E+00 -0.88052529996E+03  0.88052529996E+03  0.00000000000E+00 0.  1.
         23    2    1    2    0    0  0.61703970778E+02  0.84431313883E+02 -0.31018897097E+03  0.33981470828E+03  0.91218482117E+02 0.  0.
         23    2    1    2    0    0 -0.61703970778E+02 -0.84431313883E+02 -0.54357107718E+03  0.56747584348E+03  0.12499316065E+03 0.  0.
          5    1    4    4  502    0 -0.30780878026E+02  0.31227262997E+01 -0.36326632439E+03  0.36461174735E+03  0.47000000000E+01 0. -1.
         -5    1    4    4    0  502 -0.30923092752E+02 -0.87554040183E+02 -0.18030475279E+03  0.20286409613E+03  0.47000000000E+01 0. -1.
        -11    1    3    3    0    0  0.56998288823E+02  0.42913314014E+01 -0.15265558612E+03  0.16300597666E+03  0.00000000000E+00 0. -1.
         11    1    3    3    0    0  0.47056819548E+01  0.80139982482E+02 -0.15753338485E+03  0.17680873162E+03  0.00000000000E+00 0.  1.
<mgrwt>
<rscale>  0 0.15655050E+03</rscale>
<asrwt>0</asrwt>
<pdfrwt beam="2">  1        2 0.13546542E+00 0.16297029E+03</pdfrwt>
<pdfrwt beam="1">  1       -2 0.41177314E-02 0.16297029E+03</pdfrwt>
<totfact> 0.80213683E+03</totfact>
</mgrwt>
</event>
<event>
 8    1  0.7550631E-006  0.1275050E+03  0.7546771E-02  0.1245548E+00
          3   -1    0    0  501    0  0.00000000000E+00  0.00000000000E+00  0.79087963038E+02  0.79087963038E+02  0.00000000000E+00 0. -1.
         -3   -1    0    0    0  501 -0.00000000000E+00 -0.00000000000E+00 -0.16692287674E+03  0.16692287674E+03  0.00000000000E+00 0.  1.
         23    2    1    2    0    0 -0.17777928706E+02  0.17794383266E+02 -0.67936739525E+02  0.11696253850E+03  0.91826684633E+02 0.  0.
         23    2    1    2    0    0  0.17777928706E+02 -0.17794383266E+02 -0.19898174181E+02  0.12904830128E+03  0.12499932761E+03 0.  0.
          5    1    4    4  502    0 -0.24279247917E+02  0.39784313275E+02  0.15449424842E+02  0.49325938310E+02  0.47000000000E+01 0. -1.
         -5    1    4    4    0  502  0.42057176623E+02 -0.57578696541E+02 -0.35347599023E+02  0.79722362971E+02  0.47000000000E+01 0. -1.
        -11    1    3    3    0    0  0.14596907861E+02  0.43803107558E+02 -0.12755860141E+02  0.47900875971E+02  0.00000000000E+00 0. -1.
         11    1    3    3    0    0 -0.32374836567E+02 -0.26008724292E+02 -0.55180879384E+02  0.69061662532E+02  0.00000000000E+00 0.  1.
<mgrwt>
<rscale>  0 0.11852649E+03</rscale>
<asrwt>0</asrwt>
<pdfrwt beam="1">  1        3 0.12167379E-01 0.12750501E+03</pdfrwt>
<pdfrwt beam="2">  1       -3 0.25680443E-01 0.12750501E+03</pdfrwt>
<totfact> 0.17237931E+03</totfact>
</mgrwt>
</event>
<event>
 8    1  0.7550631E-006  0.3320214E+03  0.7546771E-02  0.1071572E+00
         -2   -1    0    0    0  501 -0.00000000000E+00  0.00000000000E+00  0.55166148059E+02  0.55166148059E+02  0.00000000000E+00 0.  1.
          2   -1    0    0  501    0  0.00000000000E+00 -0.00000000000E+00 -0.23435865125E+04  0.23435865125E+04  0.00000000000E+00 0. -1.
         23    2    1    2    0    0 -0.14775268860E+02 -0.30723665443E+03 -0.62186858699E+03  0.69944895899E+03  0.88857393347E+02 0.  0.
         23    2    1    2    0    0  0.14775268860E+02  0.30723665443E+03 -0.16665517774E+04  0.16993037015E+04  0.12500229131E+03 0.  0.
          5    1    4    4  502    0 -0.22670948951E+01  0.11357940912E+03 -0.33837782507E+03  0.35696927654E+03  0.47000000000E+01 0.  1.
         -5    1    4    4    0  502  0.17042363755E+02  0.19365724532E+03 -0.13281739524E+04  0.13423344250E+04  0.47000000000E+01 0.  1.
        -11    1    3    3    0    0  0.10753984188E+02 -0.13337014374E+02 -0.86508149032E+02  0.88188343772E+02  0.00000000000E+00 0. -1.
         11    1    3    3    0    0 -0.25529253048E+02 -0.29389964006E+03 -0.53536043796E+03  0.61126061522E+03  0.00000000000E+00 0.  1.
<mgrwt>
<rscale>  0 0.32901787E+03</rscale>
<asrwt>0</asrwt>
<pdfrwt beam="2">  1        2 0.36055178E+00 0.33202145E+03</pdfrwt>
<pdfrwt beam="1">  1       -2 0.84870996E-02 0.33202145E+03</pdfrwt>
<totfact> 0.41576506E+02</totfact>
</mgrwt>
</event>
<event>
 8    1  0.7550631E-006  0.1269893E+03  0.7546771E-02  0.1247805E+00
         -2   -1    0    0    0  501 -0.00000000000E+00  0.00000000000E+00  0.53269623852E+02  0.53269623852E+02  0.00000000000E+00 0.  1.
          2   -1    0    0  501    0  0.00000000000E+00 -0.00000000000E+00 -0.22530884553E+03  0.22530884553E+03  0.00000000000E+00 0. -1.
         23    2    1    2    0    0  0.11472404473E+02 -0.19679390334E+02 -0.70595224550E+02  0.11604489909E+03  0.89240340698E+02 0.  0.
         23    2    1    2    0    0 -0.11472404473E+02  0.19679390334E+02 -0.10144399713E+03  0.16253357029E+03  0.12492950992E+03 0.  0.
          5    1    4    4  502    0 -0.12238101328E+02 -0.17332533412E+02  0.23575384122E+02  0.32063633218E+02  0.47000000000E+01 0.  1.
         -5    1    4    4    0  502  0.76569685492E+00  0.37011923746E+02 -0.12501938125E+03  0.13046993707E+03  0.47000000000E+01 0.  1.
        -11    1    3    3    0    0 -0.20171161405E+02 -0.47397587148E+00 -0.76003589142E+02  0.78636161962E+02  0.00000000000E+00 0. -1.
         11    1    3    3    0    0  0.31643565878E+02 -0.19205414463E+02  0.54083645927E+01  0.37408737131E+02  0.00000000000E+00 0.  1.
<mgrwt>
<rscale>  0 0.11719046E+03</rscale>
<asrwt>0</asrwt>
<pdfrwt beam="2">  1        2 0.34662899E-01 0.12698928E+03</pdfrwt>
<pdfrwt beam="1">  1       -2 0.81953267E-02 0.12698928E+03</pdfrwt>
<totfact> 0.12713448E+04</totfact>
</mgrwt>
</event>
<event>
 8    1  0.7550631E-006  0.1367722E+03  0.7546771E-02  0.1230159E+00
         -2   -1    0    0    0  501 -0.00000000000E+00  0.00000000000E+00  0.15962064199E+02  0.15962064199E+02  0.00000000000E+00 0.  1.
          2   -1    0    0  501    0  0.00000000000E+00 -0.00000000000E+00 -0.92171631955E+03  0.92171631955E+03  0.00000000000E+00 0. -1.
         23    2    1    2    0    0  0.35729439442E+02  0.42442248613E+02 -0.37311488353E+03  0.38775900480E+03  0.89801960879E+02 0.  0.
         23    2    1    2    0    0 -0.35729439442E+02 -0.42442248613E+02 -0.53263937182E+03  0.54991937895E+03  0.12501474163E+03 0.  0.
          5    1    4    4  502    0  0.16873221618E+02 -0.69517227303E+02 -0.36780403144E+03  0.37472556097E+03  0.47000000000E+01 0.  1.
         -5    1    4    4    0  502 -0.52602661060E+02  0.27074978689E+02 -0.16483534037E+03  0.17519381798E+03  0.47000000000E+01 0.  1.
        -11    1    3    3    0    0 -0.19951993289E+02  0.34776585751E+02 -0.23904355407E+03  0.24238257713E+03  0.00000000000E+00 0. -1.
         11    1    3    3    0    0  0.55681432731E+02  0.76656628625E+01 -0.13407132946E+03  0.14537642767E+03  0.00000000000E+00 0.  1.
<mgrwt>
<rscale>  0 0.12819476E+03</rscale>
<asrwt>0</asrwt>
<pdfrwt beam="2">  1        2 0.14180253E+00 0.13677216E+03</pdfrwt>
<pdfrwt beam="1">  1       -2 0.24557018E-02 0.13677216E+03</pdfrwt>
<totfact> 0.16039862E+04</totfact>
</mgrwt>
</event>
<event>
 8    1  0.7550631E-006  0.1712440E+03  0.7546771E-02  0.1182792E+00
          1   -1    0    0  501    0  0.00000000000E+00  0.00000000000E+00  0.92771190014E+03  0.92771190014E+03  0.00000000000E+00 0. -1.
         -1   -1    0    0    0  501 -0.00000000000E+00 -0.00000000000E+00 -0.29933040955E+02  0.29933040955E+02  0.00000000000E+00 0.  1.
         23    2    1    2    0    0  0.10366533770E+03  0.54323510189E+02  0.55302735372E+03  0.57270586427E+03  0.91952199571E+02 0.  0.
         23    2    1    2    0    0 -0.10366533770E+03 -0.54323510189E+02  0.34475150546E+03  0.38493907682E+03  0.12500778515E+03 0.  0.
          5    1    4    4  502    0 -0.10365998020E+03 -0.62314395507E+02  0.35259730862E+03  0.37279408180E+03  0.47000000000E+01 0.  1.
         -5    1    4    4    0  502 -0.53574985695E-02  0.79908853182E+01 -0.78458031573E+01  0.12144995021E+02  0.47000000000E+01 0.  1.
        -11    1    3    3    0    0  0.32654096998E+02 -0.23203193838E+02  0.10192257181E+03  0.10951204911E+03  0.00000000000E+00 0.  1.
         11    1    3    3    0    0  0.71011240699E+02  0.77526704026E+02  0.45110478191E+03  0.46319381516E+03  0.00000000000E+00 0. -1.
<mgrwt>
<rscale>  0 0.16534456E+03</rscale>
<asrwt>0</asrwt>
<pdfrwt beam="1">  1        1 0.14272489E+00 0.17124396E+03</pdfrwt>
<pdfrwt beam="2">  1       -1 0.46050839E-02 0.17124396E+03</pdfrwt>
<totfact> 0.35719551E+03</totfact>
</mgrwt>
</event>
<event>
 8    1  0.7550631E-006  0.1992836E+03  0.7546771E-02  0.1156060E+00
         -2   -1    0    0    0  501 -0.00000000000E+00  0.00000000000E+00  0.43081637939E+02  0.43081637939E+02  0.00000000000E+00 0. -1.
          2   -1    0    0  501    0  0.00000000000E+00 -0.00000000000E+00 -0.11495334882E+04  0.11495334882E+04  0.00000000000E+00 0.  1.
         23    2    1    2    0    0 -0.95864487714E+01 -0.15491411807E+03 -0.20317005562E+03  0.26761136382E+03  0.79041043562E+02 0.  0.
         23    2    1    2    0    0  0.95864487714E+01  0.15491411807E+03 -0.90328179468E+03  0.92500376236E+03  0.12499470305E+03 0.  0.
          5    1    4    4  502    0  0.45010566503E+02  0.80413633297E+02 -0.69224745273E+03  0.69837019504E+03  0.47000000000E+01 0.  1.
         -5    1    4    4    0  502 -0.35424117732E+02  0.74500484777E+02 -0.21103434196E+03  0.22663356731E+03  0.47000000000E+01 0.  1.
        -11    1    3    3    0    0 -0.43976283523E+02 -0.93522476211E+02 -0.13035121834E+03  0.16634845113E+03  0.00000000000E+00 0. -1.
         11    1    3    3    0    0  0.34389834752E+02 -0.61391641864E+02 -0.72818837272E+02  0.10126291269E+03  0.00000000000E+00 0.  1.
<mgrwt>
<rscale>  0 0.19268666E+03</rscale>
<asrwt>0</asrwt>
<pdfrwt beam="2">  1        2 0.17685130E+00 0.19928362E+03</pdfrwt>
<pdfrwt beam="1">  1       -2 0.66279444E-02 0.19928362E+03</pdfrwt>
<totfact> 0.26998459E+03</totfact>
</mgrwt>
</event>
<event>
 8    1  0.7550631E-006  0.1418145E+03  0.7546771E-02  0.1221917E+00
          1   -1    0    0  501    0  0.00000000000E+00  0.00000000000E+00  0.87418990463E+03  0.87418990463E+03  0.00000000000E+00 0. -1.
         -1   -1    0    0    0  501 -0.00000000000E+00 -0.00000000000E+00 -0.20759026606E+02  0.20759026606E+02  0.00000000000E+00 0.  1.
         23    2    1    2    0    0 -0.53863558129E+02 -0.39768331249E+02  0.23535636226E+03  0.26081372267E+03  0.90268364383E+02 0.  0.
         23    2    1    2    0    0  0.53863558129E+02  0.39768331249E+02  0.61807451576E+03  0.63413520857E+03  0.12501420980E+03 0.  0.
          5    1    4    4  502    0  0.20470051819E+02 -0.43172395312E+02  0.14743739360E+03  0.15505725965E+03  0.47000000000E+01 0.  1.
         -5    1    4    4    0  502  0.33393506310E+02  0.82940726561E+02  0.47063712216E+03  0.47907794892E+03  0.47000000000E+01 0.  1.
        -11    1    3    3    0    0 -0.14780902188E+02 -0.24730610468E+02  0.83775669409E+01  0.30004362874E+02  0.00000000000E+00 0.  1.
         11    1    3    3    0    0 -0.39082655941E+02 -0.15037720781E+02  0.22697879532E+03  0.23080935979E+03  0.00000000000E+00 0. -1.
<mgrwt>
<rscale>  0 0.13380459E+03</rscale>
<asrwt>0</asrwt>
<pdfrwt beam="1">  1        1 0.13449073E+00 0.14181451E+03</pdfrwt>
<pdfrwt beam="2">  1       -1 0.31936971E-02 0.14181451E+03</pdfrwt>
<totfact> 0.66832846E+03</totfact>
</mgrwt>
</event>
<event>
 8    1  0.7550631E-006  0.1350288E+03  0.7546771E-02  0.1234006E+00
          2   -1    0    0  501    0  0.00000000000E+00  0.00000000000E+00  0.59913633820E+03  0.59913633820E+03  0.00000000000E+00 0.  1.
         -2   -1    0    0    0  501 -0.00000000000E+00 -0.00000000000E+00 -0.28663850308E+02  0.28663850308E+02  0.00000000000E+00 0. -1.
         23    2    1    2    0    0  0.23926791061E+02 -0.45119391961E+02  0.11770200319E+03  0.15532386097E+03  0.87541358068E+02 0.  0.
         23    2    1    2    0    0 -0.23926791061E+02  0.45119391961E+02  0.45277048471E+03  0.47247632754E+03  0.12499806957E+03 0.  0.
          5    1    4    4  502    0 -0.13603870878E+02 -0.27072579508E+02  0.31531764922E+03  0.31680482915E+03  0.47000000000E+01 0. -1.
         -5    1    4    4    0  502 -0.10322920183E+02  0.72191971469E+02  0.13745283550E+03  0.15567149839E+03  0.47000000000E+01 0. -1.
        -11    1    3    3    0    0  0.43925993577E+02 -0.15989630652E+02  0.10948498475E+03  0.11904672648E+03  0.00000000000E+00 0.  1.
         11    1    3    3    0    0 -0.19999202516E+02 -0.29129761309E+02  0.82170184388E+01  0.36277134495E+02  0.00000000000E+00 0. -1.
<mgrwt>
<rscale>  0 0.12568262E+03</rscale>
<asrwt>0</asrwt>
<pdfrwt beam="1">  1        2 0.92174812E-01 0.13502877E+03</pdfrwt>
<pdfrwt beam="2">  1       -2 0.44098236E-02 0.13502877E+03</pdfrwt>
<totfact> 0.11413422E+04</totfact>
</mgrwt>
</event>
<event>
 8    1  0.7550631E-006  0.1319713E+03  0.7546771E-02  0.1238702E+00
         -1   -1    0    0    0  501 -0.00000000000E+00  0.00000000000E+00  0.92522027588E+02  0.92522027588E+02  0.00000000000E+00 0.  1.
          1   -1    0    0  501    0  0.00000000000E+00 -0.00000000000E+00 -0.14527404774E+03  0.14527404774E+03  0.00000000000E+00 0. -1.
         23    2    1    2    0    0 -0.42172461205E+02 -0.38155386291E+01 -0.34913968326E+02  0.10462471989E+03  0.89074530637E+02 0.  0.
         23    2    1    2    0    0  0.42172461205E+02  0.38155386291E+01 -0.17838051830E+02  0.13317135544E+03  0.12499335582E+03 0.  0.
          5    1    4    4  502    0 -0.32141531483E+02  0.15945556135E+02 -0.40583442849E+02  0.54373197810E+02  0.47000000000E+01 0. -1.
         -5    1    4    4    0  502  0.74313992689E+02 -0.12130017506E+02  0.22745391019E+02  0.78798157635E+02  0.47000000000E+01 0. -1.
        -11    1    3    3    0    0 -0.26210713675E+02  0.23944554614E+02 -0.55984898209E+02  0.66292171744E+02  0.00000000000E+00 0. -1.
         11    1    3    3    0    0 -0.15961747531E+02 -0.27760093243E+02  0.21070929883E+02  0.38332548144E+02  0.00000000000E+00 0.  1.
<mgrwt>
<rscale>  0 0.12270403E+03</rscale>
<asrwt>0</asrwt>
<pdfrwt beam="2">  1        1 0.22349853E-01 0.13197126E+03</pdfrwt>
<pdfrwt beam="1">  1       -1 0.14234158E-01 0.13197126E+03</pdfrwt>
<totfact> 0.73040663E+03</totfact>
</mgrwt>
</event>
<event>
 8    1  0.7550631E-006  0.1657725E+03  0.7546771E-02  0.1188632E+00
          2   -1    0    0  501    0  0.00000000000E+00  0.00000000000E+00  0.23172412726E+03  0.23172412726E+03  0.00000000000E+00 0. -1.
         -2   -1    0    0    0  501 -0.00000000000E+00 -0.00000000000E+00 -0.16361974059E+03  0.16361974059E+03  0.00000000000E+00 0.  1.
         23    2    1    2    0    0 -0.88181201103E+02 -0.63874971919E+02 -0.87020517624E+02  0.16831024542E+03  0.94338920701E+02 0.  0.
         23    2    1    2    0    0  0.88181201103E+02  0.63874971919E+02  0.15512490430E+03  0.22703362243E+03  0.12499837404E+03 0.  0.
          5    1    4    4  502    0  0.74009113660E+02  0.68633955520E+02  0.17478573826E+03  0.20189133972E+03  0.47000000000E+01 0. -1.
         -5    1    4    4    0  502  0.14172087443E+02 -0.47589836015E+01 -0.19660833964E+02  0.25142282705E+02  0.47000000000E+01 0. -1.
        -11    1    3    3    0    0  0.20330560405E+02 -0.13374371902E+02 -0.13131651968E+02  0.27652229451E+02  0.00000000000E+00 0. -1.
         11    1    3    3    0    0 -0.10851176151E+03 -0.50500600017E+02 -0.73888865656E+02  0.14065801597E+03  0.00000000000E+00 0.  1.
<mgrwt>
<rscale>  0 0.16005777E+03</rscale>
<asrwt>0</asrwt>
<pdfrwt beam="1">  1        2 0.35649866E-01 0.16577252E+03</pdfrwt>
<pdfrwt beam="2">  1       -2 0.25172268E-01 0.16577252E+03</pdfrwt>
<totfact> 0.19991335E+03</totfact>
</mgrwt>
</event>
<event>
 8    1  0.7550631E-006  0.1648832E+03  0.7546771E-02  0.1189624E+00
         -2   -1    0    0    0  501 -0.00000000000E+00  0.00000000000E+00  0.26120504078E+02  0.26120504078E+02  0.00000000000E+00 0.  1.
          2   -1    0    0  501    0  0.00000000000E+00 -0.00000000000E+00 -0.91334466179E+03  0.91334466179E+03  0.00000000000E+00 0. -1.
         23    2    1    2    0    0  0.10546893801E+03 -0.20887537218E+02 -0.37892357420E+03  0.40509082016E+03  0.94633563783E+02 0.  0.
         23    2    1    2    0    0 -0.10546893801E+03  0.20887537218E+02 -0.50830058351E+03  0.53437434571E+03  0.12500588810E+03 0.  0.
          5    1    4    4  502    0 -0.10794396783E+03  0.28880396612E+02 -0.51201232012E+03  0.52408461478E+03  0.47000000000E+01 0. -1.
         -5    1    4    4    0  502  0.24750298237E+01 -0.79928593944E+01  0.37117366063E+01  0.10289730928E+02  0.47000000000E+01 0. -1.
        -11    1    3    3    0    0  0.76895923981E+02 -0.28337957596E+02 -0.36178166874E+03  0.37094743401E+03  0.00000000000E+00 0. -1.
         11    1    3    3    0    0  0.28573014029E+02  0.74504203782E+01 -0.17141905463E+02  0.34143386145E+02  0.00000000000E+00 0.  1.
<mgrwt>
<rscale>  0 0.15918146E+03</rscale>
<asrwt>0</asrwt>
<pdfrwt beam="2">  1        2 0.14051457E+00 0.16488317E+03</pdfrwt>
<pdfrwt beam="1">  1       -2 0.40185388E-02 0.16488317E+03</pdfrwt>
<totfact> 0.79324342E+03</totfact>
</mgrwt>
</event>
<event>
 8    1  0.7550631E-006  0.1328259E+03  0.7546771E-02  0.1235983E+00
          1   -1    0    0  501    0  0.00000000000E+00  0.00000000000E+00  0.57376968509E+02  0.57376968509E+02  0.00000000000E+00 0. -1.
         -1   -1    0    0    0  501 -0.00000000000E+00 -0.00000000000E+00 -0.24254841882E+03  0.24254841882E+03  0.00000000000E+00 0.  1.
         23    2    1    2    0    0  0.18970790147E+02  0.40708617636E+02 -0.67950658790E+02  0.12277171549E+03  0.91861415549E+02 0.  0.
         23    2    1    2    0    0 -0.18970790147E+02 -0.40708617636E+02 -0.11722079152E+03  0.17715367183E+03  0.12500250818E+03 0.  0.
          5    1    4    4  502    0 -0.72145954226E+02 -0.21101328299E+02 -0.58102369758E+02  0.95122448132E+02  0.47000000000E+01 0. -1.
         -5    1    4    4    0  502  0.53175164080E+02 -0.19607289338E+02 -0.59118421759E+02  0.82031223698E+02  0.47000000000E+01 0. -1.
        -11    1    3    3    0    0  0.98647959087E+01 -0.26835773407E+02 -0.39860882649E+02  0.49054692928E+02  0.00000000000E+00 0.  1.
         11    1    3    3    0    0  0.91059942379E+01  0.67544391043E+02 -0.28089776141E+02  0.73717022567E+02  0.00000000000E+00 0. -1.
<mgrwt>
<rscale>  0 0.12441725E+03</rscale>
<asrwt>0</asrwt>
<pdfrwt beam="1">  1        1 0.88272259E-02 0.13282586E+03</pdfrwt>
<pdfrwt beam="2">  1       -1 0.37315141E-01 0.13282586E+03</pdfrwt>
<totfact> 0.50569926E+03</totfact>
</mgrwt>
</event>
<event>
 8    1  0.7550631E-006  0.1732610E+03  0.7546771E-02  0.1180674E+00
         -1   -1    0    0    0  501 -0.00000000000E+00  0.00000000000E+00  0.38701736187E+02  0.38701736187E+02  0.00000000000E+00 0.  1.
          1   -1    0    0  501    0  0.00000000000E+00 -0.00000000000E+00 -0.67790183858E+03  0.67790183858E+03  0.00000000000E+00 0. -1.
         23    2    1    2    0    0 -0.87300502109E+01 -0.11962874960E+03 -0.29534232479E+03  0.33156129572E+03  0.91206099041E+02 0.  0.
         23    2    1    2    0    0  0.87300502109E+01  0.11962874960E+03 -0.34385777760E+03  0.38504227904E+03  0.12502853245E+03 0.  0.
          5    1    4    4  502    0  0.24005074262E+02  0.12033615133E+03 -0.34756598369E+03  0.36862072097E+03  0.47000000000E+01 0.  1.
         -5    1    4    4    0  502 -0.15275024051E+02 -0.70740173529E+00  0.37082060945E+01  0.16421558069E+02  0.47000000000E+01 0.  1.
        -11    1    3    3    0    0 -0.25758574109E+02 -0.12255611950E+03 -0.21015849870E+03  0.24464280317E+03  0.00000000000E+00 0.  1.
         11    1    3    3    0    0  0.17028523898E+02  0.29273698980E+01 -0.85183826092E+02  0.86918492557E+02  0.00000000000E+00 0. -1.
<mgrwt>
<rscale>  0 0.16731805E+03</rscale>
<asrwt>0</asrwt>
<pdfrwt beam="2">  1        1 0.10429258E+00 0.17326103E+03</pdfrwt>
<pdfrwt beam="1">  1       -1 0.59541136E-02 0.17326103E+03</pdfrwt>
<totfact> 0.39239847E+03</totfact>
</mgrwt>
</event>
<event>
 8    1  0.7550631E-006  0.1347117E+03  0.7546771E-02  0.1233579E+00
          1   -1    0    0  501    0  0.00000000000E+00  0.00000000000E+00  0.10759645419E+04  0.10759645419E+04  0.00000000000E+00 0. -1.
         -1   -1    0    0    0  501 -0.00000000000E+00 -0.00000000000E+00 -0.20534602199E+02  0.20534602199E+02  0.00000000000E+00 0.  1.
         23    2    1    2    0    0  0.53952091971E+01 -0.49930903646E+02  0.15522600326E+03  0.18627149436E+03  0.89887452408E+02 0.  0.
         23    2    1    2    0    0 -0.53952091971E+01  0.49930903646E+02  0.90020393639E+03  0.91022764969E+03  0.12500017500E+03 0.  0.
          5    1    4    4  502    0  0.83637583758E+01  0.75037582124E+02  0.83998001094E+03  0.84337957052E+03  0.47000000000E+01 0. -1.
         -5    1    4    4    0  502 -0.13758967573E+02 -0.25106678478E+02  0.60223925447E+02  0.66848079173E+02  0.47000000000E+01 0. -1.
        -11    1    3    3    0    0 -0.36727511371E+02 -0.37265786920E+02  0.50652429964E+02  0.72823880888E+02  0.00000000000E+00 0.  1.
         11    1    3    3    0    0  0.42122720568E+02 -0.12665116726E+02  0.10457357330E+03  0.11344761347E+03  0.00000000000E+00 0. -1.
<mgrwt>
<rscale>  0 0.12595844E+03</rscale>
<asrwt>0</asrwt>
<pdfrwt beam="1">  1        1 0.16553296E+00 0.13471172E+03</pdfrwt>
<pdfrwt beam="2">  1       -1 0.31591704E-02 0.13471172E+03</pdfrwt>
<totfact> 0.47991342E+03</totfact>
</mgrwt>
</event>
<event>
 8    1  0.7550631E-006  0.1600391E+03  0.7546771E-02  0.1196430E+00
          2   -1    0    0  501    0  0.00000000000E+00  0.00000000000E+00  0.12621716713E+04  0.12621716713E+04  0.00000000000E+00 0. -1.
         -2   -1    0    0    0  501 -0.00000000000E+00 -0.00000000000E+00 -0.17349623189E+02  0.17349623189E+02  0.00000000000E+00 0.  1.
         23    2    1    2    0    0  0.11667377009E+02 -0.99250992754E+02  0.51608101681E+03  0.53341405419E+03  0.90576211274E+02 0.  0.
         23    2    1    2    0    0 -0.11667377009E+02  0.99250992754E+02  0.72874103129E+03  0.74610724029E+03  0.12500254427E+03 0.  0.
          5    1    4    4  502    0  0.25431129297E+02  0.11574368635E+03  0.56822411596E+03  0.58046884432E+03  0.47000000000E+01 0. -1.
         -5    1    4    4    0  502 -0.37098506306E+02 -0.16492693592E+02  0.16051691533E+03  0.16563839597E+03  0.47000000000E+01 0. -1.
        -11    1    3    3    0    0  0.37909839627E+02 -0.90356316485E+02  0.46588516737E+03  0.47607815435E+03  0.00000000000E+00 0.  1.
         11    1    3    3    0    0 -0.26242462618E+02 -0.88946762684E+01  0.50195849439E+02  0.57335899845E+02  0.00000000000E+00 0. -1.
<mgrwt>
<rscale>  0 0.15333861E+03</rscale>
<asrwt>0</asrwt>
<pdfrwt beam="1">  1        2 0.19418019E+00 0.16003913E+03</pdfrwt>
<pdfrwt beam="2">  1       -2 0.26691738E-02 0.16003913E+03</pdfrwt>
<totfact> 0.90931358E+03</totfact>
</mgrwt>
</event>
<event>
 8    1  0.7550631E-006  0.1393148E+03  0.7546771E-02  0.1225486E+00
         -2   -1    0    0    0  501 -0.00000000000E+00  0.00000000000E+00  0.21577521893E+02  0.21577521893E+02  0.00000000000E+00 0.  1.
          2   -1    0    0  501    0  0.00000000000E+00 -0.00000000000E+00 -0.13665001304E+04  0.13665001304E+04  0.00000000000E+00 0. -1.
         23    2    1    2    0    0  0.59985911707E+02 -0.13572993893E+02 -0.15534315745E+03  0.19036821589E+03  0.91247056325E+02 0.  0.
         23    2    1    2    0    0 -0.59985911707E+02  0.13572993893E+02 -0.11895794510E+04  0.11977094364E+04  0.12500435155E+03 0.  0.
          5    1    4    4  502    0 -0.43324433069E+01 -0.26015562101E+02 -0.89017714881E+03  0.89058016248E+03  0.47000000000E+01 0. -1.
         -5    1    4    4    0  502 -0.55653468400E+02  0.39588555995E+02 -0.29940230223E+03  0.30712927391E+03  0.47000000000E+01 0. -1.
        -11    1    3    3    0    0  0.58844767626E+02  0.18135610293E+02 -0.46968918411E+02  0.77444730836E+02  0.00000000000E+00 0.  1.
         11    1    3    3    0    0  0.11411440813E+01 -0.31708604186E+02 -0.10837423904E+03  0.11292348506E+03  0.00000000000E+00 0. -1.
<mgrwt>
<rscale>  0 0.13133624E+03</rscale>
<asrwt>0</asrwt>
<pdfrwt beam="2">  1        2 0.21023075E+00 0.13931484E+03</pdfrwt>
<pdfrwt beam="1">  1       -2 0.33196194E-02 0.13931484E+03</pdfrwt>
<totfact> 0.57631728E+03</totfact>
</mgrwt>
</event>
<event>
 8    1  0.7550631E-006  0.1489539E+03  0.7546771E-02  0.1211047E+00
         -1   -1    0    0    0  501 -0.00000000000E+00  0.00000000000E+00  0.22725715826E+02  0.22725715826E+02  0.00000000000E+00 0.  1.
          1   -1    0    0  501    0  0.00000000000E+00 -0.00000000000E+00 -0.98553921382E+03  0.98553921382E+03  0.00000000000E+00 0. -1.
         23    2    1    2    0    0  0.71960846207E+02 -0.37199939595E+02 -0.22895343954E+03  0.25944061104E+03  0.91255434287E+02 0.  0.
         23    2    1    2    0    0 -0.71960846207E+02  0.37199939595E+02 -0.73386005845E+03  0.74882431861E+03  0.12500030340E+03 0.  0.
          5    1    4    4  502    0 -0.14716478478E+02 -0.41085862240E+02 -0.35569586176E+03  0.35839399951E+03  0.47000000000E+01 0. -1.
         -5    1    4    4    0  502 -0.57244367729E+02  0.78285801834E+02 -0.37816419670E+03  0.39043031910E+03  0.47000000000E+01 0. -1.
        -11    1    3    3    0    0 -0.17213619747E+02 -0.25956554031E+02 -0.45316252384E+02  0.54987399758E+02  0.00000000000E+00 0.  1.
         11    1    3    3    0    0  0.89174465954E+02 -0.11243385563E+02 -0.18363718716E+03  0.20445321129E+03  0.00000000000E+00 0. -1.
<mgrwt>
<rscale>  0 0.14170981E+03</rscale>
<asrwt>0</asrwt>
<pdfrwt beam="2">  1        1 0.15162144E+00 0.14895393E+03</pdfrwt>
<pdfrwt beam="1">  1       -1 0.34962635E-02 0.14895393E+03</pdfrwt>
<totfact> 0.48293633E+03</totfact>
</mgrwt>
</event>
<event>
 8    1  0.7550631E-006  0.2007000E+03  0.7546771E-02  0.1152734E+00
          1   -1    0    0  501    0  0.00000000000E+00  0.00000000000E+00  0.30246299376E+03  0.30246299376E+03  0.00000000000E+00 0. -1.
         -1   -1    0    0    0  501 -0.00000000000E+00 -0.00000000000E+00 -0.15996174372E+03  0.15996174372E+03  0.00000000000E+00 0.  1.
         23    2    1    2    0    0  0.14432602936E+03 -0.61842756497E+02 -0.42775247556E+02  0.18928030821E+03  0.96658077728E+02 0.  0.
         23    2    1    2    0    0 -0.14432602936E+03  0.61842756497E+02  0.18527649760E+03  0.27314442927E+03  0.12500387752E+03 0.  0.
          5    1    4    4  502    0  0.14206427246E+01  0.24459929552E+02  0.93646007130E+02  0.96912182056E+02  0.47000000000E+01 0.  1.
         -5    1    4    4    0  502 -0.14574667209E+03  0.37382826945E+02  0.91630490472E+02  0.17623224722E+03  0.47000000000E+01 0.  1.
        -11    1    3    3    0    0  0.25282397330E+02  0.11491549655E+02  0.21765217527E+02  0.35284274433E+02  0.00000000000E+00 0. -1.
         11    1    3    3    0    0  0.11904363203E+03 -0.73334306152E+02 -0.64540465083E+02  0.15399603378E+03  0.00000000000E+00 0.  1.
<mgrwt>
<rscale>  0 0.19649031E+03</rscale>
<asrwt>0</asrwt>
<pdfrwt beam="1">  1        1 0.46532768E-01 0.20070002E+03</pdfrwt>
<pdfrwt beam="2">  1       -1 0.24609499E-01 0.20070002E+03</pdfrwt>
<totfact> 0.12347484E+03</totfact>
</mgrwt>
</event>
<event>
 8    1  0.7550631E-006  0.1320781E+03  0.7546771E-02  0.1238776E+00
         -1   -1    0    0    0  501 -0.00000000000E+00  0.00000000000E+00  0.21442014576E+02  0.21442014576E+02  0.00000000000E+00 0.  1.
          1   -1    0    0  501    0  0.00000000000E+00 -0.00000000000E+00 -0.62929116727E+03  0.62929116727E+03  0.00000000000E+00 0. -1.
         23    2    1    2    0    0  0.19956906330E+01 -0.42755194365E+02 -0.21784430719E+03  0.23897061742E+03  0.88424116557E+02 0.  0.
         23    2    1    2    0    0 -0.19956906330E+01  0.42755194365E+02 -0.39000484550E+03  0.41176256443E+03  0.12495055230E+03 0.  0.
          5    1    4    4  502    0  0.51977402110E+02 -0.13157213961E+02 -0.17538803492E+03  0.18346066446E+03  0.47000000000E+01 0.  1.
         -5    1    4    4    0  502 -0.53973092743E+02  0.55912408325E+02 -0.21461681058E+03  0.22830189997E+03  0.47000000000E+01 0.  1.
        -11    1    3    3    0    0 -0.29826778937E+02 -0.33639967276E+02 -0.19138029648E+03  0.19659018800E+03  0.00000000000E+00 0. -1.
         11    1    3    3    0    0  0.31822469570E+02 -0.91152270885E+01 -0.26464010712E+02  0.42380429415E+02  0.00000000000E+00 0.  1.
<mgrwt>
<rscale>  0 0.12265737E+03</rscale>
<asrwt>0</asrwt>
<pdfrwt beam="2">  1        1 0.96814026E-01 0.13207812E+03</pdfrwt>
<pdfrwt beam="1">  1       -1 0.32987715E-02 0.13207812E+03</pdfrwt>
<totfact> 0.10277947E+04</totfact>
</mgrwt>
</event>
<event>
 8    1  0.7550631E-006  0.1618429E+03  0.7546771E-02  0.1192496E+00
         -2   -1    0    0    0  501 -0.00000000000E+00  0.00000000000E+00  0.12785809517E+03  0.12785809517E+03  0.00000000000E+00 0.  1.
          2   -1    0    0  501    0  0.00000000000E+00 -0.00000000000E+00 -0.30467894950E+03  0.30467894950E+03  0.00000000000E+00 0. -1.
         23    2    1    2    0    0  0.99699685394E+02 -0.24876776791E+02  0.52768519995E+02  0.15163778061E+03  0.98237561634E+02 0.  0.
         23    2    1    2    0    0 -0.99699685394E+02  0.24876776791E+02 -0.22958937433E+03  0.28089926405E+03  0.12503693234E+03 0.  0.
          5    1    4    4  502    0 -0.10665977895E+03  0.36244669935E+02 -0.23876594160E+03  0.26404781653E+03  0.47000000000E+01 0.  1.
         -5    1    4    4    0  502  0.69600935549E+01 -0.11367893144E+02  0.91765672721E+01  0.16851447526E+02  0.47000000000E+01 0.  1.
        -11    1    3    3    0    0  0.27395061160E+02  0.30130948208E+02  0.44640187855E+02  0.60424413838E+02  0.00000000000E+00 0.  1.
         11    1    3    3    0    0  0.72304624234E+02 -0.55007725000E+02  0.81283321402E+01  0.91213366776E+02  0.00000000000E+00 0. -1.
<mgrwt>
<rscale>  0 0.15668039E+03</rscale>
<asrwt>0</asrwt>
<pdfrwt beam="2">  1        2 0.46873684E-01 0.16184287E+03</pdfrwt>
<pdfrwt beam="1">  1       -2 0.19670477E-01 0.16184287E+03</pdfrwt>
<totfact> 0.22808326E+03</totfact>
</mgrwt>
</event>
<event>
 7    1  0.7550631E-006  0.1453169E+03  0.7546771E-02  0.1228038E+00
         -1   -1    0    0    0  501 -0.00000000000E+00  0.00000000000E+00  0.12047422108E+02  0.12047422108E+02  0.00000000000E+00 0.  1.
          1   -1    0    0  501    0  0.00000000000E+00 -0.00000000000E+00 -0.16851326147E+04  0.16851326147E+04  0.00000000000E+00 0. -1.
         23    2    1    2    0    0 -0.15072307242E+02  0.80359961756E+01 -0.24446111922E+03  0.26118430043E+03  0.90356230000E+02 0.  0.
          5    1    1    2  502    0 -0.27068822399E+02  0.56442704150E+02 -0.45370482806E+03  0.45802692170E+03  0.47000000000E+01 0. -1.
         -5    1    1    2    0  502  0.42141129641E+02 -0.64478700325E+02 -0.97491924530E+03  0.97796881466E+03  0.47000000000E+01 0.  1.
        -11    1    3    3    0    0 -0.30831605146E+02 -0.21798253300E+02 -0.44341391358E+02  0.58240112555E+02  0.00000000000E+00 0.  1.
         11    1    3    3    0    0  0.15759297904E+02  0.29834249476E+02 -0.20011972787E+03  0.20294418788E+03  0.00000000000E+00 0. -1.
<mgrwt>
<rscale>  0 0.12960829E+03</rscale>
<asrwt>0</asrwt>
<pdfrwt beam="2">  1        1 0.25925120E+00 0.14531694E+03</pdfrwt>
<pdfrwt beam="1">  1       -1 0.18534494E-02 0.14531694E+03</pdfrwt>
<totfact> 0.41021025E+03</totfact>
</mgrwt>
</event>
<event>
 8    1  0.7550631E-006  0.1395631E+03  0.7546771E-02  0.1224217E+00
          2   -1    0    0  501    0  0.00000000000E+00  0.00000000000E+00  0.32395595196E+03  0.32395595196E+03  0.00000000000E+00 0. -1.
         -2   -1    0    0    0  501 -0.00000000000E+00 -0.00000000000E+00 -0.81889249018E+02  0.81889249018E+02  0.00000000000E+00 0.  1.
         23    2    1    2    0    0 -0.48911350321E+02  0.38267184153E+02 -0.14955104923E+02  0.11337628829E+03  0.93668724819E+02 0.  0.
         23    2    1    2    0    0  0.48911350321E+02 -0.38267184153E+02  0.25702180787E+03  0.29246891269E+03  0.12498462945E+03 0.  0.
          5    1    4    4  502    0  0.14230465923E+02 -0.11000576650E+02 -0.10461018352E+02  0.21331707667E+02  0.47000000000E+01 0. -1.
         -5    1    4    4    0  502  0.34680884398E+02 -0.27266607503E+02  0.26748282622E+03  0.27113720503E+03  0.47000000000E+01 0. -1.
        -11    1    3    3    0    0  0.10559099364E+02 -0.65406098369E-01 -0.37625508044E+02  0.39079121189E+02  0.00000000000E+00 0.  1.
         11    1    3    3    0    0 -0.59470449685E+02  0.38332590252E+02  0.22670403120E+02  0.74297167098E+02  0.00000000000E+00 0. -1.
<mgrwt>
<rscale>  0 0.13220735E+03</rscale>
<asrwt>0</asrwt>
<pdfrwt beam="1">  1        2 0.49839377E-01 0.13956309E+03</pdfrwt>
<pdfrwt beam="2">  1       -2 0.12598346E-01 0.13956309E+03</pdfrwt>
<totfact> 0.44233124E+03</totfact>
</mgrwt>
</event>
<event>
 8    1  0.7550631E-006  0.1272109E+03  0.7546771E-02  0.1246539E+00
         -2   -1    0    0    0  501 -0.00000000000E+00  0.00000000000E+00  0.16456938052E+02  0.16456938052E+02  0.00000000000E+00 0.  1.
          2   -1    0    0  501    0  0.00000000000E+00 -0.00000000000E+00 -0.74768318248E+03  0.74768318248E+03  0.00000000000E+00 0. -1.
         23    2    1    2    0    0  0.93330009752E+01 -0.21693019773E+02 -0.28184330311E+03  0.29709876124E+03  0.90963368517E+02 0.  0.
         23    2    1    2    0    0 -0.93330009752E+01  0.21693019773E+02 -0.44938294132E+03  0.46704135929E+03  0.12499964529E+03 0.  0.
          5    1    4    4  502    0 -0.54632726045E+02 -0.18468710139E+02 -0.30449638990E+03  0.30994510719E+03  0.47000000000E+01 0.  1.
         -5    1    4    4    0  502  0.45299725069E+02  0.40161729912E+02 -0.14488655142E+03  0.15709625210E+03  0.47000000000E+01 0.  1.
        -11    1    3    3    0    0  0.33847202473E+02 -0.39857070058E+02 -0.23804965316E+03  0.24372496080E+03  0.00000000000E+00 0. -1.
         11    1    3    3    0    0 -0.24514201498E+02  0.18164050284E+02 -0.43793649949E+02  0.53373800443E+02  0.00000000000E+00 0.  1.
<mgrwt>
<rscale>  0 0.11793717E+03</rscale>
<asrwt>0</asrwt>
<pdfrwt beam="2">  1        2 0.11502819E+00 0.12721086E+03</pdfrwt>
<pdfrwt beam="1">  1       -2 0.25318364E-02 0.12721086E+03</pdfrwt>
<totfact> 0.19869129E+04</totfact>
</mgrwt>
</event>
<event>
 8    1  0.7550631E-006  0.1254069E+03  0.7546771E-02  0.1247962E+00
          2   -1    0    0  501    0  0.00000000000E+00  0.00000000000E+00  0.45561266365E+03  0.45561266365E+03  0.00000000000E+00 0. -1.
         -2   -1    0    0    0  501 -0.00000000000E+00 -0.00000000000E+00 -0.27335873705E+02  0.27335873705E+02  0.00000000000E+00 0.  1.
         23    2    1    2    0    0  0.63284954113E+01  0.78464479688E+01  0.15017060433E+03  0.17787487238E+03  0.94797907251E+02 0.  0.
         23    2    1    2    0    0 -0.63284954113E+01 -0.78464479688E+01  0.27810618562E+03  0.30507366498E+03  0.12500109594E+03 0.  0.
          5    1    4    4  502    0 -0.20502584752E+02  0.53790735379E+02  0.17222585270E+03  0.18165250764E+03  0.47000000000E+01 0. -1.
         -5    1    4    4    0  502  0.14174089341E+02 -0.61637183348E+02  0.10588033292E+03  0.12342115734E+03  0.47000000000E+01 0. -1.
        -11    1    3    3    0    0 -0.28515047710E+02 -0.25604256978E+02  0.10487483159E+03  0.11165758471E+03  0.00000000000E+00 0. -1.
         11    1    3    3    0    0  0.34843543121E+02  0.33450704947E+02  0.45295772740E+02  0.66217287674E+02  0.00000000000E+00 0.  1.
<mgrwt>
<rscale>  0 0.11709846E+03</rscale>
<asrwt>0</asrwt>
<pdfrwt beam="1">  1        2 0.70094251E-01 0.12540690E+03</pdfrwt>
<pdfrwt beam="2">  1       -2 0.42055194E-02 0.12540690E+03</pdfrwt>
<totfact> 0.16485472E+04</totfact>
</mgrwt>
</event>
<event>
 8    1  0.7550631E-006  0.1399397E+03  0.7546771E-02  0.1224834E+00
          1   -1    0    0  501    0  0.00000000000E+00  0.00000000000E+00  0.71430179049E+03  0.71430179049E+03  0.00000000000E+00 0. -1.
         -1   -1    0    0    0  501 -0.00000000000E+00 -0.00000000000E+00 -0.22145398082E+02  0.22145398082E+02  0.00000000000E+00 0.  1.
         23    2    1    2    0    0  0.45018215385E+02 -0.43947400831E+02  0.34570938208E+03  0.36280479630E+03  0.90301326702E+02 0.  0.
         23    2    1    2    0    0 -0.45018215385E+02  0.43947400831E+02  0.34644701033E+03  0.37364239227E+03  0.12500037032E+03 0.  0.
          5    1    4    4  502    0 -0.40202611830E+02 -0.33441260857E+02  0.76818912440E+02  0.93047317178E+02  0.47000000000E+01 0. -1.
         -5    1    4    4    0  502 -0.48156035551E+01  0.77388661688E+02  0.26962809789E+03  0.28059507509E+03  0.47000000000E+01 0. -1.
        -11    1    3    3    0    0  0.11433153894E+02 -0.67476125623E+02  0.23419083530E+03  0.24398584360E+03  0.00000000000E+00 0.  1.
         11    1    3    3    0    0  0.33585061491E+02  0.23528724792E+02  0.11151854678E+03  0.11881895270E+03  0.00000000000E+00 0. -1.
<mgrwt>
<rscale>  0 0.13178292E+03</rscale>
<asrwt>0</asrwt>
<pdfrwt beam="1">  1        1 0.10989257E+00 0.13993965E+03</pdfrwt>
<pdfrwt beam="2">  1       -1 0.34069849E-02 0.13993965E+03</pdfrwt>
<totfact> 0.82313374E+03</totfact>
</mgrwt>
</event>
<event>
 8    1  0.7550631E-006  0.1363358E+03  0.7546771E-02  0.1228751E+00
         -2   -1    0    0    0  501 -0.00000000000E+00  0.00000000000E+00  0.55175302256E+03  0.55175302256E+03  0.00000000000E+00 0.  1.
          2   -1    0    0  501    0  0.00000000000E+00 -0.00000000000E+00 -0.28024747086E+02  0.28024747086E+02  0.00000000000E+00 0. -1.
         23    2    1    2    0    0 -0.50941434443E+02 -0.19174640967E+02  0.27603387742E+03  0.29704122870E+03  0.95268533447E+02 0.  0.
         23    2    1    2    0    0  0.50941434443E+02  0.19174640967E+02  0.24769439806E+03  0.28273654095E+03  0.12499896063E+03 0.  0.
          5    1    4    4  502    0  0.33900181917E+02 -0.29605964004E+02  0.20476573383E+02  0.49670066399E+02  0.47000000000E+01 0. -1.
         -5    1    4    4    0  502  0.17041252526E+02  0.48780604972E+02  0.22721782468E+03  0.23306647455E+03  0.47000000000E+01 0. -1.
        -11    1    3    3    0    0 -0.47515354876E+02  0.32753871689E+01  0.26912015293E+03  0.27330220238E+03  0.00000000000E+00 0.  1.
         11    1    3    3    0    0 -0.34260795662E+01 -0.22450028136E+02  0.69137244888E+01  0.23739026324E+02  0.00000000000E+00 0. -1.
<mgrwt>
<rscale>  0 0.12913090E+03</rscale>
<asrwt>0</asrwt>
<pdfrwt beam="2">  1        2 0.43115000E-02 0.13633575E+03</pdfrwt>
<pdfrwt beam="1">  1       -2 0.84885072E-01 0.13633575E+03</pdfrwt>
<totfact> 0.22927864E+03</totfact>
</mgrwt>
</event>
<event>
 8    1  0.7550631E-006  0.1420652E+03  0.7546771E-02  0.1221211E+00
         -1   -1    0    0    0  501 -0.00000000000E+00  0.00000000000E+00  0.15014808600E+03  0.15014808600E+03  0.00000000000E+00 0.  1.
          1   -1    0    0  501    0  0.00000000000E+00 -0.00000000000E+00 -0.12494673888E+03  0.12494673888E+03  0.00000000000E+00 0. -1.
         23    2    1    2    0    0 -0.60091241609E+02 -0.30775367396E+02  0.60677551261E+02  0.12866706856E+03  0.91188643743E+02 0.  0.
         23    2    1    2    0    0  0.60091241609E+02  0.30775367396E+02 -0.35476204137E+02  0.14642775632E+03  0.12499778480E+03 0.  0.
          5    1    4    4  502    0 -0.21589117560E+01 -0.36237057694E+02  0.17555851459E+02  0.40596590630E+02  0.47000000000E+01 0. -1.
         -5    1    4    4    0  502  0.62250153365E+02  0.67012425090E+02 -0.53032055597E+02  0.10583116569E+03  0.47000000000E+01 0. -1.
        -11    1    3    3    0    0 -0.13503288911E+02  0.28502744222E+02 -0.54739547340E+00  0.31544332001E+02  0.00000000000E+00 0. -1.
         11    1    3    3    0    0 -0.46587952698E+02 -0.59278111618E+02  0.61224946734E+02  0.97122736556E+02  0.00000000000E+00 0.  1.
<mgrwt>
<rscale>  0 0.13430052E+03</rscale>
<asrwt>0</asrwt>
<pdfrwt beam="2">  1        1 0.19222575E-01 0.14206522E+03</pdfrwt>
<pdfrwt beam="1">  1       -1 0.23099705E-01 0.14206522E+03</pdfrwt>
<totfact> 0.41087914E+03</totfact>
</mgrwt>
</event>
<event>
 8    1  0.7550631E-006  0.1378788E+03  0.7546771E-02  0.1226454E+00
         -2   -1    0    0    0  501 -0.00000000000E+00  0.00000000000E+00  0.11203726337E+02  0.11203726337E+02  0.00000000000E+00 0. -1.
          2   -1    0    0  501    0  0.00000000000E+00 -0.00000000000E+00 -0.14891518086E+04  0.14891518086E+04  0.00000000000E+00 0.  1.
         23    2    1    2    0    0 -0.45378361057E+01  0.58011628059E+02 -0.46814497833E+03  0.48118289090E+03  0.94822533258E+02 0.  0.
         23    2    1    2    0    0  0.45378361057E+01 -0.58011628059E+02 -0.10098031039E+04  0.10191726440E+04  0.12499851476E+03 0.  0.
          5    1    4    4  502    0  0.55584551084E+02 -0.56275219083E+02 -0.44104283706E+03  0.44810424761E+03  0.47000000000E+01 0.  1.
         -5    1    4    4    0  502 -0.51046714979E+02 -0.17364089760E+01 -0.56876026684E+03  0.57106839640E+03  0.47000000000E+01 0.  1.
        -11    1    3    3    0    0  0.43466765891E+02  0.12897854003E+02 -0.19695728351E+03  0.20210859927E+03  0.00000000000E+00 0.  1.
         11    1    3    3    0    0 -0.48004601996E+02  0.45113774056E+02 -0.27118769483E+03  0.27907429163E+03  0.00000000000E+00 0. -1.
<mgrwt>
<rscale>  0 0.13067762E+03</rscale>
<asrwt>0</asrwt>
<pdfrwt beam="2">  1        2 0.22910038E+00 0.13787882E+03</pdfrwt>
<pdfrwt beam="1">  1       -2 0.17236495E-02 0.13787882E+03</pdfrwt>
<totfact> 0.12928969E+04</totfact>
</mgrwt>
</event>
<event>
 8    1  0.7550631E-006  0.1614227E+03  0.7546771E-02  0.1194358E+00
         -2   -1    0    0    0  501 -0.00000000000E+00  0.00000000000E+00  0.35041116727E+02  0.35041116727E+02  0.00000000000E+00 0.  1.
          2   -1    0    0  501    0  0.00000000000E+00 -0.00000000000E+00 -0.72854546169E+03  0.72854546169E+03  0.00000000000E+00 0. -1.
         23    2    1    2    0    0 -0.32674584669E+02  0.96756543752E+02 -0.18801717801E+03  0.23295057328E+03  0.92119775952E+02 0.  0.
         23    2    1    2    0    0  0.32674584669E+02 -0.96756543752E+02 -0.50548716695E+03  0.53063600514E+03  0.12501134650E+03 0.  0.
          5    1    4    4  502    0  0.65748429764E+02 -0.77951650955E+02 -0.45979970813E+03  0.47099594213E+03  0.47000000000E+01 0. -1.
         -5    1    4    4    0  502 -0.33073845095E+02 -0.18804892797E+02 -0.45687458816E+02  0.59640063007E+02  0.47000000000E+01 0. -1.
        -11    1    3    3    0    0 -0.40286105275E+02  0.30763404721E+02 -0.24185749805E+02  0.56163224995E+02  0.00000000000E+00 0.  1.
         11    1    3    3    0    0  0.76115206057E+01  0.65993139031E+02 -0.16383142821E+03  0.17678734828E+03  0.00000000000E+00 0. -1.
<mgrwt>
<rscale>  0 0.15508713E+03</rscale>
<asrwt>0</asrwt>
<pdfrwt beam="2">  1        2 0.11208390E+00 0.16142272E+03</pdfrwt>
<pdfrwt beam="1">  1       -2 0.53909416E-02 0.16142272E+03</pdfrwt>
<totfact> 0.67817901E+03</totfact>
</mgrwt>
</event>
<event>
 8    1  0.7550631E-006  0.1314990E+03  0.7546771E-02  0.1238556E+00
         -1   -1    0    0    0  501 -0.00000000000E+00  0.00000000000E+00  0.12187210365E+02  0.12187210365E+02  0.00000000000E+00 0.  1.
          1   -1    0    0  501    0  0.00000000000E+00 -0.00000000000E+00 -0.15376130447E+04  0.15376130447E+04  0.00000000000E+00 0. -1.
         23    2    1    2    0    0 -0.34731386233E+02 -0.21451487958E+02 -0.27749290171E+03  0.29495819222E+03  0.91277539037E+02 0.  0.
         23    2    1    2    0    0  0.34731386233E+02  0.21451487958E+02 -0.12479329326E+04  0.12548420628E+04  0.12500225131E+03 0.  0.
          5    1    4    4  502    0  0.68541906182E+02  0.23282228939E+02 -0.11222827849E+04  0.11246247349E+04  0.47000000000E+01 0.  1.
         -5    1    4    4    0  502 -0.33810519949E+02 -0.18307409807E+01 -0.12565014773E+03  0.13021732794E+03  0.47000000000E+01 0.  1.
        -11    1    3    3    0    0  0.18844515720E+02 -0.29421671705E+02 -0.18064051128E+03  0.18398843674E+03  0.00000000000E+00 0. -1.
         11    1    3    3    0    0 -0.53575901953E+02  0.79701837462E+01 -0.96852390428E+02  0.11096975548E+03  0.00000000000E+00 0.  1.
<mgrwt>
<rscale>  0 0.12279515E+03</rscale>
<asrwt>0</asrwt>
<pdfrwt beam="2">  1        1 0.23655567E+00 0.13149904E+03</pdfrwt>
<pdfrwt beam="1">  1       -1 0.18749569E-02 0.13149904E+03</pdfrwt>
<totfact> 0.50052377E+03</totfact>
</mgrwt>
</event>
<event>
 7    1  0.7550631E-006  0.1721528E+03  0.7546771E-02  0.1185839E+00
         -1   -1    0    0    0  501 -0.00000000000E+00  0.00000000000E+00  0.13221479418E+03  0.13221479418E+03  0.00000000000E+00 0.  1.
          1   -1    0    0  501    0  0.00000000000E+00 -0.00000000000E+00 -0.19590188149E+03  0.19590188149E+03  0.00000000000E+00 0. -1.
         23    2    1    2    0    0 -0.79321250745E+02 -0.59472943392E+02  0.17142495423E+02  0.13793254604E+03  0.94353750805E+02 0.  0.
          5    1    1    2  502    0  0.28506587381E+02 -0.39946613437E+02 -0.58005292022E+02  0.76125300339E+02  0.47000000000E+01 0. -1.
         -5    1    1    2    0  502  0.50814663364E+02  0.99419556829E+02 -0.22824290714E+02  0.11405882929E+03  0.47000000000E+01 0.  1.
        -11    1    3    3    0    0 -0.64945374148E+02 -0.34485295953E+02  0.53933989874E+02  0.91192173589E+02  0.00000000000E+00 0.  1.
         11    1    3    3    0    0 -0.14375876597E+02 -0.24987647439E+02 -0.36791494451E+02  0.46740372446E+02  0.00000000000E+00 0. -1.
<mgrwt>
<rscale>  0 0.16255756E+03</rscale>
<asrwt>0</asrwt>
<pdfrwt beam="2">  1        1 0.30138751E-01 0.17215279E+03</pdfrwt>
<pdfrwt beam="1">  1       -1 0.20340738E-01 0.17215279E+03</pdfrwt>
<totfact> 0.28893458E+03</totfact>
</mgrwt>
</event>
<event>
 8    1  0.7550631E-006  0.1358517E+03  0.7546771E-02  0.1231179E+00
          3   -1    0    0  501    0  0.00000000000E+00  0.00000000000E+00  0.33052573873E+03  0.33052573873E+03  0.00000000000E+00 0. -1.
         -3   -1    0    0    0  501 -0.00000000000E+00 -0.00000000000E+00 -0.45836735559E+02  0.45836735559E+02  0.00000000000E+00 0.  1.
         23    2    1    2    0    0 -0.15049014483E+02 -0.51020321391E+02  0.88253028393E+02  0.13752617669E+03  0.91078571698E+02 0.  0.
         23    2    1    2    0    0  0.15049014483E+02  0.51020321391E+02  0.19643597478E+03  0.23883629760E+03  0.12500455525E+03 0.  0.
          5    1    4    4  502    0  0.32000521173E+02  0.24483746749E+02  0.74520679749E+00  0.40572558995E+02  0.47000000000E+01 0.  1.
         -5    1    4    4    0  502 -0.16951506691E+02  0.26536574642E+02  0.19569076798E+03  0.19826373861E+03  0.47000000000E+01 0.  1.
        -11    1    3    3    0    0  0.53596693392E+01 -0.34018067720E+02  0.10197167569E+03  0.10762981757E+03  0.00000000000E+00 0. -1.
         11    1    3    3    0    0 -0.20408683822E+02 -0.17002253671E+02 -0.13718647295E+02  0.29896359123E+02  0.00000000000E+00 0.  1.
<mgrwt>
<rscale>  0 0.12752214E+03</rscale>
<asrwt>0</asrwt>
<pdfrwt beam="1">  1        3 0.50850112E-01 0.13585170E+03</pdfrwt>
<pdfrwt beam="2">  1       -3 0.70518057E-02 0.13585170E+03</pdfrwt>
<totfact> 0.11668591E+03</totfact>
</mgrwt>
</event>
<event>
 8    1  0.7550631E-006  0.1224164E+03  0.7546771E-02  0.1250553E+00
          3   -1    0    0  501    0  0.00000000000E+00  0.00000000000E+00  0.60999323872E+02  0.60999323872E+02  0.00000000000E+00 0. -1.
         -3   -1    0    0    0  501 -0.00000000000E+00 -0.00000000000E+00 -0.30326158733E+03  0.30326158733E+03  0.00000000000E+00 0.  1.
         23    2    1    2    0    0 -0.20964702984E+02  0.89258185143E+01 -0.21900823429E+03  0.23965540273E+03  0.94609282666E+02 0.  0.
         23    2    1    2    0    0  0.20964702984E+02 -0.89258185143E+01 -0.23254029168E+02  0.12460550846E+03  0.12027715436E+03 0.  0.
          5    1    4    4  502    0  0.15497412570E+02 -0.53590401263E+02 -0.47371039099E+02  0.73336254671E+02  0.47000000000E+01 0. -1.
         -5    1    4    4    0  502  0.54672904137E+01  0.44664582748E+02  0.24117009931E+02  0.51269253794E+02  0.47000000000E+01 0.  1.
        -11    1    3    3    0    0 -0.22688727630E+01  0.35222720825E+02 -0.25669907528E+02  0.43643235426E+02  0.00000000000E+00 0.  1.
         11    1    3    3    0    0 -0.18695830221E+02 -0.26296902311E+02 -0.19333832676E+03  0.19601216731E+03  0.00000000000E+00 0. -1.
<mgrwt>
<rscale>  0 0.11559103E+03</rscale>
<asrwt>0</asrwt>
<pdfrwt beam="1">  1        3 0.93845115E-02 0.12241643E+03</pdfrwt>
<pdfrwt beam="2">  1       -3 0.46655628E-01 0.12241643E+03</pdfrwt>
<totfact> 0.85459970E+02</totfact>
</mgrwt>
</event>
<event>
 8    1  0.7550631E-006  0.2771555E+03  0.7546771E-02  0.1099103E+00
          4   -1    0    0  501    0  0.00000000000E+00  0.00000000000E+00  0.95229378238E+03  0.95229378238E+03  0.00000000000E+00 0. -1.
         -4   -1    0    0    0  501 -0.00000000000E+00 -0.00000000000E+00 -0.77975292655E+02  0.77975292655E+02  0.00000000000E+00 0.  1.
         23    2    1    2    0    0  0.19036770299E+03  0.15795946253E+03  0.36673311102E+03  0.45194556220E+03  0.92577331600E+02 0.  0.
         23    2    1    2    0    0 -0.19036770299E+03 -0.15795946253E+03  0.50758537870E+03  0.57832351284E+03  0.12499645871E+03 0.  0.
          5    1    4    4  502    0 -0.30568229364E+02 -0.10340931936E+03  0.21115715661E+03  0.23714413078E+03  0.47000000000E+01 0. -1.
         -5    1    4    4    0  502 -0.15979947362E+03 -0.54550143168E+02  0.29642822209E+03  0.34117938206E+03  0.47000000000E+01 0. -1.
        -11    1    3    3    0    0  0.11498938412E+03  0.14493142081E+03  0.28690485869E+03  0.34138259056E+03  0.00000000000E+00 0. -1.
         11    1    3    3    0    0  0.75378318863E+02  0.13028041712E+02  0.79828252332E+02  0.11056297163E+03  0.00000000000E+00 0.  1.
<mgrwt>
<rscale>  0 0.27383861E+03</rscale>
<asrwt>0</asrwt>
<pdfrwt beam="1">  1        4 0.14650673E+00 0.27715550E+03</pdfrwt>
<pdfrwt beam="2">  1       -4 0.11996200E-01 0.27715550E+03</pdfrwt>
<totfact> 0.34391691E+01</totfact>
</mgrwt>
</event>
<event>
 7    1  0.7550631E-006  0.1852184E+03  0.7546771E-02  0.1188827E+00
         -1   -1    0    0    0  501 -0.00000000000E+00  0.00000000000E+00  0.31220065599E+03  0.31220065599E+03  0.00000000000E+00 0.  1.
          1   -1    0    0  501    0  0.00000000000E+00 -0.00000000000E+00 -0.20141389310E+03  0.20141389310E+03  0.00000000000E+00 0. -1.
         23    2    1    2    0    0  0.37725835189E+02 -0.50907853964E+01  0.25753344653E+03  0.27730874307E+03  0.95537993332E+02 0.  0.
          5    1    1    2  502    0  0.19336476641E+01  0.46024466845E+02 -0.16878236238E+03  0.17501876012E+03  0.47000000000E+01 0. -1.
         -5    1    1    2    0  502 -0.39659482853E+02 -0.40933681449E+02  0.22035678748E+02  0.61287045899E+02  0.47000000000E+01 0.  1.
        -11    1    3    3    0    0  0.44799181621E+01  0.37199161396E+02  0.47515088621E+02  0.60510585205E+02  0.00000000000E+00 0.  1.
         11    1    3    3    0    0  0.33245917027E+02 -0.42289946792E+02  0.21001835790E+03  0.21679815787E+03  0.00000000000E+00 0. -1.
<mgrwt>
<rscale>  0 0.15988460E+03</rscale>
<asrwt>0</asrwt>
<pdfrwt beam="2">  1        1 0.30986753E-01 0.18521837E+03</pdfrwt>
<pdfrwt beam="1">  1       -1 0.48030870E-01 0.18521837E+03</pdfrwt>
<totfact> 0.64470222E+02</totfact>
</mgrwt>
</event>
<event>
 8    1  0.7550631E-006  0.1449728E+03  0.7546771E-02  0.1217853E+00
          3   -1    0    0  501    0  0.00000000000E+00  0.00000000000E+00  0.11823093904E+03  0.11823093904E+03  0.00000000000E+00 0. -1.
         -3   -1    0    0    0  501 -0.00000000000E+00 -0.00000000000E+00 -0.20367531207E+03  0.20367531207E+03  0.00000000000E+00 0.  1.
         23    2    1    2    0    0 -0.32181800886E+02 -0.66000735109E+02 -0.12704898054E+03  0.17108164750E+03  0.87952949431E+02 0.  0.
         23    2    1    2    0    0  0.32181800886E+02  0.66000735109E+02  0.41604607514E+02  0.15082460361E+03  0.12500140937E+03 0.  0.
          5    1    4    4  502    0 -0.35753718254E+02  0.64519790531E+02  0.65061260624E+01  0.74199403067E+02  0.47000000000E+01 0. -1.
         -5    1    4    4    0  502  0.67935519140E+02  0.14809445783E+01  0.35098481451E+02  0.76625200540E+02  0.47000000000E+01 0. -1.
        -11    1    3    3    0    0 -0.14313144375E+02  0.14621886311E+01  0.98388423194E+01  0.17430057822E+02  0.00000000000E+00 0. -1.
         11    1    3    3    0    0 -0.17868656512E+02 -0.67462923740E+02 -0.13688782286E+03  0.15365158968E+03  0.00000000000E+00 0.  1.
<mgrwt>
<rscale>  0 0.13669028E+03</rscale>
<asrwt>0</asrwt>
<pdfrwt beam="1">  1        3 0.18189375E-01 0.14497282E+03</pdfrwt>
<pdfrwt beam="2">  1       -3 0.31334663E-01 0.14497282E+03</pdfrwt>
<totfact> 0.61391516E+02</totfact>
</mgrwt>
</event>
<event>
 8    1  0.7550631E-006  0.1257070E+03  0.7546771E-02  0.1250259E+00
         -1   -1    0    0    0  501 -0.00000000000E+00  0.00000000000E+00  0.22431274922E+02  0.22431274922E+02  0.00000000000E+00 0.  1.
          1   -1    0    0  501    0  0.00000000000E+00 -0.00000000000E+00 -0.55028175133E+03  0.55028175133E+03  0.00000000000E+00 0. -1.
         23    2    1    2    0    0 -0.14358191228E+01 -0.13239897165E+02 -0.15736655848E+03  0.18148345963E+03  0.89412839907E+02 0.  0.
         23    2    1    2    0    0  0.14358191228E+01  0.13239897165E+02 -0.37048391793E+03  0.39122956662E+03  0.12499953559E+03 0.  0.
          5    1    4    4  502    0  0.43810329490E+02  0.49487506540E+02 -0.15440526957E+03  0.16802212814E+03  0.47000000000E+01 0. -1.
         -5    1    4    4    0  502 -0.42374510368E+02 -0.36247609375E+02 -0.21607864837E+03  0.22320743848E+03  0.47000000000E+01 0. -1.
        -11    1    3    3    0    0 -0.45792621243E+00  0.18731864134E+02  0.20869222723E+01  0.18853319997E+02  0.00000000000E+00 0.  1.
         11    1    3    3    0    0 -0.97789291035E+00 -0.31971761299E+02 -0.15945348075E+03  0.16263013963E+03  0.00000000000E+00 0. -1.
<mgrwt>
<rscale>  0 0.11576056E+03</rscale>
<asrwt>0</asrwt>
<pdfrwt beam="2">  1        1 0.84658727E-01 0.12570696E+03</pdfrwt>
<pdfrwt beam="1">  1       -1 0.34509655E-02 0.12570696E+03</pdfrwt>
<totfact> 0.11496220E+04</totfact>
</mgrwt>
</event>
<event>
 8    1  0.7550631E-006  0.1467725E+03  0.7546771E-02  0.1213948E+00
          3   -1    0    0  501    0  0.00000000000E+00  0.00000000000E+00  0.19196248340E+03  0.19196248340E+03  0.00000000000E+00 0. -1.
         -3   -1    0    0    0  501 -0.00000000000E+00 -0.00000000000E+00 -0.94078607468E+02  0.94078607468E+02  0.00000000000E+00 0.  1.
         23    2    1    2    0    0 -0.47967645684E+02  0.60131217780E+02  0.26399164899E+02  0.12278598687E+03  0.91993609990E+02 0.  0.
         23    2    1    2    0    0  0.47967645684E+02 -0.60131217780E+02  0.71484711032E+02  0.16325510400E+03  0.12500202673E+03 0.  0.
          5    1    4    4  502    0  0.34196503273E+02 -0.56264840486E+02  0.10641096856E+03  0.12522187246E+03  0.47000000000E+01 0. -1.
         -5    1    4    4    0  502  0.13771142411E+02 -0.38663772942E+01 -0.34926257531E+02  0.38033231546E+02  0.47000000000E+01 0. -1.
        -11    1    3    3    0    0 -0.11507186380E+02  0.74063530943E+02 -0.12347014537E+01  0.74962300136E+02  0.00000000000E+00 0.  1.
         11    1    3    3    0    0 -0.36460459304E+02 -0.13932313163E+02  0.27633866353E+02  0.47823686729E+02  0.00000000000E+00 0. -1.
<mgrwt>
<rscale>  0 0.13954087E+03</rscale>
<asrwt>0</asrwt>
<pdfrwt beam="1">  1        3 0.29532690E-01 0.14677249E+03</pdfrwt>
<pdfrwt beam="2">  1       -3 0.14473632E-01 0.14677249E+03</pdfrwt>
<totfact> 0.10185355E+03</totfact>
</mgrwt>
</event>
<event>
 8    1  0.7550631E-006  0.1935417E+03  0.7546771E-02  0.1160361E+00
         -2   -1    0    0    0  501 -0.00000000000E+00  0.00000000000E+00  0.13601619898E+03  0.13601619898E+03  0.00000000000E+00 0.  1.
          2   -1    0    0  501    0  0.00000000000E+00 -0.00000000000E+00 -0.25117418459E+03  0.25117418459E+03  0.00000000000E+00 0. -1.
         23    2    1    2    0    0  0.14024905535E+03 -0.46495772710E+02 -0.25367152762E+02  0.17383440640E+03  0.87995761274E+02 0.  0.
         23    2    1    2    0    0 -0.14024905535E+03  0.46495772710E+02 -0.89790832841E+02  0.21335597717E+03  0.12500689950E+03 0.  0.
          5    1    4    4  502    0 -0.13206788010E+03  0.82849888872E+02 -0.73149202528E+02  0.17227572340E+03  0.47000000000E+01 0. -1.
         -5    1    4    4    0  502 -0.81811752495E+01 -0.36354116162E+02 -0.16641630313E+02  0.41080253771E+02  0.47000000000E+01 0. -1.
        -11    1    3    3    0    0  0.41760398764E+02  0.23760054992E+02  0.71155601169E+01  0.48570591040E+02  0.00000000000E+00 0.  1.
         11    1    3    3    0    0  0.98488656589E+02 -0.70255827702E+02 -0.32482712879E+02  0.12526381536E+03  0.00000000000E+00 0. -1.
<mgrwt>
<rscale>  0 0.18790844E+03</rscale>
<asrwt>0</asrwt>
<pdfrwt beam="2">  1        2 0.38642182E-01 0.19354167E+03</pdfrwt>
<pdfrwt beam="1">  1       -2 0.20925569E-01 0.19354167E+03</pdfrwt>
<totfact> 0.25399703E+03</totfact>
</mgrwt>
</event>
<event>
 7    1  0.7550631E-006  0.1369958E+03  0.7546771E-02  0.1238599E+00
         -3   -1    0    0    0  501 -0.00000000000E+00  0.00000000000E+00  0.18118539162E+03  0.18118539162E+03  0.00000000000E+00 0.  1.
          3   -1    0    0  501    0  0.00000000000E+00 -0.00000000000E+00 -0.72566225221E+02  0.72566225221E+02  0.00000000000E+00 0. -1.
         23    2    1    2    0    0 -0.26685443166E+00  0.22110313191E+02  0.65990243739E+02  0.11027660324E+03  0.85541100020E+02 0.  0.
          5    1    1    2  502    0 -0.41765110463E+02  0.42324576600E+02  0.14117106294E+02  0.61294999196E+02  0.47000000000E+01 0. -1.
         -5    1    1    2    0  502  0.42031964895E+02 -0.64434889790E+02  0.28511816366E+02  0.82180014406E+02  0.47000000000E+01 0.  1.
        -11    1    3    3    0    0  0.19536271355E+02 -0.17715560023E+02  0.59816915672E+02  0.65372550554E+02  0.00000000000E+00 0.  1.
         11    1    3    3    0    0 -0.19803125787E+02  0.39825873213E+02  0.61733280667E+01  0.44904052685E+02  0.00000000000E+00 0. -1.
<mgrwt>
<rscale>  0 0.12276811E+03</rscale>
<asrwt>0</asrwt>
<pdfrwt beam="2">  1        3 0.11164035E-01 0.13699582E+03</pdfrwt>
<pdfrwt beam="1">  1       -3 0.27874675E-01 0.13699582E+03</pdfrwt>
<totfact> 0.17357608E+03</totfact>
</mgrwt>
</event>
<event>
 8    1  0.7550631E-006  0.1202639E+03  0.7546771E-02  0.1249932E+00
         -4   -1    0    0    0  501 -0.00000000000E+00  0.00000000000E+00  0.34052584660E+02  0.34052584660E+02  0.00000000000E+00 0.  1.
          4   -1    0    0  501    0  0.00000000000E+00 -0.00000000000E+00 -0.50157711041E+03  0.50157711041E+03  0.00000000000E+00 0. -1.
         23    2    1    2    0    0 -0.23014277545E+02  0.24748487921E+01 -0.83782295419E+02  0.13348357939E+03  0.10130454627E+03 0.  0.
         23    2    1    2    0    0  0.23014277545E+02 -0.24748487921E+01 -0.38374223033E+03  0.40214611568E+03  0.11801532598E+03 0.  0.
          5    1    4    4  502    0 -0.67840914657E+01 -0.21013190006E+02 -0.35715458975E+03  0.35786739028E+03  0.47000000000E+01 0. -1.
         -5    1    4    4    0  502  0.29798369011E+02  0.18538341214E+02 -0.26587640586E+02  0.44278725395E+02  0.47000000000E+01 0.  1.
        -11    1    3    3    0    0 -0.59805170552E+02  0.19427043469E+02 -0.57410010913E+02  0.85146801442E+02  0.00000000000E+00 0.  1.
         11    1    3    3    0    0  0.36790893007E+02 -0.16952194677E+02 -0.26372284506E+02  0.48336777951E+02  0.00000000000E+00 0. -1.
<mgrwt>
<rscale>  0 0.11595014E+03</rscale>
<asrwt>0</asrwt>
<pdfrwt beam="2">  1        4 0.77165707E-01 0.12026387E+03</pdfrwt>
<pdfrwt beam="1">  1       -4 0.52388593E-02 0.12026387E+03</pdfrwt>
<totfact> 0.55215442E+02</totfact>
</mgrwt>
</event>
<event>
 7    1  0.7550631E-006  0.1369241E+03  0.7546771E-02  0.1250916E+00
          2   -1    0    0  501    0  0.00000000000E+00  0.00000000000E+00  0.56224549219E+03  0.56224549219E+03  0.00000000000E+00 0. -1.
         -2   -1    0    0    0  501 -0.00000000000E+00 -0.00000000000E+00 -0.24289360153E+02  0.24289360153E+02  0.00000000000E+00 0.  1.
         23    2    1    2    0    0 -0.55894478573E+02 -0.91943137390E+00  0.47046702856E+03  0.48998718424E+03  0.12499271046E+03 0.  0.
          5    1    3    3  502    0 -0.92656355353E+02 -0.19920087269E+02  0.34338630202E+03  0.35625588062E+03  0.47000000000E+01 0. -1.
         -5    1    3    3    0  502  0.36761876780E+02  0.19000655895E+02  0.12708072653E+03  0.13373130361E+03  0.47000000000E+01 0. -1.
        -11    1    1    2    0    0  0.33128727458E+02  0.15453155631E+02  0.56701017146E+02  0.67463456385E+02  0.00000000000E+00 0. -1.
         11    1    1    2    0    0  0.22765751115E+02 -0.14533724257E+02  0.10788086332E+02  0.29084211719E+02  0.00000000000E+00 0.  1.
<mgrwt>
<rscale>  0 0.11538169E+03</rscale>
<asrwt>0</asrwt>
<pdfrwt beam="1">  1        2 0.86499297E-01 0.13692412E+03</pdfrwt>
<pdfrwt beam="2">  1       -2 0.37368251E-02 0.13692412E+03</pdfrwt>
<totfact> 0.15702630E+04</totfact>
</mgrwt>
</event>
<event>
 8    1  0.7550631E-006  0.1417407E+03  0.7546771E-02  0.1221940E+00
          2   -1    0    0  501    0  0.00000000000E+00  0.00000000000E+00  0.81739593837E+03  0.81739593837E+03  0.00000000000E+00 0. -1.
         -2   -1    0    0    0  501 -0.00000000000E+00 -0.00000000000E+00 -0.28535850366E+02  0.28535850366E+02  0.00000000000E+00 0.  1.
         23    2    1    2    0    0  0.54571432621E+01 -0.66603079771E+02  0.12967807374E+03  0.17168305088E+03  0.90514730861E+02 0.  0.
         23    2    1    2    0    0 -0.54571432621E+01  0.66603079771E+02  0.65918201426E+03  0.67424873785E+03  0.12499872769E+03 0.  0.
          5    1    4    4  502    0 -0.55869810042E+02  0.27488200856E+02  0.17397557694E+03  0.18484217114E+03  0.47000000000E+01 0. -1.
         -5    1    4    4    0  502  0.50412666780E+02  0.39114878915E+02  0.48520643732E+03  0.48940656671E+03  0.47000000000E+01 0. -1.
        -11    1    3    3    0    0 -0.62085091244E+01 -0.83186478769E+02  0.12594743456E+03  0.15106717746E+03  0.00000000000E+00 0.  1.
         11    1    3    3    0    0  0.11665652386E+02  0.16583398998E+02  0.37306391823E+01  0.20615873415E+02  0.00000000000E+00 0. -1.
<mgrwt>
<rscale>  0 0.13378871E+03</rscale>
<asrwt>0</asrwt>
<pdfrwt beam="1">  1        2 0.12575320E+00 0.14174072E+03</pdfrwt>
<pdfrwt beam="2">  1       -2 0.43901314E-02 0.14174072E+03</pdfrwt>
<totfact> 0.79603188E+03</totfact>
</mgrwt>
</event>
<event>
 8    1  0.7550631E-006  0.1254696E+03  0.7546771E-02  0.1255976E+00
          1   -1    0    0  501    0  0.00000000000E+00  0.00000000000E+00  0.11969879758E+04  0.11969879758E+04  0.00000000000E+00 0. -1.
         -1   -1    0    0    0  501 -0.00000000000E+00 -0.00000000000E+00 -0.10924434550E+02  0.10924434550E+02  0.00000000000E+00 0.  1.
         23    2    1    2    0    0 -0.50852335217E+01 -0.96260359901E+01  0.23516925982E+03  0.24877604984E+03  0.80414066203E+02 0.  0.
         23    2    1    2    0    0  0.50852335217E+01  0.96260359901E+01  0.95089428143E+03  0.95913636050E+03  0.12499641362E+03 0.  0.
          5    1    4    4  502    0  0.29163431100E+01  0.59567259085E+02  0.27761595730E+03  0.28398850885E+03  0.47000000000E+01 0.  1.
         -5    1    4    4    0  502  0.21688904117E+01 -0.49941223095E+02  0.67327832413E+03  0.67514785165E+03  0.47000000000E+01 0.  1.
        -11    1    3    3    0    0  0.30363342883E+02  0.18382223779E+02  0.11698189484E+03  0.12224811844E+03  0.00000000000E+00 0.  1.
         11    1    3    3    0    0 -0.35448576405E+02 -0.28008259769E+02  0.11818736498E+03  0.12652793140E+03  0.00000000000E+00 0. -1.
<mgrwt>
<rscale>  0 0.11251824E+03</rscale>
<asrwt>0</asrwt>
<pdfrwt beam="1">  1        1 0.18415189E+00 0.12546961E+03</pdfrwt>
<pdfrwt beam="2">  1       -1 0.16806832E-02 0.12546961E+03</pdfrwt>
<totfact> 0.98123251E+03</totfact>
</mgrwt>
</event>
<event>
 8    1  0.7550631E-006  0.1283836E+03  0.7546771E-02  0.1253171E+00
         -1   -1    0    0    0  501 -0.00000000000E+00  0.00000000000E+00  0.86146030446E+03  0.86146030446E+03  0.00000000000E+00 0.  1.
          1   -1    0    0  501    0  0.00000000000E+00 -0.00000000000E+00 -0.12629185060E+02  0.12629185060E+02  0.00000000000E+00 0. -1.
         23    2    1    2    0    0 -0.15722329610E+02 -0.24708552695E+02  0.31023571801E+03  0.32040424755E+03  0.74531717376E+02 0.  0.
         23    2    1    2    0    0  0.15722329610E+02  0.24708552695E+02  0.53859540140E+03  0.55368524197E+03  0.12499854619E+03 0.  0.
          5    1    4    4  502    0  0.47458536297E+02  0.59112032833E+01  0.49071402777E+03  0.49306145869E+03  0.47000000000E+01 0. -1.
         -5    1    4    4    0  502 -0.31736206687E+02  0.18797349412E+02  0.47881373626E+02  0.60623783287E+02  0.47000000000E+01 0. -1.
        -11    1    3    3    0    0  0.51118681889E-01  0.25721151561E+02  0.13280638775E+03  0.13527422844E+03  0.00000000000E+00 0. -1.
         11    1    3    3    0    0 -0.15773448292E+02 -0.50429704256E+02  0.17742933025E+03  0.18513001911E+03  0.00000000000E+00 0.  1.
<mgrwt>
<rscale>  0 0.11409380E+03</rscale>
<asrwt>0</asrwt>
<pdfrwt beam="2">  1        1 0.19429522E-02 0.12838357E+03</pdfrwt>
<pdfrwt beam="1">  1       -1 0.13253231E+00 0.12838357E+03</pdfrwt>
<totfact> 0.31364126E+03</totfact>
</mgrwt>
</event>
<event>
 7    1  0.7550631E-006  0.1218306E+03  0.7546771E-02  0.1308537E+00
          1   -1    0    0  501    0  0.00000000000E+00  0.00000000000E+00  0.98870056935E+02  0.98870056935E+02  0.00000000000E+00 0. -1.
         -1   -1    0    0    0  501 -0.00000000000E+00 -0.00000000000E+00 -0.71962205184E+02  0.71962205184E+02  0.00000000000E+00 0.  1.
         23    2    1    2    0    0 -0.24901642715E+02  0.15320832962E+00  0.49054898595E+02  0.13133570310E+03  0.11925841081E+03 0.  0.
          5    1    3    3  502    0 -0.22353608135E+02  0.14455875290E+02  0.86644340260E+02  0.90763361695E+02  0.47000000000E+01 0. -1.
         -5    1    3    3    0  502 -0.25480345803E+01 -0.14302666960E+02 -0.37589441665E+02  0.40572341405E+02  0.47000000000E+01 0.  1.
        -11    1    1    2    0    0  0.10105174571E+02  0.74323297554E+01 -0.98374589740E+00  0.12582600474E+02  0.00000000000E+00 0. -1.
         11    1    1    2    0    0  0.14796468145E+02 -0.75855380850E+01 -0.21163300947E+02  0.26913958545E+02  0.00000000000E+00 0.  1.
<mgrwt>
<rscale>  0 0.87692828E+02</rscale>
<asrwt>0</asrwt>
<pdfrwt beam="1">  1        1 0.15210778E-01 0.12183055E+03</pdfrwt>
<pdfrwt beam="2">  1       -1 0.11071109E-01 0.12183055E+03</pdfrwt>
<totfact> 0.17469068E+04</totfact>
</mgrwt>
</event>
<event>
 8    1  0.7550631E-006  0.1573930E+03  0.7546771E-02  0.1200853E+00
          1   -1    0    0  501    0  0.00000000000E+00  0.00000000000E+00  0.21380736726E+03  0.21380736726E+03  0.00000000000E+00 0. -1.
         -1   -1    0    0    0  501 -0.00000000000E+00 -0.00000000000E+00 -0.10047666066E+03  0.10047666066E+03  0.00000000000E+00 0.  1.
         23    2    1    2    0    0  0.95617249761E+02  0.45854881731E+00  0.17357911185E+02  0.12993833067E+03  0.86254298311E+02 0.  0.
         23    2    1    2    0    0 -0.95617249761E+02 -0.45854881731E+00  0.95972795419E+02  0.18434569725E+03  0.12501875825E+03 0.  0.
          5    1    4    4  502    0 -0.56195260046E+02 -0.55346140878E+02  0.17965061851E+02  0.81030463463E+02  0.47000000000E+01 0. -1.
         -5    1    4    4    0  502 -0.39421989715E+02  0.54887592061E+02  0.78007733568E+02  0.10331523378E+03  0.47000000000E+01 0. -1.
        -11    1    3    3    0    0  0.76607116193E+02 -0.37558957883E+02  0.18969409551E+02  0.87402311567E+02  0.00000000000E+00 0. -1.
         11    1    3    3    0    0  0.19010133568E+02  0.38017506700E+02 -0.16114983659E+01  0.42536019101E+02  0.00000000000E+00 0.  1.
<mgrwt>
<rscale>  0 0.14969107E+03</rscale>
<asrwt>0</asrwt>
<pdfrwt beam="1">  1        1 0.32893441E-01 0.15739301E+03</pdfrwt>
<pdfrwt beam="2">  1       -1 0.15457948E-01 0.15739301E+03</pdfrwt>
<totfact> 0.39983570E+03</totfact>
</mgrwt>
</event>
<event>
 8    1  0.7550631E-006  0.1446993E+03  0.7546771E-02  0.1217323E+00
          1   -1    0    0  501    0  0.00000000000E+00  0.00000000000E+00  0.20024866116E+03  0.20024866116E+03  0.00000000000E+00 0. -1.
         -1   -1    0    0    0  501 -0.00000000000E+00 -0.00000000000E+00 -0.19215052695E+03  0.19215052695E+03  0.00000000000E+00 0.  1.
         23    2    1    2    0    0  0.72849587349E+02 -0.23507975925E+01 -0.14214921220E+03  0.18380355247E+03  0.90910718536E+02 0.  0.
         23    2    1    2    0    0 -0.72849587349E+02  0.23507975925E+01  0.15024734641E+03  0.20859563564E+03  0.12500114191E+03 0.  0.
          5    1    4    4  502    0 -0.50779203992E+02  0.17252400133E+01 -0.54086384204E+01  0.51311279274E+02  0.47000000000E+01 0. -1.
         -5    1    4    4    0  502 -0.22070383356E+02  0.62555757918E+00  0.15565598483E+03  0.15728435637E+03  0.47000000000E+01 0. -1.
        -11    1    3    3    0    0  0.77029139719E+02  0.19296049188E+02 -0.14088185479E+03  0.16172050856E+03  0.00000000000E+00 0.  1.
         11    1    3    3    0    0 -0.41795523700E+01 -0.21646846780E+02 -0.12673574130E+01  0.22083043910E+02  0.00000000000E+00 0. -1.
<mgrwt>
<rscale>  0 0.13707289E+03</rscale>
<asrwt>0</asrwt>
<pdfrwt beam="1">  1        1 0.30807486E-01 0.14469925E+03</pdfrwt>
<pdfrwt beam="2">  1       -1 0.29561620E-01 0.14469925E+03</pdfrwt>
<totfact> 0.15098099E+03</totfact>
</mgrwt>
</event>
<event>
 8    1  0.7550631E-006  0.1255296E+03  0.7546771E-02  0.1250055E+00
          1   -1    0    0  501    0  0.00000000000E+00  0.00000000000E+00  0.37236757905E+03  0.37236757905E+03  0.00000000000E+00 0. -1.
         -1   -1    0    0    0  501 -0.00000000000E+00 -0.00000000000E+00 -0.34375079757E+02  0.34375079757E+02  0.00000000000E+00 0.  1.
         23    2    1    2    0    0 -0.32428206928E+01 -0.11113739060E+02  0.86504735965E+02  0.12566657622E+03  0.90415639981E+02 0.  0.
         23    2    1    2    0    0  0.32428206928E+01  0.11113739060E+02  0.25148776332E+03  0.28107608258E+03  0.12499455194E+03 0.  0.
          5    1    4    4  502    0 -0.18679660324E+02 -0.14187906828E+02  0.24559832618E+03  0.24676072263E+03  0.47000000000E+01 0. -1.
         -5    1    4    4    0  502  0.21922481017E+02  0.25301645888E+02  0.58894371401E+01  0.34315359949E+02  0.47000000000E+01 0. -1.
        -11    1    3    3    0    0 -0.38721123344E+02  0.20318209111E+02  0.39997317908E+02  0.59261627166E+02  0.00000000000E+00 0.  1.
         11    1    3    3    0    0  0.35478302651E+02 -0.31431948172E+02  0.46507418057E+02  0.66404949057E+02  0.00000000000E+00 0. -1.
<mgrwt>
<rscale>  0 0.11587859E+03</rscale>
<asrwt>0</asrwt>
<pdfrwt beam="1">  1        1 0.57287317E-01 0.12552955E+03</pdfrwt>
<pdfrwt beam="2">  1       -1 0.52884741E-02 0.12552955E+03</pdfrwt>
<totfact> 0.10129229E+04</totfact>
</mgrwt>
</event>
<event>
 8    1  0.7550631E-006  0.1559537E+03  0.7546771E-02  0.1201700E+00
          3   -1    0    0  501    0  0.00000000000E+00  0.00000000000E+00  0.18234257505E+03  0.18234257505E+03  0.00000000000E+00 0. -1.
         -3   -1    0    0    0  501 -0.00000000000E+00 -0.00000000000E+00 -0.12662924739E+03  0.12662924739E+03  0.00000000000E+00 0.  1.
         23    2    1    2    0    0 -0.41694723582E+01 -0.93186616259E+02 -0.26552903036E+02  0.13265024812E+03  0.90498075771E+02 0.  0.
         23    2    1    2    0    0  0.41694723582E+01  0.93186616259E+02  0.82266230691E+02  0.17632157432E+03  0.12498173830E+03 0.  0.
          5    1    4    4  502    0  0.24508798228E+01  0.63000907768E+02  0.11517448880E+03  0.13138635417E+03  0.47000000000E+01 0. -1.
         -5    1    4    4    0  502  0.17185925354E+01  0.30185708490E+02 -0.32908258114E+02  0.44935220145E+02  0.47000000000E+01 0. -1.
        -11    1    3    3    0    0  0.39436583142E+02 -0.24580040594E+02  0.19389938592E+01  0.46510022390E+02  0.00000000000E+00 0.  1.
         11    1    3    3    0    0 -0.43606055501E+02 -0.68606575665E+02 -0.28491896895E+02  0.86140225734E+02  0.00000000000E+00 0. -1.
<mgrwt>
<rscale>  0 0.14900603E+03</rscale>
<asrwt>0</asrwt>
<pdfrwt beam="1">  1        3 0.28052704E-01 0.15595373E+03</pdfrwt>
<pdfrwt beam="2">  1       -3 0.19481423E-01 0.15595373E+03</pdfrwt>
<totfact> 0.67510365E+02</totfact>
</mgrwt>
</event>
<event>
 8    1  0.7550631E-006  0.1281876E+03  0.7546771E-02  0.1244853E+00
         -1   -1    0    0    0  501 -0.00000000000E+00  0.00000000000E+00  0.10319427392E+03  0.10319427392E+03  0.00000000000E+00 0.  1.
          1   -1    0    0  501    0  0.00000000000E+00 -0.00000000000E+00 -0.12919634572E+03  0.12919634572E+03  0.00000000000E+00 0. -1.
         23    2    1    2    0    0 -0.23591282948E+02 -0.15844664908E+02  0.18301045912E+02  0.96763095188E+02  0.90667338506E+02 0.  0.
         23    2    1    2    0    0  0.23591282948E+02  0.15844664908E+02 -0.44303117719E+02  0.13562752445E+03  0.12499782843E+03 0.  0.
          5    1    4    4  502    0 -0.21136451206E+02 -0.11008093234E+02  0.33777529712E+02  0.41604557438E+02  0.47000000000E+01 0.  1.
         -5    1    4    4    0  502  0.44727734154E+02  0.26852758141E+02 -0.78080647430E+02  0.94022967011E+02  0.47000000000E+01 0.  1.
        -11    1    3    3    0    0 -0.12866119194E+02 -0.38674011182E+02  0.44535013370E+02  0.60370386613E+02  0.00000000000E+00 0.  1.
         11    1    3    3    0    0 -0.10725163754E+02  0.22829346274E+02 -0.26233967458E+02  0.36392708575E+02  0.00000000000E+00 0. -1.
<mgrwt>
<rscale>  0 0.11894179E+03</rscale>
<asrwt>0</asrwt>
<pdfrwt beam="2">  1        1 0.19876361E-01 0.12818759E+03</pdfrwt>
<pdfrwt beam="1">  1       -1 0.15876042E-01 0.12818759E+03</pdfrwt>
<totfact> 0.71261961E+03</totfact>
</mgrwt>
</event>
<event>
 8    1  0.7550631E-006  0.1296864E+03  0.7546771E-02  0.1240937E+00
          1   -1    0    0  501    0  0.00000000000E+00  0.00000000000E+00  0.37415739713E+03  0.37415739713E+03  0.00000000000E+00 0. -1.
         -1   -1    0    0    0  501 -0.00000000000E+00 -0.00000000000E+00 -0.39956289595E+02  0.39956289595E+02  0.00000000000E+00 0.  1.
         23    2    1    2    0    0 -0.21266584005E+01 -0.34356229281E+02  0.75603964798E+02  0.12481962831E+03  0.93161724720E+02 0.  0.
         23    2    1    2    0    0  0.21266584005E+01  0.34356229281E+02  0.25859714273E+03  0.28929405841E+03  0.12503478249E+03 0.  0.
          5    1    4    4  502    0  0.35538807565E+02  0.37088803336E+02  0.24874648326E+03  0.25403836149E+03  0.47000000000E+01 0.  1.
         -5    1    4    4    0  502 -0.33412149165E+02 -0.27325740554E+01  0.98506594724E+01  0.35255696913E+02  0.47000000000E+01 0.  1.
        -11    1    3    3    0    0  0.11503197775E+02 -0.56626414937E+02  0.16324443702E+02  0.60044665790E+02  0.00000000000E+00 0.  1.
         11    1    3    3    0    0 -0.13629856175E+02  0.22270185656E+02  0.59279521096E+02  0.64774962524E+02  0.00000000000E+00 0. -1.
<mgrwt>
<rscale>  0 0.12131861E+03</rscale>
<asrwt>0</asrwt>
<pdfrwt beam="1">  1        1 0.57562674E-01 0.12968643E+03</pdfrwt>
<pdfrwt beam="2">  1       -1 0.61471217E-02 0.12968643E+03</pdfrwt>
<totfact> 0.80730392E+03</totfact>
</mgrwt>
</event>
<event>
 8    1  0.7550631E-006  0.1426230E+03  0.7546771E-02  0.1220521E+00
          1   -1    0    0  501    0  0.00000000000E+00  0.00000000000E+00  0.74646467741E+03  0.74646467741E+03  0.00000000000E+00 0. -1.
         -1   -1    0    0    0  501 -0.00000000000E+00 -0.00000000000E+00 -0.25209062333E+02  0.25209062333E+02  0.00000000000E+00 0.  1.
         23    2    1    2    0    0  0.34170419561E+02  0.59563830261E+02  0.18862178763E+03  0.22027541064E+03  0.90706175741E+02 0.  0.
         23    2    1    2    0    0 -0.34170419561E+02 -0.59563830261E+02  0.53263382745E+03  0.55139832910E+03  0.12500342293E+03 0.  0.
          5    1    4    4  502    0 -0.33221474459E+02  0.29068326076E+02  0.28284536304E+03  0.28630791700E+03  0.47000000000E+01 0. -1.
         -5    1    4    4    0  502 -0.94894510193E+00 -0.88632156337E+02  0.24978846441E+03  0.26509041210E+03  0.47000000000E+01 0. -1.
        -11    1    3    3    0    0  0.13525126621E+02  0.79686987614E+02  0.10976130936E+03  0.13631027135E+03  0.00000000000E+00 0.  1.
         11    1    3    3    0    0  0.20645292940E+02 -0.20123157353E+02  0.78860478272E+02  0.83965139289E+02  0.00000000000E+00 0. -1.
<mgrwt>
<rscale>  0 0.13478665E+03</rscale>
<asrwt>0</asrwt>
<pdfrwt beam="1">  1        1 0.11484070E+00 0.14262301E+03</pdfrwt>
<pdfrwt beam="2">  1       -1 0.38783179E-02 0.14262301E+03</pdfrwt>
<totfact> 0.63921876E+03</totfact>
</mgrwt>
</event>
<event>
 8    1  0.7550631E-006  0.1595740E+03  0.7546771E-02  0.1196651E+00
          4   -1    0    0  501    0  0.00000000000E+00  0.00000000000E+00  0.62181451088E+03  0.62181451088E+03  0.00000000000E+00 0.  1.
         -4   -1    0    0    0  501 -0.00000000000E+00 -0.00000000000E+00 -0.36836107740E+02  0.36836107740E+02  0.00000000000E+00 0. -1.
         23    2    1    2    0    0  0.84530997610E+02 -0.51923814561E+02  0.19607908627E+03  0.23828585692E+03  0.92149712220E+02 0.  0.
         23    2    1    2    0    0 -0.84530997610E+02  0.51923814561E+02  0.38889931687E+03  0.42036476170E+03  0.12498912807E+03 0.  0.
          5    1    4    4  502    0 -0.18790262367E+02  0.65853022485E+02  0.85848081505E+02  0.10991668494E+03  0.47000000000E+01 0.  1.
         -5    1    4    4    0  502 -0.65740735243E+02 -0.13929207924E+02  0.30305123537E+03  0.31044807676E+03  0.47000000000E+01 0.  1.
        -11    1    3    3    0    0  0.38262288131E+02 -0.43887307969E+02  0.29613068058E+02  0.65322525163E+02  0.00000000000E+00 0. -1.
         11    1    3    3    0    0  0.46268709479E+02 -0.80365065921E+01  0.16646601821E+03  0.17296333176E+03  0.00000000000E+00 0.  1.
<mgrwt>
<rscale>  0 0.15315323E+03</rscale>
<asrwt>0</asrwt>
<pdfrwt beam="1">  1        4 0.95663763E-01 0.15957398E+03</pdfrwt>
<pdfrwt beam="2">  1       -4 0.56670940E-02 0.15957398E+03</pdfrwt>
<totfact> 0.31693915E+02</totfact>
</mgrwt>
</event>
<event>
 7    1  0.7550631E-006  0.3746768E+03  0.7546771E-02  0.1052919E+00
          1   -1    0    0  501    0  0.00000000000E+00  0.00000000000E+00  0.25735749524E+03  0.25735749524E+03  0.00000000000E+00 0. -1.
         -1   -1    0    0    0  501 -0.00000000000E+00 -0.00000000000E+00 -0.13636936316E+03  0.13636936316E+03  0.00000000000E+00 0.  1.
         23    2    1    2    0    0  0.87793829156E+01 -0.90871341867E+02  0.17815894147E+02  0.12981729526E+03  0.90556312458E+02 0.  0.
          5    1    1    2  502    0  0.72625904482E+02 -0.19122226392E+02 -0.21996884055E+02  0.78397286000E+02  0.47000000000E+01 0. -1.
         -5    1    1    2    0  502 -0.81405287398E+02  0.10999356826E+03  0.12516912198E+03  0.18551227715E+03  0.47000000000E+01 0.  1.
        -11    1    3    3    0    0  0.32831474515E+02  0.96215547127E+00 -0.17452243789E+01  0.32891902804E+02  0.00000000000E+00 0.  1.
         11    1    3    3    0    0 -0.24052091599E+02 -0.91833497339E+02  0.19561118526E+02  0.96925392451E+02  0.00000000000E+00 0. -1.
<mgrwt>
<rscale>  0 0.37467681E+03</rscale>
<asrwt>0</asrwt>
<pdfrwt beam="1">  1        1 0.39593461E-01 0.37467681E+03</pdfrwt>
<pdfrwt beam="2">  1       -1 0.20979902E-01 0.37467681E+03</pdfrwt>
<totfact> 0.19926737E+03</totfact>
</mgrwt>
</event>
<event>
 8    1  0.7550631E-006  0.1518155E+03  0.7546771E-02  0.1207358E+00
         -2   -1    0    0    0  501 -0.00000000000E+00  0.00000000000E+00  0.47326248700E+03  0.47326248700E+03  0.00000000000E+00 0.  1.
          2   -1    0    0  501    0  0.00000000000E+00 -0.00000000000E+00 -0.46770880955E+02  0.46770880955E+02  0.00000000000E+00 0. -1.
         23    2    1    2    0    0 -0.69390411473E+02  0.51084181280E+02  0.29081080642E+03  0.31642286971E+03  0.90154781146E+02 0.  0.
         23    2    1    2    0    0  0.69390411473E+02 -0.51084181280E+02  0.13568079963E+03  0.20361049825E+03  0.12499333113E+03 0.  0.
          5    1    4    4  502    0  0.11229736054E+02 -0.83471152139E+02  0.85549572630E+02  0.12014307965E+03  0.47000000000E+01 0.  1.
         -5    1    4    4    0  502  0.58160675420E+02  0.32386970860E+02  0.50131227002E+02  0.83467418598E+02  0.47000000000E+01 0.  1.
        -11    1    3    3    0    0 -0.15603380016E+02 -0.10624232913E+02  0.55896386404E+01  0.19687149439E+02  0.00000000000E+00 0. -1.
         11    1    3    3    0    0 -0.53787031457E+02  0.61708414192E+02  0.28522116778E+03  0.29673572027E+03  0.00000000000E+00 0.  1.
<mgrwt>
<rscale>  0 0.14453140E+03</rscale>
<asrwt>0</asrwt>
<pdfrwt beam="2">  1        2 0.71955205E-02 0.15181553E+03</pdfrwt>
<pdfrwt beam="1">  1       -2 0.72809610E-01 0.15181553E+03</pdfrwt>
<totfact> 0.16597672E+03</totfact>
</mgrwt>
</event>
<event>
 8    1  0.7550631E-006  0.1629098E+03  0.7546771E-02  0.1192765E+00
          1   -1    0    0  501    0  0.00000000000E+00  0.00000000000E+00  0.66922372717E+03  0.66922372717E+03  0.00000000000E+00 0. -1.
         -1   -1    0    0    0  501 -0.00000000000E+00 -0.00000000000E+00 -0.35421487797E+02  0.35421487797E+02  0.00000000000E+00 0.  1.
         23    2    1    2    0    0  0.98831073457E+02 -0.33869324765E+02  0.22084310268E+03  0.26071407072E+03  0.91024383698E+02 0.  0.
         23    2    1    2    0    0 -0.98831073457E+02  0.33869324765E+02  0.41295913669E+03  0.44393114424E+03  0.12499960007E+03 0.  0.
          5    1    4    4  502    0 -0.11597190085E+03  0.31307497467E+01  0.37212517805E+03  0.38981857513E+03  0.47000000000E+01 0.  1.
         -5    1    4    4    0  502  0.17140827393E+02  0.30738575018E+02  0.40833958641E+02  0.54112569114E+02  0.47000000000E+01 0.  1.
        -11    1    3    3    0    0  0.17737552377E+02 -0.19867709986E+02  0.17676556350E+01  0.26692157479E+02  0.00000000000E+00 0.  1.
         11    1    3    3    0    0  0.81093521080E+02 -0.14001614778E+02  0.21907544705E+03  0.23402191324E+03  0.00000000000E+00 0. -1.
<mgrwt>
<rscale>  0 0.15644927E+03</rscale>
<asrwt>0</asrwt>
<pdfrwt beam="1">  1        1 0.10295749E+00 0.16290983E+03</pdfrwt>
<pdfrwt beam="2">  1       -1 0.54494602E-02 0.16290983E+03</pdfrwt>
<totfact> 0.45513466E+03</totfact>
</mgrwt>
</event>
<event>
 8    1  0.7550631E-006  0.1449313E+03  0.7546771E-02  0.1217335E+00
          2   -1    0    0  501    0  0.00000000000E+00  0.00000000000E+00  0.85058341309E+03  0.85058341309E+03  0.00000000000E+00 0. -1.
         -2   -1    0    0    0  501 -0.00000000000E+00 -0.00000000000E+00 -0.20423502702E+02  0.20423502702E+02  0.00000000000E+00 0.  1.
         23    2    1    2    0    0  0.23988368264E+02  0.69316230273E+02  0.30763099165E+03  0.32875093974E+03  0.89778459376E+02 0.  0.
         23    2    1    2    0    0 -0.23988368264E+02 -0.69316230273E+02  0.52252891874E+03  0.54225597605E+03  0.12499956420E+03 0.  0.
          5    1    4    4  502    0 -0.53395579091E+02  0.39607826408E+01  0.11265757559E+03  0.12482225364E+03  0.47000000000E+01 0.  1.
         -5    1    4    4    0  502  0.29407210827E+02 -0.73277012914E+02  0.40987134315E+03  0.41743372241E+03  0.47000000000E+01 0.  1.
        -11    1    3    3    0    0 -0.32215746706E+02  0.43197521908E+02  0.14871966862E+03  0.15818160472E+03  0.00000000000E+00 0. -1.
         11    1    3    3    0    0  0.56204114970E+02  0.26118708365E+02  0.15891132302E+03  0.17056933502E+03  0.00000000000E+00 0.  1.
<mgrwt>
<rscale>  0 0.13706384E+03</rscale>
<asrwt>0</asrwt>
<pdfrwt beam="1">  1        2 0.13085896E+00 0.14493127E+03</pdfrwt>
<pdfrwt beam="2">  1       -2 0.31420780E-02 0.14493127E+03</pdfrwt>
<totfact> 0.12448407E+04</totfact>
</mgrwt>
</event>
<event>
 8    1  0.7550631E-006  0.1889484E+03  0.7546771E-02  0.1165608E+00
          1   -1    0    0  501    0  0.00000000000E+00  0.00000000000E+00  0.10854961509E+04  0.10854961509E+04  0.00000000000E+00 0. -1.
         -1   -1    0    0    0  501 -0.00000000000E+00 -0.00000000000E+00 -0.32537511937E+02  0.32537511937E+02  0.00000000000E+00 0.  1.
         23    2    1    2    0    0  0.10087556552E+02 -0.14133017083E+03  0.30018574932E+03  0.34190961732E+03  0.81943433750E+02 0.  0.
         23    2    1    2    0    0 -0.10087556552E+02  0.14133017083E+03  0.75277288964E+03  0.77612404552E+03  0.12500213867E+03 0.  0.
          5    1    4    4  502    0 -0.55698830794E+02  0.11490110300E+03  0.62310949938E+03  0.63607559413E+03  0.47000000000E+01 0. -1.
         -5    1    4    4    0  502  0.45611274242E+02  0.26429067825E+02  0.12966339026E+03  0.14004845139E+03  0.47000000000E+01 0. -1.
        -11    1    3    3    0    0  0.39892939370E+02 -0.11903404693E+03  0.21542532315E+03  0.24933636075E+03  0.00000000000E+00 0.  1.
         11    1    3    3    0    0 -0.29805382819E+02 -0.22296123901E+02  0.84760426177E+02  0.92573256568E+02  0.00000000000E+00 0. -1.
<mgrwt>
<rscale>  0 0.18228691E+03</rscale>
<asrwt>0</asrwt>
<pdfrwt beam="1">  1        1 0.16699938E+00 0.18894843E+03</pdfrwt>
<pdfrwt beam="2">  1       -1 0.50057719E-02 0.18894843E+03</pdfrwt>
<totfact> 0.24174763E+03</totfact>
</mgrwt>
</event>
<event>
 8    1  0.7550631E-006  0.1417052E+03  0.7546771E-02  0.1222328E+00
          1   -1    0    0  501    0  0.00000000000E+00  0.00000000000E+00  0.69404915075E+03  0.69404915075E+03  0.00000000000E+00 0. -1.
         -1   -1    0    0    0  501 -0.00000000000E+00 -0.00000000000E+00 -0.23180515121E+02  0.23180515121E+02  0.00000000000E+00 0.  1.
         23    2    1    2    0    0 -0.59691339406E+02  0.29872409151E+02  0.31278658852E+03  0.33212822548E+03  0.89544912608E+02 0.  0.
         23    2    1    2    0    0  0.59691339406E+02 -0.29872409151E+02  0.35808204711E+03  0.38510144039E+03  0.12499980040E+03 0.  0.
          5    1    4    4  502    0 -0.19388090964E+02  0.34349915144E+02  0.10109783255E+03  0.10862171278E+03  0.47000000000E+01 0. -1.
         -5    1    4    4    0  502  0.79079430370E+02 -0.64222324295E+02  0.25698421456E+03  0.27647972761E+03  0.47000000000E+01 0. -1.
        -11    1    3    3    0    0 -0.54271597360E+02 -0.21507891164E+02  0.19397773665E+03  0.20257185880E+03  0.00000000000E+00 0.  1.
         11    1    3    3    0    0 -0.54197420459E+01  0.51380300315E+02  0.11880885187E+03  0.12955636668E+03  0.00000000000E+00 0. -1.
<mgrwt>
<rscale>  0 0.13351769E+03</rscale>
<asrwt>0</asrwt>
<pdfrwt beam="1">  1        1 0.10677678E+00 0.14170521E+03</pdfrwt>
<pdfrwt beam="2">  1       -1 0.35662336E-02 0.14170521E+03</pdfrwt>
<totfact> 0.80290636E+03</totfact>
</mgrwt>
</event>
<event>
 8    1  0.7550631E-006  0.1521480E+03  0.7546771E-02  0.1206972E+00
         -4   -1    0    0    0  501 -0.00000000000E+00  0.00000000000E+00  0.77606895248E+02  0.77606895248E+02  0.00000000000E+00 0.  1.
          4   -1    0    0  501    0  0.00000000000E+00 -0.00000000000E+00 -0.25647015043E+03  0.25647015043E+03  0.00000000000E+00 0. -1.
         23    2    1    2    0    0 -0.57442936329E+02 -0.65004053087E+02 -0.49529747846E+02  0.13438689617E+03  0.89896741254E+02 0.  0.
         23    2    1    2    0    0  0.57442936329E+02  0.65004053087E+02 -0.12933350733E+03  0.19969014951E+03  0.12499512726E+03 0.  0.
          5    1    4    4  502    0  0.68089028334E+02  0.50378848255E+02 -0.14968913735E+03  0.17205543285E+03  0.47000000000E+01 0.  1.
         -5    1    4    4    0  502 -0.10646092005E+02  0.14625204832E+02  0.20355630021E+02  0.27634716660E+02  0.47000000000E+01 0.  1.
        -11    1    3    3    0    0 -0.51700221628E+02 -0.23538455389E+02 -0.68022310891E+02  0.88622833274E+02  0.00000000000E+00 0. -1.
         11    1    3    3    0    0 -0.57427147006E+01 -0.41465597698E+02  0.18492563045E+02  0.45764062894E+02  0.00000000000E+00 0.  1.
<mgrwt>
<rscale>  0 0.14483158E+03</rscale>
<asrwt>0</asrwt>
<pdfrwt beam="2">  1        4 0.39456947E-01 0.15214795E+03</pdfrwt>
<pdfrwt beam="1">  1       -4 0.11939522E-01 0.15214795E+03</pdfrwt>
<totfact> 0.59353158E+02</totfact>
</mgrwt>
</event>
<event>
 7    1  0.7550631E-006  0.1398535E+03  0.7546771E-02  0.1229824E+00
          1   -1    0    0  501    0  0.00000000000E+00  0.00000000000E+00  0.79649080153E+02  0.79649080153E+02  0.00000000000E+00 0. -1.
         -1   -1    0    0    0  501 -0.00000000000E+00 -0.00000000000E+00 -0.22889012207E+03  0.22889012207E+03  0.00000000000E+00 0.  1.
         23    2    1    2    0    0  0.37214792550E+02 -0.99681700549E+01 -0.13543131404E+03  0.16800552146E+03  0.91651018657E+02 0.  0.
          5    1    1    2  502    0 -0.11720102201E+02  0.71167158895E+02  0.16435021980E+01  0.72297416277E+02  0.47000000000E+01 0. -1.
         -5    1    1    2    0  502 -0.25494690349E+02 -0.61198988840E+02 -0.15453230078E+02  0.68236264485E+02  0.47000000000E+01 0.  1.
        -11    1    3    3    0    0 -0.22075812315E+02  0.18091991582E+02 -0.18749807572E+02  0.34149918489E+02  0.00000000000E+00 0.  1.
         11    1    3    3    0    0  0.59290604865E+02 -0.28060161637E+02 -0.11668150646E+03  0.13385560297E+03  0.00000000000E+00 0. -1.
<mgrwt>
<rscale>  0 0.12841709E+03</rscale>
<asrwt>0</asrwt>
<pdfrwt beam="1">  1        1 0.12253705E-01 0.13985352E+03</pdfrwt>
<pdfrwt beam="2">  1       -1 0.35213865E-01 0.13985352E+03</pdfrwt>
<totfact> 0.36326485E+03</totfact>
</mgrwt>
</event>
<event>
 8    1  0.7550631E-006  0.1441619E+03  0.7546771E-02  0.1217980E+00
          2   -1    0    0  501    0  0.00000000000E+00  0.00000000000E+00  0.67185572883E+03  0.67185572883E+03  0.00000000000E+00 0. -1.
         -2   -1    0    0    0  501 -0.00000000000E+00 -0.00000000000E+00 -0.42351773683E+02  0.42351773683E+02  0.00000000000E+00 0.  1.
         23    2    1    2    0    0  0.46534874689E+02 -0.54686057197E+02  0.68322349448E+02  0.13480484400E+03  0.91369267905E+02 0.  0.
         23    2    1    2    0    0 -0.46534874689E+02  0.54686057197E+02  0.56118160570E+03  0.57940265852E+03  0.12500634666E+03 0.  0.
          5    1    4    4  502    0 -0.74256566047E+02  0.32503505031E+02  0.51290576957E+03  0.51929272467E+03  0.47000000000E+01 0. -1.
         -5    1    4    4    0  502  0.27721691358E+02  0.22182552167E+02  0.48275836128E+02  0.60109933840E+02  0.47000000000E+01 0. -1.
        -11    1    3    3    0    0  0.30540766437E+02 -0.40348695341E+02  0.90652923760E+02  0.10382055777E+03  0.00000000000E+00 0. -1.
         11    1    3    3    0    0  0.15994108252E+02 -0.14337361856E+02 -0.22330574312E+02  0.30984286225E+02  0.00000000000E+00 0.  1.
<mgrwt>
<rscale>  0 0.13659891E+03</rscale>
<asrwt>0</asrwt>
<pdfrwt beam="1">  1        2 0.10336241E+00 0.14416187E+03</pdfrwt>
<pdfrwt beam="2">  1       -2 0.65156580E-02 0.14416187E+03</pdfrwt>
<totfact> 0.55700523E+03</totfact>
</mgrwt>
</event>
<event>
 8    1  0.7550631E-006  0.1403888E+03  0.7546771E-02  0.1223971E+00
         -1   -1    0    0    0  501 -0.00000000000E+00  0.00000000000E+00  0.45732063994E+02  0.45732063994E+02  0.00000000000E+00 0.  1.
          1   -1    0    0  501    0  0.00000000000E+00 -0.00000000000E+00 -0.35364878575E+03  0.35364878575E+03  0.00000000000E+00 0. -1.
         23    2    1    2    0    0 -0.75752284737E+01  0.63464706239E+02 -0.10610545507E+03  0.15354185661E+03  0.90728061333E+02 0.  0.
         23    2    1    2    0    0  0.75752284737E+01 -0.63464706239E+02 -0.20181126669E+03  0.24583899313E+03  0.12499548054E+03 0.  0.
          5    1    4    4  502    0  0.59071408688E+02 -0.45424245879E+01 -0.64363434977E+02  0.87605974154E+02  0.47000000000E+01 0.  1.
         -5    1    4    4    0  502 -0.51496180214E+02 -0.58922281651E+02 -0.13744783171E+03  0.15823301897E+03  0.47000000000E+01 0.  1.
        -11    1    3    3    0    0 -0.28825088911E+02  0.62360785637E+02 -0.30801564244E+02  0.75289373061E+02  0.00000000000E+00 0.  1.
         11    1    3    3    0    0  0.21249860438E+02  0.11039206022E+01 -0.75303890821E+02  0.78252483552E+02  0.00000000000E+00 0. -1.
<mgrwt>
<rscale>  0 0.13237664E+03</rscale>
<asrwt>0</asrwt>
<pdfrwt beam="2">  1        1 0.54407506E-01 0.14038883E+03</pdfrwt>
<pdfrwt beam="1">  1       -1 0.70357021E-02 0.14038883E+03</pdfrwt>
<totfact> 0.71165332E+03</totfact>
</mgrwt>
</event>
<event>
 8    1  0.7550631E-006  0.1344803E+03  0.7546771E-02  0.1235522E+00
         -1   -1    0    0    0  501 -0.00000000000E+00  0.00000000000E+00  0.62393812545E+02  0.62393812545E+02  0.00000000000E+00 0.  1.
          1   -1    0    0  501    0  0.00000000000E+00 -0.00000000000E+00 -0.22117644255E+03  0.22117644255E+03  0.00000000000E+00 0. -1.
         23    2    1    2    0    0 -0.11605274879E+02 -0.48261055279E+02 -0.54626939969E+02  0.11347216954E+03  0.86185954935E+02 0.  0.
         23    2    1    2    0    0  0.11605274879E+02  0.48261055279E+02 -0.10415569004E+03  0.17009808556E+03  0.12498455537E+03 0.  0.
          5    1    4    4  502    0  0.37329840972E+02  0.76670552836E+01 -0.11445488160E+03  0.12072410979E+03  0.47000000000E+01 0. -1.
         -5    1    4    4    0  502 -0.25724566093E+02  0.40593999995E+02  0.10299191558E+02  0.49373975767E+02  0.47000000000E+01 0. -1.
        -11    1    3    3    0    0 -0.29933515558E+02 -0.65796571160E+02 -0.30473649259E+02  0.78446462184E+02  0.00000000000E+00 0.  1.
         11    1    3    3    0    0  0.18328240679E+02  0.17535515881E+02 -0.24153290711E+02  0.35025707356E+02  0.00000000000E+00 0. -1.
<mgrwt>
<rscale>  0 0.12471066E+03</rscale>
<asrwt>0</asrwt>
<pdfrwt beam="2">  1        1 0.34027145E-01 0.13448030E+03</pdfrwt>
<pdfrwt beam="1">  1       -1 0.95990480E-02 0.13448030E+03</pdfrwt>
<totfact> 0.79381193E+03</totfact>
</mgrwt>
</event>
<event>
 8    1  0.7550631E-006  0.1291319E+03  0.7546771E-02  0.1243394E+00
         -2   -1    0    0    0  501 -0.00000000000E+00  0.00000000000E+00  0.96296013946E+02  0.96296013946E+02  0.00000000000E+00 0.  1.
          2   -1    0    0  501    0  0.00000000000E+00 -0.00000000000E+00 -0.13350552686E+03  0.13350552686E+03  0.00000000000E+00 0. -1.
         23    2    1    2    0    0 -0.24297047850E+02  0.21468156940E+02 -0.11535378329E+01  0.95730368373E+02  0.90065223493E+02 0.  0.
         23    2    1    2    0    0  0.24297047850E+02 -0.21468156940E+02 -0.36055975081E+02  0.13407117243E+03  0.12499527048E+03 0.  0.
          5    1    4    4  502    0 -0.46077686109E+02  0.16248684688E+02 -0.11654384245E+02  0.50448861071E+02  0.47000000000E+01 0.  1.
         -5    1    4    4    0  502  0.70374733959E+02 -0.37716841628E+02 -0.24401590836E+02  0.83622311362E+02  0.47000000000E+01 0.  1.
        -11    1    3    3    0    0 -0.21391825739E+02  0.56461738750E+02 -0.39351512997E+01  0.60506392776E+02  0.00000000000E+00 0.  1.
         11    1    3    3    0    0 -0.29052221110E+01 -0.34993581810E+02  0.27816134668E+01  0.35223975597E+02  0.00000000000E+00 0. -1.
<mgrwt>
<rscale>  0 0.11982010E+03</rscale>
<asrwt>0</asrwt>
<pdfrwt beam="2">  1        2 0.20539312E-01 0.12913189E+03</pdfrwt>
<pdfrwt beam="1">  1       -2 0.14814771E-01 0.12913189E+03</pdfrwt>
<totfact> 0.88400127E+03</totfact>
</mgrwt>
</event>
<event>
 8    1  0.7550631E-006  0.1464834E+03  0.7546771E-02  0.1216436E+00
          2   -1    0    0  501    0  0.00000000000E+00  0.00000000000E+00  0.64185593128E+03  0.64185593128E+03  0.00000000000E+00 0. -1.
         -2   -1    0    0    0  501 -0.00000000000E+00 -0.00000000000E+00 -0.28679707613E+02  0.28679707613E+02  0.00000000000E+00 0.  1.
         23    2    1    2    0    0 -0.76240445931E+02 -0.43400078354E+01  0.18034582022E+03  0.21358973596E+03  0.85232148707E+02 0.  0.
         23    2    1    2    0    0  0.76240445931E+02  0.43400078354E+01  0.43283040345E+03  0.45694590293E+03  0.12500383511E+03 0.  0.
          5    1    4    4  502    0  0.18965865467E+02 -0.40194969093E+02  0.31737423044E+03  0.32050558769E+03  0.47000000000E+01 0. -1.
         -5    1    4    4    0  502  0.57274580464E+02  0.44534976928E+02  0.11545617301E+03  0.13644031524E+03  0.47000000000E+01 0. -1.
        -11    1    3    3    0    0  0.92104818801E+01 -0.14335537870E+02  0.41895551581E+01  0.17546879919E+02  0.00000000000E+00 0.  1.
         11    1    3    3    0    0 -0.85450927811E+02  0.99955300346E+01  0.17615626506E+03  0.19604285604E+03  0.00000000000E+00 0. -1.
<mgrwt>
<rscale>  0 0.13771574E+03</rscale>
<asrwt>0</asrwt>
<pdfrwt beam="1">  1        2 0.98747056E-01 0.14648345E+03</pdfrwt>
<pdfrwt beam="2">  1       -2 0.44122632E-02 0.14648345E+03</pdfrwt>
<totfact> 0.10593470E+04</totfact>
</mgrwt>
</event>
<event>
 7    1  0.7550631E-006  0.1373811E+03  0.7546771E-02  0.1245093E+00
         -1   -1    0    0    0  501 -0.00000000000E+00  0.00000000000E+00  0.60101258098E+03  0.60101258098E+03  0.00000000000E+00 0.  1.
          1   -1    0    0  501    0  0.00000000000E+00 -0.00000000000E+00 -0.19119136333E+02  0.19119136333E+02  0.00000000000E+00 0. -1.
         23    2    1    2    0    0 -0.36040380917E+02  0.44153618784E+02  0.36048321925E+03  0.38577416228E+03  0.12500040726E+03 0.  0.
          5    1    3    3  502    0 -0.70684611100E+02 -0.72761409760E+01  0.23773129636E+03  0.24816832139E+03  0.47000000000E+01 0.  1.
         -5    1    3    3    0  502  0.34644230183E+02  0.51429759760E+02  0.12275192289E+03  0.13760584089E+03  0.47000000000E+01 0.  1.
        -11    1    1    2    0    0  0.17987003781E+02 -0.35981624514E+02  0.20415720109E+03  0.20808260947E+03  0.00000000000E+00 0.  1.
         11    1    1    2    0    0  0.18053377136E+02 -0.81719942704E+01  0.17253024309E+02  0.26274945560E+02  0.00000000000E+00 0. -1.
<mgrwt>
<rscale>  0 0.11879840E+03</rscale>
<asrwt>0</asrwt>
<pdfrwt beam="2">  1        1 0.29414061E-02 0.13738105E+03</pdfrwt>
<pdfrwt beam="1">  1       -1 0.92463459E-01 0.13738105E+03</pdfrwt>
<totfact> 0.40274909E+03</totfact>
</mgrwt>
</event>
<event>
 8    1  0.7550631E-006  0.1919533E+03  0.7546771E-02  0.1161348E+00
          2   -1    0    0  501    0  0.00000000000E+00  0.00000000000E+00  0.45706819912E+03  0.45706819912E+03  0.00000000000E+00 0. -1.
         -2   -1    0    0    0  501 -0.00000000000E+00 -0.00000000000E+00 -0.72873194670E+02  0.72873194670E+02  0.00000000000E+00 0.  1.
         23    2    1    2    0    0 -0.12857262907E+03 -0.67888545413E+02  0.19899549361E+03  0.26321134011E+03  0.92418761861E+02 0.  0.
         23    2    1    2    0    0  0.12857262907E+03  0.67888545413E+02  0.18519951084E+03  0.26673005367E+03  0.12532472690E+03 0.  0.
          5    1    4    4  502    0  0.66905533098E+02  0.67246185375E+02  0.18140568280E+03  0.20476452710E+03  0.47000000000E+01 0.  1.
         -5    1    4    4    0  502  0.61667095974E+02  0.64236003822E+00  0.37938280427E+01  0.61965526573E+02  0.47000000000E+01 0.  1.
        -11    1    3    3    0    0 -0.41018801299E+02 -0.61887801880E+02  0.13679240395E+03  0.15564319407E+03  0.00000000000E+00 0. -1.
         11    1    3    3    0    0 -0.87553827773E+02 -0.60007435330E+01  0.62203089656E+02  0.10756814604E+03  0.00000000000E+00 0.  1.
<mgrwt>
<rscale>  0 0.18683424E+03</rscale>
<asrwt>0</asrwt>
<pdfrwt beam="1">  1        2 0.70318183E-01 0.19195328E+03</pdfrwt>
<pdfrwt beam="2">  1       -2 0.11211261E-01 0.19195328E+03</pdfrwt>
<totfact> 0.37372944E+03</totfact>
</mgrwt>
</event>
<event>
 8    1  0.7550631E-006  0.1887431E+03  0.7546771E-02  0.1164568E+00
          2   -1    0    0  501    0  0.00000000000E+00  0.00000000000E+00  0.45196297526E+03  0.45196297526E+03  0.00000000000E+00 0.  1.
         -2   -1    0    0    0  501 -0.00000000000E+00 -0.00000000000E+00 -0.71066299716E+02  0.71066299716E+02  0.00000000000E+00 0. -1.
         23    2    1    2    0    0 -0.11300231472E+03  0.85033359339E+02  0.15578334008E+03  0.22926070677E+03  0.91059471146E+02 0.  0.
         23    2    1    2    0    0  0.11300231472E+03 -0.85033359339E+02  0.22511333546E+03  0.29376856821E+03  0.12499505003E+03 0.  0.
          5    1    4    4  502    0 -0.22394296996E+01 -0.49600514350E+02  0.13277401443E+03  0.14183178408E+03  0.47000000000E+01 0. -1.
         -5    1    4    4    0  502  0.11524174442E+03 -0.35432844990E+02  0.92339321031E+02  0.15193678412E+03  0.47000000000E+01 0. -1.
        -11    1    3    3    0    0 -0.54106003203E+02  0.75932444989E+02  0.45143007449E+02  0.10359095958E+03  0.00000000000E+00 0. -1.
         11    1    3    3    0    0 -0.58896311520E+02  0.91009143501E+01  0.11064033263E+03  0.12566974719E+03  0.00000000000E+00 0.  1.
<mgrwt>
<rscale>  0 0.18338395E+03</rscale>
<asrwt>0</asrwt>
<pdfrwt beam="1">  1        2 0.69532764E-01 0.18874310E+03</pdfrwt>
<pdfrwt beam="2">  1       -2 0.10933277E-01 0.18874310E+03</pdfrwt>
<totfact> 0.39357380E+03</totfact>
</mgrwt>
</event>
<event>
 8    1  0.7550631E-006  0.1275145E+03  0.7546771E-02  0.1246013E+00
         -3   -1    0    0    0  501 -0.00000000000E+00  0.00000000000E+00  0.24507836113E+03  0.24507836113E+03  0.00000000000E+00 0.  1.
          3   -1    0    0  501    0  0.00000000000E+00 -0.00000000000E+00 -0.52407990300E+02  0.52407990300E+02  0.00000000000E+00 0. -1.
         23    2    1    2    0    0 -0.21830459062E+02 -0.12583529647E+02  0.11278699505E+03  0.14701609861E+03  0.90873058914E+02 0.  0.
         23    2    1    2    0    0  0.21830459062E+02  0.12583529647E+02  0.79883375780E+02  0.15047025282E+03  0.12500011639E+03 0.  0.
          5    1    4    4  502    0  0.59377459777E+02  0.37199562311E+02  0.15628649144E+02  0.71943275153E+02  0.47000000000E+01 0.  1.
         -5    1    4    4    0  502 -0.37547000715E+02 -0.24616032663E+02  0.64254726636E+02  0.78526977669E+02  0.47000000000E+01 0.  1.
        -11    1    3    3    0    0 -0.42471973813E+02 -0.32420405543E+02  0.10424480398E+03  0.11714064372E+03  0.00000000000E+00 0.  1.
         11    1    3    3    0    0  0.20641514750E+02  0.19836875896E+02  0.85421910755E+01  0.29875454890E+02  0.00000000000E+00 0. -1.
<mgrwt>
<rscale>  0 0.11824958E+03</rscale>
<asrwt>0</asrwt>
<pdfrwt beam="2">  1        3 0.80627679E-02 0.12751448E+03</pdfrwt>
<pdfrwt beam="1">  1       -3 0.37704363E-01 0.12751448E+03</pdfrwt>
<totfact> 0.16657906E+03</totfact>
</mgrwt>
</event>
<event>
 8    1  0.7550631E-006  0.1664966E+03  0.7546771E-02  0.1188621E+00
          1   -1    0    0  501    0  0.00000000000E+00  0.00000000000E+00  0.83707364761E+03  0.83707364761E+03  0.00000000000E+00 0. -1.
         -1   -1    0    0    0  501 -0.00000000000E+00 -0.00000000000E+00 -0.38526825265E+02  0.38526825265E+02  0.00000000000E+00 0.  1.
         23    2    1    2    0    0 -0.24680514384E+02 -0.10718450231E+03  0.15286861527E+03  0.20880104789E+03  0.90174379635E+02 0.  0.
         23    2    1    2    0    0  0.24680514384E+02  0.10718450231E+03  0.64567820708E+03  0.66679942499E+03  0.12499392280E+03 0.  0.
          5    1    4    4  502    0  0.41519102421E+02  0.74171568848E+00  0.34176833805E+03  0.34431391622E+03  0.47000000000E+01 0. -1.
         -5    1    4    4    0  502 -0.16838588037E+02  0.10644278662E+03  0.30390986903E+03  0.32248550876E+03  0.47000000000E+01 0. -1.
        -11    1    3    3    0    0 -0.21443897196E+02 -0.80335316795E+02  0.39136971785E+02  0.91898348256E+02  0.00000000000E+00 0.  1.
         11    1    3    3    0    0 -0.32366171875E+01 -0.26849185512E+02  0.11373164348E+03  0.11690269964E+03  0.00000000000E+00 0. -1.
<mgrwt>
<rscale>  0 0.16006672E+03</rscale>
<asrwt>0</asrwt>
<pdfrwt beam="1">  1        1 0.12878055E+00 0.16649662E+03</pdfrwt>
<pdfrwt beam="2">  1       -1 0.59272045E-02 0.16649662E+03</pdfrwt>
<totfact> 0.28855497E+03</totfact>
</mgrwt>
</event>
<event>
 8    1  0.7550631E-006  0.1281027E+03  0.7546771E-02  0.1243139E+00
          1   -1    0    0  501    0  0.00000000000E+00  0.00000000000E+00  0.42966303248E+03  0.42966303248E+03  0.00000000000E+00 0. -1.
         -1   -1    0    0    0  501 -0.00000000000E+00 -0.00000000000E+00 -0.30272059490E+02  0.30272059490E+02  0.00000000000E+00 0.  1.
         23    2    1    2    0    0  0.18955754270E+02 -0.20640234510E+02  0.14843958071E+03  0.17817828527E+03  0.94487313010E+02 0.  0.
         23    2    1    2    0    0 -0.18955754270E+02  0.20640234510E+02  0.25095139228E+03  0.28175680670E+03  0.12499982774E+03 0.  0.
          5    1    4    4  502    0 -0.13475128227E+02  0.73429924106E+02  0.14885991590E+03  0.16659801139E+03  0.47000000000E+01 0. -1.
         -5    1    4    4    0  502 -0.54806260430E+01 -0.52789689597E+02  0.10209147638E+03  0.11515879531E+03  0.47000000000E+01 0. -1.
        -11    1    3    3    0    0 -0.10354054833E+02 -0.49140685674E+02  0.11455445715E+03  0.12507892346E+03  0.00000000000E+00 0. -1.
         11    1    3    3    0    0  0.29309809104E+02  0.28500451164E+02  0.33885123555E+02  0.53099361810E+02  0.00000000000E+00 0.  1.
<mgrwt>
<rscale>  0 0.11997449E+03</rscale>
<asrwt>0</asrwt>
<pdfrwt beam="1">  1        1 0.66102001E-01 0.12810268E+03</pdfrwt>
<pdfrwt beam="2">  1       -1 0.46572402E-02 0.12810268E+03</pdfrwt>
<totfact> 0.10222121E+04</totfact>
</mgrwt>
</event>
<event>
 8    1  0.7550631E-006  0.1462010E+03  0.7546771E-02  0.1216151E+00
          2   -1    0    0  501    0  0.00000000000E+00  0.00000000000E+00  0.56488018379E+03  0.56488018379E+03  0.00000000000E+00 0. -1.
         -2   -1    0    0    0  501 -0.00000000000E+00 -0.00000000000E+00 -0.36261471960E+02  0.36261471960E+02  0.00000000000E+00 0.  1.
         23    2    1    2    0    0 -0.74766187715E+02 -0.12609659867E+02  0.11824168132E+03  0.16549956537E+03  0.87521566435E+02 0.  0.
         23    2    1    2    0    0  0.74766187715E+02  0.12609659867E+02  0.41037703051E+03  0.43564209038E+03  0.12500294951E+03 0.  0.
          5    1    4    4  502    0  0.33328087335E+02 -0.47380981041E+02  0.28203310123E+03  0.28795916197E+03  0.47000000000E+01 0. -1.
         -5    1    4    4    0  502  0.41438100380E+02  0.59990640909E+02  0.12834392928E+03  0.14768292841E+03  0.47000000000E+01 0. -1.
        -11    1    3    3    0    0  0.13764245464E+02 -0.77349583997E+01 -0.22003023598E+01  0.15941310019E+02  0.00000000000E+00 0.  1.
         11    1    3    3    0    0 -0.88530433179E+02 -0.48747014676E+01  0.12044198368E+03  0.14955825536E+03  0.00000000000E+00 0. -1.
<mgrwt>
<rscale>  0 0.13792319E+03</rscale>
<asrwt>0</asrwt>
<pdfrwt beam="1">  1        2 0.86904637E-01 0.14620097E+03</pdfrwt>
<pdfrwt beam="2">  1       -2 0.55786884E-02 0.14620097E+03</pdfrwt>
<totfact> 0.86135259E+03</totfact>
</mgrwt>
</event>
<event>
 8    1  0.7550631E-006  0.1329233E+03  0.7546771E-02  0.1236797E+00
          2   -1    0    0  501    0  0.00000000000E+00  0.00000000000E+00  0.13405755677E+04  0.13405755677E+04  0.00000000000E+00 0.  1.
         -2   -1    0    0    0  501 -0.00000000000E+00 -0.00000000000E+00 -0.10440694902E+02  0.10440694902E+02  0.00000000000E+00 0. -1.
         23    2    1    2    0    0 -0.45187079837E+02 -0.48162653922E+00  0.46267072508E+03  0.47342714855E+03  0.89593308811E+02 0.  0.
         23    2    1    2    0    0  0.45187079837E+02  0.48162653922E+00  0.86746414771E+03  0.87758911405E+03  0.12500600541E+03 0.  0.
          5    1    4    4  502    0  0.49800679497E+02  0.12137109210E+02  0.86132399998E+03  0.86286067244E+03  0.47000000000E+01 0. -1.
         -5    1    4    4    0  502 -0.46135996603E+01 -0.11655482671E+02  0.61401477261E+01  0.14728441608E+02  0.47000000000E+01 0. -1.
        -11    1    3    3    0    0 -0.21454925920E+02 -0.44972876731E+02  0.21986956238E+03  0.22544511072E+03  0.00000000000E+00 0.  1.
         11    1    3    3    0    0 -0.23732153916E+02  0.44491250192E+02  0.24280116270E+03  0.24798203782E+03  0.00000000000E+00 0. -1.
<mgrwt>
<rscale>  0 0.12390091E+03</rscale>
<asrwt>0</asrwt>
<pdfrwt beam="1">  1        2 0.20624226E+00 0.13292331E+03</pdfrwt>
<pdfrwt beam="2">  1       -2 0.16062618E-02 0.13292331E+03</pdfrwt>
<totfact> 0.17112748E+04</totfact>
</mgrwt>
</event>
<event>
 8    1  0.7550631E-006  0.1500335E+03  0.7546771E-02  0.1208561E+00
         -1   -1    0    0    0  501 -0.00000000000E+00  0.00000000000E+00  0.99154099919E+02  0.99154099919E+02  0.00000000000E+00 0.  1.
          1   -1    0    0  501    0  0.00000000000E+00 -0.00000000000E+00 -0.21655635052E+03  0.21655635052E+03  0.00000000000E+00 0. -1.
         23    2    1    2    0    0 -0.46190388630E+02 -0.68954629517E+02 -0.11784794770E+01  0.12592630178E+03  0.94698213986E+02 0.  0.
         23    2    1    2    0    0  0.46190388630E+02  0.68954629517E+02 -0.11622377113E+03  0.18978414866E+03  0.12498706003E+03 0.  0.
          5    1    4    4  502    0 -0.40495940292E+02  0.35660877325E+01 -0.25566836148E+02  0.48253406848E+02  0.47000000000E+01 0. -1.
         -5    1    4    4    0  502  0.86686328922E+02  0.65388541785E+02 -0.90656934978E+02  0.14153074181E+03  0.47000000000E+01 0. -1.
        -11    1    3    3    0    0 -0.69586742098E+02 -0.34298245256E+02  0.18434890775E+02  0.79740388143E+02  0.00000000000E+00 0.  1.
         11    1    3    3    0    0  0.23396353468E+02 -0.34656384261E+02 -0.19613370252E+02  0.46185913635E+02  0.00000000000E+00 0. -1.
<mgrwt>
<rscale>  0 0.14360369E+03</rscale>
<asrwt>0</asrwt>
<pdfrwt beam="2">  1        1 0.33316361E-01 0.15003352E+03</pdfrwt>
<pdfrwt beam="1">  1       -1 0.15254477E-01 0.15003352E+03</pdfrwt>
<totfact> 0.40082042E+03</totfact>
</mgrwt>
</event>
<event>
 8    1  0.7550631E-006  0.1754578E+03  0.7546771E-02  0.1178157E+00
         -1   -1    0    0    0  501 -0.00000000000E+00  0.00000000000E+00  0.38490636051E+02  0.38490636051E+02  0.00000000000E+00 0.  1.
          1   -1    0    0  501    0  0.00000000000E+00 -0.00000000000E+00 -0.75764398796E+03  0.75764398796E+03  0.00000000000E+00 0. -1.
         23    2    1    2    0    0 -0.84665890492E+02  0.89412640641E+02 -0.23073932519E+03  0.27716091394E+03  0.91731143595E+02 0.  0.
         23    2    1    2    0    0  0.84665890492E+02 -0.89412640641E+02 -0.48841402672E+03  0.51897371007E+03  0.12499006734E+03 0.  0.
          5    1    4    4  502    0  0.11248135606E+03 -0.45042297771E+02 -0.30650210195E+03  0.32961567401E+03  0.47000000000E+01 0. -1.
         -5    1    4    4    0  502 -0.27815465571E+02 -0.44370342870E+02 -0.18191192476E+03  0.18935803607E+03  0.47000000000E+01 0. -1.
        -11    1    3    3    0    0 -0.42909258039E+02 -0.45666923333E+01 -0.33162018142E+02  0.54422224794E+02  0.00000000000E+00 0.  1.
         11    1    3    3    0    0 -0.41756632454E+02  0.93979332974E+02 -0.19757730705E+03  0.22273868914E+03  0.00000000000E+00 0. -1.
<mgrwt>
<rscale>  0 0.16970392E+03</rscale>
<asrwt>0</asrwt>
<pdfrwt beam="2">  1        1 0.11656062E+00 0.17545783E+03</pdfrwt>
<pdfrwt beam="1">  1       -1 0.59216360E-02 0.17545783E+03</pdfrwt>
<totfact> 0.33664875E+03</totfact>
</mgrwt>
</event>
<event>
 8    1  0.7550631E-006  0.1605559E+03  0.7546771E-02  0.1194637E+00
          1   -1    0    0  501    0  0.00000000000E+00  0.00000000000E+00  0.36559503308E+02  0.36559503308E+02  0.00000000000E+00 0. -1.
         -1   -1    0    0    0  501 -0.00000000000E+00 -0.00000000000E+00 -0.66502826553E+03  0.66502826553E+03  0.00000000000E+00 0.  1.
         23    2    1    2    0    0 -0.48676992457E+02 -0.88221231511E+02 -0.39091248070E+03  0.41486285286E+03  0.95635682832E+02 0.  0.
         23    2    1    2    0    0  0.48676992457E+02  0.88221231511E+02 -0.23755628153E+03  0.28672491598E+03  0.12500302104E+03 0.  0.
          5    1    4    4  502    0  0.21102739907E+02  0.10916257164E+02 -0.19043279767E+03  0.19196674381E+03  0.47000000000E+01 0.  1.
         -5    1    4    4    0  502  0.27574252550E+02  0.77304974347E+02 -0.47123483858E+02  0.94758172172E+02  0.47000000000E+01 0.  1.
        -11    1    3    3    0    0  0.17736819500E+02 -0.10003206956E+01 -0.14872522710E+02  0.23168671503E+02  0.00000000000E+00 0. -1.
         11    1    3    3    0    0 -0.66413811957E+02 -0.87220910815E+02 -0.37603995799E+03  0.39169418135E+03  0.00000000000E+00 0.  1.
<mgrwt>
<rscale>  0 0.15484973E+03</rscale>
<asrwt>0</asrwt>
<pdfrwt beam="1">  1        1 0.56245397E-02 0.16055588E+03</pdfrwt>
<pdfrwt beam="2">  1       -1 0.10231203E+00 0.16055588E+03</pdfrwt>
<totfact> 0.13317563E+03</totfact>
</mgrwt>
</event>
<event>
 8    1  0.7550631E-006  0.1260788E+03  0.7546771E-02  0.1248407E+00
          1   -1    0    0  501    0  0.00000000000E+00  0.00000000000E+00  0.84639471296E+02  0.84639471296E+02  0.00000000000E+00 0. -1.
         -1   -1    0    0    0  501 -0.00000000000E+00 -0.00000000000E+00 -0.14349177011E+03  0.14349177011E+03  0.00000000000E+00 0.  1.
         23    2    1    2    0    0  0.86520206147E+01 -0.14188164409E+02 -0.37487746882E+02  0.10025511080E+03  0.91485488496E+02 0.  0.
         23    2    1    2    0    0 -0.86520206147E+01  0.14188164409E+02 -0.21364551935E+02  0.12787613061E+03  0.12497879512E+03 0.  0.
          5    1    4    4  502    0 -0.22424335346E+02 -0.50022505743E+02 -0.27943461641E+02  0.61709229010E+02  0.47000000000E+01 0.  1.
         -5    1    4    4    0  502  0.13772314732E+02  0.64210670152E+02  0.65789097052E+01  0.66166901600E+02  0.47000000000E+01 0.  1.
        -11    1    3    3    0    0 -0.27763989206E+02 -0.42430817276E+01 -0.52571344439E+02  0.59603599684E+02  0.00000000000E+00 0.  1.
         11    1    3    3    0    0  0.36416009820E+02 -0.99450826812E+01  0.15083597557E+02  0.40651511116E+02  0.00000000000E+00 0. -1.
<mgrwt>
<rscale>  0 0.11683740E+03</rscale>
<asrwt>0</asrwt>
<pdfrwt beam="1">  1        1 0.13021457E-01 0.12607879E+03</pdfrwt>
<pdfrwt beam="2">  1       -1 0.22075657E-01 0.12607879E+03</pdfrwt>
<totfact> 0.72508927E+03</totfact>
</mgrwt>
</event>
<event>
 8    1  0.7550631E-006  0.1310435E+03  0.7546771E-02  0.1232637E+00
         -2   -1    0    0    0  501 -0.00000000000E+00  0.00000000000E+00  0.36202266503E+02  0.36202266503E+02  0.00000000000E+00 0.  1.
          2   -1    0    0  501    0  0.00000000000E+00 -0.00000000000E+00 -0.42763418218E+03  0.42763418218E+03  0.00000000000E+00 0. -1.
         23    2    1    2    0    0 -0.32795101722E+02  0.59156848033E+02 -0.22262512801E+03  0.25013540598E+03  0.91818965015E+02 0.  0.
         23    2    1    2    0    0  0.32795101722E+02 -0.59156848033E+02 -0.16880678767E+03  0.21370104271E+03  0.11223792908E+03 0.  0.
          5    1    4    4  502    0  0.57486684588E+02 -0.29647683776E+02 -0.16179602523E+03  0.17430934524E+03  0.47000000000E+01 0. -1.
         -5    1    4    4    0  502 -0.24691582866E+02 -0.29509164257E+02 -0.70107624456E+01  0.39391697471E+02  0.47000000000E+01 0.  1.
        -11    1    3    3    0    0 -0.22265873292E+02  0.79164890779E+02 -0.20676230121E+03  0.22251628760E+03  0.00000000000E+00 0.  1.
         11    1    3    3    0    0 -0.10529228430E+02 -0.20008042746E+02 -0.15862826796E+02  0.27619118375E+02  0.00000000000E+00 0. -1.
<mgrwt>
<rscale>  0 0.12656939E+03</rscale>
<asrwt>0</asrwt>
<pdfrwt beam="2">  1        2 0.65789874E-01 0.13104352E+03</pdfrwt>
<pdfrwt beam="1">  1       -2 0.55695795E-02 0.13104352E+03</pdfrwt>
<totfact> 0.11631913E+04</totfact>
</mgrwt>
</event>
<event>
 8    1  0.7550631E-006  0.1409638E+03  0.7546771E-02  0.1223085E+00
          1   -1    0    0  501    0  0.00000000000E+00  0.00000000000E+00  0.10475061588E+03  0.10475061588E+03  0.00000000000E+00 0. -1.
         -1   -1    0    0    0  501 -0.00000000000E+00 -0.00000000000E+00 -0.15504414343E+03  0.15504414343E+03  0.00000000000E+00 0.  1.
         23    2    1    2    0    0  0.43140960563E+02  0.48836079079E+02 -0.39352581823E+02  0.11840701076E+03  0.90694483859E+02 0.  0.
         23    2    1    2    0    0 -0.43140960563E+02 -0.48836079079E+02 -0.10940945733E+02  0.14138774855E+03  0.12499874419E+03 0.  0.
          5    1    4    4  502    0  0.99809618974E+01  0.37716462511E+02 -0.35238276168E+01  0.39454511857E+02  0.47000000000E+01 0. -1.
         -5    1    4    4    0  502 -0.53121922460E+02 -0.86552541590E+02 -0.74171181166E+01  0.10193323669E+03  0.47000000000E+01 0. -1.
        -11    1    3    3    0    0  0.23188229137E+02  0.16988887433E+02  0.28729537266E+02  0.40641143909E+02  0.00000000000E+00 0. -1.
         11    1    3    3    0    0  0.19952731426E+02  0.31847191646E+02 -0.68082119089E+02  0.77765866849E+02  0.00000000000E+00 0.  1.
<mgrwt>
<rscale>  0 0.13299060E+03</rscale>
<asrwt>0</asrwt>
<pdfrwt beam="1">  1        1 0.16115479E-01 0.14096379E+03</pdfrwt>
<pdfrwt beam="2">  1       -1 0.23852945E-01 0.14096379E+03</pdfrwt>
<totfact> 0.48864938E+03</totfact>
</mgrwt>
</event>
<event>
 8    1  0.7550631E-006  0.1258366E+03  0.7546771E-02  0.1248735E+00
         -2   -1    0    0    0  501 -0.00000000000E+00  0.00000000000E+00  0.90876749966E+01  0.90876749966E+01  0.00000000000E+00 0.  1.
          2   -1    0    0  501    0  0.00000000000E+00 -0.00000000000E+00 -0.14278158484E+04  0.14278158484E+04  0.00000000000E+00 0. -1.
         23    2    1    2    0    0 -0.14469171075E+02 -0.64892416318E+00 -0.41227206189E+03  0.42261128103E+03  0.91772892650E+02 0.  0.
         23    2    1    2    0    0  0.14469171075E+02  0.64892416318E+00 -0.10064561115E+04  0.10142922424E+04  0.12500028202E+03 0.  0.
          5    1    4    4  502    0 -0.33744557926E+02 -0.20125995947E+01 -0.84537444061E+03  0.84606310674E+03  0.47000000000E+01 0.  1.
         -5    1    4    4    0  502  0.48213729001E+02  0.26615237579E+01 -0.16108167090E+03  0.16822913562E+03  0.47000000000E+01 0.  1.
        -11    1    3    3    0    0  0.40874026752E+01 -0.44467885910E+02 -0.22494600606E+03  0.22933557373E+03  0.00000000000E+00 0. -1.
         11    1    3    3    0    0 -0.18556573750E+02  0.43818961747E+02 -0.18732605583E+03  0.19327570729E+03  0.00000000000E+00 0.  1.
<mgrwt>
<rscale>  0 0.11664588E+03</rscale>
<asrwt>0</asrwt>
<pdfrwt beam="2">  1        2 0.21966379E+00 0.12583659E+03</pdfrwt>
<pdfrwt beam="1">  1       -2 0.13981050E-02 0.12583659E+03</pdfrwt>
<totfact> 0.18729259E+04</totfact>
</mgrwt>
</event>
<event>
 8    1  0.7550631E-006  0.1544145E+03  0.7546771E-02  0.1203149E+00
         -2   -1    0    0    0  501 -0.00000000000E+00  0.00000000000E+00  0.18935663221E+03  0.18935663221E+03  0.00000000000E+00 0. -1.
          2   -1    0    0  501    0  0.00000000000E+00 -0.00000000000E+00 -0.10689768649E+03  0.10689768649E+03  0.00000000000E+00 0.  1.
         23    2    1    2    0    0 -0.39177427472E+02  0.81754581675E+02  0.30093245673E+02  0.13320217215E+03  0.92836053252E+02 0.  0.
         23    2    1    2    0    0  0.39177427472E+02 -0.81754581675E+02  0.52365700044E+02  0.16305214654E+03  0.12500061401E+03 0.  0.
          5    1    4    4  502    0  0.35882033083E+02  0.13889237405E+02  0.54897127978E+02  0.67202796624E+02  0.47000000000E+01 0. -1.
         -5    1    4    4    0  502  0.32953943889E+01 -0.95643819079E+02 -0.25314279340E+01  0.95849349918E+02  0.47000000000E+01 0. -1.
        -11    1    3    3    0    0  0.12463549959E+02  0.63927636815E+01  0.38973327459E+02  0.41414100959E+02  0.00000000000E+00 0. -1.
         11    1    3    3    0    0 -0.51640977431E+02  0.75361817993E+02 -0.88800817853E+01  0.91788071195E+02  0.00000000000E+00 0.  1.
<mgrwt>
<rscale>  0 0.14784268E+03</rscale>
<asrwt>0</asrwt>
<pdfrwt beam="2">  1        2 0.16445798E-01 0.15441449E+03</pdfrwt>
<pdfrwt beam="1">  1       -2 0.29131790E-01 0.15441449E+03</pdfrwt>
<totfact> 0.36412035E+03</totfact>
</mgrwt>
</event>
<event>
 8    1  0.7550631E-006  0.1406738E+03  0.7546771E-02  0.1224687E+00
          1   -1    0    0  501    0  0.00000000000E+00  0.00000000000E+00  0.82892443891E+03  0.82892443891E+03  0.00000000000E+00 0. -1.
         -1   -1    0    0    0  501 -0.00000000000E+00 -0.00000000000E+00 -0.18809999578E+02  0.18809999578E+02  0.00000000000E+00 0.  1.
         23    2    1    2    0    0 -0.60075475011E+02 -0.23588883413E+02  0.37664649247E+03  0.39201129722E+03  0.87434425383E+02 0.  0.
         23    2    1    2    0    0  0.60075475011E+02  0.23588883413E+02  0.43346794687E+03  0.45572314127E+03  0.12499448952E+03 0.  0.
          5    1    4    4  502    0 -0.83319296379E+01  0.39348050954E+02  0.43387428976E+02  0.59348539649E+02  0.47000000000E+01 0. -1.
         -5    1    4    4    0  502  0.68407404649E+02 -0.15759167540E+02  0.39008051789E+03  0.39637460162E+03  0.47000000000E+01 0. -1.
        -11    1    3    3    0    0  0.85606269893E+01 -0.31987485896E+02  0.19215052347E+03  0.19498283836E+03  0.00000000000E+00 0.  1.
         11    1    3    3    0    0 -0.68636102000E+02  0.83986024825E+01  0.18449596900E+03  0.19702845885E+03  0.00000000000E+00 0. -1.
<mgrwt>
<rscale>  0 0.13188410E+03</rscale>
<asrwt>0</asrwt>
<pdfrwt beam="1">  1        1 0.12752681E+00 0.14067381E+03</pdfrwt>
<pdfrwt beam="2">  1       -1 0.28938467E-02 0.14067381E+03</pdfrwt>
<totfact> 0.83769036E+03</totfact>
</mgrwt>
</event>
<event>
 7    1  0.7550631E-006  0.2043568E+03  0.7546771E-02  0.1176367E+00
         -1   -1    0    0    0  501 -0.00000000000E+00  0.00000000000E+00  0.10107196414E+03  0.10107196414E+03  0.00000000000E+00 0.  1.
          1   -1    0    0  501    0  0.00000000000E+00 -0.00000000000E+00 -0.11118020746E+04  0.11118020746E+04  0.00000000000E+00 0. -1.
         23    2    1    2    0    0  0.15910841390E+01  0.48210279029E+02  0.63441089988E+02  0.11943658091E+03  0.88958205967E+02 0.  0.
          5    1    1    2  502    0  0.61790573689E+02 -0.89903098182E+02 -0.84415044258E+03  0.85118311882E+03  0.47000000000E+01 0. -1.
         -5    1    1    2    0  502 -0.63381657828E+02  0.41692819153E+02 -0.23002075782E+03  0.24225433897E+03  0.47000000000E+01 0.  1.
        -11    1    3    3    0    0  0.21884559169E+02 -0.15884545538E+01 -0.13353556991E+02  0.25686077984E+02  0.00000000000E+00 0. -1.
         11    1    3    3    0    0 -0.20293475030E+02  0.49798733582E+02  0.76794646978E+02  0.93750502930E+02  0.00000000000E+00 0.  1.
<mgrwt>
<rscale>  0 0.17142772E+03</rscale>
<asrwt>0</asrwt>
<pdfrwt beam="2">  1        1 0.17104646E+00 0.20435681E+03</pdfrwt>
<pdfrwt beam="1">  1       -1 0.15549534E-01 0.20435681E+03</pdfrwt>
<totfact> 0.40704660E+02</totfact>
</mgrwt>
</event>
<event>
 7    1  0.7550631E-006  0.1767910E+03  0.7546771E-02  0.1180727E+00
          2   -1    0    0  501    0  0.00000000000E+00  0.00000000000E+00  0.10186194869E+04  0.10186194869E+04  0.00000000000E+00 0. -1.
         -2   -1    0    0    0  501 -0.00000000000E+00 -0.00000000000E+00 -0.26916135336E+02  0.26916135336E+02  0.00000000000E+00 0.  1.
         23    2    1    2    0    0  0.16890341497E+02 -0.10385291347E+03  0.30268256066E+03  0.33419554161E+03  0.94864198896E+02 0.  0.
          5    1    1    2  502    0 -0.53125794072E+02  0.55551328461E+01  0.40580238004E+03  0.40932978286E+03  0.47000000000E+01 0. -1.
         -5    1    1    2    0  502  0.36235452575E+02  0.98297780626E+02  0.28321841085E+03  0.30201029774E+03  0.47000000000E+01 0.  1.
        -11    1    3    3    0    0 -0.20326285823E+02 -0.21393784642E+02  0.15982318871E+02  0.33560191196E+02  0.00000000000E+00 0.  1.
         11    1    3    3    0    0  0.37216627320E+02 -0.82459128830E+02  0.28670024179E+03  0.30063535042E+03  0.00000000000E+00 0. -1.
<mgrwt>
<rscale>  0 0.16726819E+03</rscale>
<asrwt>0</asrwt>
<pdfrwt beam="1">  1        2 0.15671066E+00 0.17679101E+03</pdfrwt>
<pdfrwt beam="2">  1       -2 0.41409447E-02 0.17679101E+03</pdfrwt>
<totfact> 0.65548080E+03</totfact>
</mgrwt>
</event>
<event>
 8    1  0.7550631E-006  0.1314813E+03  0.7546771E-02  0.1239406E+00
         -3   -1    0    0    0  501 -0.00000000000E+00  0.00000000000E+00  0.24631405372E+02  0.24631405372E+02  0.00000000000E+00 0.  1.
          3   -1    0    0  501    0  0.00000000000E+00 -0.00000000000E+00 -0.65020205763E+03  0.65020205763E+03  0.00000000000E+00 0. -1.
         23    2    1    2    0    0 -0.40248790151E+02  0.53166981214E+01 -0.13536396246E+03  0.16730027534E+03  0.89541875165E+02 0.  0.
         23    2    1    2    0    0  0.40248790151E+02 -0.53166981214E+01 -0.49020668980E+03  0.50753318766E+03  0.12505640915E+03 0.  0.
          5    1    4    4  502    0 -0.22264436861E+02  0.39622963583E+02 -0.27827551875E+03  0.28200184171E+03  0.47000000000E+01 0.  1.
         -5    1    4    4    0  502  0.62513227012E+02 -0.44939661704E+02 -0.21193117105E+03  0.22553134595E+03  0.47000000000E+01 0.  1.
        -11    1    3    3    0    0 -0.23218595713E+02  0.24288791259E+02 -0.44120560001E+01  0.33889744848E+02  0.00000000000E+00 0.  1.
         11    1    3    3    0    0 -0.17030194438E+02 -0.18972093137E+02 -0.13095190646E+03  0.13341053049E+03  0.00000000000E+00 0. -1.
<mgrwt>
<rscale>  0 0.12226546E+03</rscale>
<asrwt>0</asrwt>
<pdfrwt beam="2">  1        3 0.10003106E+00 0.13148132E+03</pdfrwt>
<pdfrwt beam="1">  1       -3 0.37894478E-02 0.13148132E+03</pdfrwt>
<totfact> 0.73782906E+02</totfact>
</mgrwt>
</event>
<event>
 8    1  0.7550631E-006  0.1468225E+03  0.7546771E-02  0.1214064E+00
          1   -1    0    0  501    0  0.00000000000E+00  0.00000000000E+00  0.25218278832E+03  0.25218278832E+03  0.00000000000E+00 0. -1.
         -1   -1    0    0    0  501 -0.00000000000E+00 -0.00000000000E+00 -0.12313656116E+03  0.12313656116E+03  0.00000000000E+00 0.  1.
         23    2    1    2    0    0  0.62024054548E+02 -0.45677383067E+02 -0.61797810585E+02  0.13453255470E+03  0.91359904848E+02 0.  0.
         23    2    1    2    0    0 -0.62024054548E+02  0.45677383067E+02  0.19084403774E+03  0.24078679478E+03  0.12499370838E+03 0.  0.
          5    1    4    4  502    0 -0.28632801453E+02 -0.41233651260E+02  0.92042387354E+02  0.10494733148E+03  0.47000000000E+01 0.  1.
         -5    1    4    4    0  502 -0.33391253094E+02  0.86911034327E+02  0.98801650384E+02  0.13583946330E+03  0.47000000000E+01 0.  1.
        -11    1    3    3    0    0  0.37003892271E+02 -0.23089536872E+02 -0.83665923738E+02  0.94352538657E+02  0.00000000000E+00 0.  1.
         11    1    3    3    0    0  0.25020162277E+02 -0.22587846195E+02  0.21868113153E+02  0.40180016040E+02  0.00000000000E+00 0. -1.
<mgrwt>
<rscale>  0 0.13945547E+03</rscale>
<asrwt>0</asrwt>
<pdfrwt beam="1">  1        1 0.38797352E-01 0.14682246E+03</pdfrwt>
<pdfrwt beam="2">  1       -1 0.18944086E-01 0.14682246E+03</pdfrwt>
<totfact> 0.23506353E+03</totfact>
</mgrwt>
</event>
<event>
 8    1  0.7550631E-006  0.1344184E+03  0.7546771E-02  0.1233932E+00
          2   -1    0    0  501    0  0.00000000000E+00  0.00000000000E+00  0.86000255214E+03  0.86000255214E+03  0.00000000000E+00 0. -1.
         -2   -1    0    0    0  501 -0.00000000000E+00 -0.00000000000E+00 -0.27722309816E+02  0.27722309816E+02  0.00000000000E+00 0.  1.
         23    2    1    2    0    0 -0.16555524824E+02 -0.46684063982E+02  0.10095281315E+03  0.14414694150E+03  0.90185270575E+02 0.  0.
         23    2    1    2    0    0  0.16555524824E+02  0.46684063982E+02  0.73132742918E+03  0.74357792046E+03  0.12495930496E+03 0.  0.
          5    1    4    4  502    0  0.55639400047E+02  0.12027415984E+02  0.16077024959E+03  0.17061525350E+03  0.47000000000E+01 0. -1.
         -5    1    4    4    0  502 -0.39083875223E+02  0.34656647998E+02  0.57055717959E+03  0.57296266696E+03  0.47000000000E+01 0. -1.
        -11    1    3    3    0    0 -0.48460389164E+02 -0.27603712808E+01  0.45093378737E+02  0.66252862380E+02  0.00000000000E+00 0. -1.
         11    1    3    3    0    0  0.31904864340E+02 -0.43923692701E+02  0.55859434409E+02  0.77894079118E+02  0.00000000000E+00 0.  1.
<mgrwt>
<rscale>  0 0.12573033E+03</rscale>
<asrwt>0</asrwt>
<pdfrwt beam="1">  1        2 0.13230806E+00 0.13441843E+03</pdfrwt>
<pdfrwt beam="2">  1       -2 0.42649714E-02 0.13441843E+03</pdfrwt>
<totfact> 0.77710661E+03</totfact>
</mgrwt>
</event>
<event>
 8    1  0.7550631E-006  0.2049673E+03  0.7546771E-02  0.1149628E+00
          1   -1    0    0  501    0  0.00000000000E+00  0.00000000000E+00  0.66503169175E+03  0.66503169175E+03  0.00000000000E+00 0. -1.
         -1   -1    0    0    0  501 -0.00000000000E+00 -0.00000000000E+00 -0.60571710632E+02  0.60571710632E+02  0.00000000000E+00 0.  1.
         23    2    1    2    0    0  0.14776244223E+03  0.67476861452E+02  0.20757672657E+03  0.27891792913E+03  0.91215391318E+02 0.  0.
         23    2    1    2    0    0 -0.14776244223E+03 -0.67476861452E+02  0.39688325455E+03  0.44668547325E+03  0.12499891242E+03 0.  0.
          5    1    4    4  502    0 -0.87059788111E+00 -0.19770478362E+02  0.17571392434E+03  0.17688726060E+03  0.47000000000E+01 0. -1.
         -5    1    4    4    0  502 -0.14689184435E+03 -0.47706383090E+02  0.22116933020E+03  0.26979821265E+03  0.47000000000E+01 0. -1.
        -11    1    3    3    0    0  0.11393322528E+03  0.31938555401E+02  0.81628240238E+02  0.14374985478E+03  0.00000000000E+00 0.  1.
         11    1    3    3    0    0  0.33829216951E+02  0.35538306051E+02  0.12594848633E+03  0.13516807436E+03  0.00000000000E+00 0. -1.
<mgrwt>
<rscale>  0 0.20013164E+03</rscale>
<asrwt>0</asrwt>
<pdfrwt beam="1">  1        1 0.10231256E+00 0.20496730E+03</pdfrwt>
<pdfrwt beam="2">  1       -1 0.93187252E-02 0.20496730E+03</pdfrwt>
<totfact> 0.20540904E+03</totfact>
</mgrwt>
</event>
<event>
 8    1  0.7550631E-006  0.1629544E+03  0.7546771E-02  0.1192756E+00
         -2   -1    0    0    0  501 -0.00000000000E+00  0.00000000000E+00  0.22641408534E+02  0.22641408534E+02  0.00000000000E+00 0.  1.
          2   -1    0    0  501    0  0.00000000000E+00 -0.00000000000E+00 -0.11033777992E+04  0.11033777992E+04  0.00000000000E+00 0. -1.
         23    2    1    2    0    0 -0.88952117089E+02  0.54919665517E+02 -0.33138587370E+03  0.35915525708E+03  0.90814385453E+02 0.  0.
         23    2    1    2    0    0  0.88952117089E+02 -0.54919665517E+02 -0.74935051700E+03  0.76686395068E+03  0.12500189096E+03 0.  0.
          5    1    4    4  502    0  0.95393494543E+02  0.58836526356E+01 -0.35053646305E+03  0.36336268121E+03  0.47000000000E+01 0.  1.
         -5    1    4    4    0  502 -0.64413774544E+01 -0.60803318152E+02 -0.39881405394E+03  0.40350126947E+03  0.47000000000E+01 0.  1.
        -11    1    3    3    0    0 -0.87056098844E+01  0.33508468127E+02 -0.27762737865E+02  0.44377637313E+02  0.00000000000E+00 0.  1.
         11    1    3    3    0    0 -0.80246507204E+02  0.21411197390E+02 -0.30362313583E+03  0.31477761976E+03  0.00000000000E+00 0. -1.
<mgrwt>
<rscale>  0 0.15645662E+03</rscale>
<asrwt>0</asrwt>
<pdfrwt beam="2">  1        2 0.16975040E+00 0.16295435E+03</pdfrwt>
<pdfrwt beam="1">  1       -2 0.34832943E-02 0.16295435E+03</pdfrwt>
<totfact> 0.75401214E+03</totfact>
</mgrwt>
</event>
<event>
 8    1  0.7550631E-006  0.1184022E+03  0.7546771E-02  0.1255774E+00
          2   -1    0    0  501    0  0.00000000000E+00  0.00000000000E+00  0.70842603797E+03  0.70842603797E+03  0.00000000000E+00 0. -1.
         -2   -1    0    0    0  501 -0.00000000000E+00 -0.00000000000E+00 -0.65791162324E+02  0.65791162324E+02  0.00000000000E+00 0.  1.
         23    2    1    2    0    0  0.30389972706E+02 -0.24697027279E+02 -0.21753777218E+02  0.99360650336E+02  0.88689449285E+02 0.  0.
         23    2    1    2    0    0 -0.30389972706E+02  0.24697027279E+02  0.66438865286E+03  0.67485654995E+03  0.11173892504E+03 0.  0.
          5    1    4    4  502    0 -0.59069108777E+02  0.35245638869E+02  0.59386372881E+03  0.59785251782E+03  0.47000000000E+01 0. -1.
         -5    1    4    4    0  502  0.28679136071E+02 -0.10548611590E+02  0.70524924049E+02  0.77004032131E+02  0.47000000000E+01 0.  1.
        -11    1    3    3    0    0 -0.18339488971E+02 -0.32381184350E+02  0.12551417004E+02  0.39273604679E+02  0.00000000000E+00 0.  1.
         11    1    3    3    0    0  0.48729461677E+02  0.76841570717E+01 -0.34305194222E+02  0.60087045658E+02  0.00000000000E+00 0. -1.
<mgrwt>
<rscale>  0 0.11263071E+03</rscale>
<asrwt>0</asrwt>
<pdfrwt beam="1">  1        2 0.10898862E+00 0.11840220E+03</pdfrwt>
<pdfrwt beam="2">  1       -2 0.10121718E-01 0.11840220E+03</pdfrwt>
<totfact> 0.26282685E+03</totfact>
</mgrwt>
</event>
<event>
 8    1  0.7550631E-006  0.1172623E+03  0.7546771E-02  0.1256321E+00
          1   -1    0    0  501    0  0.00000000000E+00  0.00000000000E+00  0.16758461126E+03  0.16758461126E+03  0.00000000000E+00 0. -1.
         -1   -1    0    0    0  501 -0.00000000000E+00 -0.00000000000E+00 -0.17530393908E+03  0.17530393908E+03  0.00000000000E+00 0.  1.
         23    2    1    2    0    0 -0.47150547906E+01 -0.24264291789E+02 -0.13666504803E+03  0.16859726390E+03  0.95586162417E+02 0.  0.
         23    2    1    2    0    0  0.47150547906E+01  0.24264291789E+02  0.12894572021E+03  0.17429128644E+03  0.11462751052E+03 0.  0.
          5    1    4    4  502    0  0.84917127848E+01  0.57020660595E+02  0.12857106612E+03  0.14098253070E+03  0.47000000000E+01 0. -1.
         -5    1    4    4    0  502 -0.37766579943E+01 -0.32756368806E+02  0.37465409694E+00  0.33308755736E+02  0.47000000000E+01 0.  1.
        -11    1    3    3    0    0 -0.44058507746E+02 -0.31322528641E+02 -0.52178148320E+02  0.75131964352E+02  0.00000000000E+00 0.  1.
         11    1    3    3    0    0  0.39343452956E+02  0.70582368520E+01 -0.84486899709E+02  0.93465299553E+02  0.00000000000E+00 0. -1.
<mgrwt>
<rscale>  0 0.11232636E+03</rscale>
<asrwt>0</asrwt>
<pdfrwt beam="1">  1        1 0.25782248E-01 0.11726233E+03</pdfrwt>
<pdfrwt beam="2">  1       -1 0.26969837E-01 0.11726233E+03</pdfrwt>
<totfact> 0.21795859E+03</totfact>
</mgrwt>
</event>
<event>
 8    1  0.7550631E-006  0.2251341E+03  0.7546771E-02  0.1133589E+00
         -1   -1    0    0    0  501 -0.00000000000E+00  0.00000000000E+00  0.50853146544E+02  0.50853146544E+02  0.00000000000E+00 0.  1.
          1   -1    0    0  501    0  0.00000000000E+00 -0.00000000000E+00 -0.94957929615E+03  0.94957929615E+03  0.00000000000E+00 0. -1.
         23    2    1    2    0    0 -0.14627632744E+03 -0.11688918763E+03 -0.33839927419E+03  0.39656858256E+03  0.87708185174E+02 0.  0.
         23    2    1    2    0    0  0.14627632744E+03  0.11688918763E+03 -0.56032687542E+03  0.60386386014E+03  0.12500203242E+03 0.  0.
          5    1    4    4  502    0  0.23571208366E+02  0.46833063553E+02 -0.32577529169E+03  0.33000086118E+03  0.47000000000E+01 0. -1.
         -5    1    4    4    0  502  0.12270511907E+03  0.70056124081E+02 -0.23455158373E+03  0.27386299896E+03  0.47000000000E+01 0. -1.
        -11    1    3    3    0    0 -0.89074575628E+02 -0.75379726806E+02 -0.12156360218E+03  0.16850546760E+03  0.00000000000E+00 0.  1.
         11    1    3    3    0    0 -0.57201751809E+02 -0.41509460828E+02 -0.21683567201E+03  0.22806311495E+03  0.00000000000E+00 0. -1.
<mgrwt>
<rscale>  0 0.22039473E+03</rscale>
<asrwt>0</asrwt>
<pdfrwt beam="2">  1        1 0.14608912E+00 0.22513408E+03</pdfrwt>
<pdfrwt beam="1">  1       -1 0.78235609E-02 0.22513408E+03</pdfrwt>
<totfact> 0.15558743E+03</totfact>
</mgrwt>
</event>
<event>
 8    1  0.7550631E-006  0.1923575E+03  0.7546771E-02  0.1161063E+00
          1   -1    0    0  501    0  0.00000000000E+00  0.00000000000E+00  0.28106283662E+04  0.28106283662E+04  0.00000000000E+00 0. -1.
         -1   -1    0    0    0  501 -0.00000000000E+00 -0.00000000000E+00 -0.16976789958E+02  0.16976789958E+02  0.00000000000E+00 0.  1.
         23    2    1    2    0    0  0.13310836554E+03  0.63031416751E+02  0.56576684400E+03  0.59143168871E+03  0.89490357941E+02 0.  0.
         23    2    1    2    0    0 -0.13310836554E+03 -0.63031416751E+02  0.22278847323E+04  0.22361734675E+04  0.12373600891E+03 0.  0.
          5    1    4    4  502    0  0.10917497411E+02 -0.20400880251E+02  0.91067546728E+02  0.94078561488E+02  0.47000000000E+01 0.  1.
         -5    1    4    4    0  502 -0.14402586295E+03 -0.42630536501E+02  0.21368171856E+04  0.21420949060E+04  0.47000000000E+01 0.  1.
        -11    1    3    3    0    0  0.33732436956E+02  0.63162744523E+02  0.27415618570E+03  0.28335317848E+03  0.00000000000E+00 0.  1.
         11    1    3    3    0    0  0.99375928582E+02 -0.13132777162E+00  0.29161065831E+03  0.30807851023E+03  0.00000000000E+00 0. -1.
<mgrwt>
<rscale>  0 0.18714365E+03</rscale>
<asrwt>0</asrwt>
<pdfrwt beam="1">  1        1 0.43240399E+00 0.19235747E+03</pdfrwt>
<pdfrwt beam="2">  1       -1 0.26118161E-02 0.19235747E+03</pdfrwt>
<totfact> 0.46043738E+02</totfact>
</mgrwt>
</event>
<event>
 8    1  0.7550631E-006  0.1296389E+03  0.7546771E-02  0.1242300E+00
         -3   -1    0    0    0  501 -0.00000000000E+00  0.00000000000E+00  0.62071462874E+02  0.62071462874E+02  0.00000000000E+00 0.  1.
          3   -1    0    0  501    0  0.00000000000E+00 -0.00000000000E+00 -0.20990822520E+03  0.20990822520E+03  0.00000000000E+00 0. -1.
         23    2    1    2    0    0 -0.32011084636E+02  0.12442494821E+02 -0.45876547751E+02  0.10704898129E+03  0.90417374127E+02 0.  0.
         23    2    1    2    0    0  0.32011084636E+02 -0.12442494821E+02 -0.10196021458E+03  0.16493070679E+03  0.12500690968E+03 0.  0.
          5    1    4    4  502    0  0.17910624015E+02 -0.38983116671E+02  0.13745261178E+02  0.45293443707E+02  0.47000000000E+01 0. -1.
         -5    1    4    4    0  502  0.14100460621E+02  0.26540621850E+02 -0.11570547576E+03  0.11963726308E+03  0.47000000000E+01 0. -1.
        -11    1    3    3    0    0 -0.15907381435E+02  0.40017846486E+02  0.85896136016E+01  0.43911892277E+02  0.00000000000E+00 0.  1.
         11    1    3    3    0    0 -0.16103703201E+02 -0.27575351664E+02 -0.54466161353E+02  0.63137089010E+02  0.00000000000E+00 0. -1.
<mgrwt>
<rscale>  0 0.12048446E+03</rscale>
<asrwt>0</asrwt>
<pdfrwt beam="2">  1        3 0.32293573E-01 0.12963893E+03</pdfrwt>
<pdfrwt beam="1">  1       -3 0.95494559E-02 0.12963893E+03</pdfrwt>
<totfact> 0.16970014E+03</totfact>
</mgrwt>
</event>
<event>
 8    1  0.7550631E-006  0.1440757E+03  0.7546771E-02  0.1218891E+00
          2   -1    0    0  501    0  0.00000000000E+00  0.00000000000E+00  0.19953850896E+04  0.19953850896E+04  0.00000000000E+00 0. -1.
         -2   -1    0    0    0  501 -0.00000000000E+00 -0.00000000000E+00 -0.10421902532E+02  0.10421902532E+02  0.00000000000E+00 0.  1.
         23    2    1    2    0    0  0.46644537522E+02  0.54377217837E+02  0.45652037071E+03  0.47058868400E+03  0.88939675821E+02 0.  0.
         23    2    1    2    0    0 -0.46644537522E+02 -0.54377217837E+02  0.15284428164E+04  0.15352183082E+04  0.12500086419E+03 0.  0.
          5    1    4    4  502    0 -0.89701567197E+02 -0.36027819509E+02  0.98467794284E+03  0.98942261752E+03  0.47000000000E+01 0. -1.
         -5    1    4    4    0  502  0.43057029675E+02 -0.18349398328E+02  0.54376487355E+03  0.54579569065E+03  0.47000000000E+01 0. -1.
        -11    1    3    3    0    0 -0.27595308730E+01 -0.22310177490E+02  0.73875234921E+02  0.77219876748E+02  0.00000000000E+00 0. -1.
         11    1    3    3    0    0  0.49404068395E+02  0.76687395327E+02  0.38264513579E+03  0.39336880725E+03  0.00000000000E+00 0.  1.
<mgrwt>
<rscale>  0 0.13594545E+03</rscale>
<asrwt>0</asrwt>
<pdfrwt beam="1">  1        2 0.30698202E+00 0.14407571E+03</pdfrwt>
<pdfrwt beam="2">  1       -2 0.16033712E-02 0.14407571E+03</pdfrwt>
<totfact> 0.78976927E+03</totfact>
</mgrwt>
</event>
<event>
 8    1  0.7550631E-006  0.1295114E+03  0.7546771E-02  0.1254681E+00
          2   -1    0    0  501    0  0.00000000000E+00  0.00000000000E+00  0.19052893121E+03  0.19052893121E+03  0.00000000000E+00 0. -1.
         -2   -1    0    0    0  501 -0.00000000000E+00 -0.00000000000E+00 -0.92235736958E+02  0.92235736958E+02  0.00000000000E+00 0.  1.
         23    2    1    2    0    0  0.71651521185E+00  0.33374144981E+02 -0.46229924602E+02  0.88702454330E+02  0.67945364288E+02 0.  0.
         23    2    1    2    0    0 -0.71651521185E+00 -0.33374144981E+02  0.14452311885E+03  0.19406221384E+03  0.12513538272E+03 0.  0.
          5    1    4    4  502    0 -0.27078292079E+02  0.10034878305E+02  0.13981298302E+03  0.14284149574E+03  0.47000000000E+01 0. -1.
         -5    1    4    4    0  502  0.26361776867E+02 -0.43409023286E+02  0.47101358282E+01  0.51220718091E+02  0.47000000000E+01 0.  1.
        -11    1    3    3    0    0  0.28183891243E+02  0.42258557745E+01 -0.38519620738E+02  0.47916080437E+02  0.00000000000E+00 0. -1.
         11    1    3    3    0    0 -0.27467376031E+02  0.29148289207E+02 -0.77103038638E+01  0.40786373894E+02  0.00000000000E+00 0.  1.
<mgrwt>
<rscale>  0 0.11324241E+03</rscale>
<asrwt>0</asrwt>
<pdfrwt beam="1">  1        2 0.29312143E-01 0.12951143E+03</pdfrwt>
<pdfrwt beam="2">  1       -2 0.14190113E-01 0.12951143E+03</pdfrwt>
<totfact> 0.64041925E+03</totfact>
</mgrwt>
</event>
<event>
 7    1  0.7550631E-006  0.2103271E+03  0.7546771E-02  0.1150198E+00
          1   -1    0    0  501    0  0.00000000000E+00  0.00000000000E+00  0.34986924585E+03  0.34986924585E+03  0.00000000000E+00 0. -1.
         -1   -1    0    0    0  501 -0.00000000000E+00 -0.00000000000E+00 -0.21998402833E+03  0.21998402833E+03  0.00000000000E+00 0.  1.
         23    2    1    2    0    0  0.14166824187E+03  0.18914457580E+02 -0.14515012928E+03  0.22361356141E+03  0.92232409466E+02 0.  0.
          5    1    1    2  502    0  0.13436715232E+02 -0.15222283817E+02  0.13682993697E+03  0.13840803767E+03  0.47000000000E+01 0. -1.
         -5    1    1    2    0  502 -0.15510495710E+03 -0.36921737639E+01  0.13820540983E+03  0.20783167509E+03  0.47000000000E+01 0.  1.
        -11    1    3    3    0    0  0.98522487131E+01  0.14467264377E+02 -0.69280997556E+02  0.71457855871E+02  0.00000000000E+00 0. -1.
         11    1    3    3    0    0  0.13181599316E+03  0.44471932032E+01 -0.75869131727E+02  0.15215570554E+03  0.00000000000E+00 0.  1.
<mgrwt>
<rscale>  0 0.19945659E+03</rscale>
<asrwt>0</asrwt>
<pdfrwt beam="1">  1        1 0.53826038E-01 0.21032712E+03</pdfrwt>
<pdfrwt beam="2">  1       -1 0.33843697E-01 0.21032712E+03</pdfrwt>
<totfact> 0.60031423E+02</totfact>
</mgrwt>
</event>
<event>
 7    1  0.7550631E-006  0.2290827E+03  0.7546771E-02  0.1132902E+00
         -2   -1    0    0    0  501 -0.00000000000E+00  0.00000000000E+00  0.49304840862E+02  0.49304840862E+02  0.00000000000E+00 0.  1.
          2   -1    0    0  501    0  0.00000000000E+00 -0.00000000000E+00 -0.93179290367E+03  0.93179290367E+03  0.00000000000E+00 0. -1.
         23    2    1    2    0    0  0.47300626340E+02  0.16935500895E+03 -0.41531771477E+03  0.46078340790E+03  0.94414387068E+02 0.  0.
          5    1    1    2  502    0 -0.36420877414E+02 -0.18452288796E+03 -0.31483323543E+03  0.36676590984E+03  0.47000000000E+01 0. -1.
         -5    1    1    2    0  502 -0.10879748926E+02  0.15167879013E+02 -0.15233711262E+03  0.15354842680E+03  0.47000000000E+01 0.  1.
        -11    1    3    3    0    0 -0.10202991828E+02  0.12823728789E+03 -0.25692520873E+03  0.28733163058E+03  0.00000000000E+00 0.  1.
         11    1    3    3    0    0  0.57503618168E+02  0.41117721057E+02 -0.15839250603E+03  0.17345177732E+03  0.00000000000E+00 0. -1.
<mgrwt>
<rscale>  0 0.22132168E+03</rscale>
<asrwt>0</asrwt>
<pdfrwt beam="2">  1        2 0.14335275E+00 0.22908268E+03</pdfrwt>
<pdfrwt beam="1">  1       -2 0.75853605E-02 0.22908268E+03</pdfrwt>
<totfact> 0.29648697E+03</totfact>
</mgrwt>
</event>
<event>
 8    1  0.7550631E-006  0.1656235E+03  0.7546771E-02  0.1190065E+00
          2   -1    0    0  501    0  0.00000000000E+00  0.00000000000E+00  0.34841163280E+03  0.34841163280E+03  0.00000000000E+00 0. -1.
         -2   -1    0    0    0  501 -0.00000000000E+00 -0.00000000000E+00 -0.71005935491E+02  0.71005935491E+02  0.00000000000E+00 0.  1.
         23    2    1    2    0    0 -0.19336445102E+01  0.10864497298E+03  0.78062898860E+02  0.16024833926E+03  0.88194358793E+02 0.  0.
         23    2    1    2    0    0  0.19336445102E+01 -0.10864497298E+03  0.19934279845E+03  0.25916922903E+03  0.12499467527E+03 0.  0.
          5    1    4    4  502    0 -0.31775095102E+02  0.14537943009E+02  0.25994051311E+02  0.43803985655E+02  0.47000000000E+01 0.  1.
         -5    1    4    4    0  502  0.33708739613E+02 -0.12318291599E+03  0.17334874714E+03  0.21536524338E+03  0.47000000000E+01 0.  1.
        -11    1    3    3    0    0 -0.34497231275E+02  0.99624045473E+02  0.51879650206E+02  0.11750109577E+03  0.00000000000E+00 0.  1.
         11    1    3    3    0    0  0.32563586765E+02  0.90209275108E+01  0.26183248654E+02  0.42747243493E+02  0.00000000000E+00 0. -1.
<mgrwt>
<rscale>  0 0.15879392E+03</rscale>
<asrwt>0</asrwt>
<pdfrwt beam="1">  1        2 0.53601788E-01 0.16562348E+03</pdfrwt>
<pdfrwt beam="2">  1       -2 0.10923990E-01 0.16562348E+03</pdfrwt>
<totfact> 0.51876473E+03</totfact>
</mgrwt>
</event>
<event>
 8    1  0.7550631E-006  0.1774781E+03  0.7546771E-02  0.1175426E+00
         -2   -1    0    0    0  501 -0.00000000000E+00  0.00000000000E+00  0.50978045162E+02  0.50978045162E+02  0.00000000000E+00 0. -1.
          2   -1    0    0  501    0  0.00000000000E+00 -0.00000000000E+00 -0.55296804134E+03  0.55296804134E+03  0.00000000000E+00 0.  1.
         23    2    1    2    0    0 -0.12545376620E+03 -0.11135314876E+02 -0.21982540877E+03  0.27060640428E+03  0.95089289634E+02 0.  0.
         23    2    1    2    0    0  0.12545376620E+03  0.11135314876E+02 -0.28216458741E+03  0.33333968222E+03  0.12504337913E+03 0.  0.
          5    1    4    4  502    0  0.27093710209E+02  0.57302756396E+02 -0.14478454275E+03  0.15812124728E+03  0.47000000000E+01 0.  1.
         -5    1    4    4    0  502  0.98360055996E+02 -0.46167441520E+02 -0.13738004466E+03  0.17521843494E+03  0.47000000000E+01 0.  1.
        -11    1    3    3    0    0 -0.41446527405E+01 -0.34025150050E+02 -0.51514192779E+02  0.61875690218E+02  0.00000000000E+00 0.  1.
         11    1    3    3    0    0 -0.12130911346E+03  0.22889835174E+02 -0.16831121599E+03  0.20873071406E+03  0.00000000000E+00 0. -1.
<mgrwt>
<rscale>  0 0.17234299E+03</rscale>
<asrwt>0</asrwt>
<pdfrwt beam="2">  1        2 0.85072007E-01 0.17747814E+03</pdfrwt>
<pdfrwt beam="1">  1       -2 0.78427761E-02 0.17747814E+03</pdfrwt>
<totfact> 0.52905836E+03</totfact>
</mgrwt>
</event>
<event>
 8    1  0.7550631E-006  0.1354242E+03  0.7546771E-02  0.1232919E+00
          2   -1    0    0  501    0  0.00000000000E+00  0.00000000000E+00  0.75312548659E+03  0.75312548659E+03  0.00000000000E+00 0. -1.
         -2   -1    0    0    0  501 -0.00000000000E+00 -0.00000000000E+00 -0.19394938278E+02  0.19394938278E+02  0.00000000000E+00 0.  1.
         23    2    1    2    0    0 -0.37128031016E+02  0.36553959296E+02  0.25251721114E+03  0.27261444222E+03  0.88538181340E+02 0.  0.
         23    2    1    2    0    0  0.37128031016E+02 -0.36553959296E+02  0.48121333717E+03  0.49990598265E+03  0.12500013197E+03 0.  0.
          5    1    4    4  502    0  0.55065924727E+02 -0.27331747112E+02  0.47397370148E+03  0.47796698647E+03  0.47000000000E+01 0.  1.
         -5    1    4    4    0  502 -0.17937893711E+02 -0.92222121838E+01  0.72396356931E+01  0.21938996178E+02  0.47000000000E+01 0.  1.
        -11    1    3    3    0    0  0.16575209403E+02  0.41345140037E+02  0.15394922024E+03  0.16026390917E+03  0.00000000000E+00 0. -1.
         11    1    3    3    0    0 -0.53703240419E+02 -0.47911807409E+01  0.98567990902E+02  0.11235053304E+03  0.00000000000E+00 0.  1.
<mgrwt>
<rscale>  0 0.12638565E+03</rscale>
<asrwt>0</asrwt>
<pdfrwt beam="1">  1        2 0.11586544E+00 0.13542421E+03</pdfrwt>
<pdfrwt beam="2">  1       -2 0.29838372E-02 0.13542421E+03</pdfrwt>
<totfact> 0.15560174E+04</totfact>
</mgrwt>
</event>
<event>
 6    1  0.7550631E-006  0.1668804E+03  0.7546771E-02  0.1224363E+00
         -2   -1    0    0    0  501 -0.00000000000E+00  0.00000000000E+00  0.35806501954E+02  0.35806501954E+02  0.00000000000E+00 0. -1.
          2   -1    0    0  501    0  0.00000000000E+00 -0.00000000000E+00 -0.71145882095E+03  0.71145882095E+03  0.00000000000E+00 0.  1.
          5    1    1    2  502    0 -0.26035786720E+02 -0.32304312227E+01 -0.77699250292E+01  0.27762557717E+02  0.47000000000E+01 0. -1.
         -5    1    1    2    0  502 -0.30703138589E+02 -0.98786995452E+01 -0.65101585050E+03  0.65183126577E+03  0.47000000000E+01 0.  1.
        -11    1    1    2    0    0  0.35843596634E+02  0.12037055428E+02  0.41230675483E+01  0.38034902511E+02  0.00000000000E+00 0. -1.
         11    1    1    2    0    0  0.20895328675E+02  0.10720753404E+01 -0.20989611011E+02  0.29636596909E+02  0.00000000000E+00 0.  1.
<mgrwt>
<rscale>  0 0.13210638E+03</rscale>
<asrwt>0</asrwt>
<pdfrwt beam="2">  1        2 0.10945519E+00 0.16688040E+03</pdfrwt>
<pdfrwt beam="1">  1       -2 0.55086934E-02 0.16688040E+03</pdfrwt>
<totfact> 0.67648729E+03</totfact>
</mgrwt>
</event>
<event>
 8    1  0.7550631E-006  0.1503720E+03  0.7546771E-02  0.1208952E+00
          1   -1    0    0  501    0  0.00000000000E+00  0.00000000000E+00  0.28463766381E+03  0.28463766381E+03  0.00000000000E+00 0. -1.
         -1   -1    0    0    0  501 -0.00000000000E+00 -0.00000000000E+00 -0.66137211318E+02  0.66137211318E+02  0.00000000000E+00 0.  1.
         23    2    1    2    0    0 -0.77015029118E+02 -0.32506095883E+02  0.10015625447E+03  0.15941896347E+03  0.91625158244E+02 0.  0.
         23    2    1    2    0    0  0.77015029118E+02  0.32506095883E+02  0.11834419802E+03  0.19135591166E+03  0.12499509888E+03 0.  0.
          5    1    4    4  502    0 -0.27364227034E+02  0.30640830936E+02  0.13936298697E+02  0.43634526043E+02  0.47000000000E+01 0. -1.
         -5    1    4    4    0  502  0.10437925615E+03  0.18652649467E+01  0.10440789933E+03  0.14772138562E+03  0.47000000000E+01 0. -1.
        -11    1    3    3    0    0 -0.40421221364E+02  0.23305275853E+02  0.10802412234E+02  0.47892620822E+02  0.00000000000E+00 0.  1.
         11    1    3    3    0    0 -0.36593807754E+02 -0.55811371736E+02  0.89353842237E+02  0.11152634264E+03  0.00000000000E+00 0. -1.
<mgrwt>
<rscale>  0 0.14330317E+03</rscale>
<asrwt>0</asrwt>
<pdfrwt beam="1">  1        1 0.43790409E-01 0.15037199E+03</pdfrwt>
<pdfrwt beam="2">  1       -1 0.10174956E-01 0.15037199E+03</pdfrwt>
<totfact> 0.53517757E+03</totfact>
</mgrwt>
</event>
<event>
 8    1  0.7550631E-006  0.2328051E+03  0.7546771E-02  0.1127589E+00
         -3   -1    0    0    0  501 -0.00000000000E+00  0.00000000000E+00  0.14100581419E+03  0.14100581419E+03  0.00000000000E+00 0.  1.
          3   -1    0    0  501    0  0.00000000000E+00 -0.00000000000E+00 -0.35818502365E+03  0.35818502365E+03  0.00000000000E+00 0. -1.
         23    2    1    2    0    0 -0.18828856543E+03  0.55827907289E+02 -0.10691813979E+03  0.24159480478E+03  0.91472520344E+02 0.  0.
         23    2    1    2    0    0  0.18828856543E+03 -0.55827907289E+02 -0.11026106967E+03  0.25759603306E+03  0.12501549368E+03 0.  0.
          5    1    4    4  502    0 -0.14631265384E+02 -0.28570558039E+01  0.71635601688E+01  0.17194280703E+02  0.47000000000E+01 0. -1.
         -5    1    4    4    0  502  0.20291983081E+03 -0.52970851486E+02 -0.11742462984E+03  0.24040175236E+03  0.47000000000E+01 0. -1.
        -11    1    3    3    0    0 -0.11228135789E+03 -0.14001877975E+02 -0.49745768141E+02  0.12360338735E+03  0.00000000000E+00 0. -1.
         11    1    3    3    0    0 -0.76007207542E+02  0.69829785264E+02 -0.57172371645E+02  0.11799141743E+03  0.00000000000E+00 0.  1.
<mgrwt>
<rscale>  0 0.22865635E+03</rscale>
<asrwt>0</asrwt>
<pdfrwt beam="2">  1        3 0.55105389E-01 0.23280510E+03</pdfrwt>
<pdfrwt beam="1">  1       -3 0.21693202E-01 0.23280510E+03</pdfrwt>
<totfact> 0.15787758E+02</totfact>
</mgrwt>
</event>
<event>
 8    1  0.7550631E-006  0.1317116E+03  0.7546771E-02  0.1239581E+00
          2   -1    0    0  501    0  0.00000000000E+00  0.00000000000E+00  0.41153181383E+03  0.41153181383E+03  0.00000000000E+00 0. -1.
         -2   -1    0    0    0  501 -0.00000000000E+00 -0.00000000000E+00 -0.32011137404E+02  0.32011137404E+02  0.00000000000E+00 0.  1.
         23    2    1    2    0    0  0.40880463692E+02  0.71687964113E+01  0.14876322289E+03  0.17784207529E+03  0.88174278039E+02 0.  0.
         23    2    1    2    0    0 -0.40880463692E+02 -0.71687964113E+01  0.23075745354E+03  0.26570087594E+03  0.12500139662E+03 0.  0.
          5    1    4    4  502    0 -0.30363271577E+02  0.46572563365E+02  0.44096318744E+02  0.71116153200E+02  0.47000000000E+01 0. -1.
         -5    1    4    4    0  502 -0.10517192114E+02 -0.53741359776E+02  0.18666113480E+03  0.19458472274E+03  0.47000000000E+01 0. -1.
        -11    1    3    3    0    0  0.47007679153E+02 -0.31737435843E+02  0.72913796323E+02  0.92376449529E+02  0.00000000000E+00 0.  1.
         11    1    3    3    0    0 -0.61272154615E+01  0.38906232254E+02  0.75849426562E+02  0.85465625765E+02  0.00000000000E+00 0. -1.
<mgrwt>
<rscale>  0 0.12215694E+03</rscale>
<asrwt>0</asrwt>
<pdfrwt beam="1">  1        2 0.63312583E-01 0.13171163E+03</pdfrwt>
<pdfrwt beam="2">  1       -2 0.49247907E-02 0.13171163E+03</pdfrwt>
<totfact> 0.14589931E+04</totfact>
</mgrwt>
</event>
<event>
 8    1  0.7550631E-006  0.1459388E+03  0.7546771E-02  0.1215566E+00
          2   -1    0    0  501    0  0.00000000000E+00  0.00000000000E+00  0.43430509326E+03  0.43430509326E+03  0.00000000000E+00 0. -1.
         -2   -1    0    0    0  501 -0.00000000000E+00 -0.00000000000E+00 -0.42535629292E+02  0.42535629292E+02  0.00000000000E+00 0.  1.
         23    2    1    2    0    0  0.22181552926E+02 -0.71976548968E+02  0.11906327459E+03  0.16754024149E+03  0.90669864192E+02 0.  0.
         23    2    1    2    0    0 -0.22181552926E+02  0.71976548968E+02  0.27270618938E+03  0.30930048106E+03  0.12500190784E+03 0.  0.
          5    1    4    4  502    0  0.45676139519E+02  0.10067172829E+02  0.51463255859E+02  0.69700892345E+02  0.47000000000E+01 0.  1.
         -5    1    4    4    0  502 -0.67857692444E+02  0.61909376139E+02  0.22124293352E+03  0.23959958871E+03  0.47000000000E+01 0.  1.
        -11    1    3    3    0    0 -0.93362019144E+01 -0.66889294143E+02  0.11756009262E+03  0.13557919351E+03  0.00000000000E+00 0. -1.
         11    1    3    3    0    0  0.31517754840E+02 -0.50872548256E+01  0.15031819653E+01  0.31961047978E+02  0.00000000000E+00 0.  1.
<mgrwt>
<rscale>  0 0.13835030E+03</rscale>
<asrwt>0</asrwt>
<pdfrwt beam="1">  1        2 0.66816165E-01 0.14593876E+03</pdfrwt>
<pdfrwt beam="2">  1       -2 0.65439433E-02 0.14593876E+03</pdfrwt>
<totfact> 0.90250253E+03</totfact>
</mgrwt>
</event>
<event>
 8    1  0.7550631E-006  0.1514774E+03  0.7546771E-02  0.1207718E+00
         -1   -1    0    0    0  501 -0.00000000000E+00  0.00000000000E+00  0.62914335238E+02  0.62914335238E+02  0.00000000000E+00 0.  1.
          1   -1    0    0  501    0  0.00000000000E+00 -0.00000000000E+00 -0.31974542379E+03  0.31974542379E+03  0.00000000000E+00 0. -1.
         23    2    1    2    0    0 -0.74959969606E+02  0.41236780821E+02 -0.72755280833E+02  0.14427077346E+03  0.90560786489E+02 0.  0.
         23    2    1    2    0    0  0.74959969606E+02 -0.41236780821E+02 -0.18407580772E+03  0.23838898556E+03  0.12500374521E+03 0.  0.
          5    1    4    4  502    0 -0.17613668798E+02  0.11645937408E+02 -0.10060636809E+03  0.10290578452E+03  0.47000000000E+01 0. -1.
         -5    1    4    4    0  502  0.92573638404E+02 -0.52882718229E+02 -0.83469439622E+02  0.13548320105E+03  0.47000000000E+01 0. -1.
        -11    1    3    3    0    0 -0.57909530862E+02 -0.11731920126E+02 -0.92001203260E+01  0.59797942510E+02  0.00000000000E+00 0.  1.
         11    1    3    3    0    0 -0.17050438744E+02  0.52968700947E+02 -0.63555160507E+02  0.84472830949E+02  0.00000000000E+00 0. -1.
<mgrwt>
<rscale>  0 0.14425302E+03</rscale>
<asrwt>0</asrwt>
<pdfrwt beam="2">  1        1 0.49191605E-01 0.15147741E+03</pdfrwt>
<pdfrwt beam="1">  1       -1 0.96791283E-02 0.15147741E+03</pdfrwt>
<totfact> 0.50015982E+03</totfact>
</mgrwt>
</event>
<event>
 8    1  0.7550631E-006  0.1327535E+03  0.7546771E-02  0.1236197E+00
          1   -1    0    0  501    0  0.00000000000E+00  0.00000000000E+00  0.17598573947E+03  0.17598573947E+03  0.00000000000E+00 0. -1.
         -1   -1    0    0    0  501 -0.00000000000E+00 -0.00000000000E+00 -0.78291721014E+02  0.78291721014E+02  0.00000000000E+00 0.  1.
         23    2    1    2    0    0  0.36999636850E+02  0.25087942802E+02  0.40282529247E+02  0.10964142948E+03  0.91652511662E+02 0.  0.
         23    2    1    2    0    0 -0.36999636850E+02 -0.25087942802E+02  0.57411489212E+02  0.14463603101E+03  0.12500049749E+03 0.  0.
          5    1    4    4  502    0 -0.12438932505E+02  0.38314116371E+02  0.64418187704E+02  0.76121557145E+02  0.47000000000E+01 0. -1.
         -5    1    4    4    0  502 -0.24560704346E+02 -0.63402059174E+02 -0.70066984921E+01  0.68514473866E+02  0.47000000000E+01 0. -1.
        -11    1    3    3    0    0  0.21509860436E+02  0.59945303005E+02  0.22382997934E+02  0.67506385215E+02  0.00000000000E+00 0. -1.
         11    1    3    3    0    0  0.15489776414E+02 -0.34857360203E+02  0.17899531313E+02  0.42135044261E+02  0.00000000000E+00 0.  1.
<mgrwt>
<rscale>  0 0.12428143E+03</rscale>
<asrwt>0</asrwt>
<pdfrwt beam="1">  1        1 0.27074729E-01 0.13275354E+03</pdfrwt>
<pdfrwt beam="2">  1       -1 0.12044880E-01 0.13275354E+03</pdfrwt>
<totfact> 0.74418443E+03</totfact>
</mgrwt>
</event>
<event>
 8    1  0.7550631E-006  0.1318638E+03  0.7546771E-02  0.1234478E+00
          2   -1    0    0  501    0  0.00000000000E+00  0.00000000000E+00  0.10472106111E+03  0.10472106111E+03  0.00000000000E+00 0. -1.
         -2   -1    0    0    0  501 -0.00000000000E+00 -0.00000000000E+00 -0.14336927711E+03  0.14336927711E+03  0.00000000000E+00 0.  1.
         23    2    1    2    0    0  0.37968174341E+02  0.12219235066E+02 -0.43287490205E+02  0.11614495953E+03  0.10012468650E+03 0.  0.
         23    2    1    2    0    0 -0.37968174341E+02 -0.12219235066E+02  0.46392742021E+01  0.13194537869E+03  0.12568678579E+03 0.  0.
          5    1    4    4  502    0  0.13631392331E+02 -0.16420399407E+02  0.55237338876E+02  0.59402844879E+02  0.47000000000E+01 0. -1.
         -5    1    4    4    0  502 -0.51599566671E+02  0.42011643414E+01 -0.50598064674E+02  0.72542533808E+02  0.47000000000E+01 0.  1.
        -11    1    3    3    0    0 -0.34223133320E+02  0.49962275421E+01 -0.81542871621E+01  0.35534174297E+02  0.00000000000E+00 0.  1.
         11    1    3    3    0    0  0.72191307661E+02  0.72230075236E+01 -0.35133203043E+02  0.80610785231E+02  0.00000000000E+00 0. -1.
<mgrwt>
<rscale>  0 0.12537921E+03</rscale>
<asrwt>0</asrwt>
<pdfrwt beam="1">  1        2 0.16110932E-01 0.13186379E+03</pdfrwt>
<pdfrwt beam="2">  1       -2 0.22056812E-01 0.13186379E+03</pdfrwt>
<totfact> 0.60125113E+03</totfact>
</mgrwt>
</event>
<event>
 8    1  0.7550631E-006  0.1284462E+03  0.7546771E-02  0.1243865E+00
          1   -1    0    0  501    0  0.00000000000E+00  0.00000000000E+00  0.12449705874E+04  0.12449705874E+04  0.00000000000E+00 0. -1.
         -1   -1    0    0    0  501 -0.00000000000E+00 -0.00000000000E+00 -0.10877776671E+02  0.10877776671E+02  0.00000000000E+00 0.  1.
         23    2    1    2    0    0  0.23044691777E+02  0.18525947835E+02  0.37365328143E+03  0.38587444456E+03  0.91695385244E+02 0.  0.
         23    2    1    2    0    0 -0.23044691777E+02 -0.18525947835E+02  0.86043952930E+03  0.86997391952E+03  0.12499667393E+03 0.  0.
          5    1    4    4  502    0 -0.28864226269E+01  0.50803161189E+02  0.24337751821E+03  0.24868453710E+03  0.47000000000E+01 0.  1.
         -5    1    4    4    0  502 -0.20158269150E+02 -0.69329109024E+02  0.61706201109E+03  0.62128938242E+03  0.47000000000E+01 0.  1.
        -11    1    3    3    0    0 -0.30549135781E+02  0.24415486831E+02  0.10947456705E+03  0.11624993129E+03  0.00000000000E+00 0.  1.
         11    1    3    3    0    0  0.53593827558E+02 -0.58895389965E+01  0.26417871438E+03  0.26962451327E+03  0.00000000000E+00 0. -1.
<mgrwt>
<rscale>  0 0.11953582E+03</rscale>
<asrwt>0</asrwt>
<pdfrwt beam="1">  1        1 0.19153382E+00 0.12844624E+03</pdfrwt>
<pdfrwt beam="2">  1       -1 0.16735051E-02 0.12844624E+03</pdfrwt>
<totfact> 0.91711154E+03</totfact>
</mgrwt>
</event>
<event>
 8    1  0.7550631E-006  0.2357795E+03  0.7546771E-02  0.1125196E+00
          2   -1    0    0  501    0  0.00000000000E+00  0.00000000000E+00  0.25411671817E+04  0.25411671817E+04  0.00000000000E+00 0. -1.
         -2   -1    0    0    0  501 -0.00000000000E+00 -0.00000000000E+00 -0.24935908042E+02  0.24935908042E+02  0.00000000000E+00 0.  1.
         23    2    1    2    0    0 -0.10776892696E+03  0.16796478330E+03  0.68731071295E+03  0.72204713349E+03  0.95549656129E+02 0.  0.
         23    2    1    2    0    0  0.10776892696E+03 -0.16796478330E+03  0.18289205607E+04  0.18440559563E+04  0.12556130929E+03 0.  0.
          5    1    4    4  502    0  0.12402812422E+03 -0.83428212427E+02  0.11700602954E+04  0.11795789194E+04  0.47000000000E+01 0. -1.
         -5    1    4    4    0  502 -0.16259197253E+02 -0.84536570870E+02  0.65886026535E+03  0.66447703690E+03  0.47000000000E+01 0. -1.
        -11    1    3    3    0    0 -0.11802670279E+03  0.10668204004E+03  0.49951957116E+03  0.52424341886E+03  0.00000000000E+00 0.  1.
         11    1    3    3    0    0  0.10257775827E+02  0.61282743258E+02  0.18779114179E+03  0.19780371463E+03  0.00000000000E+00 0. -1.
<mgrwt>
<rscale>  0 0.23206266E+03</rscale>
<asrwt>0</asrwt>
<pdfrwt beam="1">  1        2 0.39094859E+00 0.23577946E+03</pdfrwt>
<pdfrwt beam="2">  1       -2 0.38362955E-02 0.23577946E+03</pdfrwt>
<totfact> 0.11203229E+03</totfact>
</mgrwt>
</event>
<event>
 8    1  0.7550631E-006  0.1673313E+03  0.7546771E-02  0.1189298E+00
          1   -1    0    0  501    0  0.00000000000E+00  0.00000000000E+00  0.33535645301E+03  0.33535645301E+03  0.00000000000E+00 0. -1.
         -1   -1    0    0    0  501 -0.00000000000E+00 -0.00000000000E+00 -0.74558907156E+02  0.74558907156E+02  0.00000000000E+00 0.  1.
         23    2    1    2    0    0 -0.19347262422E+02 -0.10954877397E+03  0.65638453737E+02  0.15284178909E+03  0.81712639434E+02 0.  0.
         23    2    1    2    0    0  0.19347262422E+02  0.10954877397E+03  0.19515909212E+03  0.25707357108E+03  0.12499799705E+03 0.  0.
          5    1    4    4  502    0  0.17469290206E+02  0.13414980070E+03  0.13185386845E+03  0.18896792785E+03  0.47000000000E+01 0.  1.
         -5    1    4    4    0  502  0.18779722159E+01 -0.24601026733E+02  0.63305223670E+02  0.68105643230E+02  0.47000000000E+01 0.  1.
        -11    1    3    3    0    0 -0.22059326965E+02 -0.12414806968E+02 -0.12424367133E+02  0.28197628214E+02  0.00000000000E+00 0.  1.
         11    1    3    3    0    0  0.27120645430E+01 -0.97133967000E+02  0.78062820871E+02  0.12464416088E+03  0.00000000000E+00 0. -1.
<mgrwt>
<rscale>  0 0.15946889E+03</rscale>
<asrwt>0</asrwt>
<pdfrwt beam="1">  1        1 0.51593300E-01 0.16733126E+03</pdfrwt>
<pdfrwt beam="2">  1       -1 0.11470601E-01 0.16733126E+03</pdfrwt>
<totfact> 0.36478092E+03</totfact>
</mgrwt>
</event>
<event>
 8    1  0.7550631E-006  0.2095224E+03  0.7546771E-02  0.1145019E+00
          2   -1    0    0  501    0  0.00000000000E+00  0.00000000000E+00  0.17671525976E+04  0.17671525976E+04  0.00000000000E+00 0. -1.
         -2   -1    0    0    0  501 -0.00000000000E+00 -0.00000000000E+00 -0.26278300197E+02  0.26278300197E+02  0.00000000000E+00 0.  1.
         23    2    1    2    0    0  0.63154242595E+02  0.15583698870E+03  0.53100448022E+03  0.56555279978E+03  0.98033595894E+02 0.  0.
         23    2    1    2    0    0 -0.63154242595E+02 -0.15583698870E+03  0.12098698171E+04  0.12278780980E+04  0.12500409452E+03 0.  0.
          5    1    4    4  502    0 -0.90389430823E+02 -0.14516011375E+03  0.11261807552E+04  0.11390991578E+04  0.47000000000E+01 0. -1.
         -5    1    4    4    0  502  0.27235188228E+02 -0.10676874946E+02  0.83689061945E+02  0.88778940215E+02  0.47000000000E+01 0. -1.
        -11    1    3    3    0    0  0.18075929905E+02  0.14773025218E+03  0.40428586989E+03  0.43081089963E+03  0.00000000000E+00 0.  1.
         11    1    3    3    0    0  0.45078312690E+02  0.81067365240E+01  0.12671861033E+03  0.13474190015E+03  0.00000000000E+00 0. -1.
<mgrwt>
<rscale>  0 0.20569805E+03</rscale>
<asrwt>0</asrwt>
<pdfrwt beam="1">  1        2 0.27186954E+00 0.20952243E+03</pdfrwt>
<pdfrwt beam="2">  1       -2 0.40428168E-02 0.20952243E+03</pdfrwt>
<totfact> 0.26655136E+03</totfact>
</mgrwt>
</event>
<event>
 8    1  0.7550631E-006  0.1455497E+03  0.7546771E-02  0.1221340E+00
          2   -1    0    0  501    0  0.00000000000E+00  0.00000000000E+00  0.15605711136E+03  0.15605711136E+03  0.00000000000E+00 0. -1.
         -2   -1    0    0    0  501 -0.00000000000E+00 -0.00000000000E+00 -0.10648587322E+03  0.10648587322E+03  0.00000000000E+00 0.  1.
         23    2    1    2    0    0 -0.28762725823E+02  0.68795823282E+02 -0.90985454101E+01  0.10561348330E+03  0.74237892139E+02 0.  0.
         23    2    1    2    0    0  0.28762725823E+02 -0.68795823282E+02  0.58669783545E+02  0.15692950128E+03  0.12499826067E+03 0.  0.
          5    1    4    4  502    0  0.14824896377E+02 -0.94034744949E+02  0.45399432546E+01  0.95420185994E+02  0.47000000000E+01 0. -1.
         -5    1    4    4    0  502  0.13937829447E+02  0.25238921668E+02  0.54129840291E+02  0.61509315282E+02  0.47000000000E+01 0. -1.
        -11    1    3    3    0    0 -0.26150527223E+02  0.24452910128E+02  0.29790622419E+02  0.46575487887E+02  0.00000000000E+00 0.  1.
         11    1    3    3    0    0 -0.26121985999E+01  0.44342913154E+02 -0.38889167829E+02  0.59037995418E+02  0.00000000000E+00 0. -1.
<mgrwt>
<rscale>  0 0.13420973E+03</rscale>
<asrwt>0</asrwt>
<pdfrwt beam="1">  1        2 0.24008786E-01 0.14554973E+03</pdfrwt>
<pdfrwt beam="2">  1       -2 0.16382442E-01 0.14554973E+03</pdfrwt>
<totfact> 0.63498372E+03</totfact>
</mgrwt>
</event>
<event>
 8    1  0.7550631E-006  0.1980357E+03  0.7546771E-02  0.1155566E+00
          2   -1    0    0  501    0  0.00000000000E+00  0.00000000000E+00  0.51286806370E+03  0.51286806370E+03  0.00000000000E+00 0. -1.
         -2   -1    0    0    0  501 -0.00000000000E+00 -0.00000000000E+00 -0.71335283792E+02  0.71335283792E+02  0.00000000000E+00 0.  1.
         23    2    1    2    0    0 -0.12455336761E+03 -0.89890686741E+02  0.25703478765E+03  0.31354183291E+03  0.92993128632E+02 0.  0.
         23    2    1    2    0    0  0.12455336761E+03  0.89890686741E+02  0.18449799225E+03  0.27066151458E+03  0.12499707750E+03 0.  0.
          5    1    4    4  502    0  0.84032319429E+02 -0.13401438286E+02  0.98153011711E+02  0.12998897247E+03  0.47000000000E+01 0. -1.
         -5    1    4    4    0  502  0.40521048182E+02  0.10329212503E+03  0.86344980540E+02  0.14067254211E+03  0.47000000000E+01 0. -1.
        -11    1    3    3    0    0  0.14179967783E+02 -0.46633260999E+00  0.25760155122E+02  0.29408749452E+02  0.00000000000E+00 0. -1.
         11    1    3    3    0    0 -0.13873333539E+03 -0.89424354131E+02  0.23127463253E+03  0.28413308346E+03  0.00000000000E+00 0.  1.
<mgrwt>
<rscale>  0 0.19324565E+03</rscale>
<asrwt>0</asrwt>
<pdfrwt beam="1">  1        2 0.78902777E-01 0.19803572E+03</pdfrwt>
<pdfrwt beam="2">  1       -2 0.10974659E-01 0.19803572E+03</pdfrwt>
<totfact> 0.34077096E+03</totfact>
</mgrwt>
</event>
<event>
 8    1  0.7550631E-006  0.1376137E+03  0.7546771E-02  0.1228284E+00
         -2   -1    0    0    0  501 -0.00000000000E+00  0.00000000000E+00  0.24931114309E+02  0.24931114309E+02  0.00000000000E+00 0.  1.
          2   -1    0    0  501    0  0.00000000000E+00 -0.00000000000E+00 -0.67242820948E+03  0.67242820948E+03  0.00000000000E+00 0. -1.
         23    2    1    2    0    0  0.39998912549E+02 -0.41437762357E+02 -0.17753847682E+03  0.20766692442E+03  0.91041966110E+02 0.  0.
         23    2    1    2    0    0 -0.39998912549E+02  0.41437762357E+02 -0.46995861835E+03  0.48969239937E+03  0.12498216625E+03 0.  0.
          5    1    4    4  502    0 -0.45308288481E+02 -0.94030695430E-01 -0.50049817717E+02  0.67675136500E+02  0.47000000000E+01 0.  1.
         -5    1    4    4    0  502  0.53093759321E+01  0.41531793052E+02 -0.41990880064E+03  0.42201726287E+03  0.47000000000E+01 0.  1.
        -11    1    3    3    0    0  0.69603757418E+02 -0.27357022148E+02 -0.11812526825E+03  0.13980940135E+03  0.00000000000E+00 0.  1.
         11    1    3    3    0    0 -0.29604844869E+02 -0.14080740209E+02 -0.59413208571E+02  0.67857523070E+02  0.00000000000E+00 0. -1.
<mgrwt>
<rscale>  0 0.12944343E+03</rscale>
<asrwt>0</asrwt>
<pdfrwt beam="2">  1        2 0.10345050E+00 0.13761375E+03</pdfrwt>
<pdfrwt beam="1">  1       -2 0.38355557E-02 0.13761375E+03</pdfrwt>
<totfact> 0.12310166E+04</totfact>
</mgrwt>
</event>
<event>
 8    1  0.7550631E-006  0.1617674E+03  0.7546771E-02  0.1194140E+00
          2   -1    0    0  501    0  0.00000000000E+00  0.00000000000E+00  0.58870126628E+03  0.58870126628E+03  0.00000000000E+00 0. -1.
         -2   -1    0    0    0  501 -0.00000000000E+00 -0.00000000000E+00 -0.45523619561E+02  0.45523619561E+02  0.00000000000E+00 0.  1.
         23    2    1    2    0    0  0.59516801509E+02 -0.83665603085E+02  0.12437699548E+03  0.18526757987E+03  0.91171576406E+02 0.  0.
         23    2    1    2    0    0 -0.59516801509E+02  0.83665603085E+02  0.41880065124E+03  0.44895730597E+03  0.12500597708E+03 0.  0.
          5    1    4    4  502    0 -0.70944636264E+02  0.11034942171E+03  0.32016470034E+03  0.34603130152E+03  0.47000000000E+01 0.  1.
         -5    1    4    4    0  502  0.11427834755E+02 -0.26683818621E+02  0.98635950894E+02  0.10292600445E+03  0.47000000000E+01 0.  1.
        -11    1    3    3    0    0  0.65046045479E+02 -0.22403720773E+02  0.94486823055E+02  0.11687888803E+03  0.00000000000E+00 0.  1.
         11    1    3    3    0    0 -0.55292439702E+01 -0.61261882312E+02  0.29890172424E+02  0.68388691835E+02  0.00000000000E+00 0. -1.
<mgrwt>
<rscale>  0 0.15527261E+03</rscale>
<asrwt>0</asrwt>
<pdfrwt beam="1">  1        2 0.90569420E-01 0.16176735E+03</pdfrwt>
<pdfrwt beam="2">  1       -2 0.70036342E-02 0.16176735E+03</pdfrwt>
<totfact> 0.58434817E+03</totfact>
</mgrwt>
</event>
<event>
 8    1  0.7550631E-006  0.1585017E+03  0.7546771E-02  0.1197527E+00
         -1   -1    0    0    0  501 -0.00000000000E+00  0.00000000000E+00  0.19573300472E+02  0.19573300472E+02  0.00000000000E+00 0.  1.
          1   -1    0    0  501    0  0.00000000000E+00 -0.00000000000E+00 -0.11487433624E+04  0.11487433624E+04  0.00000000000E+00 0. -1.
         23    2    1    2    0    0 -0.74289758783E+02 -0.63156397716E+02 -0.40776330797E+03  0.42970276456E+03  0.94158651784E+02 0.  0.
         23    2    1    2    0    0  0.74289758783E+02  0.63156397716E+02 -0.72140675395E+03  0.73861389831E+03  0.12496034291E+03 0.  0.
          5    1    4    4  502    0  0.40041371237E+01 -0.30788677703E+02 -0.28363209295E+03  0.28536508185E+03  0.47000000000E+01 0. -1.
         -5    1    4    4    0  502  0.70285621659E+02  0.93945075419E+02 -0.43777466100E+03  0.45324881646E+03  0.47000000000E+01 0. -1.
        -11    1    3    3    0    0  0.21593553937E+02 -0.22652875534E+02 -0.85563230511E+02  0.91107084011E+02  0.00000000000E+00 0. -1.
         11    1    3    3    0    0 -0.95883312720E+02 -0.40503522182E+02 -0.32220007746E+03  0.33859568055E+03  0.00000000000E+00 0.  1.
<mgrwt>
<rscale>  0 0.15242267E+03</rscale>
<asrwt>0</asrwt>
<pdfrwt beam="2">  1        1 0.17672975E+00 0.15850169E+03</pdfrwt>
<pdfrwt beam="1">  1       -1 0.30112770E-02 0.15850169E+03</pdfrwt>
<totfact> 0.45999890E+03</totfact>
</mgrwt>
</event>
<event>
 8    1  0.7550631E-006  0.1310333E+03  0.7546771E-02  0.1239205E+00
          1   -1    0    0  501    0  0.00000000000E+00  0.00000000000E+00  0.26694778835E+03  0.26694778835E+03  0.00000000000E+00 0. -1.
         -1   -1    0    0    0  501 -0.00000000000E+00 -0.00000000000E+00 -0.51653856120E+02  0.51653856120E+02  0.00000000000E+00 0.  1.
         23    2    1    2    0    0 -0.36730775544E+02  0.13988417337E+02  0.64233640772E+02  0.11862932852E+03  0.91663140287E+02 0.  0.
         23    2    1    2    0    0  0.36730775544E+02 -0.13988417337E+02  0.15106029145E+03  0.19997231594E+03  0.12499955919E+03 0.  0.
          5    1    4    4  502    0  0.46695181348E+02 -0.27360178596E+02  0.68837957395E+01  0.54758524248E+02  0.47000000000E+01 0. -1.
         -5    1    4    4    0  502 -0.99644058043E+01  0.13371761259E+02  0.14417649572E+03  0.14521379170E+03  0.47000000000E+01 0. -1.
        -11    1    3    3    0    0 -0.18956995459E+02  0.22746496213E+02 -0.17589856197E+02  0.34440874087E+02  0.00000000000E+00 0.  1.
         11    1    3    3    0    0 -0.17773780085E+02 -0.87580788760E+01  0.81823496969E+02  0.84188454436E+02  0.00000000000E+00 0. -1.
<mgrwt>
<rscale>  0 0.12239042E+03</rscale>
<asrwt>0</asrwt>
<pdfrwt beam="1">  1        1 0.41068890E-01 0.13103326E+03</pdfrwt>
<pdfrwt beam="2">  1       -1 0.79467473E-02 0.13103326E+03</pdfrwt>
<totfact> 0.83590396E+03</totfact>
</mgrwt>
</event>
<event>
 8    1  0.7550631E-006  0.2060215E+03  0.7546771E-02  0.1148263E+00
         -1   -1    0    0    0  501 -0.00000000000E+00  0.00000000000E+00  0.30781001342E+03  0.30781001342E+03  0.00000000000E+00 0.  1.
          1   -1    0    0  501    0  0.00000000000E+00 -0.00000000000E+00 -0.12713020047E+03  0.12713020047E+03  0.00000000000E+00 0. -1.
         23    2    1    2    0    0  0.14643364793E+03 -0.73329669706E+02  0.81264809091E+02  0.20618660283E+03  0.95335682121E+02 0.  0.
         23    2    1    2    0    0 -0.14643364793E+03  0.73329669706E+02  0.99415003864E+02  0.22875361106E+03  0.12499927149E+03 0.  0.
          5    1    4    4  502    0 -0.15849206179E+03  0.66963322490E+02  0.11539722816E+03  0.20722555459E+03  0.47000000000E+01 0. -1.
         -5    1    4    4    0  502  0.12058413863E+02  0.63663472164E+01 -0.15982224294E+02  0.21528056465E+02  0.47000000000E+01 0. -1.
        -11    1    3    3    0    0  0.11574173857E+03 -0.80978369239E+02  0.96505329640E+02  0.17107578724E+03  0.00000000000E+00 0.  1.
         11    1    3    3    0    0  0.30691909362E+02  0.76486995325E+01 -0.15240520549E+02  0.35110815590E+02  0.00000000000E+00 0. -1.
<mgrwt>
<rscale>  0 0.20175987E+03</rscale>
<asrwt>0</asrwt>
<pdfrwt beam="2">  1        1 0.19558492E-01 0.20602153E+03</pdfrwt>
<pdfrwt beam="1">  1       -1 0.47355387E-01 0.20602153E+03</pdfrwt>
<totfact> 0.11881156E+03</totfact>
</mgrwt>
</event>
<event>
 8    1  0.7550631E-006  0.1327701E+03  0.7546771E-02  0.1235572E+00
          2   -1    0    0  501    0  0.00000000000E+00  0.00000000000E+00  0.26088882799E+03  0.26088882799E+03  0.00000000000E+00 0. -1.
         -2   -1    0    0    0  501 -0.00000000000E+00 -0.00000000000E+00 -0.87345376645E+02  0.87345376645E+02  0.00000000000E+00 0.  1.
         23    2    1    2    0    0  0.39633955613E+02  0.20702189419E+02 -0.27922297402E+02  0.10695358781E+03  0.93059035933E+02 0.  0.
         23    2    1    2    0    0 -0.39633955613E+02 -0.20702189419E+02  0.20146574875E+03  0.24128061683E+03  0.12501382745E+03 0.  0.
          5    1    4    4  502    0  0.25215703840E+02  0.28562077619E+02  0.12000895714E+03  0.12599945949E+03  0.47000000000E+01 0.  1.
         -5    1    4    4    0  502 -0.64849659453E+02 -0.49264267037E+02  0.81456791610E+02  0.11528115734E+03  0.47000000000E+01 0.  1.
        -11    1    3    3    0    0 -0.20296811772E+02 -0.13449975456E+02 -0.29127761014E+02  0.37964310471E+02  0.00000000000E+00 0.  1.
         11    1    3    3    0    0  0.59930767386E+02  0.34152164874E+02  0.12054636122E+01  0.68989277338E+02  0.00000000000E+00 0. -1.
<mgrwt>
<rscale>  0 0.12467856E+03</rscale>
<asrwt>0</asrwt>
<pdfrwt beam="1">  1        2 0.40136742E-01 0.13277006E+03</pdfrwt>
<pdfrwt beam="2">  1       -2 0.13437750E-01 0.13277006E+03</pdfrwt>
<totfact> 0.50020482E+03</totfact>
</mgrwt>
</event>
<event>
 7    1  0.7550631E-006  0.1389043E+03  0.7546771E-02  0.1228264E+00
         -1   -1    0    0    0  501 -0.00000000000E+00  0.00000000000E+00  0.24855517105E+02  0.24855517105E+02  0.00000000000E+00 0.  1.
          1   -1    0    0  501    0  0.00000000000E+00 -0.00000000000E+00 -0.62251543732E+03  0.62251543732E+03  0.00000000000E+00 0. -1.
         23    2    1    2    0    0  0.16405607094E+02  0.45407235135E+02 -0.19424204244E+03  0.22070904527E+03  0.93013712246E+02 0.  0.
          5    1    1    2  502    0 -0.19029553440E+02 -0.22403431158E+01 -0.37313932869E+03  0.37366052997E+03  0.47000000000E+01 0. -1.
         -5    1    1    2    0  502  0.26239463454E+01 -0.43166892019E+02 -0.30278549086E+02  0.53001379188E+02  0.47000000000E+01 0.  1.
        -11    1    3    3    0    0 -0.21277897021E+01  0.72155170276E+02 -0.13756024923E+03  0.15535030819E+03  0.00000000000E+00 0.  1.
         11    1    3    3    0    0  0.18533396796E+02 -0.26747935141E+02 -0.56681793214E+02  0.65358737083E+02  0.00000000000E+00 0. -1.
<mgrwt>
<rscale>  0 0.12945667E+03</rscale>
<asrwt>0</asrwt>
<pdfrwt beam="2">  1        1 0.95771596E-01 0.13890429E+03</pdfrwt>
<pdfrwt beam="1">  1       -1 0.38239261E-02 0.13890429E+03</pdfrwt>
<totfact> 0.84320179E+03</totfact>
</mgrwt>
</event>
<event>
 8    1  0.7550631E-006  0.1625323E+03  0.7546771E-02  0.1192682E+00
         -1   -1    0    0    0  501 -0.00000000000E+00  0.00000000000E+00  0.26799484675E+02  0.26799484675E+02  0.00000000000E+00 0.  1.
          1   -1    0    0  501    0  0.00000000000E+00 -0.00000000000E+00 -0.13518132433E+04  0.13518132433E+04  0.00000000000E+00 0. -1.
         23    2    1    2    0    0 -0.75107125215E+02 -0.71772382623E+02 -0.21293229241E+03  0.25471685545E+03  0.93531599662E+02 0.  0.
         23    2    1    2    0    0  0.75107125215E+02  0.71772382623E+02 -0.11120814662E+04  0.11238958725E+04  0.12499755839E+03 0.  0.
          5    1    4    4  502    0 -0.16994508993E+02  0.67406306841E+02 -0.43376913674E+03  0.43932923592E+03  0.47000000000E+01 0.  1.
         -5    1    4    4    0  502  0.92101634208E+02  0.43660757818E+01 -0.67831232944E+03  0.68456663658E+03  0.47000000000E+01 0.  1.
        -11    1    3    3    0    0 -0.22715619586E+02 -0.67742685811E+02 -0.60975172427E+02  0.93931051876E+02  0.00000000000E+00 0.  1.
         11    1    3    3    0    0 -0.52391505629E+02 -0.40296968123E+01 -0.15195711998E+03  0.16078580357E+03  0.00000000000E+00 0. -1.
<mgrwt>
<rscale>  0 0.15652068E+03</rscale>
<asrwt>0</asrwt>
<pdfrwt beam="2">  1        1 0.20797124E+00 0.16253229E+03</pdfrwt>
<pdfrwt beam="1">  1       -1 0.41229982E-02 0.16253229E+03</pdfrwt>
<totfact> 0.21100224E+03</totfact>
</mgrwt>
</event>
<event>
 8    1  0.7550631E-006  0.1263893E+03  0.7546771E-02  0.1247914E+00
          2   -1    0    0  501    0  0.00000000000E+00  0.00000000000E+00  0.46348392863E+03  0.46348392863E+03  0.00000000000E+00 0. -1.
         -2   -1    0    0    0  501 -0.00000000000E+00 -0.00000000000E+00 -0.33654537535E+02  0.33654537535E+02  0.00000000000E+00 0.  1.
         23    2    1    2    0    0 -0.18686121749E+02 -0.86207512934E-01  0.72426265514E+02  0.11804580451E+03  0.91323980688E+02 0.  0.
         23    2    1    2    0    0  0.18686121749E+02  0.86207512934E-01  0.35740312558E+03  0.37909266165E+03  0.12500029346E+03 0.  0.
          5    1    4    4  502    0  0.13261268225E+02  0.36755134396E+02  0.29799193831E+02  0.49364796083E+02  0.47000000000E+01 0.  1.
         -5    1    4    4    0  502  0.54248535243E+01 -0.36668926883E+02  0.32760393175E+03  0.32972786557E+03  0.47000000000E+01 0.  1.
        -11    1    3    3    0    0 -0.45586482572E+02  0.73159419351E+01  0.67134231275E+01  0.46655336777E+02  0.00000000000E+00 0.  1.
         11    1    3    3    0    0  0.26900360823E+02 -0.74021494481E+01  0.65712842386E+02  0.71390467734E+02  0.00000000000E+00 0. -1.
<mgrwt>
<rscale>  0 0.11712658E+03</rscale>
<asrwt>0</asrwt>
<pdfrwt beam="1">  1        2 0.71305215E-01 0.12638929E+03</pdfrwt>
<pdfrwt beam="2">  1       -2 0.51776215E-02 0.12638929E+03</pdfrwt>
<totfact> 0.11869586E+04</totfact>
</mgrwt>
</event>
<event>
 8    1  0.7550631E-006  0.1393896E+03  0.7546771E-02  0.1224666E+00
         -1   -1    0    0    0  501 -0.00000000000E+00  0.00000000000E+00  0.32920989667E+02  0.32920989667E+02  0.00000000000E+00 0.  1.
          1   -1    0    0  501    0  0.00000000000E+00 -0.00000000000E+00 -0.58904644895E+03  0.58904644895E+03  0.00000000000E+00 0. -1.
         23    2    1    2    0    0 -0.47293915983E+02  0.39572465837E+02 -0.11941523933E+03  0.16355140083E+03  0.93200680199E+02 0.  0.
         23    2    1    2    0    0  0.47293915983E+02 -0.39572465837E+02 -0.43671021995E+03  0.45841603778E+03  0.12500701157E+03 0.  0.
          5    1    4    4  502    0  0.71331686636E+02 -0.70091487476E+02 -0.30448749007E+03  0.32052417654E+03  0.47000000000E+01 0.  1.
         -5    1    4    4    0  502 -0.24037770653E+02  0.30519021639E+02 -0.13222272988E+03  0.13789186124E+03  0.47000000000E+01 0.  1.
        -11    1    3    3    0    0  0.76607655352E+01  0.29975397337E+02 -0.99689712810E+02  0.10438031718E+03  0.00000000000E+00 0. -1.
         11    1    3    3    0    0 -0.54954681518E+02  0.95970685001E+01 -0.19725526517E+02  0.59171083655E+02  0.00000000000E+00 0.  1.
<mgrwt>
<rscale>  0 0.13189821E+03</rscale>
<asrwt>0</asrwt>
<pdfrwt beam="2">  1        1 0.90622526E-01 0.13938955E+03</pdfrwt>
<pdfrwt beam="1">  1       -1 0.50647679E-02 0.13938955E+03</pdfrwt>
<totfact> 0.60106472E+03</totfact>
</mgrwt>
</event>
<event>
 8    1  0.7550631E-006  0.1484738E+03  0.7546771E-02  0.1212119E+00
          1   -1    0    0  501    0  0.00000000000E+00  0.00000000000E+00  0.75013963734E+03  0.75013963734E+03  0.00000000000E+00 0. -1.
         -1   -1    0    0    0  501 -0.00000000000E+00 -0.00000000000E+00 -0.25855398023E+02  0.25855398023E+02  0.00000000000E+00 0.  1.
         23    2    1    2    0    0  0.78025903720E+02  0.18162668865E+02  0.42756834822E+03  0.44420475185E+03  0.89917990261E+02 0.  0.
         23    2    1    2    0    0 -0.78025903720E+02 -0.18162668865E+02  0.29671589110E+03  0.33179028351E+03  0.12500619190E+03 0.  0.
          5    1    4    4  502    0  0.19714212352E+02  0.29803038373E+02  0.10817104925E+03  0.11401726694E+03  0.47000000000E+01 0.  1.
         -5    1    4    4    0  502 -0.97740116072E+02 -0.47965707239E+02  0.18854484185E+03  0.21777301658E+03  0.47000000000E+01 0.  1.
        -11    1    3    3    0    0  0.25384782004E+02 -0.22319061131E+02  0.47036454631E+02  0.57921979519E+02  0.00000000000E+00 0.  1.
         11    1    3    3    0    0  0.52641121716E+02  0.40481729997E+02  0.38053189359E+03  0.38628277233E+03  0.00000000000E+00 0. -1.
<mgrwt>
<rscale>  0 0.14090300E+03</rscale>
<asrwt>0</asrwt>
<pdfrwt beam="1">  1        1 0.11540608E+00 0.14847381E+03</pdfrwt>
<pdfrwt beam="2">  1       -1 0.39777541E-02 0.14847381E+03</pdfrwt>
<totfact> 0.61266876E+03</totfact>
</mgrwt>
</event>
<event>
 8    1  0.7550631E-006  0.1394591E+03  0.7546771E-02  0.1224889E+00
          1   -1    0    0  501    0  0.00000000000E+00  0.00000000000E+00  0.20967116389E+03  0.20967116389E+03  0.00000000000E+00 0. -1.
         -1   -1    0    0    0  501 -0.00000000000E+00 -0.00000000000E+00 -0.75930049875E+02  0.75930049875E+02  0.00000000000E+00 0.  1.
         23    2    1    2    0    0 -0.47318976879E+02  0.39814907083E+02  0.42381575473E+02  0.11888163378E+03  0.92262302761E+02 0.  0.
         23    2    1    2    0    0  0.47318976879E+02 -0.39814907083E+02  0.91359538542E+02  0.16671957999E+03  0.12499816267E+03 0.  0.
          5    1    4    4  502    0  0.69715446818E+02 -0.25455936693E+02  0.31142440853E+01  0.74431423164E+02  0.47000000000E+01 0. -1.
         -5    1    4    4    0  502 -0.22396469940E+02 -0.14358970389E+02  0.88245294456E+02  0.92288156825E+02  0.47000000000E+01 0. -1.
        -11    1    3    3    0    0 -0.20042644502E+02  0.22554408183E+02 -0.28180998788E+02  0.41286530731E+02  0.00000000000E+00 0.  1.
         11    1    3    3    0    0 -0.27276332377E+02  0.17260498900E+02  0.70562574261E+02  0.77595103045E+02  0.00000000000E+00 0. -1.
<mgrwt>
<rscale>  0 0.13174522E+03</rscale>
<asrwt>0</asrwt>
<pdfrwt beam="1">  1        1 0.32257102E-01 0.13945914E+03</pdfrwt>
<pdfrwt beam="2">  1       -1 0.11681546E-01 0.13945914E+03</pdfrwt>
<totfact> 0.62942829E+03</totfact>
</mgrwt>
</event>
<event>
 8    1  0.7550631E-006  0.1252744E+03  0.7546771E-02  0.1250984E+00
          2   -1    0    0  501    0  0.00000000000E+00  0.00000000000E+00  0.90869207244E+02  0.90869207244E+02  0.00000000000E+00 0. -1.
         -2   -1    0    0    0  501 -0.00000000000E+00 -0.00000000000E+00 -0.13081466366E+03  0.13081466366E+03  0.00000000000E+00 0.  1.
         23    2    1    2    0    0  0.73368264825E+01 -0.37511501276E+01 -0.34112734315E+02  0.96273772990E+02  0.89649654618E+02 0.  0.
         23    2    1    2    0    0 -0.73368264825E+01  0.37511501276E+01 -0.58327220994E+01  0.12541009791E+03  0.12500308741E+03 0.  0.
          5    1    4    4  502    0 -0.53672495963E+02  0.38944727429E+02 -0.82219039924E+01  0.66985956160E+02  0.47000000000E+01 0. -1.
         -5    1    4    4    0  502  0.46335669481E+02 -0.35193577301E+02  0.23891818930E+01  0.58424141753E+02  0.47000000000E+01 0. -1.
        -11    1    3    3    0    0  0.16019369591E+01  0.18231483693E+02 -0.59473247531E+02  0.62225560436E+02  0.00000000000E+00 0.  1.
         11    1    3    3    0    0  0.57348895233E+01 -0.21982633821E+02  0.25360513216E+02  0.34048212554E+02  0.00000000000E+00 0. -1.
<mgrwt>
<rscale>  0 0.11534282E+03</rscale>
<asrwt>0</asrwt>
<pdfrwt beam="1">  1        2 0.13979878E-01 0.12527439E+03</pdfrwt>
<pdfrwt beam="2">  1       -2 0.20125333E-01 0.12527439E+03</pdfrwt>
<totfact> 0.82621019E+03</totfact>
</mgrwt>
</event>
<event>
 8    1  0.7550631E-006  0.2331894E+03  0.7546771E-02  0.1127448E+00
          1   -1    0    0  501    0  0.00000000000E+00  0.00000000000E+00  0.49473406288E+03  0.49473406288E+03  0.00000000000E+00 0. -1.
         -1   -1    0    0    0  501 -0.00000000000E+00 -0.00000000000E+00 -0.10305685788E+03  0.10305685788E+03  0.00000000000E+00 0.  1.
         23    2    1    2    0    0 -0.19641286532E+03  0.13204617009E+02  0.15992840222E+03  0.26902839657E+03  0.89704006352E+02 0.  0.
         23    2    1    2    0    0  0.19641286532E+03 -0.13204617009E+02  0.23174880278E+03  0.32876252418E+03  0.12499965656E+03 0.  0.
          5    1    4    4  502    0  0.75619865539E+02 -0.22335634587E+02  0.14979624452E+02  0.80397287176E+02  0.47000000000E+01 0. -1.
         -5    1    4    4    0  502  0.12079299978E+03  0.91310175786E+01  0.21676917833E+03  0.24836523700E+03  0.47000000000E+01 0. -1.
        -11    1    3    3    0    0 -0.25835076096E+02  0.17420455255E+02 -0.51872208154E+01  0.31588457986E+02  0.00000000000E+00 0.  1.
         11    1    3    3    0    0 -0.17057778922E+03 -0.42158382458E+01  0.16511562303E+03  0.23743993859E+03  0.00000000000E+00 0. -1.
<mgrwt>
<rscale>  0 0.22885551E+03</rscale>
<asrwt>0</asrwt>
<pdfrwt beam="1">  1        1 0.76112931E-01 0.23318939E+03</pdfrwt>
<pdfrwt beam="2">  1       -1 0.15854902E-01 0.23318939E+03</pdfrwt>
<totfact> 0.13449831E+03</totfact>
</mgrwt>
</event>
<event>
 8    1  0.7550631E-006  0.1390090E+03  0.7546771E-02  0.1225475E+00
         -2   -1    0    0    0  501 -0.00000000000E+00  0.00000000000E+00  0.13725475716E+03  0.13725475716E+03  0.00000000000E+00 0.  1.
          2   -1    0    0  501    0  0.00000000000E+00 -0.00000000000E+00 -0.11783253888E+03  0.11783253888E+03  0.00000000000E+00 0. -1.
         23    2    1    2    0    0 -0.39073026955E+02  0.46620675000E+02  0.32506465621E+02  0.11546387947E+03  0.92601557124E+02 0.  0.
         23    2    1    2    0    0  0.39073026955E+02 -0.46620675000E+02 -0.13084247338E+02  0.13962341657E+03  0.12499324843E+03 0.  0.
          5    1    4    4  502    0 -0.21313911873E+02 -0.40027484419E+02 -0.50570408857E+02  0.68087727237E+02  0.47000000000E+01 0. -1.
         -5    1    4    4    0  502  0.60386938828E+02 -0.65931905806E+01  0.37486161519E+02  0.71535689334E+02  0.47000000000E+01 0. -1.
        -11    1    3    3    0    0 -0.65014379296E+02  0.30350380959E+02  0.42329402913E+02  0.83305422936E+02  0.00000000000E+00 0.  1.
         11    1    3    3    0    0  0.25941352341E+02  0.16270294041E+02 -0.98229372918E+01  0.32158456532E+02  0.00000000000E+00 0. -1.
<mgrwt>
<rscale>  0 0.13134420E+03</rscale>
<asrwt>0</asrwt>
<pdfrwt beam="2">  1        2 0.18128083E-01 0.13900900E+03</pdfrwt>
<pdfrwt beam="1">  1       -2 0.21116117E-01 0.13900900E+03</pdfrwt>
<totfact> 0.56745530E+03</totfact>
</mgrwt>
</event>
<event>
 8    1  0.7550631E-006  0.2004965E+03  0.7546771E-02  0.1153454E+00
         -1   -1    0    0    0  501 -0.00000000000E+00  0.00000000000E+00  0.35394371845E+02  0.35394371845E+02  0.00000000000E+00 0.  1.
          1   -1    0    0  501    0  0.00000000000E+00 -0.00000000000E+00 -0.10660099070E+04  0.10660099070E+04  0.00000000000E+00 0. -1.
         23    2    1    2    0    0  0.60063541364E+02 -0.14479072830E+03 -0.39341247739E+03  0.43340233474E+03  0.92153254913E+02 0.  0.
         23    2    1    2    0    0 -0.60063541364E+02  0.14479072830E+03 -0.63720305773E+03  0.66800194406E+03  0.12500750574E+03 0.  0.
          5    1    4    4  502    0  0.13813539713E+02  0.20778690275E+02 -0.15508178885E+02  0.29751663168E+02  0.47000000000E+01 0.  1.
         -5    1    4    4    0  502 -0.73877081077E+02  0.12401203803E+03 -0.62169487884E+03  0.63825028089E+03  0.47000000000E+01 0.  1.
        -11    1    3    3    0    0  0.33356088342E+02 -0.91913728730E+02 -0.12590423110E+03  0.15941341715E+03  0.00000000000E+00 0.  1.
         11    1    3    3    0    0  0.26707453021E+02 -0.52876999572E+02 -0.26750824629E+03  0.27398891759E+03  0.00000000000E+00 0. -1.
<mgrwt>
<rscale>  0 0.19565904E+03</rscale>
<asrwt>0</asrwt>
<pdfrwt beam="2">  1        1 0.16400153E+00 0.20049653E+03</pdfrwt>
<pdfrwt beam="1">  1       -1 0.54452878E-02 0.20049653E+03</pdfrwt>
<totfact> 0.22033003E+03</totfact>
</mgrwt>
</event>
<event>
 8    1  0.7550631E-006  0.1489404E+03  0.7546771E-02  0.1211758E+00
          1   -1    0    0  501    0  0.00000000000E+00  0.00000000000E+00  0.37674300662E+03  0.37674300662E+03  0.00000000000E+00 0. -1.
         -1   -1    0    0    0  501 -0.00000000000E+00 -0.00000000000E+00 -0.74628881273E+02  0.74628881273E+02  0.00000000000E+00 0.  1.
         23    2    1    2    0    0  0.59069865827E+02 -0.55392776181E+02  0.65474646714E+01  0.12039923145E+03  0.88856608867E+02 0.  0.
         23    2    1    2    0    0 -0.59069865827E+02  0.55392776181E+02  0.29556666068E+03  0.33097265644E+03  0.12500255880E+03 0.  0.
          5    1    4    4  502    0 -0.11166665579E+02  0.54450443987E+02  0.34685257808E+02  0.65686394175E+02  0.47000000000E+01 0.  1.
         -5    1    4    4    0  502 -0.47903200247E+02  0.94233219419E+00  0.26088140287E+03  0.26528626227E+03  0.47000000000E+01 0.  1.
        -11    1    3    3    0    0  0.14101853684E+02 -0.36522964143E+02 -0.37845769511E+02  0.54452653351E+02  0.00000000000E+00 0.  1.
         11    1    3    3    0    0  0.44968012142E+02 -0.18869812038E+02  0.44393234182E+02  0.65946578103E+02  0.00000000000E+00 0. -1.
<mgrwt>
<rscale>  0 0.14117395E+03</rscale>
<asrwt>0</asrwt>
<pdfrwt beam="1">  1        1 0.57960462E-01 0.14894042E+03</pdfrwt>
<pdfrwt beam="2">  1       -1 0.11481367E-01 0.14894042E+03</pdfrwt>
<totfact> 0.31318910E+03</totfact>
</mgrwt>
</event>
<event>
 7    1  0.7550631E-006  0.1455521E+03  0.7546771E-02  0.1222608E+00
         -2   -1    0    0    0  501 -0.00000000000E+00  0.00000000000E+00  0.62615289357E+02  0.62615289357E+02  0.00000000000E+00 0.  1.
          2   -1    0    0  501    0  0.00000000000E+00 -0.00000000000E+00 -0.25009069020E+03  0.25009069020E+03  0.00000000000E+00 0. -1.
         23    2    1    2    0    0  0.11067635360E+02 -0.46288791521E+02 -0.57076095273E+02  0.11728492682E+03  0.90735487190E+02 0.  0.
          5    1    1    2  502    0 -0.67264462763E+01  0.41667819299E+02 -0.15960984201E+03  0.16516308278E+03  0.47000000000E+01 0. -1.
         -5    1    1    2    0  502 -0.43411890834E+01  0.46209722227E+01  0.29210536440E+02  0.30257969960E+02  0.47000000000E+01 0.  1.
        -11    1    3    3    0    0  0.26873510193E+02  0.17692749470E+02 -0.35271010827E+01  0.32367566729E+02  0.00000000000E+00 0.  1.
         11    1    3    3    0    0 -0.15805874833E+02 -0.63981540991E+02 -0.53548994190E+02  0.84917360096E+02  0.00000000000E+00 0. -1.
<mgrwt>
<rscale>  0 0.13332221E+03</rscale>
<asrwt>0</asrwt>
<pdfrwt beam="2">  1        2 0.38475491E-01 0.14555208E+03</pdfrwt>
<pdfrwt beam="1">  1       -2 0.96331214E-02 0.14555208E+03</pdfrwt>
<totfact> 0.89366699E+03</totfact>
</mgrwt>
</event>
<event>
 8    1  0.7550631E-006  0.1423526E+03  0.7546771E-02  0.1222048E+00
          2   -1    0    0  501    0  0.00000000000E+00  0.00000000000E+00  0.12533478156E+04  0.12533478156E+04  0.00000000000E+00 0.  1.
         -2   -1    0    0    0  501 -0.00000000000E+00 -0.00000000000E+00 -0.15548518735E+02  0.15548518735E+02  0.00000000000E+00 0. -1.
         23    2    1    2    0    0 -0.66502112392E+02 -0.14739144522E+02  0.28972479818E+03  0.31019434351E+03  0.87408802369E+02 0.  0.
         23    2    1    2    0    0  0.66502112392E+02  0.14739144522E+02  0.94807449869E+03  0.95870199083E+03  0.12499791526E+03 0.  0.
          5    1    4    4  502    0  0.40734895385E+02  0.26671904596E+02  0.11302072575E+03  0.12315233106E+03  0.47000000000E+01 0.  1.
         -5    1    4    4    0  502  0.25767217007E+02 -0.11932760074E+02  0.83505377295E+03  0.83554965977E+03  0.47000000000E+01 0.  1.
        -11    1    3    3    0    0 -0.46985929047E+02 -0.44995671441E+02  0.11809327356E+03  0.13482696035E+03  0.00000000000E+00 0.  1.
         11    1    3    3    0    0 -0.19516183344E+02  0.30256526919E+02  0.17163152462E+03  0.17536738316E+03  0.00000000000E+00 0. -1.
<mgrwt>
<rscale>  0 0.13371314E+03</rscale>
<asrwt>0</asrwt>
<pdfrwt beam="1">  1        2 0.19282266E+00 0.14235256E+03</pdfrwt>
<pdfrwt beam="2">  1       -2 0.23920808E-02 0.14235256E+03</pdfrwt>
<totfact> 0.10738867E+04</totfact>
</mgrwt>
</event>
<event>
 8    1  0.7550631E-006  0.1317398E+03  0.7546771E-02  0.1236986E+00
          3   -1    0    0  501    0  0.00000000000E+00  0.00000000000E+00  0.31902530948E+03  0.31902530948E+03  0.00000000000E+00 0. -1.
         -3   -1    0    0    0  501 -0.00000000000E+00 -0.00000000000E+00 -0.46158732554E+02  0.46158732554E+02  0.00000000000E+00 0.  1.
         23    2    1    2    0    0  0.22270779114E+02  0.35142855273E+02  0.73697925805E+02  0.12638805781E+03  0.93869851444E+02 0.  0.
         23    2    1    2    0    0 -0.22270779114E+02 -0.35142855273E+02  0.19916865112E+03  0.23879598423E+03  0.12499745043E+03 0.  0.
          5    1    4    4  502    0  0.41717206505E+02 -0.24280070368E+02  0.28755267223E+02  0.56380870238E+02  0.47000000000E+01 0.  1.
         -5    1    4    4    0  502 -0.63987985619E+02 -0.10862784905E+02  0.17041338390E+03  0.18241511399E+03  0.47000000000E+01 0.  1.
        -11    1    3    3    0    0 -0.78960780075E+01  0.36354410395E+02 -0.90648247454E+01  0.38290498179E+02  0.00000000000E+00 0.  1.
         11    1    3    3    0    0  0.30166857121E+02 -0.12115551223E+01  0.82762750551E+02  0.88097559632E+02  0.00000000000E+00 0. -1.
<mgrwt>
<rscale>  0 0.12378156E+03</rscale>
<asrwt>0</asrwt>
<pdfrwt beam="1">  1        3 0.49080816E-01 0.13173978E+03</pdfrwt>
<pdfrwt beam="2">  1       -3 0.71013437E-02 0.13173978E+03</pdfrwt>
<totfact> 0.12320360E+03</totfact>
</mgrwt>
</event>
<event>
 8    1  0.7550631E-006  0.1473659E+03  0.7546771E-02  0.1212861E+00
         -2   -1    0    0    0  501 -0.00000000000E+00  0.00000000000E+00  0.33339093076E+02  0.33339093076E+02  0.00000000000E+00 0.  1.
          2   -1    0    0  501    0  0.00000000000E+00 -0.00000000000E+00 -0.54142958422E+03  0.54142958422E+03  0.00000000000E+00 0. -1.
         23    2    1    2    0    0 -0.71120754307E+02  0.36253411357E+02 -0.23720389759E+03  0.26639188706E+03  0.91249531141E+02 0.  0.
         23    2    1    2    0    0  0.71120754307E+02 -0.36253411357E+02 -0.27088659355E+03  0.30837679023E+03  0.12387181543E+03 0.  0.
          5    1    4    4  502    0  0.36490791149E+02 -0.67353137324E+02 -0.24085098869E+03  0.25278313175E+03  0.47000000000E+01 0. -1.
         -5    1    4    4    0  502  0.34629963158E+02  0.31099725966E+02 -0.30035604868E+02  0.55593658481E+02  0.47000000000E+01 0. -1.
        -11    1    3    3    0    0 -0.41493567689E+02  0.16303745755E+02 -0.24819190331E+02  0.51024704741E+02  0.00000000000E+00 0.  1.
         11    1    3    3    0    0 -0.29627186619E+02  0.19949665602E+02 -0.21238470726E+03  0.21536718232E+03  0.00000000000E+00 0. -1.
<mgrwt>
<rscale>  0 0.14034872E+03</rscale>
<asrwt>0</asrwt>
<pdfrwt beam="2">  1        2 0.83296858E-01 0.14736587E+03</pdfrwt>
<pdfrwt beam="1">  1       -2 0.51290913E-02 0.14736587E+03</pdfrwt>
<totfact> 0.10259589E+04</totfact>
</mgrwt>
</event>
<event>
 8    1  0.7550631E-006  0.1352753E+03  0.7546771E-02  0.1231716E+00
         -3   -1    0    0    0  501 -0.00000000000E+00  0.00000000000E+00  0.71679454153E+02  0.71679454153E+02  0.00000000000E+00 0.  1.
          3   -1    0    0  501    0  0.00000000000E+00 -0.00000000000E+00 -0.21501172757E+03  0.21501172757E+03  0.00000000000E+00 0. -1.
         23    2    1    2    0    0  0.21304422668E+02  0.46920545577E+02 -0.28975432566E+02  0.10955595693E+03  0.92236196711E+02 0.  0.
         23    2    1    2    0    0 -0.21304422668E+02 -0.46920545577E+02 -0.11435684085E+03  0.17713522479E+03  0.12507591611E+03 0.  0.
          5    1    4    4  502    0  0.20575981554E+02  0.35378906790E+02 -0.23133984067E+02  0.47247320362E+02  0.47000000000E+01 0.  1.
         -5    1    4    4    0  502 -0.41880404223E+02 -0.82299452367E+02 -0.91222856782E+02  0.12988790443E+03  0.47000000000E+01 0.  1.
        -11    1    3    3    0    0 -0.13466096334E+02  0.37019113416E+02 -0.53082923494E+02  0.66102551201E+02  0.00000000000E+00 0. -1.
         11    1    3    3    0    0  0.34770519002E+02  0.99014321615E+01  0.24107490928E+02  0.43453405728E+02  0.00000000000E+00 0.  1.
<mgrwt>
<rscale>  0 0.12717042E+03</rscale>
<asrwt>0</asrwt>
<pdfrwt beam="2">  1        3 0.33078727E-01 0.13527528E+03</pdfrwt>
<pdfrwt beam="1">  1       -3 0.11027609E-01 0.13527528E+03</pdfrwt>
<totfact> 0.12878029E+03</totfact>
</mgrwt>
</event>
<event>
 8    1  0.7550631E-006  0.1557838E+03  0.7546771E-02  0.1201764E+00
          1   -1    0    0  501    0  0.00000000000E+00  0.00000000000E+00  0.71187868816E+02  0.71187868816E+02  0.00000000000E+00 0. -1.
         -1   -1    0    0    0  501 -0.00000000000E+00 -0.00000000000E+00 -0.35216438731E+03  0.35216438731E+03  0.00000000000E+00 0.  1.
         23    2    1    2    0    0  0.73782575368E+02  0.56538070767E+02 -0.22083028791E+03  0.25636071814E+03  0.91183221430E+02 0.  0.
         23    2    1    2    0    0 -0.73782575368E+02 -0.56538070767E+02 -0.60146230579E+02  0.16699153799E+03  0.12501273068E+03 0.  0.
          5    1    4    4  502    0 -0.52192597355E+02 -0.68798880768E+02 -0.92042675239E+02  0.12629844527E+03  0.47000000000E+01 0. -1.
         -5    1    4    4    0  502 -0.21589978013E+02  0.12260810001E+02  0.31896444660E+02  0.40693092711E+02  0.47000000000E+01 0. -1.
        -11    1    3    3    0    0  0.46687988367E+02  0.60785795280E+02 -0.21509348499E+03  0.22834160473E+03  0.00000000000E+00 0.  1.
         11    1    3    3    0    0  0.27094587001E+02 -0.42477245123E+01 -0.57368029204E+01  0.28019113405E+02  0.00000000000E+00 0. -1.
<mgrwt>
<rscale>  0 0.14895442E+03</rscale>
<asrwt>0</asrwt>
<pdfrwt beam="1">  1        1 0.10951980E-01 0.15578384E+03</pdfrwt>
<pdfrwt beam="2">  1       -1 0.54179136E-01 0.15578384E+03</pdfrwt>
<totfact> 0.19616418E+03</totfact>
</mgrwt>
</event>
<event>
 8    1  0.7550631E-006  0.1795652E+03  0.7546771E-02  0.1174544E+00
          2   -1    0    0  501    0  0.00000000000E+00  0.00000000000E+00  0.37326603182E+03  0.37326603182E+03  0.00000000000E+00 0.  1.
         -2   -1    0    0    0  501 -0.00000000000E+00 -0.00000000000E+00 -0.82716255637E+02  0.82716255637E+02  0.00000000000E+00 0. -1.
         23    2    1    2    0    0 -0.11829934638E+03 -0.51221041469E+02  0.67077554938E+02  0.16930562020E+03  0.86871538567E+02 0.  0.
         23    2    1    2    0    0  0.11829934638E+03  0.51221041469E+02  0.22347222124E+03  0.28667666725E+03  0.12500138974E+03 0.  0.
          5    1    4    4  502    0  0.12963013619E+03  0.58585931774E+02  0.13208865785E+03  0.19417978047E+03  0.47000000000E+01 0. -1.
         -5    1    4    4    0  502 -0.11330789808E+02 -0.73648903055E+01  0.91383563386E+02  0.92496886780E+02  0.47000000000E+01 0. -1.
        -11    1    3    3    0    0 -0.77828765244E+02  0.13459774538E+02  0.30180292906E+02  0.84553724400E+02  0.00000000000E+00 0. -1.
         11    1    3    3    0    0 -0.40470581134E+02 -0.64680816006E+02  0.36897262032E+02  0.84751895802E+02  0.00000000000E+00 0.  1.
<mgrwt>
<rscale>  0 0.17320685E+03</rscale>
<asrwt>0</asrwt>
<pdfrwt beam="1">  1        2 0.57425543E-01 0.17956525E+03</pdfrwt>
<pdfrwt beam="2">  1       -2 0.12725578E-01 0.17956525E+03</pdfrwt>
<totfact> 0.37866694E+03</totfact>
</mgrwt>
</event>
<event>
 8    1  0.7550631E-006  0.2302322E+03  0.7546771E-02  0.1129518E+00
          1   -1    0    0  501    0  0.00000000000E+00  0.00000000000E+00  0.57754292670E+03  0.57754292670E+03  0.00000000000E+00 0. -1.
         -1   -1    0    0    0  501 -0.00000000000E+00 -0.00000000000E+00 -0.87432990870E+02  0.87432990870E+02  0.00000000000E+00 0.  1.
         23    2    1    2    0    0 -0.11167562570E+03  0.15783638077E+03  0.18385715702E+03  0.28183409921E+03  0.90792272908E+02 0.  0.
         23    2    1    2    0    0  0.11167562570E+03 -0.15783638077E+03  0.30625277881E+03  0.38314181836E+03  0.12499247967E+03 0.  0.
          5    1    4    4  502    0  0.83851819046E+02 -0.14836629960E+03  0.15971668147E+03  0.23361334455E+03  0.47000000000E+01 0. -1.
         -5    1    4    4    0  502  0.27823806652E+02 -0.94700811754E+01  0.14653609734E+03  0.14952847380E+03  0.47000000000E+01 0. -1.
        -11    1    3    3    0    0 -0.94591687734E+01  0.86661307044E+02  0.57648792341E+02  0.10451335451E+03  0.00000000000E+00 0.  1.
         11    1    3    3    0    0 -0.10221645692E+03  0.71175073731E+02  0.12620836468E+03  0.17732074470E+03  0.00000000000E+00 0. -1.
<mgrwt>
<rscale>  0 0.22595781E+03</rscale>
<asrwt>0</asrwt>
<pdfrwt beam="1">  1        1 0.88852755E-01 0.23023225E+03</pdfrwt>
<pdfrwt beam="2">  1       -1 0.13451230E-01 0.23023225E+03</pdfrwt>
<totfact> 0.14164230E+03</totfact>
</mgrwt>
</event>
<event>
 8    1  0.7550631E-006  0.1318983E+03  0.7546771E-02  0.1239110E+00
         -1   -1    0    0    0  501 -0.00000000000E+00  0.00000000000E+00  0.11633900105E+02  0.11633900105E+02  0.00000000000E+00 0.  1.
          1   -1    0    0  501    0  0.00000000000E+00 -0.00000000000E+00 -0.11572689663E+04  0.11572689663E+04  0.00000000000E+00 0. -1.
         23    2    1    2    0    0 -0.30730629490E+02  0.28782511081E+02 -0.41058869020E+03  0.42211618522E+03  0.88465794377E+02 0.  0.
         23    2    1    2    0    0  0.30730629490E+02 -0.28782511081E+02 -0.73504637601E+03  0.74678668120E+03  0.12499747115E+03 0.  0.
          5    1    4    4  502    0  0.40083252233E+02 -0.71688899344E+02 -0.36745872508E+03  0.37655540101E+03  0.47000000000E+01 0. -1.
         -5    1    4    4    0  502 -0.93526227426E+01  0.42906388262E+02 -0.36758765094E+03  0.37023128019E+03  0.47000000000E+01 0. -1.
        -11    1    3    3    0    0 -0.23252952166E+02 -0.28235534349E+02 -0.10565791918E+03  0.11181029053E+03  0.00000000000E+00 0.  1.
         11    1    3    3    0    0 -0.74776773246E+01  0.57018045430E+02 -0.30493077102E+03  0.31030589469E+03  0.00000000000E+00 0. -1.
<mgrwt>
<rscale>  0 0.12244971E+03</rscale>
<asrwt>0</asrwt>
<pdfrwt beam="2">  1        1 0.17804139E+00 0.13189834E+03</pdfrwt>
<pdfrwt beam="1">  1       -1 0.17898307E-02 0.13189834E+03</pdfrwt>
<totfact> 0.95714917E+03</totfact>
</mgrwt>
</event>
<event>
 8    1  0.7550631E-006  0.1291182E+03  0.7546771E-02  0.1241667E+00
         -1   -1    0    0    0  501 -0.00000000000E+00  0.00000000000E+00  0.56642850345E+03  0.56642850345E+03  0.00000000000E+00 0.  1.
          1   -1    0    0  501    0  0.00000000000E+00 -0.00000000000E+00 -0.25846981031E+02  0.25846981031E+02  0.00000000000E+00 0. -1.
         23    2    1    2    0    0  0.31184200733E+02 -0.85474472490E+01  0.33626314778E+03  0.35057832809E+03  0.93737646340E+02 0.  0.
         23    2    1    2    0    0 -0.31184200733E+02  0.85474472490E+01  0.20431837463E+03  0.24169715638E+03  0.12500401578E+03 0.  0.
          5    1    4    4  502    0 -0.54227428762E+02  0.54666665151E+02  0.11552558970E+03  0.13891475870E+03  0.47000000000E+01 0. -1.
         -5    1    4    4    0  502  0.23043228030E+02 -0.46119217902E+02  0.88792784929E+02  0.10278239768E+03  0.47000000000E+01 0. -1.
        -11    1    3    3    0    0 -0.33552281868E+02  0.16663727230E+01  0.11784350937E+03  0.12253825981E+03  0.00000000000E+00 0.  1.
         11    1    3    3    0    0  0.64736482601E+02 -0.10213819972E+02  0.21841963842E+03  0.22804006829E+03  0.00000000000E+00 0. -1.
<mgrwt>
<rscale>  0 0.12087106E+03</rscale>
<asrwt>0</asrwt>
<pdfrwt beam="2">  1        1 0.39764590E-02 0.12911823E+03</pdfrwt>
<pdfrwt beam="1">  1       -1 0.87142837E-01 0.12911823E+03</pdfrwt>
<totfact> 0.29999215E+03</totfact>
</mgrwt>
</event>
<event>
 8    1  0.7550631E-006  0.1311161E+03  0.7546771E-02  0.1232548E+00
          1   -1    0    0  501    0  0.00000000000E+00  0.00000000000E+00  0.41587990106E+03  0.41587990106E+03  0.00000000000E+00 0. -1.
         -1   -1    0    0    0  501 -0.00000000000E+00 -0.00000000000E+00 -0.37049079222E+02  0.37049079222E+02  0.00000000000E+00 0.  1.
         23    2    1    2    0    0  0.29446837386E+02  0.50107981783E+02  0.14108404887E+03  0.18142398430E+03  0.98142891564E+02 0.  0.
         23    2    1    2    0    0 -0.29446837386E+02 -0.50107981783E+02  0.23774677297E+03  0.27150499598E+03  0.11753088409E+03 0.  0.
          5    1    4    4  502    0  0.39713291121E+02 -0.17377017701E+02  0.14372201937E+03  0.15019059587E+03  0.47000000000E+01 0. -1.
         -5    1    4    4    0  502 -0.69160128507E+02 -0.32730964083E+02  0.94024753606E+02  0.12131440012E+03  0.47000000000E+01 0.  1.
        -11    1    3    3    0    0 -0.16630631956E+02  0.47515403283E+02  0.24396907238E+02  0.55941939108E+02  0.00000000000E+00 0.  1.
         11    1    3    3    0    0  0.46077469342E+02  0.25925785002E+01  0.11668714163E+03  0.12548204519E+03  0.00000000000E+00 0. -1.
<mgrwt>
<rscale>  0 0.12662706E+03</rscale>
<asrwt>0</asrwt>
<pdfrwt beam="1">  1        1 0.63981520E-01 0.13111611E+03</pdfrwt>
<pdfrwt beam="2">  1       -1 0.56998586E-02 0.13111611E+03</pdfrwt>
<totfact> 0.79146204E+03</totfact>
</mgrwt>
</event>
<event>
 8    1  0.7550631E-006  0.1871016E+03  0.7546771E-02  0.1166163E+00
         -2   -1    0    0    0  501 -0.00000000000E+00  0.00000000000E+00  0.92011719866E+02  0.92011719866E+02  0.00000000000E+00 0.  1.
          2   -1    0    0  501    0  0.00000000000E+00 -0.00000000000E+00 -0.55178640403E+03  0.55178640403E+03  0.00000000000E+00 0. -1.
         23    2    1    2    0    0 -0.28553377318E+02 -0.13625510466E+03 -0.22205077927E+02  0.16790510823E+03  0.91204775007E+02 0.  0.
         23    2    1    2    0    0  0.28553377318E+02  0.13625510466E+03 -0.43756960624E+03  0.47589301566E+03  0.12500501252E+03 0.  0.
          5    1    4    4  502    0  0.41251249129E+02  0.29548212214E+02 -0.28317997554E+03  0.28772860641E+03  0.47000000000E+01 0.  1.
         -5    1    4    4    0  502 -0.12697871811E+02  0.10670689244E+03 -0.15438963070E+03  0.18816440926E+03  0.47000000000E+01 0.  1.
        -11    1    3    3    0    0 -0.42771076554E+02 -0.16942826990E+02 -0.10437984444E+02  0.47173889974E+02  0.00000000000E+00 0. -1.
         11    1    3    3    0    0  0.14217699236E+02 -0.11931227767E+03 -0.11767093483E+02  0.12073121826E+03  0.00000000000E+00 0.  1.
<mgrwt>
<rscale>  0 0.18170473E+03</rscale>
<asrwt>0</asrwt>
<pdfrwt beam="2">  1        2 0.84890218E-01 0.18710158E+03</pdfrwt>
<pdfrwt beam="1">  1       -2 0.14155649E-01 0.18710158E+03</pdfrwt>
<totfact> 0.20767643E+03</totfact>
</mgrwt>
</event>
<event>
 7    1  0.7550631E-006  0.3257531E+03  0.7546771E-02  0.1111620E+00
          2   -1    0    0  501    0  0.00000000000E+00  0.00000000000E+00  0.27428735722E+03  0.27428735722E+03  0.00000000000E+00 0. -1.
         -2   -1    0    0    0  501 -0.00000000000E+00 -0.00000000000E+00 -0.18325559974E+03  0.18325559974E+03  0.00000000000E+00 0.  1.
         23    2    1    2    0    0  0.15000843432E+02  0.59608569032E+02 -0.46538889231E+01  0.11802740277E+03  0.10065089328E+03 0.  0.
          5    1    1    2  502    0  0.28217291530E+02 -0.10473205732E+02  0.20758151056E+03  0.20980485482E+03  0.47000000000E+01 0. -1.
         -5    1    1    2    0  502 -0.43218134962E+02 -0.49135363300E+02 -0.11189586415E+03  0.12971069937E+03  0.47000000000E+01 0.  1.
        -11    1    3    3    0    0  0.26862907620E+02  0.83297300644E+02 -0.16404174205E+02  0.89045791769E+02  0.00000000000E+00 0.  1.
         11    1    3    3    0    0 -0.11862064188E+02 -0.23688731613E+02  0.11750285282E+02  0.28981611005E+02  0.00000000000E+00 0. -1.
<mgrwt>
<rscale>  0 0.25268394E+03</rscale>
<asrwt>0</asrwt>
<pdfrwt beam="1">  1        2 0.42198055E-01 0.32575308E+03</pdfrwt>
<pdfrwt beam="2">  1       -2 0.28193169E-01 0.32575308E+03</pdfrwt>
<totfact> 0.13841767E+03</totfact>
</mgrwt>
</event>
<event>
 8    1  0.7550631E-006  0.2797403E+03  0.7546771E-02  0.1097199E+00
          1   -1    0    0  501    0  0.00000000000E+00  0.00000000000E+00  0.80496817266E+03  0.80496817266E+03  0.00000000000E+00 0. -1.
         -1   -1    0    0    0  501 -0.00000000000E+00 -0.00000000000E+00 -0.10269672029E+03  0.10269672029E+03  0.00000000000E+00 0.  1.
         23    2    1    2    0    0  0.22102066956E+03  0.11737925162E+03  0.21209511901E+03  0.34328252357E+03  0.10114606465E+03 0.  0.
         23    2    1    2    0    0 -0.22102066956E+03 -0.11737925162E+03  0.49017633336E+03  0.56438236938E+03  0.12500638380E+03 0.  0.
          5    1    4    4  502    0 -0.65562830393E+02 -0.17254898000E+02  0.42896089986E+02  0.80364051480E+02  0.47000000000E+01 0. -1.
         -5    1    4    4    0  502 -0.15545783917E+03 -0.10012435362E+03  0.44728024338E+03  0.48401831790E+03  0.47000000000E+01 0. -1.
        -11    1    3    3    0    0  0.19969335308E+03  0.10104088603E+03  0.13435860198E+03  0.26103434609E+03  0.00000000000E+00 0. -1.
         11    1    3    3    0    0  0.21327316484E+02  0.16338365596E+02  0.77736517026E+02  0.82248177476E+02  0.00000000000E+00 0.  1.
<mgrwt>
<rscale>  0 0.27725304E+03</rscale>
<asrwt>0</asrwt>
<pdfrwt beam="1">  1        1 0.12384125E+00 0.27974027E+03</pdfrwt>
<pdfrwt beam="2">  1       -1 0.15799496E-01 0.27974027E+03</pdfrwt>
<totfact> 0.67699763E+02</totfact>
</mgrwt>
</event>
<event>
 8    1  0.7550631E-006  0.1285427E+03  0.7546771E-02  0.1250745E+00
         -1   -1    0    0    0  501 -0.00000000000E+00  0.00000000000E+00  0.26987430943E+02  0.26987430943E+02  0.00000000000E+00 0.  1.
          1   -1    0    0  501    0  0.00000000000E+00 -0.00000000000E+00 -0.47364590248E+03  0.47364590248E+03  0.00000000000E+00 0. -1.
         23    2    1    2    0    0 -0.29139253792E+02  0.72336789047E+01 -0.97244601532E+02  0.12832530692E+03  0.78162968506E+02 0.  0.
         23    2    1    2    0    0  0.29139253792E+02 -0.72336789047E+01 -0.34941387001E+03  0.37230802651E+03  0.12498716665E+03 0.  0.
          5    1    4    4  502    0  0.92834635900E+01  0.50029237211E+02 -0.25461927179E+03  0.25969630502E+03  0.47000000000E+01 0. -1.
         -5    1    4    4    0  502  0.19855790202E+02 -0.57262916116E+02 -0.94794598217E+02  0.11261172149E+03  0.47000000000E+01 0. -1.
        -11    1    3    3    0    0 -0.45446800478E+02  0.29000066126E+02 -0.48550130675E+02  0.72550194332E+02  0.00000000000E+00 0.  1.
         11    1    3    3    0    0  0.16307546686E+02 -0.21766387221E+02 -0.48694470857E+02  0.55775112583E+02  0.00000000000E+00 0. -1.
<mgrwt>
<rscale>  0 0.11548005E+03</rscale>
<asrwt>0</asrwt>
<pdfrwt beam="2">  1        1 0.72868599E-01 0.12854265E+03</pdfrwt>
<pdfrwt beam="1">  1       -1 0.41519125E-02 0.12854265E+03</pdfrwt>
<totfact> 0.10687990E+04</totfact>
</mgrwt>
</event>
<event>
 8    1  0.7550631E-006  0.1460139E+03  0.7546771E-02  0.1216803E+00
          1   -1    0    0  501    0  0.00000000000E+00  0.00000000000E+00  0.33489251353E+03  0.33489251353E+03  0.00000000000E+00 0. -1.
         -1   -1    0    0    0  501 -0.00000000000E+00 -0.00000000000E+00 -0.63389926244E+02  0.63389926244E+02  0.00000000000E+00 0.  1.
         23    2    1    2    0    0  0.73116819815E+02 -0.19051008747E+02  0.34179518994E+02  0.11963877370E+03  0.86233325222E+02 0.  0.
         23    2    1    2    0    0 -0.73116819815E+02  0.19051008747E+02  0.23732306829E+03  0.27864366608E+03  0.12494416204E+03 0.  0.
          5    1    4    4  502    0  0.26442089910E+02  0.35900791354E+02  0.68335671510E+02  0.81730685421E+02  0.47000000000E+01 0.  1.
         -5    1    4    4    0  502 -0.99558909725E+02 -0.16849782608E+02  0.16898739678E+03  0.19691298066E+03  0.47000000000E+01 0.  1.
        -11    1    3    3    0    0  0.60464856430E+02 -0.35123979952E+02 -0.10300367264E+02  0.70680905460E+02  0.00000000000E+00 0.  1.
         11    1    3    3    0    0  0.12651963385E+02  0.16072971205E+02  0.44479886258E+02  0.48957868237E+02  0.00000000000E+00 0. -1.
<mgrwt>
<rscale>  0 0.13744897E+03</rscale>
<asrwt>0</asrwt>
<pdfrwt beam="1">  1        1 0.51521924E-01 0.14601388E+03</pdfrwt>
<pdfrwt beam="2">  1       -1 0.97522966E-02 0.14601388E+03</pdfrwt>
<totfact> 0.46580528E+03</totfact>
</mgrwt>
</event>
<event>
 7    1  0.7550631E-006  0.1500168E+03  0.7546771E-02  0.1211930E+00
         -2   -1    0    0    0  501 -0.00000000000E+00  0.00000000000E+00  0.10349192699E+03  0.10349192699E+03  0.00000000000E+00 0.  1.
          2   -1    0    0  501    0  0.00000000000E+00 -0.00000000000E+00 -0.24526598403E+03  0.24526598403E+03  0.00000000000E+00 0. -1.
         23    2    1    2    0    0 -0.57097482596E+02 -0.46983381100E+02  0.29697492020E+02  0.12092563383E+03  0.90958821816E+02 0.  0.
          5    1    1    2  502    0  0.24243930684E+00  0.10274960804E+02 -0.15832945064E+03  0.15873228574E+03  0.47000000000E+01 0. -1.
         -5    1    1    2    0  502  0.56855043289E+02  0.36708420296E+02 -0.13142098417E+02  0.69099991454E+02  0.47000000000E+01 0.  1.
        -11    1    3    3    0    0 -0.69464857647E+02 -0.97508357599E+01  0.39478138244E+02  0.80492040881E+02  0.00000000000E+00 0. -1.
         11    1    3    3    0    0  0.12367375051E+02 -0.37232545340E+02 -0.97806462239E+01  0.40433592948E+02  0.00000000000E+00 0.  1.
<mgrwt>
<rscale>  0 0.14104496E+03</rscale>
<asrwt>0</asrwt>
<pdfrwt beam="2">  1        2 0.37733228E-01 0.15001685E+03</pdfrwt>
<pdfrwt beam="1">  1       -2 0.15921835E-01 0.15001685E+03</pdfrwt>
<totfact> 0.40786012E+03</totfact>
</mgrwt>
</event>
<event>
 8    1  0.7550631E-006  0.1531108E+03  0.7546771E-02  0.1206076E+00
         -2   -1    0    0    0  501 -0.00000000000E+00  0.00000000000E+00  0.15593394268E+03  0.15593394268E+03  0.00000000000E+00 0.  1.
          2   -1    0    0  501    0  0.00000000000E+00 -0.00000000000E+00 -0.15285333201E+03  0.15285333201E+03  0.00000000000E+00 0. -1.
         23    2    1    2    0    0  0.80705664074E+02  0.36116589181E+02  0.68245467108E+02  0.14238599009E+03  0.88309196389E+02 0.  0.
         23    2    1    2    0    0 -0.80705664074E+02 -0.36116589181E+02 -0.65164856434E+02  0.16640128460E+03  0.12500046710E+03 0.  0.
          5    1    4    4  502    0 -0.33351575820E+02 -0.77669589965E+02 -0.15555146312E+02  0.86075231001E+02  0.47000000000E+01 0. -1.
         -5    1    4    4    0  502 -0.47354088253E+02  0.41553000784E+02 -0.49609710122E+02  0.80326053600E+02  0.47000000000E+01 0. -1.
        -11    1    3    3    0    0  0.95932811499E+02  0.15389012355E+02  0.63933486924E+02  0.11630742355E+03  0.00000000000E+00 0.  1.
         11    1    3    3    0    0 -0.15227147425E+02  0.20727576825E+02  0.43119801840E+01  0.26078566542E+02  0.00000000000E+00 0. -1.
<mgrwt>
<rscale>  0 0.14552976E+03</rscale>
<asrwt>0</asrwt>
<pdfrwt beam="2">  1        2 0.23515897E-01 0.15311084E+03</pdfrwt>
<pdfrwt beam="1">  1       -2 0.23989837E-01 0.15311084E+03</pdfrwt>
<totfact> 0.34149115E+03</totfact>
</mgrwt>
</event>
<event>
 8    1  0.7550631E-006  0.1957031E+03  0.7546771E-02  0.1157909E+00
          2   -1    0    0  501    0  0.00000000000E+00  0.00000000000E+00  0.48251353819E+03  0.48251353819E+03  0.00000000000E+00 0. -1.
         -2   -1    0    0    0  501 -0.00000000000E+00 -0.00000000000E+00 -0.71634179775E+02  0.71634179775E+02  0.00000000000E+00 0.  1.
         23    2    1    2    0    0  0.14690957847E+03 -0.33060024145E+02  0.19345883166E+03  0.26162183297E+03  0.91347000460E+02 0.  0.
         23    2    1    2    0    0 -0.14690957847E+03  0.33060024145E+02  0.21742052676E+03  0.29252588500E+03  0.12499727396E+03 0.  0.
          5    1    4    4  502    0 -0.49623653529E+02 -0.39569701335E+02  0.12359074437E+03  0.13901449689E+03  0.47000000000E+01 0. -1.
         -5    1    4    4    0  502 -0.97285924946E+02  0.72629725480E+02  0.93829782394E+02  0.15351138811E+03  0.47000000000E+01 0. -1.
        -11    1    3    3    0    0 -0.39494706264E+01  0.11260164092E+02 -0.49184677441E+00  0.11942844170E+02  0.00000000000E+00 0. -1.
         11    1    3    3    0    0  0.15085904910E+03 -0.44320188237E+02  0.19395067843E+03  0.24967898880E+03  0.00000000000E+00 0.  1.
<mgrwt>
<rscale>  0 0.19061318E+03</rscale>
<asrwt>0</asrwt>
<pdfrwt beam="1">  1        2 0.74232850E-01 0.19570311E+03</pdfrwt>
<pdfrwt beam="2">  1       -2 0.11020643E-01 0.19570311E+03</pdfrwt>
<totfact> 0.36212066E+03</totfact>
</mgrwt>
</event>
<event>
 8    1  0.7550631E-006  0.1259599E+03  0.7546771E-02  0.1247785E+00
          2   -1    0    0  501    0  0.00000000000E+00  0.00000000000E+00  0.29116813463E+03  0.29116813463E+03  0.00000000000E+00 0.  1.
         -2   -1    0    0    0  501 -0.00000000000E+00 -0.00000000000E+00 -0.41929726983E+02  0.41929726983E+02  0.00000000000E+00 0. -1.
         23    2    1    2    0    0  0.61783405343E+01  0.14322012142E+02  0.11910724855E+03  0.15199010666E+03  0.93119084730E+02 0.  0.
         23    2    1    2    0    0 -0.61783405343E+01 -0.14322012142E+02  0.13013115909E+03  0.18110775495E+03  0.12499043329E+03 0.  0.
          5    1    4    4  502    0  0.36917409044E+02  0.37876616057E+02  0.82850846118E+02  0.98406736745E+02  0.47000000000E+01 0. -1.
         -5    1    4    4    0  502 -0.43095749578E+02 -0.52198628198E+02  0.47280312975E+02  0.82701018207E+02  0.47000000000E+01 0. -1.
        -11    1    3    3    0    0 -0.49129542134E+01  0.45109794382E+02  0.23837762436E+02  0.51256897938E+02  0.00000000000E+00 0. -1.
         11    1    3    3    0    0  0.11091294748E+02 -0.30787782240E+02  0.95269486116E+02  0.10073320872E+03  0.00000000000E+00 0.  1.
<mgrwt>
<rscale>  0 0.11720230E+03</rscale>
<asrwt>0</asrwt>
<pdfrwt beam="1">  1        2 0.44795096E-01 0.12595992E+03</pdfrwt>
<pdfrwt beam="2">  1       -2 0.64507274E-02 0.12595992E+03</pdfrwt>
<totfact> 0.13961443E+04</totfact>
</mgrwt>
</event>
<event>
 8    1  0.7550631E-006  0.1269070E+03  0.7546771E-02  0.1245199E+00
         -2   -1    0    0    0  501 -0.00000000000E+00  0.00000000000E+00  0.12491507300E+02  0.12491507300E+02  0.00000000000E+00 0.  1.
          2   -1    0    0  501    0  0.00000000000E+00 -0.00000000000E+00 -0.14547900426E+04  0.14547900426E+04  0.00000000000E+00 0. -1.
         23    2    1    2    0    0 -0.18841137496E+02  0.11497180387E+02 -0.24997236167E+03  0.26822062866E+03  0.94704542766E+02 0.  0.
         23    2    1    2    0    0  0.18841137496E+02 -0.11497180387E+02 -0.11923261736E+04  0.11990609212E+04  0.12497285667E+03 0.  0.
          5    1    4    4  502    0  0.40677105293E+02 -0.36723949410E+02 -0.10888251658E+04  0.10902135603E+04  0.47000000000E+01 0. -1.
         -5    1    4    4    0  502 -0.21835967797E+02  0.25226769023E+02 -0.10350100785E+03  0.10884736098E+03  0.47000000000E+01 0. -1.
        -11    1    3    3    0    0  0.73777579341E+01  0.40580761945E+02 -0.51792880367E+02  0.66209757657E+02  0.00000000000E+00 0. -1.
         11    1    3    3    0    0 -0.26218895430E+02 -0.29083581558E+02 -0.19817948130E+03  0.20201087100E+03  0.00000000000E+00 0.  1.
<mgrwt>
<rscale>  0 0.11873489E+03</rscale>
<asrwt>0</asrwt>
<pdfrwt beam="2">  1        2 0.22381365E+00 0.12690701E+03</pdfrwt>
<pdfrwt beam="1">  1       -2 0.19217721E-02 0.12690701E+03</pdfrwt>
<totfact> 0.11464494E+04</totfact>
</mgrwt>
</event>
<event>
 8    1  0.7550631E-006  0.1896923E+03  0.7546771E-02  0.1164088E+00
          2   -1    0    0  501    0  0.00000000000E+00  0.00000000000E+00  0.46510701509E+03  0.46510701509E+03  0.00000000000E+00 0. -1.
         -2   -1    0    0    0  501 -0.00000000000E+00 -0.00000000000E+00 -0.70793992783E+02  0.70793992783E+02  0.00000000000E+00 0.  1.
         23    2    1    2    0    0  0.37318812145E+02  0.13771708843E+03  0.13815288359E+03  0.21715160433E+03  0.87806092241E+02 0.  0.
         23    2    1    2    0    0 -0.37318812145E+02 -0.13771708843E+03  0.25616013872E+03  0.31874940354E+03  0.12499790160E+03 0.  0.
          5    1    4    4  502    0 -0.13088806548E+02  0.66618492470E+01 -0.74906104071E+01  0.17143405044E+02  0.47000000000E+01 0. -1.
         -5    1    4    4    0  502 -0.24230005598E+02 -0.14437893767E+03  0.26365074913E+03  0.30160599850E+03  0.47000000000E+01 0. -1.
        -11    1    3    3    0    0  0.56619064647E+02  0.85561251832E+02  0.53084151416E+02  0.11551784896E+03  0.00000000000E+00 0.  1.
         11    1    3    3    0    0 -0.19300252501E+02  0.52155836594E+02  0.85068732169E+02  0.10163375537E+03  0.00000000000E+00 0. -1.
<mgrwt>
<rscale>  0 0.18389286E+03</rscale>
<asrwt>0</asrwt>
<pdfrwt beam="1">  1        2 0.71554924E-01 0.18969229E+03</pdfrwt>
<pdfrwt beam="2">  1       -2 0.10891384E-01 0.18969229E+03</pdfrwt>
<totfact> 0.38380784E+03</totfact>
</mgrwt>
</event>
<event>
 8    1  0.7550631E-006  0.1481907E+03  0.7546771E-02  0.1213629E+00
         -1   -1    0    0    0  501 -0.00000000000E+00  0.00000000000E+00  0.51988736651E+02  0.51988736651E+02  0.00000000000E+00 0.  1.
          1   -1    0    0  501    0  0.00000000000E+00 -0.00000000000E+00 -0.36243802605E+03  0.36243802605E+03  0.00000000000E+00 0. -1.
         23    2    1    2    0    0  0.21547496020E+02 -0.76626613221E+02 -0.85899143513E+02  0.14538541942E+03  0.86152915706E+02 0.  0.
         23    2    1    2    0    0 -0.21547496020E+02  0.76626613221E+02 -0.22455014588E+03  0.26904134328E+03  0.12499817574E+03 0.  0.
          5    1    4    4  502    0  0.15692191707E+02 -0.47184424060E+01  0.87285505009E+01  0.19151662413E+02  0.47000000000E+01 0.  1.
         -5    1    4    4    0  502 -0.37239687728E+02  0.81345055628E+02 -0.23327869638E+03  0.24988968087E+03  0.47000000000E+01 0.  1.
        -11    1    3    3    0    0 -0.91194525292E+01  0.10153256229E+02  0.63689307354E+01  0.15060421813E+02  0.00000000000E+00 0.  1.
         11    1    3    3    0    0  0.30666948550E+02 -0.86779869451E+02 -0.92268074248E+02  0.13032499760E+03  0.00000000000E+00 0. -1.
<mgrwt>
<rscale>  0 0.13977712E+03</rscale>
<asrwt>0</asrwt>
<pdfrwt beam="2">  1        1 0.55759699E-01 0.14819068E+03</pdfrwt>
<pdfrwt beam="1">  1       -1 0.79982667E-02 0.14819068E+03</pdfrwt>
<totfact> 0.57076257E+03</totfact>
</mgrwt>
</event>
<event>
 8    1  0.7550631E-006  0.1408258E+03  0.7546771E-02  0.1223157E+00
         -1   -1    0    0    0  501 -0.00000000000E+00  0.00000000000E+00  0.10441848279E+03  0.10441848279E+03  0.00000000000E+00 0.  1.
          1   -1    0    0  501    0  0.00000000000E+00 -0.00000000000E+00 -0.15923273211E+03  0.15923273211E+03  0.00000000000E+00 0. -1.
         23    2    1    2    0    0  0.61179237389E+02 -0.21544762445E+02  0.18567710603E+01  0.11185033207E+03  0.91104189303E+02 0.  0.
         23    2    1    2    0    0 -0.61179237389E+02  0.21544762445E+02 -0.56671020377E+02  0.15180088283E+03  0.12499931040E+03 0.  0.
          5    1    4    4  502    0  0.25524298141E+02 -0.87348237901E+01 -0.53132286960E+02  0.59773881084E+02  0.47000000000E+01 0.  1.
         -5    1    4    4    0  502 -0.86703535530E+02  0.30279586235E+02 -0.35387334170E+01  0.92027001745E+02  0.47000000000E+01 0.  1.
        -11    1    3    3    0    0  0.83236793748E+02 -0.20331320916E+02 -0.10846033277E+02  0.86367603194E+02  0.00000000000E+00 0.  1.
         11    1    3    3    0    0 -0.22057556358E+02 -0.12134415293E+01  0.12702804337E+02  0.25482728874E+02  0.00000000000E+00 0. -1.
<mgrwt>
<rscale>  0 0.13294010E+03</rscale>
<asrwt>0</asrwt>
<pdfrwt beam="2">  1        1 0.24497343E-01 0.14082579E+03</pdfrwt>
<pdfrwt beam="1">  1       -1 0.16064382E-01 0.14082579E+03</pdfrwt>
<totfact> 0.54058147E+03</totfact>
</mgrwt>
</event>
<event>
 8    1  0.7550631E-006  0.2463347E+03  0.7546771E-02  0.1118072E+00
          1   -1    0    0  501    0  0.00000000000E+00  0.00000000000E+00  0.42941179979E+03  0.42941179979E+03  0.00000000000E+00 0. -1.
         -1   -1    0    0    0  501 -0.00000000000E+00 -0.00000000000E+00 -0.17947117404E+03  0.17947117404E+03  0.00000000000E+00 0.  1.
         23    2    1    2    0    0  0.47043392971E+02 -0.20698611682E+03 -0.32618762650E+02  0.23402218466E+03  0.92984223714E+02 0.  0.
         23    2    1    2    0    0 -0.47043392971E+02  0.20698611682E+03  0.28255938840E+03  0.37486078916E+03  0.12499787958E+03 0.  0.
          5    1    4    4  502    0 -0.51483837455E+02  0.17322770068E+03  0.28802467597E+03  0.34005694489E+03  0.47000000000E+01 0.  1.
         -5    1    4    4    0  502  0.44404444838E+01  0.33758416142E+02 -0.54652875714E+01  0.34803844269E+02  0.47000000000E+01 0.  1.
        -11    1    3    3    0    0  0.11436621458E+02 -0.11409924792E+03  0.27322408077E+02  0.11788107851E+03  0.00000000000E+00 0. -1.
         11    1    3    3    0    0  0.35606771513E+02 -0.92886868894E+02 -0.59941170727E+02  0.11614110615E+03  0.00000000000E+00 0.  1.
<mgrwt>
<rscale>  0 0.24260149E+03</rscale>
<asrwt>0</asrwt>
<pdfrwt beam="1">  1        1 0.66063353E-01 0.24633474E+03</pdfrwt>
<pdfrwt beam="2">  1       -1 0.27610950E-01 0.24633474E+03</pdfrwt>
<totfact> 0.65325992E+02</totfact>
</mgrwt>
</event>
<event>
 7    1  0.7550631E-006  0.1714415E+03  0.7546771E-02  0.1195856E+00
          1   -1    0    0  501    0  0.00000000000E+00  0.00000000000E+00  0.71665353250E+03  0.71665353250E+03  0.00000000000E+00 0. -1.
         -1   -1    0    0    0  501 -0.00000000000E+00 -0.00000000000E+00 -0.39675134631E+02  0.39675134631E+02  0.00000000000E+00 0.  1.
         23    2    1    2    0    0  0.64234038582E+02  0.13609466763E+02  0.84604804925E+02  0.13964506072E+03  0.89618863347E+02 0.  0.
          5    1    1    2  502    0  0.31018596676E+02 -0.12196001896E+02  0.40533160084E+03  0.40672680320E+03  0.47000000000E+01 0. -1.
         -5    1    1    2    0  502 -0.95252635257E+02 -0.14134648667E+01  0.18704199211E+03  0.20995680322E+03  0.47000000000E+01 0.  1.
        -11    1    3    3    0    0  0.75036114475E+01  0.44938926847E+02  0.42895486014E+02  0.62576625439E+02  0.00000000000E+00 0. -1.
         11    1    3    3    0    0  0.56730427134E+02 -0.31329460084E+02  0.41709318911E+02  0.77068435277E+02  0.00000000000E+00 0.  1.
<mgrwt>
<rscale>  0 0.15382028E+03</rscale>
<asrwt>0</asrwt>
<pdfrwt beam="1">  1        1 0.11025438E+00 0.17144153E+03</pdfrwt>
<pdfrwt beam="2">  1       -1 0.61038674E-02 0.17144153E+03</pdfrwt>
<totfact> 0.34884780E+03</totfact>
</mgrwt>
</event>
<event>
 8    1  0.7550631E-006  0.1681526E+03  0.7546771E-02  0.1186832E+00
          1   -1    0    0  501    0  0.00000000000E+00  0.00000000000E+00  0.67853487441E+03  0.67853487441E+03  0.00000000000E+00 0. -1.
         -1   -1    0    0    0  501 -0.00000000000E+00 -0.00000000000E+00 -0.49079247290E+02  0.49079247290E+02  0.00000000000E+00 0.  1.
         23    2    1    2    0    0 -0.72885624975E+02  0.85665039996E+02  0.10803072442E+03  0.17974622525E+03  0.89371442117E+02 0.  0.
         23    2    1    2    0    0  0.72885624975E+02 -0.85665039996E+02  0.52142490270E+03  0.54786789646E+03  0.12499795760E+03 0.  0.
          5    1    4    4  502    0  0.91610791958E+02 -0.10571587202E+03  0.44740761875E+03  0.46878998508E+03  0.47000000000E+01 0.  1.
         -5    1    4    4    0  502 -0.18725166983E+02  0.20050832021E+02  0.74017283958E+02  0.79077911377E+02  0.47000000000E+01 0.  1.
        -11    1    3    3    0    0 -0.17253163151E+02  0.10463934306E+02 -0.15035874634E+02  0.25164321686E+02  0.00000000000E+00 0.  1.
         11    1    3    3    0    0 -0.55632461823E+02  0.75201105690E+02  0.12306659906E+03  0.15458190356E+03  0.00000000000E+00 0. -1.
<mgrwt>
<rscale>  0 0.16166327E+03</rscale>
<asrwt>0</asrwt>
<pdfrwt beam="1">  1        1 0.10438997E+00 0.16815262E+03</pdfrwt>
<pdfrwt beam="2">  1       -1 0.75506539E-02 0.16815262E+03</pdfrwt>
<totfact> 0.27380316E+03</totfact>
</mgrwt>
</event>
<event>
 8    1  0.7550631E-006  0.1564339E+03  0.7546771E-02  0.1200872E+00
          2   -1    0    0  501    0  0.00000000000E+00  0.00000000000E+00  0.20654178152E+03  0.20654178152E+03  0.00000000000E+00 0. -1.
         -2   -1    0    0    0  501 -0.00000000000E+00 -0.00000000000E+00 -0.25897425327E+03  0.25897425327E+03  0.00000000000E+00 0.  1.
         23    2    1    2    0    0 -0.25860266321E+02  0.90418300574E+02 -0.20737228316E+03  0.24533902097E+03  0.91344123698E+02 0.  0.
         23    2    1    2    0    0  0.25860266321E+02 -0.90418300574E+02  0.15493981142E+03  0.22017701382E+03  0.12500939883E+03 0.  0.
          5    1    4    4  502    0 -0.36101201369E+02 -0.56929807710E+02  0.24532169694E+02  0.71890312950E+02  0.47000000000E+01 0.  1.
         -5    1    4    4    0  502  0.61961467690E+02 -0.33488492864E+02  0.13040764173E+03  0.14828670087E+03  0.47000000000E+01 0.  1.
        -11    1    3    3    0    0 -0.22788847926E+02  0.10944594214E+03 -0.17886421510E+03  0.21092689085E+03  0.00000000000E+00 0.  1.
         11    1    3    3    0    0 -0.30714183954E+01 -0.19027641569E+02 -0.28508068069E+02  0.34412130124E+02  0.00000000000E+00 0. -1.
<mgrwt>
<rscale>  0 0.14967569E+03</rscale>
<asrwt>0</asrwt>
<pdfrwt beam="1">  1        2 0.31775659E-01 0.15643392E+03</pdfrwt>
<pdfrwt beam="2">  1       -2 0.39842193E-01 0.15643392E+03</pdfrwt>
<totfact> 0.97854977E+02</totfact>
</mgrwt>
</event>
<event>
 7    1  0.7550631E-006  0.2773131E+03  0.7546771E-02  0.1140202E+00
          1   -1    0    0  501    0  0.00000000000E+00  0.00000000000E+00  0.43477981078E+03  0.43477981078E+03  0.00000000000E+00 0. -1.
         -1   -1    0    0    0  501 -0.00000000000E+00 -0.00000000000E+00 -0.21350736335E+03  0.21350736335E+03  0.00000000000E+00 0.  1.
         23    2    1    2    0    0 -0.22550642505E+02 -0.60569088896E+01 -0.15467769698E+03  0.18112436551E+03  0.91299661638E+02 0.  0.
          5    1    1    2  502    0 -0.44357202207E+02 -0.12337698332E+03  0.18964898793E+03  0.23060414138E+03  0.47000000000E+01 0. -1.
         -5    1    1    2    0  502  0.66907844712E+02  0.12943389221E+03  0.18630115649E+03  0.23655866724E+03  0.47000000000E+01 0.  1.
        -11    1    3    3    0    0 -0.45102633730E+02  0.25346458662E+01 -0.14985276881E+03  0.15651365538E+03  0.00000000000E+00 0.  1.
         11    1    3    3    0    0  0.22551991225E+02 -0.85915547558E+01 -0.48249281670E+01  0.24610710131E+02  0.00000000000E+00 0. -1.
<mgrwt>
<rscale>  0 0.21173109E+03</rscale>
<asrwt>0</asrwt>
<pdfrwt beam="1">  1        1 0.66889201E-01 0.27731314E+03</pdfrwt>
<pdfrwt beam="2">  1       -1 0.32847287E-01 0.27731314E+03</pdfrwt>
<totfact> 0.47736494E+02</totfact>
</mgrwt>
</event>
<event>
 8    1  0.7550631E-006  0.1459582E+03  0.7546771E-02  0.1215389E+00
         -1   -1    0    0    0  501 -0.00000000000E+00  0.00000000000E+00  0.69163859608E+02  0.69163859608E+02  0.00000000000E+00 0.  1.
          1   -1    0    0  501    0  0.00000000000E+00 -0.00000000000E+00 -0.25258306435E+03  0.25258306435E+03  0.00000000000E+00 0. -1.
         23    2    1    2    0    0 -0.63626172557E+02  0.40409579131E+02 -0.86941251981E+02  0.14678465767E+03  0.91135780632E+02 0.  0.
         23    2    1    2    0    0  0.63626172557E+02 -0.40409579131E+02 -0.96477952762E+02  0.17496226629E+03  0.12499030097E+03 0.  0.
          5    1    4    4  502    0  0.83377030509E+02 -0.53169960415E+02 -0.10954673265E+03  0.14765280404E+03  0.47000000000E+01 0.  1.
         -5    1    4    4    0  502 -0.19750857952E+02  0.12760381284E+02  0.13068779891E+02  0.27309462246E+02  0.47000000000E+01 0.  1.
        -11    1    3    3    0    0 -0.17223492585E+02 -0.26504413909E+02 -0.45540442717E+02  0.55435228657E+02  0.00000000000E+00 0. -1.
         11    1    3    3    0    0 -0.46402679972E+02  0.66913993039E+02 -0.41400809265E+02  0.91349429012E+02  0.00000000000E+00 0.  1.
<mgrwt>
<rscale>  0 0.13847992E+03</rscale>
<asrwt>0</asrwt>
<pdfrwt beam="2">  1        1 0.38858932E-01 0.14595821E+03</pdfrwt>
<pdfrwt beam="1">  1       -1 0.10640594E-01 0.14595821E+03</pdfrwt>
<totfact> 0.57839971E+03</totfact>
</mgrwt>
</event>
<event>
 8    1  0.7550631E-006  0.1579255E+03  0.7546771E-02  0.1199240E+00
          1   -1    0    0  501    0  0.00000000000E+00  0.00000000000E+00  0.72582254593E+02  0.72582254593E+02  0.00000000000E+00 0. -1.
         -1   -1    0    0    0  501 -0.00000000000E+00 -0.00000000000E+00 -0.34296658189E+03  0.34296658189E+03  0.00000000000E+00 0.  1.
         23    2    1    2    0    0 -0.44421873876E+02  0.85689214910E+02 -0.20670373333E+03  0.24526765670E+03  0.90076887279E+02 0.  0.
         23    2    1    2    0    0  0.44421873876E+02 -0.85689214910E+02 -0.63680593970E+02  0.17028117978E+03  0.12499807082E+03 0.  0.
          5    1    4    4  502    0 -0.23755724063E+02 -0.20822307083E+01 -0.57146199957E+02  0.62100308212E+02  0.47000000000E+01 0. -1.
         -5    1    4    4    0  502  0.68177597940E+02 -0.83606984202E+02 -0.65343940129E+01  0.10818087157E+03  0.47000000000E+01 0. -1.
        -11    1    3    3    0    0 -0.67345295618E+02  0.49257716612E+02 -0.16711735280E+03  0.18678843941E+03  0.00000000000E+00 0.  1.
         11    1    3    3    0    0  0.22923421741E+02  0.36431498298E+02 -0.39586380524E+02  0.58479217296E+02  0.00000000000E+00 0. -1.
<mgrwt>
<rscale>  0 0.15100826E+03</rscale>
<asrwt>0</asrwt>
<pdfrwt beam="1">  1        1 0.11166501E-01 0.15792550E+03</pdfrwt>
<pdfrwt beam="2">  1       -1 0.52764089E-01 0.15792550E+03</pdfrwt>
<totfact> 0.20093221E+03</totfact>
</mgrwt>
</event>
<event>
 8    1  0.7550631E-006  0.1628528E+03  0.7546771E-02  0.1193272E+00
         -1   -1    0    0    0  501 -0.00000000000E+00  0.00000000000E+00  0.10869132885E+03  0.10869132885E+03  0.00000000000E+00 0.  1.
          1   -1    0    0  501    0  0.00000000000E+00 -0.00000000000E+00 -0.21249629248E+03  0.21249629248E+03  0.00000000000E+00 0. -1.
         23    2    1    2    0    0 -0.11425523058E+02 -0.10375441594E+03 -0.21936722291E+02  0.13891459993E+03  0.88997330778E+02 0.  0.
         23    2    1    2    0    0  0.11425523058E+02  0.10375441594E+03 -0.81868241338E+02  0.18227302141E+03  0.12500209594E+03 0.  0.
          5    1    4    4  502    0 -0.46658353776E+02  0.64087548437E+02 -0.78556022019E+02  0.11170207893E+03  0.47000000000E+01 0.  1.
         -5    1    4    4    0  502  0.58083876834E+02  0.39666867499E+02 -0.33122193186E+01  0.70570942476E+02  0.47000000000E+01 0.  1.
        -11    1    3    3    0    0 -0.44527648444E+02 -0.66016209021E+02 -0.35094536479E+02  0.87019985176E+02  0.00000000000E+00 0. -1.
         11    1    3    3    0    0  0.33102125386E+02 -0.37738206915E+02  0.13157814189E+02  0.51894614754E+02  0.00000000000E+00 0.  1.
<mgrwt>
<rscale>  0 0.15601363E+03</rscale>
<asrwt>0</asrwt>
<pdfrwt beam="2">  1        1 0.32691737E-01 0.16285283E+03</pdfrwt>
<pdfrwt beam="1">  1       -1 0.16721743E-01 0.16285283E+03</pdfrwt>
<totfact> 0.35640594E+03</totfact>
</mgrwt>
</event>
<event>
 8    1  0.7550631E-006  0.1269595E+03  0.7546771E-02  0.1244229E+00
          1   -1    0    0  501    0  0.00000000000E+00  0.00000000000E+00  0.45688905967E+02  0.45688905967E+02  0.00000000000E+00 0. -1.
         -1   -1    0    0    0  501 -0.00000000000E+00 -0.00000000000E+00 -0.28337854852E+03  0.28337854852E+03  0.00000000000E+00 0.  1.
         23    2    1    2    0    0  0.19722279230E+02 -0.10265754664E+02 -0.12353923734E+03  0.15833657033E+03  0.96509959710E+02 0.  0.
         23    2    1    2    0    0 -0.19722279230E+02  0.10265754664E+02 -0.11415040521E+03  0.17073088416E+03  0.12499746309E+03 0.  0.
          5    1    4    4  502    0 -0.56537602023E+02 -0.36240463496E+02 -0.64577852232E+02  0.93285908024E+02  0.47000000000E+01 0.  1.
         -5    1    4    4    0  502  0.36815322793E+02  0.46506218159E+02 -0.49572552980E+02  0.77444976137E+02  0.47000000000E+01 0.  1.
        -11    1    3    3    0    0  0.46350332206E+02 -0.34155537671E+02 -0.48790531581E+02  0.75468337872E+02  0.00000000000E+00 0.  1.
         11    1    3    3    0    0 -0.26628052976E+02  0.23889783007E+02 -0.74748705760E+02  0.82868232455E+02  0.00000000000E+00 0. -1.
<mgrwt>
<rscale>  0 0.11931620E+03</rscale>
<asrwt>0</asrwt>
<pdfrwt beam="1">  1        1 0.70290624E-02 0.12695952E+03</pdfrwt>
<pdfrwt beam="2">  1       -1 0.43596700E-01 0.12695952E+03</pdfrwt>
<totfact> 0.52073579E+03</totfact>
</mgrwt>
</event>
<event>
 8    1  0.7550631E-006  0.1501809E+03  0.7546771E-02  0.1208971E+00
          1   -1    0    0  501    0  0.00000000000E+00  0.00000000000E+00  0.29441715780E+02  0.29441715780E+02  0.00000000000E+00 0. -1.
         -1   -1    0    0    0  501 -0.00000000000E+00 -0.00000000000E+00 -0.68812273627E+03  0.68812273627E+03  0.00000000000E+00 0.  1.
         23    2    1    2    0    0  0.67836995890E+02  0.48243642304E+02 -0.39467850373E+03  0.41383489894E+03  0.92514297502E+02 0.  0.
         23    2    1    2    0    0 -0.67836995890E+02 -0.48243642304E+02 -0.26400251676E+03  0.30372955311E+03  0.12500002216E+03 0.  0.
          5    1    4    4  502    0 -0.26219596613E+02  0.42477199305E+02 -0.94020583665E+02  0.10655392935E+03  0.47000000000E+01 0. -1.
         -5    1    4    4    0  502 -0.41617399277E+02 -0.90720841609E+02 -0.16998193309E+03  0.19717562376E+03  0.47000000000E+01 0. -1.
        -11    1    3    3    0    0  0.63321996779E+02  0.27576270899E+02 -0.38395507314E+03  0.39011744922E+03  0.00000000000E+00 0.  1.
         11    1    3    3    0    0  0.45149991106E+01  0.20667371405E+02 -0.10723430584E+02  0.23717449721E+02  0.00000000000E+00 0. -1.
<mgrwt>
<rscale>  0 0.14328846E+03</rscale>
<asrwt>0</asrwt>
<pdfrwt beam="1">  1        1 0.45294948E-02 0.15018093E+03</pdfrwt>
<pdfrwt beam="2">  1       -1 0.10586503E+00 0.15018093E+03</pdfrwt>
<totfact> 0.16562255E+03</totfact>
</mgrwt>
</event>
<event>
 7    1  0.7550631E-006  0.2014897E+03  0.7546771E-02  0.1154204E+00
         -1   -1    0    0    0  501 -0.00000000000E+00  0.00000000000E+00  0.52366768858E+02  0.52366768858E+02  0.00000000000E+00 0.  1.
          1   -1    0    0  501    0  0.00000000000E+00 -0.00000000000E+00 -0.89914738246E+03  0.89914738246E+03  0.00000000000E+00 0. -1.
         23    2    1    2    0    0 -0.10764661429E+03 -0.10372547355E+03 -0.16751017672E+03  0.24299004294E+03  0.92939411626E+02 0.  0.
          5    1    1    2  502    0  0.10908458822E+03  0.12335431693E+02 -0.38094261838E+03  0.39647317534E+03  0.47000000000E+01 0. -1.
         -5    1    1    2    0  502 -0.14379739272E+01  0.91390041856E+02 -0.29832781850E+03  0.31205093304E+03  0.47000000000E+01 0.  1.
        -11    1    3    3    0    0 -0.11438455966E+03 -0.92400560996E+02 -0.17440286656E+03  0.22811850215E+03  0.00000000000E+00 0.  1.
         11    1    3    3    0    0  0.67379453672E+01 -0.11324912553E+02  0.68926898432E+01  0.14871540787E+02  0.00000000000E+00 0. -1.
<mgrwt>
<rscale>  0 0.19479717E+03</rscale>
<asrwt>0</asrwt>
<pdfrwt beam="2">  1        1 0.13833034E+00 0.20148967E+03</pdfrwt>
<pdfrwt beam="1">  1       -1 0.80564278E-02 0.20148967E+03</pdfrwt>
<totfact> 0.16262672E+03</totfact>
</mgrwt>
</event>
<event>
 8    1  0.7550631E-006  0.1292790E+03  0.7546771E-02  0.1243443E+00
         -2   -1    0    0    0  501 -0.00000000000E+00  0.00000000000E+00  0.40040354214E+02  0.40040354214E+02  0.00000000000E+00 0. -1.
          2   -1    0    0  501    0  0.00000000000E+00 -0.00000000000E+00 -0.47981876803E+03  0.47981876803E+03  0.00000000000E+00 0.  1.
         23    2    1    2    0    0  0.22854213033E+02 -0.23787340575E+02 -0.46822916178E+02  0.10618404254E+03  0.89412039375E+02 0.  0.
         23    2    1    2    0    0 -0.22854213033E+02  0.23787340575E+02 -0.39295549764E+03  0.41367507971E+03  0.12499958329E+03 0.  0.
          5    1    4    4  502    0 -0.69227810839E+02  0.23727776524E+02 -0.15864822947E+03  0.17477656561E+03  0.47000000000E+01 0. -1.
         -5    1    4    4    0  502  0.46373597806E+02  0.59564051390E-01 -0.23430726817E+03  0.23889851410E+03  0.47000000000E+01 0. -1.
        -11    1    3    3    0    0  0.31170080579E+02 -0.25807260884E+01 -0.68146986551E+02  0.74981636728E+02  0.00000000000E+00 0.  1.
         11    1    3    3    0    0 -0.83158675466E+01 -0.21206614487E+02  0.21324070373E+02  0.31202405810E+02  0.00000000000E+00 0. -1.
<mgrwt>
<rscale>  0 0.11979055E+03</rscale>
<asrwt>0</asrwt>
<pdfrwt beam="2">  1        2 0.73818275E-01 0.12927896E+03</pdfrwt>
<pdfrwt beam="1">  1       -2 0.61600543E-02 0.12927896E+03</pdfrwt>
<totfact> 0.88098935E+03</totfact>
</mgrwt>
</event>
<event>
 8    1  0.7550631E-006  0.1295246E+03  0.7546771E-02  0.1236716E+00
         -2   -1    0    0    0  501 -0.00000000000E+00  0.00000000000E+00  0.30365196876E+02  0.30365196876E+02  0.00000000000E+00 0.  1.
          2   -1    0    0  501    0  0.00000000000E+00 -0.00000000000E+00 -0.50662843988E+03  0.50662843988E+03  0.00000000000E+00 0. -1.
         23    2    1    2    0    0 -0.85770407209E+01 -0.32486233579E+02 -0.14402859641E+03  0.18040357411E+03  0.10330678567E+03 0.  0.
         23    2    1    2    0    0  0.85770407209E+01  0.32486233579E+02 -0.33223464659E+03  0.35659006265E+03  0.12509073261E+03 0.  0.
          5    1    4    4  502    0  0.14064548667E+02  0.77967927112E+02 -0.25053116892E+03  0.26280176139E+03  0.47000000000E+01 0.  1.
         -5    1    4    4    0  502 -0.54875079461E+01 -0.45481693533E+02 -0.81703477672E+02  0.93788301263E+02  0.47000000000E+01 0.  1.
        -11    1    3    3    0    0  0.25846828211E+02 -0.26198804559E+02 -0.51224383665E+01  0.37157438874E+02  0.00000000000E+00 0.  1.
         11    1    3    3    0    0 -0.34423868932E+02 -0.62874290205E+01 -0.13890615805E+03  0.14324613523E+03  0.00000000000E+00 0. -1.
<mgrwt>
<rscale>  0 0.12395240E+03</rscale>
<asrwt>0</asrwt>
<pdfrwt beam="2">  1        2 0.77942829E-01 0.12952456E+03</pdfrwt>
<pdfrwt beam="1">  1       -2 0.46715692E-02 0.12952456E+03</pdfrwt>
<totfact> 0.12589736E+04</totfact>
</mgrwt>
</event>
<event>
 8    1  0.7550631E-006  0.1339839E+03  0.7546771E-02  0.1232497E+00
         -1   -1    0    0    0  501 -0.00000000000E+00  0.00000000000E+00  0.15466211587E+03  0.15466211587E+03  0.00000000000E+00 0.  1.
          1   -1    0    0  501    0  0.00000000000E+00 -0.00000000000E+00 -0.99423284072E+02  0.99423284072E+02  0.00000000000E+00 0. -1.
         23    2    1    2    0    0  0.44813801959E+02  0.24559874392E+02  0.54534690174E+02  0.12009960184E+03  0.94012858985E+02 0.  0.
         23    2    1    2    0    0 -0.44813801959E+02 -0.24559874392E+02  0.70414162380E+00  0.13398579810E+03  0.12385569830E+03 0.  0.
          5    1    4    4  502    0 -0.41675645366E+02 -0.17909324466E+02  0.59264034511E+02  0.74779135499E+02  0.47000000000E+01 0. -1.
         -5    1    4    4    0  502 -0.31381565930E+01 -0.66505499263E+01 -0.58559892887E+02  0.59206662598E+02  0.47000000000E+01 0. -1.
        -11    1    3    3    0    0 -0.14481084370E+02  0.29103274901E+02 -0.83363862421E+01  0.33558869916E+02  0.00000000000E+00 0. -1.
         11    1    3    3    0    0  0.59294886329E+02 -0.45434005087E+01  0.62871076416E+02  0.86540731928E+02  0.00000000000E+00 0.  1.
<mgrwt>
<rscale>  0 0.12666006E+03</rscale>
<asrwt>0</asrwt>
<pdfrwt beam="2">  1        1 0.15295890E-01 0.13398395E+03</pdfrwt>
<pdfrwt beam="1">  1       -1 0.23794172E-01 0.13398395E+03</pdfrwt>
<totfact> 0.52316662E+03</totfact>
</mgrwt>
</event>
<event>
 8    1  0.7550631E-006  0.1493863E+03  0.7546771E-02  0.1210263E+00
          1   -1    0    0  501    0  0.00000000000E+00  0.00000000000E+00  0.44318806079E+03  0.44318806079E+03  0.00000000000E+00 0. -1.
         -1   -1    0    0    0  501 -0.00000000000E+00 -0.00000000000E+00 -0.63324334331E+02  0.63324334331E+02  0.00000000000E+00 0.  1.
         23    2    1    2    0    0 -0.54924840781E+02  0.60608823811E+02  0.30765360389E+02  0.12679414940E+03  0.91869914899E+02 0.  0.
         23    2    1    2    0    0  0.54924840781E+02 -0.60608823811E+02  0.34909836607E+03  0.37971824572E+03  0.12500443705E+03 0.  0.
          5    1    4    4  502    0  0.76439062028E+02 -0.71693028834E+02  0.17614836971E+03  0.20501989839E+03  0.47000000000E+01 0.  1.
         -5    1    4    4    0  502 -0.21514221247E+02  0.11084205024E+02  0.17294999636E+03  0.17469834733E+03  0.47000000000E+01 0.  1.
        -11    1    3    3    0    0 -0.21993127180E+02  0.59939322263E+02  0.56294635592E+02  0.85120538020E+02  0.00000000000E+00 0. -1.
         11    1    3    3    0    0 -0.32931713601E+02  0.66950154769E+00 -0.25529275202E+02  0.41673611379E+02  0.00000000000E+00 0.  1.
<mgrwt>
<rscale>  0 0.14230295E+03</rscale>
<asrwt>0</asrwt>
<pdfrwt beam="1">  1        1 0.68182777E-01 0.14938633E+03</pdfrwt>
<pdfrwt beam="2">  1       -1 0.97422055E-02 0.14938633E+03</pdfrwt>
<totfact> 0.32800124E+03</totfact>
</mgrwt>
</event>
<event>
 8    1  0.7550631E-006  0.1342708E+03  0.7546771E-02  0.1232093E+00
         -1   -1    0    0    0  501 -0.00000000000E+00  0.00000000000E+00  0.11861700203E+02  0.11861700203E+02  0.00000000000E+00 0.  1.
          1   -1    0    0  501    0  0.00000000000E+00 -0.00000000000E+00 -0.20037427638E+04  0.20037427638E+04  0.00000000000E+00 0. -1.
         23    2    1    2    0    0 -0.15884801400E+02  0.46368717449E+02 -0.30323191869E+03  0.32162554703E+03  0.95346793936E+02 0.  0.
         23    2    1    2    0    0  0.15884801400E+02 -0.46368717449E+02 -0.16886491449E+04  0.16939789170E+04  0.12500500668E+03 0.  0.
          5    1    4    4  502    0 -0.24987210365E+02  0.13846250083E+02 -0.11557786303E+04  0.11561411728E+04  0.47000000000E+01 0.  1.
         -5    1    4    4    0  502  0.40872011764E+02 -0.60214967532E+02 -0.53287051464E+03  0.53783774415E+03  0.47000000000E+01 0.  1.
        -11    1    3    3    0    0 -0.56101954575E+02  0.30741586429E+02 -0.18744319291E+03  0.19805914524E+03  0.00000000000E+00 0. -1.
         11    1    3    3    0    0  0.40217153176E+02  0.15627131020E+02 -0.11578872578E+03  0.12356640179E+03  0.00000000000E+00 0.  1.
<mgrwt>
<rscale>  0 0.12692353E+03</rscale>
<asrwt>0</asrwt>
<pdfrwt beam="2">  1        1 0.30826764E+00 0.13427076E+03</pdfrwt>
<pdfrwt beam="1">  1       -1 0.18248798E-02 0.13427076E+03</pdfrwt>
<totfact> 0.26265352E+03</totfact>
</mgrwt>
</event>
<event>
 8    1  0.7550631E-006  0.1258519E+03  0.7546771E-02  0.1249680E+00
          2   -1    0    0  501    0  0.00000000000E+00  0.00000000000E+00  0.49861026706E+03  0.49861026706E+03  0.00000000000E+00 0. -1.
         -2   -1    0    0    0  501 -0.00000000000E+00 -0.00000000000E+00 -0.35393660891E+02  0.35393660891E+02  0.00000000000E+00 0.  1.
         23    2    1    2    0    0 -0.10282051408E+02 -0.10376776266E+02  0.54138034185E+02  0.10600394944E+03  0.89958393070E+02 0.  0.
         23    2    1    2    0    0  0.10282051408E+02  0.10376776266E+02  0.40907857198E+03  0.42799997851E+03  0.12500122193E+03 0.  0.
          5    1    4    4  502    0  0.53178496695E+02  0.45059914028E+02  0.20676743471E+03  0.21825033887E+03  0.47000000000E+01 0. -1.
         -5    1    4    4    0  502 -0.42896445288E+02 -0.34683137762E+02  0.20231113727E+03  0.20974963964E+03  0.47000000000E+01 0. -1.
        -11    1    3    3    0    0 -0.50829499716E+01  0.28753339383E+02 -0.98533682589E+01  0.30816874795E+02  0.00000000000E+00 0.  1.
         11    1    3    3    0    0 -0.51991014359E+01 -0.39130115648E+02  0.63991402444E+02  0.75187074641E+02  0.00000000000E+00 0. -1.
<mgrwt>
<rscale>  0 0.11609627E+03</rscale>
<asrwt>0</asrwt>
<pdfrwt beam="1">  1        2 0.76709267E-01 0.12585191E+03</pdfrwt>
<pdfrwt beam="2">  1       -2 0.54451790E-02 0.12585191E+03</pdfrwt>
<totfact> 0.10159442E+04</totfact>
</mgrwt>
</event>
<event>
 8    1  0.7550631E-006  0.2207451E+03  0.7546771E-02  0.1136539E+00
         -1   -1    0    0    0  501 -0.00000000000E+00  0.00000000000E+00  0.60623035427E+03  0.60623035427E+03  0.00000000000E+00 0.  1.
          1   -1    0    0  501    0  0.00000000000E+00 -0.00000000000E+00 -0.77617378851E+02  0.77617378851E+02  0.00000000000E+00 0. -1.
         23    2    1    2    0    0  0.17196730595E+03  0.59447495250E+02  0.32340960938E+03  0.38245625027E+03  0.92586440305E+02 0.  0.
         23    2    1    2    0    0 -0.17196730595E+03 -0.59447495250E+02  0.20520336604E+03  0.30139148284E+03  0.12498658124E+03 0.  0.
          5    1    4    4  502    0 -0.18264527283E+03 -0.70864145205E+02  0.20690642847E+03  0.28497961840E+03  0.47000000000E+01 0.  1.
         -5    1    4    4    0  502  0.10677966878E+02  0.11416649955E+02 -0.17030624316E+01  0.16411864443E+02  0.47000000000E+01 0.  1.
        -11    1    3    3    0    0  0.63150977868E+02  0.46141343814E+02  0.21282765530E+03  0.22674364484E+03  0.00000000000E+00 0.  1.
         11    1    3    3    0    0  0.10881632808E+03  0.13306151436E+02  0.11058195407E+03  0.15571260543E+03  0.00000000000E+00 0. -1.
<mgrwt>
<rscale>  0 0.21647512E+03</rscale>
<asrwt>0</asrwt>
<pdfrwt beam="2">  1        1 0.11941136E-01 0.22074511E+03</pdfrwt>
<pdfrwt beam="1">  1       -1 0.93266205E-01 0.22074511E+03</pdfrwt>
<totfact> 0.59388294E+02</totfact>
</mgrwt>
</event>
<event>
 8    1  0.7550631E-006  0.1988534E+03  0.7546771E-02  0.1155097E+00
          1   -1    0    0  501    0  0.00000000000E+00  0.00000000000E+00  0.27312971044E+03  0.27312971044E+03  0.00000000000E+00 0. -1.
         -1   -1    0    0    0  501 -0.00000000000E+00 -0.00000000000E+00 -0.22437149273E+03  0.22437149273E+03  0.00000000000E+00 0.  1.
         23    2    1    2    0    0  0.14838271471E+03 -0.43579046271E+02 -0.13678234597E+03  0.22553063155E+03  0.90763937236E+02 0.  0.
         23    2    1    2    0    0 -0.14838271471E+03  0.43579046271E+02  0.18554056368E+03  0.27197057162E+03  0.12500451096E+03 0.  0.
          5    1    4    4  502    0 -0.13764082696E+03  0.74416330575E+02  0.11546535209E+03  0.19451767281E+03  0.47000000000E+01 0.  1.
         -5    1    4    4    0  502 -0.10741887749E+02 -0.30837284305E+02  0.70075211582E+02  0.77452898809E+02  0.47000000000E+01 0.  1.
        -11    1    3    3    0    0  0.13550845566E+02 -0.29755945404E+02 -0.63563120788E+02  0.71479451780E+02  0.00000000000E+00 0.  1.
         11    1    3    3    0    0  0.13483186914E+03 -0.13823100866E+02 -0.73219225183E+02  0.15405117977E+03  0.00000000000E+00 0. -1.
<mgrwt>
<rscale>  0 0.19377838E+03</rscale>
<asrwt>0</asrwt>
<pdfrwt beam="1">  1        1 0.42019955E-01 0.19885344E+03</pdfrwt>
<pdfrwt beam="2">  1       -1 0.34518691E-01 0.19885344E+03</pdfrwt>
<totfact> 0.79174973E+02</totfact>
</mgrwt>
</event>
<event>
 7    1  0.7550631E-006  0.1764516E+03  0.7546771E-02  0.1179772E+00
          1   -1    0    0  501    0  0.00000000000E+00  0.00000000000E+00  0.89946140194E+03  0.89946140194E+03  0.00000000000E+00 0. -1.
         -1   -1    0    0    0  501 -0.00000000000E+00 -0.00000000000E+00 -0.31218066038E+02  0.31218066038E+02  0.00000000000E+00 0.  1.
         23    2    1    2    0    0 -0.10241116063E+03 -0.50194560376E+02  0.26736517782E+03  0.30442893941E+03  0.90472654010E+02 0.  0.
          5    1    1    2  502    0  0.93554149498E+02  0.49815853270E+02  0.60583809465E+03  0.61505762743E+03  0.47000000000E+01 0. -1.
         -5    1    1    2    0  502  0.88570111357E+01  0.37870710593E+00 -0.49599365678E+01  0.11192901147E+02  0.47000000000E+01 0.  1.
        -11    1    3    3    0    0 -0.46526356364E+01 -0.46298112932E+02  0.68632293964E+02  0.82918960764E+02  0.00000000000E+00 0.  1.
         11    1    3    3    0    0 -0.97758524997E+02 -0.38964474442E+01  0.19873288386E+03  0.22150997864E+03  0.00000000000E+00 0. -1.
<mgrwt>
<rscale>  0 0.16816779E+03</rscale>
<asrwt>0</asrwt>
<pdfrwt beam="1">  1        1 0.13837866E+00 0.17645159E+03</pdfrwt>
<pdfrwt beam="2">  1       -1 0.48027801E-02 0.17645159E+03</pdfrwt>
<totfact> 0.35311179E+03</totfact>
</mgrwt>
</event>
<event>
 8    1  0.7550631E-006  0.1417367E+03  0.7546771E-02  0.1220915E+00
         -2   -1    0    0    0  501 -0.00000000000E+00  0.00000000000E+00  0.10705342649E+03  0.10705342649E+03  0.00000000000E+00 0. -1.
          2   -1    0    0  501    0  0.00000000000E+00 -0.00000000000E+00 -0.15944169646E+03  0.15944169646E+03  0.00000000000E+00 0.  1.
         23    2    1    2    0    0 -0.66531878717E+02 -0.63651427377E+01  0.11933294007E+01  0.11496857724E+03  0.93537927015E+02 0.  0.
         23    2    1    2    0    0  0.66531878717E+02  0.63651427377E+01 -0.53581599377E+02  0.15152654571E+03  0.12498920087E+03 0.  0.
          5    1    4    4  502    0  0.97067838909E+02  0.96529024606E+01 -0.10234744690E+02  0.98194622435E+02  0.47000000000E+01 0.  1.
         -5    1    4    4    0  502 -0.30535960192E+02 -0.32877597228E+01 -0.43346854687E+02  0.53331923274E+02  0.47000000000E+01 0.  1.
        -11    1    3    3    0    0  0.16136572016E+02  0.26324526272E+01 -0.23132234769E+02  0.28327002112E+02  0.00000000000E+00 0. -1.
         11    1    3    3    0    0 -0.82668450733E+02 -0.89975953650E+01  0.24325564169E+02  0.86641575130E+02  0.00000000000E+00 0.  1.
<mgrwt>
<rscale>  0 0.13450883E+03</rscale>
<asrwt>0</asrwt>
<pdfrwt beam="2">  1        2 0.24529492E-01 0.14173675E+03</pdfrwt>
<pdfrwt beam="1">  1       -2 0.16469758E-01 0.14173675E+03</pdfrwt>
<totfact> 0.61355574E+03</totfact>
</mgrwt>
</event>
<event>
 8    1  0.7550631E-006  0.2454924E+03  0.7546771E-02  0.1118476E+00
         -2   -1    0    0    0  501 -0.00000000000E+00  0.00000000000E+00  0.58171299941E+02  0.58171299941E+02  0.00000000000E+00 0.  1.
          2   -1    0    0  501    0  0.00000000000E+00 -0.00000000000E+00 -0.10726743129E+04  0.10726743129E+04  0.00000000000E+00 0. -1.
         23    2    1    2    0    0 -0.22155203599E+02 -0.21017952717E+03 -0.66103759894E+03  0.70049191602E+03  0.95141633904E+02 0.  0.
         23    2    1    2    0    0  0.22155203599E+02  0.21017952717E+03 -0.35346541399E+03  0.43035369680E+03  0.12490083575E+03 0.  0.
          5    1    4    4  502    0 -0.86281666379E+01  0.20269165215E+03 -0.24972034872E+03  0.32177739771E+03  0.47000000000E+01 0. -1.
         -5    1    4    4    0  502  0.30783370237E+02  0.74878750174E+01 -0.10374506528E+03  0.10857629909E+03  0.47000000000E+01 0. -1.
        -11    1    3    3    0    0 -0.29359794200E+02 -0.27504100279E+02 -0.20988125045E+03  0.21370215801E+03  0.00000000000E+00 0. -1.
         11    1    3    3    0    0  0.72045906013E+01 -0.18267542689E+03 -0.45115634849E+03  0.48678975800E+03  0.00000000000E+00 0.  1.
<mgrwt>
<rscale>  0 0.24198793E+03</rscale>
<asrwt>0</asrwt>
<pdfrwt beam="2">  1        2 0.16502681E+00 0.24549237E+03</pdfrwt>
<pdfrwt beam="1">  1       -2 0.89494314E-02 0.24549237E+03</pdfrwt>
<totfact> 0.18772634E+03</totfact>
</mgrwt>
</event>
<event>
 7    1  0.7550631E-006  0.1207112E+03  0.7546771E-02  0.1288144E+00
          1   -1    0    0  501    0  0.00000000000E+00  0.00000000000E+00  0.85168506889E+03  0.85168506889E+03  0.00000000000E+00 0. -1.
         -1   -1    0    0    0  501 -0.00000000000E+00 -0.00000000000E+00 -0.21714248365E+02  0.21714248365E+02  0.00000000000E+00 0.  1.
         23    2    1    2    0    0  0.32706875085E+01  0.29314322108E+02  0.81241666715E+03  0.82133552561E+03  0.11705202982E+03 0.  0.
          5    1    3    3  502    0  0.27189671573E+02 -0.27443713813E+02  0.56447605231E+03  0.56581599421E+03  0.47000000000E+01 0. -1.
         -5    1    3    3    0  502 -0.23918984065E+02  0.56758035921E+02  0.24794061483E+03  0.25551953140E+03  0.47000000000E+01 0.  1.
        -11    1    1    2    0    0  0.14585497844E+02 -0.20389966349E+02  0.19840937430E+02  0.31971084955E+02  0.00000000000E+00 0. -1.
         11    1    1    2    0    0 -0.17856185352E+02 -0.89243557588E+01 -0.22867840514E+01  0.20092706695E+02  0.00000000000E+00 0.  1.
<mgrwt>
<rscale>  0 0.96359269E+02</rscale>
<asrwt>0</asrwt>
<pdfrwt beam="1">  1        1 0.13102845E+00 0.12071124E+03</pdfrwt>
<pdfrwt beam="2">  1       -1 0.33406543E-02 0.12071124E+03</pdfrwt>
<totfact> 0.64652448E+03</totfact>
</mgrwt>
</event>
<event>
 8    1  0.7550631E-006  0.1269439E+03  0.7546771E-02  0.1247214E+00
          2   -1    0    0  501    0  0.00000000000E+00  0.00000000000E+00  0.16230421746E+03  0.16230421746E+03  0.00000000000E+00 0. -1.
         -2   -1    0    0    0  501 -0.00000000000E+00 -0.00000000000E+00 -0.88203561517E+02  0.88203561517E+02  0.00000000000E+00 0.  1.
         23    2    1    2    0    0  0.19137161573E+02  0.11133694865E+02 -0.16235680827E+02  0.94702102322E+02  0.90634986279E+02 0.  0.
         23    2    1    2    0    0 -0.19137161573E+02 -0.11133694865E+02  0.90336336766E+02  0.15580567665E+03  0.12499826008E+03 0.  0.
          5    1    4    4  502    0 -0.69777790137E+02 -0.20107044175E+02  0.67798024111E+02  0.99458007698E+02  0.47000000000E+01 0. -1.
         -5    1    4    4    0  502  0.50640628564E+02  0.89733493100E+01  0.22538312655E+02  0.56347668954E+02  0.47000000000E+01 0. -1.
        -11    1    3    3    0    0  0.41536546608E+02  0.33013099948E+02 -0.29487416300E+02  0.60701377186E+02  0.00000000000E+00 0.  1.
         11    1    3    3    0    0 -0.22399385035E+02 -0.21879405083E+02  0.13251735473E+02  0.34000725136E+02  0.00000000000E+00 0. -1.
<mgrwt>
<rscale>  0 0.11753827E+03</rscale>
<asrwt>0</asrwt>
<pdfrwt beam="1">  1        2 0.24969880E-01 0.12694391E+03</pdfrwt>
<pdfrwt beam="2">  1       -2 0.13569779E-01 0.12694391E+03</pdfrwt>
<totfact> 0.81899977E+03</totfact>
</mgrwt>
</event>
<event>
 8    1  0.7550631E-006  0.1587280E+03  0.7546771E-02  0.1197514E+00
         -1   -1    0    0    0  501 -0.00000000000E+00  0.00000000000E+00  0.25675980836E+02  0.25675980836E+02  0.00000000000E+00 0.  1.
          1   -1    0    0  501    0  0.00000000000E+00 -0.00000000000E+00 -0.84997158435E+03  0.84997158435E+03  0.00000000000E+00 0. -1.
         23    2    1    2    0    0 -0.93290742705E+02 -0.29474177106E+02 -0.33222733431E+03  0.35861202571E+03  0.93035979783E+02 0.  0.
         23    2    1    2    0    0  0.93290742705E+02  0.29474177106E+02 -0.49206826921E+03  0.51703553948E+03  0.12499071057E+03 0.  0.
          5    1    4    4  502    0  0.60230011964E+02 -0.46056139937E+02 -0.24803872800E+03  0.25941110800E+03  0.47000000000E+01 0.  1.
         -5    1    4    4    0  502  0.33060730741E+02  0.75530317043E+02 -0.24402954121E+03  0.25762443147E+03  0.47000000000E+01 0.  1.
        -11    1    3    3    0    0 -0.28963311752E+02  0.10197902242E+02 -0.18366208278E+02  0.35779718337E+02  0.00000000000E+00 0.  1.
         11    1    3    3    0    0 -0.64327430953E+02 -0.39672079348E+02 -0.31386112603E+03  0.32283230738E+03  0.00000000000E+00 0. -1.
<mgrwt>
<rscale>  0 0.15243378E+03</rscale>
<asrwt>0</asrwt>
<pdfrwt beam="2">  1        1 0.13076481E+00 0.15872797E+03</pdfrwt>
<pdfrwt beam="1">  1       -1 0.39501522E-02 0.15872797E+03</pdfrwt>
<totfact> 0.51389229E+03</totfact>
</mgrwt>
</event>
<event>
 8    1  0.7550631E-006  0.1410771E+03  0.7546771E-02  0.1226329E+00
          1   -1    0    0  501    0  0.00000000000E+00  0.00000000000E+00  0.52752692047E+03  0.52752692047E+03  0.00000000000E+00 0. -1.
         -1   -1    0    0    0  501 -0.00000000000E+00 -0.00000000000E+00 -0.29262043430E+02  0.29262043430E+02  0.00000000000E+00 0.  1.
         23    2    1    2    0    0 -0.63358986407E+02  0.16253679826E+02  0.16795835150E+03  0.19761608868E+03  0.81015846595E+02 0.  0.
         23    2    1    2    0    0  0.63358986407E+02 -0.16253679826E+02  0.33030652554E+03  0.35917287523E+03  0.12499684082E+03 0.  0.
          5    1    4    4  502    0 -0.35221396638E+02  0.19446391761E+00  0.13667839630E+03  0.14122201886E+03  0.47000000000E+01 0. -1.
         -5    1    4    4    0  502  0.98580383045E+02 -0.16448143743E+02  0.19362812924E+03  0.21795085636E+03  0.47000000000E+01 0. -1.
        -11    1    3    3    0    0 -0.33464157597E+02  0.34712865208E+02  0.33673680913E+02  0.58811135347E+02  0.00000000000E+00 0.  1.
         11    1    3    3    0    0 -0.29894828810E+02 -0.18459185382E+02  0.13428467059E+03  0.13880495333E+03  0.00000000000E+00 0. -1.
<mgrwt>
<rscale>  0 0.13076203E+03</rscale>
<asrwt>0</asrwt>
<pdfrwt beam="1">  1        1 0.81157981E-01 0.14107712E+03</pdfrwt>
<pdfrwt beam="2">  1       -1 0.45018532E-02 0.14107712E+03</pdfrwt>
<totfact> 0.82972059E+03</totfact>
</mgrwt>
</event>
<event>
 8    1  0.7550631E-006  0.1298790E+03  0.7546771E-02  0.1241899E+00
          2   -1    0    0  501    0  0.00000000000E+00  0.00000000000E+00  0.28429261027E+03  0.28429261027E+03  0.00000000000E+00 0. -1.
         -2   -1    0    0    0  501 -0.00000000000E+00 -0.00000000000E+00 -0.51123804648E+02  0.51123804648E+02  0.00000000000E+00 0.  1.
         23    2    1    2    0    0  0.28704255056E+02  0.20208765145E+02  0.45309275138E+02  0.10703130684E+03  0.90390496085E+02 0.  0.
         23    2    1    2    0    0 -0.28704255056E+02 -0.20208765145E+02  0.18785953048E+03  0.22838510808E+03  0.12504489575E+03 0.  0.
          5    1    4    4  502    0 -0.17812897757E+02 -0.71620668006E+02  0.84163472224E+02  0.11203749135E+03  0.47000000000E+01 0. -1.
         -5    1    4    4    0  502 -0.10891357299E+02  0.51411902861E+02  0.10369605826E+03  0.11634761672E+03  0.47000000000E+01 0. -1.
        -11    1    3    3    0    0  0.11317389103E+02 -0.16997272405E+02 -0.20835799964E+02  0.29173980282E+02  0.00000000000E+00 0.  1.
         11    1    3    3    0    0  0.17386865953E+02  0.37206037550E+02  0.66145075103E+02  0.77857326554E+02  0.00000000000E+00 0. -1.
<mgrwt>
<rscale>  0 0.12072888E+03</rscale>
<asrwt>0</asrwt>
<pdfrwt beam="1">  1        2 0.43737324E-01 0.12987900E+03</pdfrwt>
<pdfrwt beam="2">  1       -2 0.78652008E-02 0.12987900E+03</pdfrwt>
<totfact> 0.10598937E+04</totfact>
</mgrwt>
</event>
<event>
 7    1  0.7550631E-006  0.2381965E+03  0.7546771E-02  0.1135813E+00
          2   -1    0    0  501    0  0.00000000000E+00  0.00000000000E+00  0.45021540936E+03  0.45021540936E+03  0.00000000000E+00 0. -1.
         -2   -1    0    0    0  501 -0.00000000000E+00 -0.00000000000E+00 -0.10694057939E+03  0.10694057939E+03  0.00000000000E+00 0.  1.
         23    2    1    2    0    0  0.10700772916E+03  0.89569704204E+02  0.37538221005E+02  0.16958346572E+03  0.88747100235E+02 0.  0.
          5    1    1    2  502    0 -0.93244023404E+02  0.37191631766E+02  0.19170201358E+03  0.21644726237E+03  0.47000000000E+01 0. -1.
         -5    1    1    2    0  502 -0.13763705755E+02 -0.12676133597E+03  0.11403459539E+03  0.17112526067E+03  0.47000000000E+01 0.  1.
        -11    1    3    3    0    0  0.33025431295E+02 -0.13355388226E+02 -0.47966894921E+01  0.35945149005E+02  0.00000000000E+00 0.  1.
         11    1    3    3    0    0  0.73982297864E+02  0.10292509243E+03  0.42334910497E+02  0.13363831672E+03  0.00000000000E+00 0. -1.
<mgrwt>
<rscale>  0 0.21743032E+03</rscale>
<asrwt>0</asrwt>
<pdfrwt beam="1">  1        2 0.69263908E-01 0.23819653E+03</pdfrwt>
<pdfrwt beam="2">  1       -2 0.16452397E-01 0.23819653E+03</pdfrwt>
<totfact> 0.20436575E+03</totfact>
</mgrwt>
</event>
<event>
 8    1  0.7550631E-006  0.1308878E+03  0.7546771E-02  0.1240029E+00
         -2   -1    0    0    0  501 -0.00000000000E+00  0.00000000000E+00  0.12598382627E+02  0.12598382627E+02  0.00000000000E+00 0.  1.
          2   -1    0    0  501    0  0.00000000000E+00 -0.00000000000E+00 -0.14007377623E+04  0.14007377623E+04  0.00000000000E+00 0. -1.
         23    2    1    2    0    0 -0.85949991522E+01 -0.37846815300E+02 -0.26653411043E+03  0.28411960388E+03  0.90428213790E+02 0.  0.
         23    2    1    2    0    0  0.85949991522E+01  0.37846815300E+02 -0.11216052692E+04  0.11292165410E+04  0.12500144453E+03 0.  0.
          5    1    4    4  502    0  0.15377054768E+02  0.80343371984E+02 -0.87615482116E+03  0.87997776783E+03  0.47000000000E+01 0.  1.
         -5    1    4    4    0  502 -0.67820556154E+01 -0.42496556684E+02 -0.24545044807E+03  0.24923877320E+03  0.47000000000E+01 0.  1.
        -11    1    3    3    0    0  0.32411606050E+02 -0.19870589647E+02 -0.20217336605E+03  0.20571685026E+03  0.00000000000E+00 0. -1.
         11    1    3    3    0    0 -0.41006605203E+02 -0.17976225653E+02 -0.64360744377E+02  0.78402753624E+02  0.00000000000E+00 0.  1.
<mgrwt>
<rscale>  0 0.12187890E+03</rscale>
<asrwt>0</asrwt>
<pdfrwt beam="2">  1        2 0.21549822E+00 0.13088780E+03</pdfrwt>
<pdfrwt beam="1">  1       -2 0.19382118E-02 0.13088780E+03</pdfrwt>
<totfact> 0.12106926E+04</totfact>
</mgrwt>
</event>
<event>
 8    1  0.7550631E-006  0.1407081E+03  0.7546771E-02  0.1225753E+00
         -2   -1    0    0    0  501 -0.00000000000E+00  0.00000000000E+00  0.43584045014E+02  0.43584045014E+02  0.00000000000E+00 0.  1.
          2   -1    0    0  501    0  0.00000000000E+00 -0.00000000000E+00 -0.95659286256E+03  0.95659286256E+03  0.00000000000E+00 0. -1.
         23    2    1    2    0    0  0.31089288024E+02  0.56644537681E+02 -0.36292983901E+02  0.11224143108E+03  0.84295970795E+02 0.  0.
         23    2    1    2    0    0 -0.31089288024E+02 -0.56644537681E+02 -0.87671583365E+03  0.88793547650E+03  0.12499443974E+03 0.  0.
          5    1    4    4  502    0 -0.82516903525E+01 -0.25369738799E+02 -0.30388248199E+02  0.40709331474E+02  0.47000000000E+01 0. -1.
         -5    1    4    4    0  502 -0.22837597672E+02 -0.31274798882E+02 -0.84632758545E+03  0.84722614502E+03  0.47000000000E+01 0. -1.
        -11    1    3    3    0    0  0.56572519241E+02  0.55104517098E+02 -0.35792630939E+02  0.86706805773E+02  0.00000000000E+00 0. -1.
         11    1    3    3    0    0 -0.25483231217E+02  0.15400205830E+01 -0.50035296209E+00  0.25534625310E+02  0.00000000000E+00 0.  1.
<mgrwt>
<rscale>  0 0.13115428E+03</rscale>
<asrwt>0</asrwt>
<pdfrwt beam="2">  1        2 0.14716814E+00 0.14070806E+03</pdfrwt>
<pdfrwt beam="1">  1       -2 0.67052373E-02 0.14070806E+03</pdfrwt>
<totfact> 0.34224440E+03</totfact>
</mgrwt>
</event>
<event>
 8    1  0.7550631E-006  0.1221215E+03  0.7546771E-02  0.1248848E+00
         -3   -1    0    0    0  501 -0.00000000000E+00  0.00000000000E+00  0.15896838330E+03  0.15896838330E+03  0.00000000000E+00 0.  1.
          3   -1    0    0  501    0  0.00000000000E+00 -0.00000000000E+00 -0.78683251628E+02  0.78683251628E+02  0.00000000000E+00 0. -1.
         23    2    1    2    0    0 -0.47651988801E+01 -0.49900259818E+02  0.40586873589E+02  0.10923971631E+03  0.88166196817E+02 0.  0.
         23    2    1    2    0    0  0.47651988801E+01  0.49900259818E+02  0.39698258081E+02  0.12841191862E+03  0.11135944548E+03 0.  0.
          5    1    4    4  502    0  0.30798264809E+02 -0.26139666167E+02  0.58948485065E+01  0.41093241554E+02  0.47000000000E+01 0. -1.
         -5    1    4    4    0  502 -0.26033065929E+02  0.76039925985E+02  0.33803409575E+02  0.87318677064E+02  0.47000000000E+01 0.  1.
        -11    1    3    3    0    0 -0.89271712346E+01 -0.75085396840E+02  0.26767053904E+02  0.80212133618E+02  0.00000000000E+00 0. -1.
         11    1    3    3    0    0  0.41619723546E+01  0.25185137022E+02  0.13819819684E+02  0.29027582690E+02  0.00000000000E+00 0.  1.
<mgrwt>
<rscale>  0 0.11658029E+03</rscale>
<asrwt>0</asrwt>
<pdfrwt beam="2">  1        3 0.12105116E-01 0.12212153E+03</pdfrwt>
<pdfrwt beam="1">  1       -3 0.24456674E-01 0.12212153E+03</pdfrwt>
<totfact> 0.18842034E+03</totfact>
</mgrwt>
</event>
<event>
 8    1  0.7550631E-006  0.1466009E+03  0.7546771E-02  0.1214879E+00
          2   -1    0    0  501    0  0.00000000000E+00  0.00000000000E+00  0.65761335935E+03  0.65761335935E+03  0.00000000000E+00 0. -1.
         -2   -1    0    0    0  501 -0.00000000000E+00 -0.00000000000E+00 -0.26619901833E+02  0.26619901833E+02  0.00000000000E+00 0.  1.
         23    2    1    2    0    0  0.73820976309E+02  0.20428227415E+02  0.28660058864E+03  0.30993622413E+03  0.89742501626E+02 0.  0.
         23    2    1    2    0    0 -0.73820976309E+02 -0.20428227415E+02  0.34439286887E+03  0.37429703705E+03  0.12499989919E+03 0.  0.
          5    1    4    4  502    0 -0.14989979780E+02  0.44671601578E+02  0.58827692818E+02  0.75518467435E+02  0.47000000000E+01 0.  1.
         -5    1    4    4    0  502 -0.58830996529E+02 -0.65099828994E+02  0.28556517605E+03  0.29877856962E+03  0.47000000000E+01 0.  1.
        -11    1    3    3    0    0 -0.13531085139E+02  0.24799003233E+02  0.98959295385E+02  0.10291269586E+03  0.00000000000E+00 0.  1.
         11    1    3    3    0    0  0.87352061448E+02 -0.43707758179E+01  0.18764129326E+03  0.20702352827E+03  0.00000000000E+00 0. -1.
<mgrwt>
<rscale>  0 0.13885438E+03</rscale>
<asrwt>0</asrwt>
<pdfrwt beam="1">  1        2 0.10117127E+00 0.14660090E+03</pdfrwt>
<pdfrwt beam="2">  1       -2 0.40953700E-02 0.14660090E+03</pdfrwt>
<totfact> 0.11510947E+04</totfact>
</mgrwt>
</event>
<event>
 8    1  0.7550631E-006  0.2482648E+03  0.7546771E-02  0.1116743E+00
         -1   -1    0    0    0  501 -0.00000000000E+00  0.00000000000E+00  0.14439181177E+03  0.14439181177E+03  0.00000000000E+00 0.  1.
          1   -1    0    0  501    0  0.00000000000E+00 -0.00000000000E+00 -0.53794011170E+03  0.53794011170E+03  0.00000000000E+00 0. -1.
         23    2    1    2    0    0  0.21157362125E+03 -0.35311887456E+02 -0.21483796317E+02  0.23504298182E+03  0.93666019420E+02 0.  0.
         23    2    1    2    0    0 -0.21157362125E+03  0.35311887456E+02 -0.37206450361E+03  0.44728894165E+03  0.12500030346E+03 0.  0.
          5    1    4    4  502    0 -0.47764399722E+02 -0.37148498752E+02 -0.15090826840E+03  0.16265560031E+03  0.47000000000E+01 0.  1.
         -5    1    4    4    0  502 -0.16380922153E+03  0.72460386208E+02 -0.22115623521E+03  0.28463334134E+03  0.47000000000E+01 0.  1.
        -11    1    3    3    0    0  0.93729319612E+02 -0.15108650433E+02  0.37059667247E+02  0.10191602234E+03  0.00000000000E+00 0.  1.
         11    1    3    3    0    0  0.11784430164E+03 -0.20203237022E+02 -0.58543463563E+02  0.13312695948E+03  0.00000000000E+00 0. -1.
<mgrwt>
<rscale>  0 0.24463450E+03</rscale>
<asrwt>0</asrwt>
<pdfrwt beam="2">  1        1 0.82760016E-01 0.24826478E+03</pdfrwt>
<pdfrwt beam="1">  1       -1 0.22214125E-01 0.24826478E+03</pdfrwt>
<totfact> 0.69657486E+02</totfact>
</mgrwt>
</event>
<event>
 8    1  0.7550631E-006  0.1270107E+03  0.7546771E-02  0.1246463E+00
          1   -1    0    0  501    0  0.00000000000E+00  0.00000000000E+00  0.44472461766E+03  0.44472461766E+03  0.00000000000E+00 0. -1.
         -1   -1    0    0    0  501 -0.00000000000E+00 -0.00000000000E+00 -0.29755180834E+02  0.29755180834E+02  0.00000000000E+00 0.  1.
         23    2    1    2    0    0 -0.20818253827E+02  0.84962396026E+01  0.11610025051E+03  0.14974219873E+03  0.91857890962E+02 0.  0.
         23    2    1    2    0    0  0.20818253827E+02 -0.84962396026E+01  0.29886918632E+03  0.32473759977E+03  0.12500452949E+03 0.  0.
          5    1    4    4  502    0 -0.14658676613E+01  0.54239759198E+02  0.87344426842E+02  0.10293317806E+03  0.47000000000E+01 0. -1.
         -5    1    4    4    0  502  0.22284121488E+02 -0.62735998800E+02  0.21152475948E+03  0.22180442171E+03  0.47000000000E+01 0. -1.
        -11    1    3    3    0    0 -0.13767130779E+02 -0.41650801612E+02  0.56607845052E+02  0.71615440278E+02  0.00000000000E+00 0.  1.
         11    1    3    3    0    0 -0.70511230479E+01  0.50147041215E+02  0.59492405456E+02  0.78126758449E+02  0.00000000000E+00 0. -1.
<mgrwt>
<rscale>  0 0.11798272E+03</rscale>
<asrwt>0</asrwt>
<pdfrwt beam="1">  1        1 0.68419167E-01 0.12701070E+03</pdfrwt>
<pdfrwt beam="2">  1       -1 0.45777204E-02 0.12701070E+03</pdfrwt>
<totfact> 0.10028708E+04</totfact>
</mgrwt>
</event>
<event>
 7    1  0.7550631E-006  0.2114481E+03  0.7546771E-02  0.1144865E+00
          3   -1    0    0  501    0  0.00000000000E+00  0.00000000000E+00  0.59687232186E+02  0.59687232186E+02  0.00000000000E+00 0. -1.
         -3   -1    0    0    0  501 -0.00000000000E+00 -0.00000000000E+00 -0.79745125671E+03  0.79745125671E+03  0.00000000000E+00 0.  1.
         23    2    1    2    0    0 -0.74733882655E+02 -0.14837685487E+03 -0.51981528308E+03  0.55347425324E+03  0.92330797654E+02 0.  0.
          5    1    1    2  502    0  0.19784538849E+02  0.14137580214E+03 -0.10337353841E+03  0.17631427581E+03  0.47000000000E+01 0. -1.
         -5    1    1    2    0  502  0.54949343806E+02  0.70010527299E+01 -0.11457520303E+03  0.12734995985E+03  0.47000000000E+01 0.  1.
        -11    1    3    3    0    0 -0.33168550173E+01 -0.10789956655E+03 -0.29062787402E+03  0.31002883599E+03  0.00000000000E+00 0.  1.
         11    1    3    3    0    0 -0.71417027638E+02 -0.40477288322E+02 -0.22918740906E+03  0.24344541724E+03  0.00000000000E+00 0. -1.
<mgrwt>
<rscale>  0 0.20588756E+03</rscale>
<asrwt>0</asrwt>
<pdfrwt beam="1">  1        3 0.91826511E-02 0.21144814E+03</pdfrwt>
<pdfrwt beam="2">  1       -3 0.12268481E+00 0.21144814E+03</pdfrwt>
<totfact> 0.11701302E+02</totfact>
</mgrwt>
</event>
<event>
 7    1  0.7550631E-006  0.6897574E+03  0.7546771E-02  0.9734911E-01
          2   -1    0    0  501    0  0.00000000000E+00  0.00000000000E+00  0.12420661130E+04  0.12420661130E+04  0.00000000000E+00 0. -1.
         -2   -1    0    0    0  501 -0.00000000000E+00 -0.00000000000E+00 -0.95760854644E+02  0.95760854644E+02  0.00000000000E+00 0.  1.
         23    2    1    2    0    0  0.20189903626E+03 -0.58381505789E+02  0.13105966795E+03  0.26415312072E+03  0.91807480964E+02 0.  0.
          5    1    1    2  502    0 -0.21644626879E+03  0.13348321476E+03  0.90017213525E+03  0.93541366196E+03  0.47000000000E+01 0. -1.
         -5    1    1    2    0  502  0.14547232526E+02 -0.75101708973E+02  0.11507345514E+03  0.13826018495E+03  0.47000000000E+01 0.  1.
        -11    1    3    3    0    0  0.71097353953E+02 -0.67343321203E+02  0.62863241825E+02  0.11636899855E+03  0.00000000000E+00 0.  1.
         11    1    3    3    0    0  0.13080168231E+03  0.89618154143E+01  0.68196426128E+02  0.14778412218E+03  0.00000000000E+00 0. -1.
<mgrwt>
<rscale>  0 0.68975738E+03</rscale>
<asrwt>0</asrwt>
<pdfrwt beam="1">  1        2 0.19108708E+00 0.68975738E+03</pdfrwt>
<pdfrwt beam="2">  1       -2 0.14732440E-01 0.68975738E+03</pdfrwt>
<totfact> 0.65253781E+02</totfact>
</mgrwt>
</event>
<event>
 7    1  0.7550631E-006  0.1760725E+03  0.7546771E-02  0.1185326E+00
          3   -1    0    0  501    0  0.00000000000E+00  0.00000000000E+00  0.24007641634E+03  0.24007641634E+03  0.00000000000E+00 0. -1.
         -3   -1    0    0    0  501 -0.00000000000E+00 -0.00000000000E+00 -0.15107874811E+03  0.15107874811E+03  0.00000000000E+00 0.  1.
         23    2    1    2    0    0 -0.63694048409E+02 -0.66760652881E+02 -0.75825883990E+02  0.14997404350E+03  0.90712361150E+02 0.  0.
          5    1    1    2  502    0  0.10502612572E+03  0.21246092212E+02  0.13575392223E+03  0.17301185196E+03  0.47000000000E+01 0. -1.
         -5    1    1    2    0  502 -0.41332077306E+02  0.45514560669E+02  0.29069629988E+02  0.68169268993E+02  0.47000000000E+01 0.  1.
        -11    1    3    3    0    0 -0.35789904665E+02 -0.27464259351E+02  0.14674843823E+02  0.47440002728E+02  0.00000000000E+00 0. -1.
         11    1    3    3    0    0 -0.27904143744E+02 -0.39296393530E+02 -0.90500727813E+02  0.10253404077E+03  0.00000000000E+00 0.  1.
<mgrwt>
<rscale>  0 0.16302218E+03</rscale>
<asrwt>0</asrwt>
<pdfrwt beam="1">  1        3 0.36934833E-01 0.17607251E+03</pdfrwt>
<pdfrwt beam="2">  1       -3 0.23242884E-01 0.17607251E+03</pdfrwt>
<totfact> 0.29895374E+02</totfact>
</mgrwt>
</event>
<event>
 8    1  0.7550631E-006  0.1352726E+03  0.7546771E-02  0.1232169E+00
         -1   -1    0    0    0  501 -0.00000000000E+00  0.00000000000E+00  0.63792284665E+02  0.63792284665E+02  0.00000000000E+00 0.  1.
          1   -1    0    0  501    0  0.00000000000E+00 -0.00000000000E+00 -0.23311346834E+03  0.23311346834E+03  0.00000000000E+00 0. -1.
         23    2    1    2    0    0  0.51679844972E+02 -0.17821078134E+01 -0.47851493604E+02  0.11509939095E+03  0.91017152627E+02 0.  0.
         23    2    1    2    0    0 -0.51679844972E+02  0.17821078134E+01 -0.12146969007E+03  0.18180636206E+03  0.12499874157E+03 0.  0.
          5    1    4    4  502    0 -0.48380463136E+02  0.53732914336E+02 -0.34294409608E+02  0.80162908047E+02  0.47000000000E+01 0. -1.
         -5    1    4    4    0  502 -0.32993818361E+01 -0.51950806522E+02 -0.87175280463E+02  0.10164345401E+03  0.47000000000E+01 0. -1.
        -11    1    3    3    0    0 -0.26171894669E+02 -0.28351654935E+01 -0.73272155947E+01  0.27325708084E+02  0.00000000000E+00 0.  1.
         11    1    3    3    0    0  0.77851739641E+02  0.10530576801E+01 -0.40524278009E+02  0.87773682865E+02  0.00000000000E+00 0. -1.
<mgrwt>
<rscale>  0 0.12687447E+03</rscale>
<asrwt>0</asrwt>
<pdfrwt beam="2">  1        1 0.35863611E-01 0.13527257E+03</pdfrwt>
<pdfrwt beam="1">  1       -1 0.98141976E-02 0.13527257E+03</pdfrwt>
<totfact> 0.71938528E+03</totfact>
</mgrwt>
</event>
<event>
 8    1  0.7550631E-006  0.1312602E+03  0.7546771E-02  0.1239398E+00
         -2   -1    0    0    0  501 -0.00000000000E+00  0.00000000000E+00  0.46523919574E+02  0.46523919574E+02  0.00000000000E+00 0.  1.
          2   -1    0    0  501    0  0.00000000000E+00 -0.00000000000E+00 -0.28596884552E+03  0.28596884552E+03  0.00000000000E+00 0. -1.
         23    2    1    2    0    0 -0.36212858775E+02 -0.16173019694E+02 -0.91076056126E+02  0.13439541733E+03  0.90522607630E+02 0.  0.
         23    2    1    2    0    0  0.36212858775E+02  0.16173019694E+02 -0.14836886982E+03  0.19809734777E+03  0.12512513718E+03 0.  0.
          5    1    4    4  502    0  0.55246482794E+02  0.43631668358E+02 -0.14844367851E+03  0.16435787792E+03  0.47000000000E+01 0.  1.
         -5    1    4    4    0  502 -0.19033624019E+02 -0.27458648663E+02  0.74808684339E-01  0.33739469854E+02  0.47000000000E+01 0.  1.
        -11    1    3    3    0    0 -0.16615749101E+02 -0.47940010931E+01  0.16832579634E+02  0.24132991978E+02  0.00000000000E+00 0.  1.
         11    1    3    3    0    0 -0.19597109674E+02 -0.11379018601E+02 -0.10790863576E+03  0.11026242535E+03  0.00000000000E+00 0. -1.
<mgrwt>
<rscale>  0 0.12227044E+03</rscale>
<asrwt>0</asrwt>
<pdfrwt beam="2">  1        2 0.43995207E-01 0.13126019E+03</pdfrwt>
<pdfrwt beam="1">  1       -2 0.71575261E-02 0.13126019E+03</pdfrwt>
<totfact> 0.12185045E+04</totfact>
</mgrwt>
</event>
<event>
 8    1  0.7550631E-006  0.1877530E+03  0.7546771E-02  0.1165568E+00
          1   -1    0    0  501    0  0.00000000000E+00  0.00000000000E+00  0.10134828623E+04  0.10134828623E+04  0.00000000000E+00 0. -1.
         -1   -1    0    0    0  501 -0.00000000000E+00 -0.00000000000E+00 -0.31093780374E+02  0.31093780374E+02  0.00000000000E+00 0.  1.
         23    2    1    2    0    0  0.11159149998E+03 -0.84706004506E+02  0.44086413197E+03  0.47142704824E+03  0.90854327844E+02 0.  0.
         23    2    1    2    0    0 -0.11159149998E+03  0.84706004506E+02  0.54152494998E+03  0.57314959446E+03  0.12499366428E+03 0.  0.
          5    1    4    4  502    0 -0.11157053525E+03  0.11164832070E+03  0.42308744001E+03  0.45159539828E+03  0.47000000000E+01 0. -1.
         -5    1    4    4    0  502 -0.20964725874E-01 -0.26942316191E+02  0.11843750997E+03  0.12155419618E+03  0.47000000000E+01 0. -1.
        -11    1    3    3    0    0  0.21260010117E+02 -0.50753814157E+02  0.74820130615E+02  0.92876205924E+02  0.00000000000E+00 0. -1.
         11    1    3    3    0    0  0.90331489861E+02 -0.33952190349E+02  0.36604400136E+03  0.37855084232E+03  0.00000000000E+00 0.  1.
<mgrwt>
<rscale>  0 0.18232918E+03</rscale>
<asrwt>0</asrwt>
<pdfrwt beam="1">  1        1 0.15592042E+00 0.18775299E+03</pdfrwt>
<pdfrwt beam="2">  1       -1 0.47836593E-02 0.18775299E+03</pdfrwt>
<totfact> 0.29175117E+03</totfact>
</mgrwt>
</event>
<event>
 8    1  0.7550631E-006  0.2015192E+03  0.7546771E-02  0.1152758E+00
          1   -1    0    0  501    0  0.00000000000E+00  0.00000000000E+00  0.79115122293E+03  0.79115122293E+03  0.00000000000E+00 0. -1.
         -1   -1    0    0    0  501 -0.00000000000E+00 -0.00000000000E+00 -0.51632613730E+02  0.51632613730E+02  0.00000000000E+00 0.  1.
         23    2    1    2    0    0  0.14264782694E+03 -0.68114690480E+02  0.22001025982E+03  0.28555954513E+03  0.90286908243E+02 0.  0.
         23    2    1    2    0    0 -0.14264782694E+03  0.68114690480E+02  0.51950834939E+03  0.55722429153E+03  0.12498788902E+03 0.  0.
          5    1    4    4  502    0 -0.11384323904E+03  0.74942507241E+02  0.23942308918E+03  0.27553977589E+03  0.47000000000E+01 0.  1.
         -5    1    4    4    0  502 -0.28804587896E+02 -0.68278167610E+01  0.28008526021E+03  0.28168451564E+03  0.47000000000E+01 0.  1.
        -11    1    3    3    0    0  0.11283998592E+03 -0.16925042541E+02  0.18317004127E+03  0.21580218605E+03  0.00000000000E+00 0. -1.
         11    1    3    3    0    0  0.29807841025E+02 -0.51189647939E+02  0.36840218545E+02  0.69757359075E+02  0.00000000000E+00 0.  1.
<mgrwt>
<rscale>  0 0.19646308E+03</rscale>
<asrwt>0</asrwt>
<pdfrwt beam="1">  1        1 0.12171556E+00 0.20151920E+03</pdfrwt>
<pdfrwt beam="2">  1       -1 0.79434796E-02 0.20151920E+03</pdfrwt>
<totfact> 0.20305116E+03</totfact>
</mgrwt>
</event>
<event>
 8    1  0.7550631E-006  0.1573262E+03  0.7546771E-02  0.1200149E+00
          2   -1    0    0  501    0  0.00000000000E+00  0.00000000000E+00  0.66139852506E+02  0.66139852506E+02  0.00000000000E+00 0. -1.
         -2   -1    0    0    0  501 -0.00000000000E+00 -0.00000000000E+00 -0.39894850891E+03  0.39894850891E+03  0.00000000000E+00 0.  1.
         23    2    1    2    0    0 -0.59428453392E+02 -0.74806071977E+02 -0.26131730587E+03  0.29228051934E+03  0.89518032581E+02 0.  0.
         23    2    1    2    0    0  0.59428453392E+02  0.74806071977E+02 -0.71491350525E+02  0.17280784208E+03  0.12499539034E+03 0.  0.
          5    1    4    4  502    0 -0.67150834442E+01  0.88871361019E+02 -0.45826335787E+02  0.10032623887E+03  0.47000000000E+01 0. -1.
         -5    1    4    4    0  502  0.66143536836E+02 -0.14065289042E+02 -0.25665014738E+02  0.72481603200E+02  0.47000000000E+01 0. -1.
        -11    1    3    3    0    0 -0.22608800517E+02 -0.88681152816E+02 -0.18673235408E+03  0.20795306390E+03  0.00000000000E+00 0.  1.
         11    1    3    3    0    0 -0.36819652875E+02  0.13875080838E+02 -0.74584951797E+02  0.84327455438E+02  0.00000000000E+00 0. -1.
<mgrwt>
<rscale>  0 0.15026432E+03</rscale>
<asrwt>0</asrwt>
<pdfrwt beam="1">  1        2 0.10175362E-01 0.15732621E+03</pdfrwt>
<pdfrwt beam="2">  1       -2 0.61376694E-01 0.15732621E+03</pdfrwt>
<totfact> 0.15446859E+03</totfact>
</mgrwt>
</event>
<event>
 8    1  0.7550631E-006  0.1422528E+03  0.7546771E-02  0.1220444E+00
         -2   -1    0    0    0  501 -0.00000000000E+00  0.00000000000E+00  0.35323616757E+02  0.35323616757E+02  0.00000000000E+00 0.  1.
          2   -1    0    0  501    0  0.00000000000E+00 -0.00000000000E+00 -0.65417899100E+03  0.65417899100E+03  0.00000000000E+00 0. -1.
         23    2    1    2    0    0  0.45330494876E+02 -0.50567367898E+02 -0.10257454546E+03  0.15398252825E+03  0.92613007552E+02 0.  0.
         23    2    1    2    0    0 -0.45330494876E+02  0.50567367898E+02 -0.51628082879E+03  0.53552007951E+03  0.12499579562E+03 0.  0.
          5    1    4    4  502    0  0.36868047709E+02  0.44558669056E+02 -0.25453239534E+03  0.26106236459E+03  0.47000000000E+01 0. -1.
         -5    1    4    4    0  502 -0.82198542585E+02  0.60086988419E+01 -0.26174843346E+03  0.27445771492E+03  0.47000000000E+01 0. -1.
        -11    1    3    3    0    0  0.26642361273E+02 -0.84078065006E+01  0.12052707407E+02  0.30426540720E+02  0.00000000000E+00 0.  1.
         11    1    3    3    0    0  0.18688133603E+02 -0.42159561398E+02 -0.11462725286E+03  0.12355598753E+03  0.00000000000E+00 0. -1.
<mgrwt>
<rscale>  0 0.13484115E+03</rscale>
<asrwt>0</asrwt>
<pdfrwt beam="2">  1        2 0.10064291E+00 0.14225281E+03</pdfrwt>
<pdfrwt beam="1">  1       -2 0.54344031E-02 0.14225281E+03</pdfrwt>
<totfact> 0.75633015E+03</totfact>
</mgrwt>
</event>
<event>
 8    1  0.7550631E-006  0.1288955E+03  0.7546771E-02  0.1238325E+00
         -2   -1    0    0    0  501 -0.00000000000E+00  0.00000000000E+00  0.72020609168E+02  0.72020609168E+02  0.00000000000E+00 0.  1.
          2   -1    0    0  501    0  0.00000000000E+00 -0.00000000000E+00 -0.43295079638E+03  0.43295079638E+03  0.00000000000E+00 0. -1.
         23    2    1    2    0    0 -0.37431673702E+01 -0.31230474514E+02  0.14848887041E+02  0.10770076408E+03  0.10192944274E+03 0.  0.
         23    2    1    2    0    0  0.37431673702E+01  0.31230474514E+02 -0.37577907425E+03  0.39727064147E+03  0.12499878434E+03 0.  0.
          5    1    4    4  502    0 -0.29490578481E+02  0.37221081555E+01 -0.33914792287E+03  0.34048047212E+03  0.47000000000E+01 0. -1.
         -5    1    4    4    0  502  0.33233745852E+02  0.27508366358E+02 -0.36631151383E+02  0.56790169349E+02  0.47000000000E+01 0. -1.
        -11    1    3    3    0    0 -0.30129550305E+02 -0.49025277121E+02  0.37458162461E+02  0.68661354001E+02  0.00000000000E+00 0.  1.
         11    1    3    3    0    0  0.26386382935E+02  0.17794802607E+02 -0.22609275420E+02  0.39039410078E+02  0.00000000000E+00 0. -1.
<mgrwt>
<rscale>  0 0.12293942E+03</rscale>
<asrwt>0</asrwt>
<pdfrwt beam="2">  1        2 0.66607813E-01 0.12889550E+03</pdfrwt>
<pdfrwt beam="1">  1       -2 0.11080094E-01 0.12889550E+03</pdfrwt>
<totfact> 0.39689176E+03</totfact>
</mgrwt>
</event>
<event>
 8    1  0.7550631E-006  0.1262780E+03  0.7546771E-02  0.1247861E+00
          1   -1    0    0  501    0  0.00000000000E+00  0.00000000000E+00  0.71721926275E+02  0.71721926275E+02  0.00000000000E+00 0. -1.
         -1   -1    0    0    0  501 -0.00000000000E+00 -0.00000000000E+00 -0.17171138130E+03  0.17171138130E+03  0.00000000000E+00 0.  1.
         23    2    1    2    0    0  0.10005315177E+02  0.14750820653E+02 -0.59254431223E+02  0.11074771062E+03  0.91849195676E+02 0.  0.
         23    2    1    2    0    0 -0.10005315177E+02 -0.14750820653E+02 -0.40735023807E+02  0.13268559696E+03  0.12501372898E+03 0.  0.
          5    1    4    4  502    0  0.37332741022E+02 -0.37164740601E+02  0.16071761123E+02  0.55275157185E+02  0.47000000000E+01 0. -1.
         -5    1    4    4    0  502 -0.47338056199E+02  0.22413919948E+02 -0.56806784929E+02  0.77410439775E+02  0.47000000000E+01 0. -1.
        -11    1    3    3    0    0  0.31003186255E+02  0.41595224512E+02 -0.56270906859E+02  0.76536104022E+02  0.00000000000E+00 0.  1.
         11    1    3    3    0    0 -0.20997871079E+02 -0.26844403859E+02 -0.29835243643E+01  0.34211606598E+02  0.00000000000E+00 0. -1.
<mgrwt>
<rscale>  0 0.11715783E+03</rscale>
<asrwt>0</asrwt>
<pdfrwt beam="1">  1        1 0.11034143E-01 0.12627797E+03</pdfrwt>
<pdfrwt beam="2">  1       -1 0.26417135E-01 0.12627797E+03</pdfrwt>
<totfact> 0.67180980E+03</totfact>
</mgrwt>
</event>
<event>
 8    1  0.7550631E-006  0.1364880E+03  0.7546771E-02  0.1229779E+00
          2   -1    0    0  501    0  0.00000000000E+00  0.00000000000E+00  0.42541822270E+03  0.42541822270E+03  0.00000000000E+00 0. -1.
         -2   -1    0    0    0  501 -0.00000000000E+00 -0.00000000000E+00 -0.36268932038E+02  0.36268932038E+02  0.00000000000E+00 0.  1.
         23    2    1    2    0    0  0.34946321350E+02 -0.42236220571E+02  0.12673060390E+03  0.16589575950E+03  0.91954409095E+02 0.  0.
         23    2    1    2    0    0 -0.34946321350E+02  0.42236220571E+02  0.26241868676E+03  0.29579139524E+03  0.12499535443E+03 0.  0.
          5    1    4    4  502    0 -0.49791411700E+02 -0.14325932740E+02  0.39605598261E+02  0.65384328716E+02  0.47000000000E+01 0.  1.
         -5    1    4    4    0  502  0.14845090350E+02  0.56562153311E+02  0.22281308850E+03  0.23040706652E+03  0.47000000000E+01 0.  1.
        -11    1    3    3    0    0  0.13894061358E+02  0.17680992123E+02  0.89494755436E+02  0.92276614990E+02  0.00000000000E+00 0. -1.
         11    1    3    3    0    0  0.21052259992E+02 -0.59917212694E+02  0.37235848461E+02  0.73619144510E+02  0.00000000000E+00 0.  1.
<mgrwt>
<rscale>  0 0.12844659E+03</rscale>
<asrwt>0</asrwt>
<pdfrwt beam="1">  1        2 0.65448954E-01 0.13648803E+03</pdfrwt>
<pdfrwt beam="2">  1       -2 0.55798360E-02 0.13648803E+03</pdfrwt>
<totfact> 0.11700086E+04</totfact>
</mgrwt>
</event>
<event>
 8    1  0.7550631E-006  0.1425164E+03  0.7546771E-02  0.1222558E+00
         -2   -1    0    0    0  501 -0.00000000000E+00  0.00000000000E+00  0.33310575564E+02  0.33310575564E+02  0.00000000000E+00 0.  1.
          2   -1    0    0  501    0  0.00000000000E+00 -0.00000000000E+00 -0.95979921885E+03  0.95979921885E+03  0.00000000000E+00 0. -1.
         23    2    1    2    0    0  0.57847167453E+02 -0.36501522449E+02 -0.81817940821E+02  0.13650047508E+03  0.85202983121E+02 0.  0.
         23    2    1    2    0    0 -0.57847167453E+02  0.36501522449E+02 -0.84467070246E+03  0.85660931933E+03  0.12502909441E+03 0.  0.
          5    1    4    4  502    0 -0.52415161970E+02  0.22588767666E+02 -0.83738256811E+03  0.83933858306E+03  0.47000000000E+01 0.  1.
         -5    1    4    4    0  502 -0.54320054836E+01  0.13912754783E+02 -0.72881343466E+01  0.17270736275E+02  0.47000000000E+01 0.  1.
        -11    1    3    3    0    0  0.29733800651E+02  0.21093307623E+02 -0.55439679163E+01  0.36874952310E+02  0.00000000000E+00 0.  1.
         11    1    3    3    0    0  0.28113366802E+02 -0.57594830072E+02 -0.76273972905E+02  0.99625522767E+02  0.00000000000E+00 0. -1.
<mgrwt>
<rscale>  0 0.13335707E+03</rscale>
<asrwt>0</asrwt>
<pdfrwt beam="2">  1        2 0.14766142E+00 0.14251642E+03</pdfrwt>
<pdfrwt beam="1">  1       -2 0.51247039E-02 0.14251642E+03</pdfrwt>
<totfact> 0.51232776E+03</totfact>
</mgrwt>
</event>
<event>
 8    1  0.7550631E-006  0.1299940E+03  0.7546771E-02  0.1240074E+00
          4   -1    0    0  501    0  0.00000000000E+00  0.00000000000E+00  0.30778182739E+02  0.30778182739E+02  0.00000000000E+00 0. -1.
         -4   -1    0    0    0  501 -0.00000000000E+00 -0.00000000000E+00 -0.43160317867E+03  0.43160317867E+03  0.00000000000E+00 0.  1.
         23    2    1    2    0    0 -0.17555625910E+02 -0.31107554885E+02 -0.18322899268E+03  0.20891248799E+03  0.93785307519E+02 0.  0.
         23    2    1    2    0    0  0.17555625910E+02  0.31107554885E+02 -0.21759600325E+03  0.25346887342E+03  0.12499027639E+03 0.  0.
          5    1    4    4  502    0  0.11025578687E+02 -0.85324369886E+01 -0.21214549950E+03  0.21265504655E+03  0.47000000000E+01 0. -1.
         -5    1    4    4    0  502  0.65300472233E+01  0.39639991874E+02 -0.54505037498E+01  0.40813826868E+02  0.47000000000E+01 0. -1.
        -11    1    3    3    0    0  0.37281075222E+02 -0.16183724629E+02 -0.52725513159E+02  0.66571549858E+02  0.00000000000E+00 0.  1.
         11    1    3    3    0    0 -0.54836701132E+02 -0.14923830256E+02 -0.13050347952E+03  0.14234093813E+03  0.00000000000E+00 0. -1.
<mgrwt>
<rscale>  0 0.12185116E+03</rscale>
<asrwt>0</asrwt>
<pdfrwt beam="1">  1        4 0.47351053E-02 0.12999404E+03</pdfrwt>
<pdfrwt beam="2">  1       -4 0.66400486E-01 0.12999404E+03</pdfrwt>
<totfact> 0.91357356E+02</totfact>
</mgrwt>
</event>
<event>
 8    1  0.7550631E-006  0.1363739E+03  0.7546771E-02  0.1230337E+00
         -1   -1    0    0    0  501 -0.00000000000E+00  0.00000000000E+00  0.11436898289E+03  0.11436898289E+03  0.00000000000E+00 0. -1.
          1   -1    0    0  501    0  0.00000000000E+00 -0.00000000000E+00 -0.14495763579E+03  0.14495763579E+03  0.00000000000E+00 0.  1.
         23    2    1    2    0    0  0.51309658525E+02 -0.18425956158E+02  0.29771009797E+02  0.11019204711E+03  0.91015258632E+02 0.  0.
         23    2    1    2    0    0 -0.51309658525E+02  0.18425956158E+02 -0.60359662701E+02  0.14913457157E+03  0.12500253853E+03 0.  0.
          5    1    4    4  502    0 -0.47907276220E+02 -0.47839895106E+02 -0.17788281185E+02  0.70158931193E+02  0.47000000000E+01 0. -1.
         -5    1    4    4    0  502 -0.34023823050E+01  0.66265851264E+02 -0.42571381516E+02  0.78975640379E+02  0.47000000000E+01 0. -1.
        -11    1    3    3    0    0  0.19864015204E+02  0.37078065192E+02  0.15450518366E+02  0.44811611622E+02  0.00000000000E+00 0.  1.
         11    1    3    3    0    0  0.31445643321E+02 -0.55504021350E+02  0.14320491431E+02  0.65380435489E+02  0.00000000000E+00 0. -1.
<mgrwt>
<rscale>  0 0.12807703E+03</rscale>
<asrwt>0</asrwt>
<pdfrwt beam="2">  1        1 0.22301175E-01 0.13637387E+03</pdfrwt>
<pdfrwt beam="1">  1       -1 0.17595228E-01 0.13637387E+03</pdfrwt>
<totfact> 0.52587000E+03</totfact>
</mgrwt>
</event>
<event>
 8    1  0.7550631E-006  0.1483205E+03  0.7546771E-02  0.1211856E+00
         -1   -1    0    0    0  501 -0.00000000000E+00  0.00000000000E+00  0.26886768194E+02  0.26886768194E+02  0.00000000000E+00 0.  1.
          1   -1    0    0  501    0  0.00000000000E+00 -0.00000000000E+00 -0.71043311111E+03  0.71043311111E+03  0.00000000000E+00 0. -1.
         23    2    1    2    0    0 -0.74898440144E+02 -0.27641846842E+02 -0.22959513529E+03  0.25975241772E+03  0.91561696850E+02 0.  0.
         23    2    1    2    0    0  0.74898440144E+02  0.27641846842E+02 -0.45395120762E+03  0.47756746158E+03  0.12500053370E+03 0.  0.
          5    1    4    4  502    0 -0.91153878754E+01  0.30164605138E+02 -0.25177150022E+02  0.40607543419E+02  0.47000000000E+01 0. -1.
         -5    1    4    4    0  502  0.84013828020E+02 -0.25227582963E+01 -0.42877405760E+03  0.43695991816E+03  0.47000000000E+01 0. -1.
        -11    1    3    3    0    0 -0.22796064310E+02  0.33232037556E+02 -0.93615895601E+02  0.10192136566E+03  0.00000000000E+00 0. -1.
         11    1    3    3    0    0 -0.52102375834E+02 -0.60873884398E+02 -0.13597923969E+03  0.15783105207E+03  0.00000000000E+00 0.  1.
<mgrwt>
<rscale>  0 0.14110005E+03</rscale>
<asrwt>0</asrwt>
<pdfrwt beam="2">  1        1 0.10929741E+00 0.14832054E+03</pdfrwt>
<pdfrwt beam="1">  1       -1 0.41364255E-02 0.14832054E+03</pdfrwt>
<totfact> 0.62601971E+03</totfact>
</mgrwt>
</event>
<event>
 8    1  0.7550631E-006  0.2569640E+03  0.7546771E-02  0.1110580E+00
         -2   -1    0    0    0  501 -0.00000000000E+00  0.00000000000E+00  0.28330890312E+03  0.28330890312E+03  0.00000000000E+00 0.  1.
          2   -1    0    0  501    0  0.00000000000E+00 -0.00000000000E+00 -0.39586864335E+03  0.39586864335E+03  0.00000000000E+00 0. -1.
         23    2    1    2    0    0 -0.85946902154E+02  0.20740780023E+03  0.16819210320E+03  0.29858311635E+03  0.10226645689E+03 0.  0.
         23    2    1    2    0    0  0.85946902154E+02 -0.20740780023E+03 -0.28075184343E+03  0.38059443012E+03  0.12500262823E+03 0.  0.
          5    1    4    4  502    0  0.81545022662E+02 -0.60408466976E+02 -0.16331532540E+03  0.19233501791E+03  0.47000000000E+01 0.  1.
         -5    1    4    4    0  502  0.44018794925E+01 -0.14699933325E+03 -0.11743651803E+03  0.18825941221E+03  0.47000000000E+01 0.  1.
        -11    1    3    3    0    0 -0.45384010487E+02  0.73557060241E+02  0.12543866882E+03  0.15233256105E+03  0.00000000000E+00 0. -1.
         11    1    3    3    0    0 -0.40562891667E+02  0.13385073998E+03  0.42753434374E+02  0.14625055530E+03  0.00000000000E+00 0.  1.
<mgrwt>
<rscale>  0 0.25435994E+03</rscale>
<asrwt>0</asrwt>
<pdfrwt beam="2">  1        2 0.60902868E-01 0.25696405E+03</pdfrwt>
<pdfrwt beam="1">  1       -2 0.43585985E-01 0.25696405E+03</pdfrwt>
<totfact> 0.40977126E+02</totfact>
</mgrwt>
</event>
<event>
 8    1  0.7550631E-006  0.1915147E+03  0.7546771E-02  0.1158453E+00
          2   -1    0    0  501    0  0.00000000000E+00  0.00000000000E+00  0.15748489494E+04  0.15748489494E+04  0.00000000000E+00 0. -1.
         -2   -1    0    0    0  501 -0.00000000000E+00 -0.00000000000E+00 -0.27115550531E+02  0.27115550531E+02  0.00000000000E+00 0.  1.
         23    2    1    2    0    0  0.34435699256E+02 -0.14095186792E+03  0.43584415052E+03  0.47370229919E+03  0.11567410367E+03 0.  0.
         23    2    1    2    0    0 -0.34435699256E+02  0.14095186792E+03  0.11118892484E+04  0.11282622008E+04  0.12499858629E+03 0.  0.
          5    1    4    4  502    0 -0.11424718792E+02  0.85699957436E+02  0.25553242869E+03  0.26980348221E+03  0.47000000000E+01 0.  1.
         -5    1    4    4    0  502 -0.23010980464E+02  0.55251910487E+02  0.85635681967E+03  0.85845871854E+03  0.47000000000E+01 0.  1.
        -11    1    3    3    0    0  0.73836532117E+02 -0.11358656568E+03  0.28806468377E+03  0.31833159349E+03  0.00000000000E+00 0. -1.
         11    1    3    3    0    0 -0.39400832860E+02 -0.27365302247E+02  0.14777946675E+03  0.15537070570E+03  0.00000000000E+00 0.  1.
<mgrwt>
<rscale>  0 0.19000922E+03</rscale>
<asrwt>0</asrwt>
<pdfrwt beam="1">  1        2 0.24228438E+00 0.19151473E+03</pdfrwt>
<pdfrwt beam="2">  1       -2 0.41716244E-02 0.19151473E+03</pdfrwt>
<totfact> 0.32036560E+03</totfact>
</mgrwt>
</event>
<event>
 8    1  0.7550631E-006  0.2316579E+03  0.7546771E-02  0.1128390E+00
         -2   -1    0    0    0  501 -0.00000000000E+00  0.00000000000E+00  0.14537920736E+03  0.14537920736E+03  0.00000000000E+00 0.  1.
          2   -1    0    0  501    0  0.00000000000E+00 -0.00000000000E+00 -0.59484958674E+03  0.59484958674E+03  0.00000000000E+00 0. -1.
         23    2    1    2    0    0  0.15223718228E+03 -0.12190782940E+03  0.20204156191E+02  0.21653085683E+03  0.91867978622E+02 0.  0.
         23    2    1    2    0    0 -0.15223718228E+03  0.12190782940E+03 -0.46967453557E+03  0.52369793727E+03  0.12501072592E+03 0.  0.
          5    1    4    4  502    0 -0.16415052455E+03  0.13550196045E+03 -0.43534031938E+03  0.48461269038E+03  0.47000000000E+01 0. -1.
         -5    1    4    4    0  502  0.11913342275E+02 -0.13594131045E+02 -0.34334216189E+02  0.39085246888E+02  0.47000000000E+01 0. -1.
        -11    1    3    3    0    0  0.11067278946E+02 -0.60312823814E+02  0.10412222339E+02  0.62197554242E+02  0.00000000000E+00 0.  1.
         11    1    3    3    0    0  0.14116990333E+03 -0.61595005590E+02  0.97919338517E+01  0.15433330259E+03  0.00000000000E+00 0. -1.
<mgrwt>
<rscale>  0 0.22753096E+03</rscale>
<asrwt>0</asrwt>
<pdfrwt beam="2">  1        2 0.91515320E-01 0.23165785E+03</pdfrwt>
<pdfrwt beam="1">  1       -2 0.22366032E-01 0.23165785E+03</pdfrwt>
<totfact> 0.88427407E+02</totfact>
</mgrwt>
</event>
<event>
 8    1  0.7550631E-006  0.1371966E+03  0.7546771E-02  0.1225532E+00
          3   -1    0    0  501    0  0.00000000000E+00  0.00000000000E+00  0.55854814388E+02  0.55854814388E+02  0.00000000000E+00 0. -1.
         -3   -1    0    0    0  501 -0.00000000000E+00 -0.00000000000E+00 -0.29395380588E+03  0.29395380588E+03  0.00000000000E+00 0.  1.
         23    2    1    2    0    0 -0.58753758238E+02 -0.38505195346E+02 -0.13949890297E+03  0.18085632989E+03  0.91183408348E+02 0.  0.
         23    2    1    2    0    0  0.58753758238E+02  0.38505195346E+02 -0.98600088528E+02  0.16895229038E+03  0.11784839749E+03 0.  0.
          5    1    4    4  502    0  0.35770901332E+02 -0.40385832425E+02 -0.30676933857E+02  0.62239353416E+02  0.47000000000E+01 0. -1.
         -5    1    4    4    0  502  0.22982856906E+02  0.78891027772E+02 -0.67923154671E+02  0.10671293696E+03  0.47000000000E+01 0.  1.
        -11    1    3    3    0    0 -0.57995452345E+02 -0.19342129157E+02 -0.14781038514E+03  0.15995468236E+03  0.00000000000E+00 0.  1.
         11    1    3    3    0    0 -0.75830589325E+00 -0.19163066189E+02  0.83114821768E+01  0.20901647533E+02  0.00000000000E+00 0. -1.
<mgrwt>
<rscale>  0 0.13130480E+03</rscale>
<asrwt>0</asrwt>
<pdfrwt beam="1">  1        3 0.85930483E-02 0.13719657E+03</pdfrwt>
<pdfrwt beam="2">  1       -3 0.45223663E-01 0.13719657E+03</pdfrwt>
<totfact> 0.10690964E+03</totfact>
</mgrwt>
</event>
<event>
 8    1  0.7550631E-006  0.1739446E+03  0.7546771E-02  0.1179389E+00
         -3   -1    0    0    0  501 -0.00000000000E+00  0.00000000000E+00  0.60228921033E+03  0.60228921033E+03  0.00000000000E+00 0.  1.
          3   -1    0    0  501    0  0.00000000000E+00 -0.00000000000E+00 -0.45274721793E+02  0.45274721793E+02  0.00000000000E+00 0. -1.
         23    2    1    2    0    0  0.41735118690E+02 -0.11353261069E+03  0.30498440241E+03  0.34133541880E+03  0.94143021981E+02 0.  0.
         23    2    1    2    0    0 -0.41735118690E+02  0.11353261069E+03  0.25203008612E+03  0.30622851332E+03  0.12500105696E+03 0.  0.
          5    1    4    4  502    0  0.22722744692E+02 -0.32723403263E+01  0.10523318801E+03  0.10781069147E+03  0.47000000000E+01 0. -1.
         -5    1    4    4    0  502 -0.64457863382E+02  0.11680495101E+03  0.14679689811E+03  0.19841782185E+03  0.47000000000E+01 0. -1.
        -11    1    3    3    0    0  0.35344861001E+02 -0.12053105129E+02  0.29202716029E+02  0.47406066763E+02  0.00000000000E+00 0.  1.
         11    1    3    3    0    0  0.63902576881E+01 -0.10147950556E+03  0.27578168638E+03  0.29392935203E+03  0.00000000000E+00 0. -1.
<mgrwt>
<rscale>  0 0.16853061E+03</rscale>
<asrwt>0</asrwt>
<pdfrwt beam="2">  1        3 0.69653422E-02 0.17394464E+03</pdfrwt>
<pdfrwt beam="1">  1       -3 0.92659873E-01 0.17394464E+03</pdfrwt>
<totfact> 0.34571043E+02</totfact>
</mgrwt>
</event>
<event>
 8    1  0.7550631E-006  0.1462927E+03  0.7546771E-02  0.1214843E+00
         -1   -1    0    0    0  501 -0.00000000000E+00  0.00000000000E+00  0.28653443498E+02  0.28653443498E+02  0.00000000000E+00 0.  1.
          1   -1    0    0  501    0  0.00000000000E+00 -0.00000000000E+00 -0.61400799724E+03  0.61400799724E+03  0.00000000000E+00 0. -1.
         23    2    1    2    0    0 -0.64262227526E+02 -0.40629536556E+02 -0.25115375308E+03  0.27784405828E+03  0.91316591633E+02 0.  0.
         23    2    1    2    0    0  0.64262227526E+02  0.40629536556E+02 -0.33420080066E+03  0.36481738246E+03  0.12498461607E+03 0.  0.
          5    1    4    4  502    0 -0.27334220412E+02  0.28570031838E+02 -0.18522922315E+03  0.18946071211E+03  0.47000000000E+01 0. -1.
         -5    1    4    4    0  502  0.91596447938E+02  0.12059504718E+02 -0.14897157751E+03  0.17535667035E+03  0.47000000000E+01 0. -1.
        -11    1    3    3    0    0 -0.79392021997E+02 -0.70556026558E+01 -0.14468626769E+03  0.16518774393E+03  0.00000000000E+00 0.  1.
         11    1    3    3    0    0  0.15129794470E+02 -0.33573933900E+02 -0.10646748539E+03  0.11265631435E+03  0.00000000000E+00 0. -1.
<mgrwt>
<rscale>  0 0.13888101E+03</rscale>
<asrwt>0</asrwt>
<pdfrwt beam="2">  1        1 0.94462776E-01 0.14629268E+03</pdfrwt>
<pdfrwt beam="1">  1       -1 0.44082217E-02 0.14629268E+03</pdfrwt>
<totfact> 0.69921429E+03</totfact>
</mgrwt>
</event>
<event>
 8    1  0.7550631E-006  0.1489041E+03  0.7546771E-02  0.1202004E+00
          1   -1    0    0  501    0  0.00000000000E+00  0.00000000000E+00  0.49753703640E+03  0.49753703640E+03  0.00000000000E+00 0. -1.
         -1   -1    0    0    0  501 -0.00000000000E+00 -0.00000000000E+00 -0.71244835106E+02  0.71244835106E+02  0.00000000000E+00 0.  1.
         23    2    1    2    0    0  0.90759775434E+01 -0.78819485993E+02  0.38810646193E+02  0.15387880871E+03  0.12600609815E+03 0.  0.
         23    2    1    2    0    0 -0.90759775434E+01  0.78819485993E+02  0.38748155510E+03  0.41490306279E+03  0.12533040825E+03 0.  0.
          5    1    4    4  502    0 -0.14362797229E+02  0.78544057925E+02  0.10336170514E+03  0.13069503077E+03  0.47000000000E+01 0. -1.
         -5    1    4    4    0  502  0.52868196858E+01  0.27542806763E+00  0.28411984996E+03  0.28420803202E+03  0.47000000000E+01 0.  1.
        -11    1    3    3    0    0 -0.11874853220E+02 -0.39608986582E+02 -0.43694239358E+02  0.60158711008E+02  0.00000000000E+00 0.  1.
         11    1    3    3    0    0  0.20950830764E+02 -0.39210499411E+02  0.82504885551E+02  0.93720097703E+02  0.00000000000E+00 0. -1.
<mgrwt>
<rscale>  0 0.14876103E+03</rscale>
<asrwt>0</asrwt>
<pdfrwt beam="1">  1        1 0.76544157E-01 0.14890407E+03</pdfrwt>
<pdfrwt beam="2">  1       -1 0.10960744E-01 0.14890407E+03</pdfrwt>
<totfact> 0.23571043E+03</totfact>
</mgrwt>
</event>
<event>
 8    1  0.7550631E-006  0.2216568E+03  0.7546771E-02  0.1135996E+00
         -2   -1    0    0    0  501 -0.00000000000E+00  0.00000000000E+00  0.10783356499E+03  0.10783356499E+03  0.00000000000E+00 0.  1.
          2   -1    0    0  501    0  0.00000000000E+00 -0.00000000000E+00 -0.47501392178E+03  0.47501392178E+03  0.00000000000E+00 0. -1.
         23    2    1    2    0    0  0.33243173057E+02  0.18001166092E+03 -0.78485745230E+02  0.21887452274E+03  0.90756475677E+02 0.  0.
         23    2    1    2    0    0 -0.33243173057E+02 -0.18001166092E+03 -0.28869461156E+03  0.36397296404E+03  0.12498973232E+03 0.  0.
          5    1    4    4  502    0 -0.63090094942E+02 -0.11774820613E+03 -0.25291243341E+03  0.28606256152E+03  0.47000000000E+01 0. -1.
         -5    1    4    4    0  502  0.29846921885E+02 -0.62263454786E+02 -0.35782178147E+02  0.77910402521E+02  0.47000000000E+01 0. -1.
        -11    1    3    3    0    0 -0.23370246548E+02  0.74001196017E+02 -0.58179689040E+02  0.96990832827E+02  0.00000000000E+00 0. -1.
         11    1    3    3    0    0  0.56613419605E+02  0.10601046490E+03 -0.20306056190E+02  0.12188368991E+03  0.00000000000E+00 0.  1.
<mgrwt>
<rscale>  0 0.21718895E+03</rscale>
<asrwt>0</asrwt>
<pdfrwt beam="2">  1        2 0.73079065E-01 0.22165681E+03</pdfrwt>
<pdfrwt beam="1">  1       -2 0.16589779E-01 0.22165681E+03</pdfrwt>
<totfact> 0.18963995E+03</totfact>
</mgrwt>
</event>
<event>
 8    1  0.7550631E-006  0.2320220E+03  0.7546771E-02  0.1128165E+00
          2   -1    0    0  501    0  0.00000000000E+00  0.00000000000E+00  0.14706295322E+04  0.14706295322E+04  0.00000000000E+00 0. -1.
         -2   -1    0    0    0  501 -0.00000000000E+00 -0.00000000000E+00 -0.35365412707E+02  0.35365412707E+02  0.00000000000E+00 0.  1.
         23    2    1    2    0    0 -0.50223983253E+02  0.18893923927E+03  0.54937987325E+03  0.59023017087E+03  0.91284855500E+02 0.  0.
         23    2    1    2    0    0  0.50223983253E+02 -0.18893923927E+03  0.88588424621E+03  0.91576477400E+03  0.12495494785E+03 0.  0.
          5    1    4    4  502    0  0.29292600370E+02 -0.20340756487E+03  0.80569008273E+03  0.83149942471E+03  0.47000000000E+01 0. -1.
         -5    1    4    4    0  502  0.20931382883E+02  0.14468325603E+02  0.80194163476E+02  0.84265349289E+02  0.47000000000E+01 0. -1.
        -11    1    3    3    0    0 -0.67518897739E+02  0.18231911815E+03  0.46814118569E+03  0.50690751833E+03  0.00000000000E+00 0.  1.
         11    1    3    3    0    0  0.17294914486E+02  0.66201211196E+01  0.81238687562E+02  0.83322652548E+02  0.00000000000E+00 0. -1.
<mgrwt>
<rscale>  0 0.22784571E+03</rscale>
<asrwt>0</asrwt>
<pdfrwt beam="1">  1        2 0.22625065E+00 0.23202203E+03</pdfrwt>
<pdfrwt beam="2">  1       -2 0.54408339E-02 0.23202203E+03</pdfrwt>
<totfact> 0.24346591E+03</totfact>
</mgrwt>
</event>
<event>
 8    1  0.7550631E-006  0.2016428E+03  0.7546771E-02  0.1152856E+00
         -2   -1    0    0    0  501 -0.00000000000E+00  0.00000000000E+00  0.55718931820E+02  0.55718931820E+02  0.00000000000E+00 0.  1.
          2   -1    0    0  501    0  0.00000000000E+00 -0.00000000000E+00 -0.72471477198E+03  0.72471477198E+03  0.00000000000E+00 0. -1.
         23    2    1    2    0    0 -0.12136745194E+03 -0.10151520591E+03 -0.20005562937E+03  0.26997827423E+03  0.88490780831E+02 0.  0.
         23    2    1    2    0    0  0.12136745194E+03  0.10151520591E+03 -0.46894021079E+03  0.51045542957E+03  0.12499771544E+03 0.  0.
          5    1    4    4  502    0 -0.17058526946E+02  0.23267839718E+01 -0.12887578672E+03  0.13010559430E+03  0.47000000000E+01 0.  1.
         -5    1    4    4    0  502  0.13842597888E+03  0.99188421934E+02 -0.34006442407E+03  0.38034983527E+03  0.47000000000E+01 0.  1.
        -11    1    3    3    0    0 -0.96221191201E+02 -0.23164474086E+02 -0.11177554131E+03  0.14929461521E+03  0.00000000000E+00 0. -1.
         11    1    3    3    0    0 -0.25146260737E+02 -0.78350731820E+02 -0.88280088064E+02  0.12068365902E+03  0.00000000000E+00 0.  1.
<mgrwt>
<rscale>  0 0.19634979E+03</rscale>
<asrwt>0</asrwt>
<pdfrwt beam="2">  1        2 0.11149459E+00 0.20164281E+03</pdfrwt>
<pdfrwt beam="1">  1       -2 0.85721427E-02 0.20164281E+03</pdfrwt>
<totfact> 0.33717061E+03</totfact>
</mgrwt>
</event>
<event>
 7    1  0.7550631E-006  0.2381833E+03  0.7546771E-02  0.1153537E+00
          2   -1    0    0  501    0  0.00000000000E+00  0.00000000000E+00  0.74687914533E+03  0.74687914533E+03  0.00000000000E+00 0. -1.
         -2   -1    0    0    0  501 -0.00000000000E+00 -0.00000000000E+00 -0.40507513326E+02  0.40507513326E+02  0.00000000000E+00 0.  1.
         23    2    1    2    0    0 -0.61651996197E+02  0.68148452459E+01  0.18858557250E+03  0.21744483822E+03  0.88714873409E+02 0.  0.
          5    1    1    2  502    0  0.20316659731E+02  0.79685048223E+02  0.43637877594E+03  0.44408445105E+03  0.47000000000E+01 0. -1.
         -5    1    1    2    0  502  0.41335336466E+02 -0.86499893469E+02  0.81407283562E+02  0.12585736938E+03  0.47000000000E+01 0.  1.
        -11    1    3    3    0    0 -0.73152895439E+02  0.29766074318E+02  0.11498127707E+03  0.13949214806E+03  0.00000000000E+00 0. -1.
         11    1    3    3    0    0  0.11500899242E+02 -0.22951229072E+02  0.73604295426E+02  0.77952690168E+02  0.00000000000E+00 0.  1.
<mgrwt>
<rscale>  0 0.19556401E+03</rscale>
<asrwt>0</asrwt>
<pdfrwt beam="1">  1        2 0.11490447E+00 0.23818328E+03</pdfrwt>
<pdfrwt beam="2">  1       -2 0.62319257E-02 0.23818328E+03</pdfrwt>
<totfact> 0.53588174E+03</totfact>
</mgrwt>
</event>
<event>
 8    1  0.7550631E-006  0.3177426E+03  0.7546771E-02  0.1078082E+00
         -1   -1    0    0    0  501 -0.00000000000E+00  0.00000000000E+00  0.39079257111E+02  0.39079257111E+02  0.00000000000E+00 0.  1.
          1   -1    0    0  501    0  0.00000000000E+00 -0.00000000000E+00 -0.26257003396E+04  0.26257003396E+04  0.00000000000E+00 0. -1.
         23    2    1    2    0    0 -0.61320611843E+01  0.29205770610E+03 -0.96634906517E+03  0.10136461166E+04  0.91173614774E+02 0.  0.
         23    2    1    2    0    0  0.61320611843E+01 -0.29205770610E+03 -0.16202720173E+04  0.16511334801E+04  0.12500021298E+03 0.  0.
          5    1    4    4  502    0  0.36272343582E+02 -0.11624874451E+03 -0.93926034838E+03  0.94713333040E+03  0.47000000000E+01 0.  1.
         -5    1    4    4    0  502 -0.30140282398E+02 -0.17580896159E+03 -0.68101166894E+03  0.70400014974E+03  0.47000000000E+01 0.  1.
        -11    1    3    3    0    0  0.40916465946E+02  0.12340976892E+03 -0.37346694097E+03  0.39545124130E+03  0.00000000000E+00 0. -1.
         11    1    3    3    0    0 -0.47048527130E+02  0.16864793718E+03 -0.59288212421E+03  0.61819487528E+03  0.00000000000E+00 0.  1.
<mgrwt>
<rscale>  0 0.31477038E+03</rscale>
<asrwt>0</asrwt>
<pdfrwt beam="2">  1        1 0.40395385E+00 0.31774260E+03</pdfrwt>
<pdfrwt beam="1">  1       -1 0.60121941E-02 0.31774260E+03</pdfrwt>
<totfact> 0.17212563E+02</totfact>
</mgrwt>
</event>
<event>
 8    1  0.7550631E-006  0.1793559E+03  0.7546771E-02  0.1174065E+00
          2   -1    0    0  501    0  0.00000000000E+00  0.00000000000E+00  0.75271266102E+02  0.75271266102E+02  0.00000000000E+00 0. -1.
         -2   -1    0    0    0  501 -0.00000000000E+00 -0.00000000000E+00 -0.37752984016E+03  0.37752984016E+03  0.00000000000E+00 0.  1.
         23    2    1    2    0    0 -0.92676443467E+02  0.89183841258E+02 -0.14663268574E+03  0.21533963458E+03  0.91254221709E+02 0.  0.
         23    2    1    2    0    0  0.92676443467E+02 -0.89183841258E+02 -0.15562588831E+03  0.23746147168E+03  0.12500341076E+03 0.  0.
          5    1    4    4  502    0  0.61507461581E+02 -0.45212160725E+02 -0.16563564068E+03  0.18244057325E+03  0.47000000000E+01 0.  1.
         -5    1    4    4    0  502  0.31168981886E+02 -0.43971680533E+02  0.10009752362E+02  0.55020898421E+02  0.47000000000E+01 0.  1.
        -11    1    3    3    0    0 -0.96036455678E+02  0.64166520354E+02 -0.15059641948E+03  0.18978836823E+03  0.00000000000E+00 0.  1.
         11    1    3    3    0    0  0.33600122109E+01  0.25017320904E+02  0.39637337403E+01  0.25551266357E+02  0.00000000000E+00 0. -1.
<mgrwt>
<rscale>  0 0.17367857E+03</rscale>
<asrwt>0</asrwt>
<pdfrwt beam="1">  1        2 0.11580195E-01 0.17935588E+03</pdfrwt>
<pdfrwt beam="2">  1       -2 0.58081513E-01 0.17935588E+03</pdfrwt>
<totfact> 0.14853702E+03</totfact>
</mgrwt>
</event>
<event>
 8    1  0.7550631E-006  0.2778119E+03  0.7546771E-02  0.1098773E+00
          1   -1    0    0  501    0  0.00000000000E+00  0.00000000000E+00  0.11730040749E+04  0.11730040749E+04  0.00000000000E+00 0. -1.
         -1   -1    0    0    0  501 -0.00000000000E+00 -0.00000000000E+00 -0.75090975527E+02  0.75090975527E+02  0.00000000000E+00 0.  1.
         23    2    1    2    0    0  0.59217151082E+02  0.24092898546E+03  0.28412953350E+03  0.38819786502E+03  0.91730821353E+02 0.  0.
         23    2    1    2    0    0 -0.59217151082E+02 -0.24092898546E+03  0.81378356587E+03  0.85989718540E+03  0.12500412136E+03 0.  0.
          5    1    4    4  502    0  0.50936394404E+01 -0.34045808896E+02  0.30384523284E+03  0.30582524060E+03  0.47000000000E+01 0. -1.
         -5    1    4    4    0  502 -0.64310790522E+02 -0.20688317656E+03  0.50993833303E+03  0.55407194481E+03  0.47000000000E+01 0. -1.
        -11    1    3    3    0    0  0.49331756582E+02  0.44635449135E+02  0.54976673831E+02  0.86303998705E+02  0.00000000000E+00 0.  1.
         11    1    3    3    0    0  0.98853945000E+01  0.19629353633E+03  0.22915285966E+03  0.30189386632E+03  0.00000000000E+00 0. -1.
<mgrwt>
<rscale>  0 0.27442623E+03</rscale>
<asrwt>0</asrwt>
<pdfrwt beam="1">  1        1 0.18046215E+00 0.27781195E+03</pdfrwt>
<pdfrwt beam="2">  1       -1 0.11552459E-01 0.27781195E+03</pdfrwt>
<totfact> 0.58331202E+02</totfact>
</mgrwt>
</event>
<event>
 8    1  0.7550631E-006  0.1340406E+03  0.7546771E-02  0.1236309E+00
          1   -1    0    0  501    0  0.00000000000E+00  0.00000000000E+00  0.44226934268E+03  0.44226934268E+03  0.00000000000E+00 0. -1.
         -1   -1    0    0    0  501 -0.00000000000E+00 -0.00000000000E+00 -0.30658087899E+02  0.30658087899E+02  0.00000000000E+00 0.  1.
         23    2    1    2    0    0 -0.41013352986E+01  0.48214567632E+02  0.17249319900E+03  0.19880279506E+03  0.86181100824E+02 0.  0.
         23    2    1    2    0    0  0.41013352986E+01 -0.48214567632E+02  0.23911805578E+03  0.27412463552E+03  0.12500162285E+03 0.  0.
          5    1    4    4  502    0  0.38369364684E+02 -0.73524539086E+02  0.10845255491E+03  0.13660934324E+03  0.47000000000E+01 0. -1.
         -5    1    4    4    0  502 -0.34268029385E+02  0.25309971455E+02  0.13066550086E+03  0.13751529227E+03  0.47000000000E+01 0. -1.
        -11    1    3    3    0    0  0.72422902098E+01 -0.10472737071E+02 -0.32763094947E+01  0.13147744793E+02  0.00000000000E+00 0.  1.
         11    1    3    3    0    0 -0.11343625508E+02  0.58687304703E+02  0.17576950850E+03  0.18565505027E+03  0.00000000000E+00 0. -1.
<mgrwt>
<rscale>  0 0.12420998E+03</rscale>
<asrwt>0</asrwt>
<pdfrwt beam="1">  1        1 0.68041433E-01 0.13404056E+03</pdfrwt>
<pdfrwt beam="2">  1       -1 0.47166292E-02 0.13404056E+03</pdfrwt>
<totfact> 0.97024071E+03</totfact>
</mgrwt>
</event>
<event>
 8    1  0.7550631E-006  0.1311903E+03  0.7546771E-02  0.1250934E+00
         -2   -1    0    0    0  501 -0.00000000000E+00  0.00000000000E+00  0.88010690789E+01  0.88010690789E+01  0.00000000000E+00 0.  1.
          2   -1    0    0  501    0  0.00000000000E+00 -0.00000000000E+00 -0.12600196351E+04  0.12600196351E+04  0.00000000000E+00 0. -1.
         23    2    1    2    0    0  0.38829435093E+02  0.27493351802E+01 -0.41124044949E+03  0.41865946048E+03  0.68130409347E+02 0.  0.
         23    2    1    2    0    0 -0.38829435093E+02 -0.27493351802E+01 -0.83997811657E+03  0.85016124374E+03  0.12528216220E+03 0.  0.
          5    1    4    4  502    0 -0.16718481716E+02  0.52707352473E+02 -0.20543835118E+03  0.21280173583E+03  0.47000000000E+01 0. -1.
         -5    1    4    4    0  502 -0.22110953377E+02 -0.55456687653E+02 -0.63453976539E+03  0.63735950791E+03  0.47000000000E+01 0. -1.
        -11    1    3    3    0    0 -0.88243239108E+01 -0.22517903864E+02 -0.14609969888E+03  0.14808796946E+03  0.00000000000E+00 0.  1.
         11    1    3    3    0    0  0.47653759003E+02  0.25267239045E+02 -0.26514075061E+03  0.27057149102E+03  0.00000000000E+00 0. -1.
<mgrwt>
<rscale>  0 0.11537132E+03</rscale>
<asrwt>0</asrwt>
<pdfrwt beam="2">  1        2 0.19384918E+00 0.13119034E+03</pdfrwt>
<pdfrwt beam="1">  1       -2 0.13540106E-02 0.13119034E+03</pdfrwt>
<totfact> 0.24165138E+04</totfact>
</mgrwt>
</event>
<event>
 8    1  0.7550631E-006  0.1997450E+03  0.7546771E-02  0.1154119E+00
          1   -1    0    0  501    0  0.00000000000E+00  0.00000000000E+00  0.66189049592E+02  0.66189049592E+02  0.00000000000E+00 0. -1.
         -1   -1    0    0    0  501 -0.00000000000E+00 -0.00000000000E+00 -0.57552897368E+03  0.57552897368E+03  0.00000000000E+00 0.  1.
         23    2    1    2    0    0 -0.92997628884E+02 -0.12500001632E+03 -0.31328885971E+03  0.36183573509E+03  0.92204265167E+02 0.  0.
         23    2    1    2    0    0  0.92997628884E+02  0.12500001632E+03 -0.19605106438E+03  0.27988228818E+03  0.12499804932E+03 0.  0.
          5    1    4    4  502    0  0.21979088365E+02  0.82910914369E+02 -0.17439769949E+03  0.19440665533E+03  0.47000000000E+01 0. -1.
         -5    1    4    4    0  502  0.71018540519E+02  0.42089101948E+02 -0.21653364884E+02  0.85475632850E+02  0.47000000000E+01 0. -1.
        -11    1    3    3    0    0 -0.39270794963E+02 -0.47883964818E+02 -0.42259875159E+02  0.74973104992E+02  0.00000000000E+00 0. -1.
         11    1    3    3    0    0 -0.53726833921E+02 -0.77116051500E+02 -0.27102898455E+03  0.28686263010E+03  0.00000000000E+00 0.  1.
<mgrwt>
<rscale>  0 0.19489475E+03</rscale>
<asrwt>0</asrwt>
<pdfrwt beam="1">  1        1 0.10182931E-01 0.19974503E+03</pdfrwt>
<pdfrwt beam="2">  1       -1 0.88542919E-01 0.19974503E+03</pdfrwt>
<totfact> 0.82056974E+02</totfact>
</mgrwt>
</event>
<event>
 8    1  0.7550631E-006  0.1754615E+03  0.7546771E-02  0.1177173E+00
         -1   -1    0    0    0  501 -0.00000000000E+00  0.00000000000E+00  0.61115572312E+02  0.61115572312E+02  0.00000000000E+00 0.  1.
          1   -1    0    0  501    0  0.00000000000E+00 -0.00000000000E+00 -0.45648709808E+03  0.45648709808E+03  0.00000000000E+00 0. -1.
         23    2    1    2    0    0 -0.57729138454E+02 -0.10875938067E+03 -0.16149858560E+03  0.22522739632E+03  0.97387527890E+02 0.  0.
         23    2    1    2    0    0  0.57729138454E+02  0.10875938067E+03 -0.23387294016E+03  0.29237527408E+03  0.12500196974E+03 0.  0.
          5    1    4    4  502    0  0.14184916967E+02 -0.26543675738E+02 -0.63642616531E+02  0.70556723493E+02  0.47000000000E+01 0. -1.
         -5    1    4    4    0  502  0.43544221487E+02  0.13530305641E+03 -0.17023032363E+03  0.22181855058E+03  0.47000000000E+01 0. -1.
        -11    1    3    3    0    0 -0.22274451527E+02 -0.32745746459E+01 -0.90420655596E+02  0.93181376832E+02  0.00000000000E+00 0. -1.
         11    1    3    3    0    0 -0.35454686928E+02 -0.10548480603E+03 -0.71077930008E+02  0.13204601948E+03  0.00000000000E+00 0.  1.
<mgrwt>
<rscale>  0 0.17064903E+03</rscale>
<asrwt>0</asrwt>
<pdfrwt beam="2">  1        1 0.70228781E-01 0.17546153E+03</pdfrwt>
<pdfrwt beam="1">  1       -1 0.94023962E-02 0.17546153E+03</pdfrwt>
<totfact> 0.33547792E+03</totfact>
</mgrwt>
</event>
<event>
 8    1  0.7550631E-006  0.1486388E+03  0.7546771E-02  0.1206185E+00
          2   -1    0    0  501    0  0.00000000000E+00  0.00000000000E+00  0.23490980783E+03  0.23490980783E+03  0.00000000000E+00 0. -1.
         -2   -1    0    0    0  501 -0.00000000000E+00 -0.00000000000E+00 -0.98577884268E+02  0.98577884268E+02  0.00000000000E+00 0.  1.
         23    2    1    2    0    0 -0.75763976160E+02  0.26988464294E+02  0.69801325003E+01  0.13644615567E+03  0.11000124480E+03 0.  0.
         23    2    1    2    0    0  0.75763976160E+02 -0.26988464294E+02  0.12935179106E+03  0.19704153643E+03  0.12499969575E+03 0.  0.
          5    1    4    4  502    0  0.97844982534E+02  0.14704547189E+02  0.10254935042E+03  0.14257743014E+03  0.47000000000E+01 0.  1.
         -5    1    4    4    0  502 -0.22081006374E+02 -0.41693011484E+02  0.26802440645E+02  0.54464106286E+02  0.47000000000E+01 0.  1.
        -11    1    3    3    0    0  0.48679262321E+01  0.33867662849E+02 -0.31797996694E+02  0.46710040531E+02  0.00000000000E+00 0.  1.
         11    1    3    3    0    0 -0.80631902393E+02 -0.68791985549E+01  0.38778129195E+02  0.89736115138E+02  0.00000000000E+00 0. -1.
<mgrwt>
<rscale>  0 0.14544444E+03</rscale>
<asrwt>0</asrwt>
<pdfrwt beam="1">  1        2 0.36139970E-01 0.14863876E+03</pdfrwt>
<pdfrwt beam="2">  1       -2 0.15165828E-01 0.14863876E+03</pdfrwt>
<totfact> 0.46248033E+03</totfact>
</mgrwt>
</event>
<event>
 8    1  0.7550631E-006  0.1920851E+03  0.7546771E-02  0.1161034E+00
         -3   -1    0    0    0  501 -0.00000000000E+00  0.00000000000E+00  0.73094357172E+02  0.73094357172E+02  0.00000000000E+00 0.  1.
          3   -1    0    0  501    0  0.00000000000E+00 -0.00000000000E+00 -0.45742794004E+03  0.45742794004E+03  0.00000000000E+00 0. -1.
         23    2    1    2    0    0  0.80996132275E+02 -0.12128942796E+03 -0.16934132780E+03  0.24221976051E+03  0.93393941458E+02 0.  0.
         23    2    1    2    0    0 -0.80996132275E+02  0.12128942796E+03 -0.21499225507E+03  0.28830253670E+03  0.12500073660E+03 0.  0.
          5    1    4    4  502    0  0.14218020571E+02  0.58233006434E+02 -0.22043034259E+02  0.64040772221E+02  0.47000000000E+01 0. -1.
         -5    1    4    4    0  502 -0.95214152846E+02  0.63056421527E+02 -0.19294922081E+03  0.22426176448E+03  0.47000000000E+01 0. -1.
        -11    1    3    3    0    0  0.71715179644E+02 -0.84210256194E+02 -0.58822358229E+02  0.12527770778E+03  0.00000000000E+00 0.  1.
         11    1    3    3    0    0  0.92809526313E+01 -0.37079171767E+02 -0.11051896957E+03  0.11694205273E+03  0.00000000000E+00 0. -1.
<mgrwt>
<rscale>  0 0.18717568E+03</rscale>
<asrwt>0</asrwt>
<pdfrwt beam="2">  1        3 0.70373528E-01 0.19208509E+03</pdfrwt>
<pdfrwt beam="1">  1       -3 0.11245286E-01 0.19208509E+03</pdfrwt>
<totfact> 0.29025387E+02</totfact>
</mgrwt>
</event>
<event>
 7    1  0.7550631E-006  0.2630859E+03  0.7546771E-02  0.1119231E+00
          1   -1    0    0  501    0  0.00000000000E+00  0.00000000000E+00  0.79184733549E+02  0.79184733549E+02  0.00000000000E+00 0. -1.
         -1   -1    0    0    0  501 -0.00000000000E+00 -0.00000000000E+00 -0.77106193540E+03  0.77106193540E+03  0.00000000000E+00 0.  1.
         23    2    1    2    0    0 -0.15086621949E+03 -0.53151952869E+02 -0.47369675133E+03  0.50846182917E+03  0.92515259408E+02 0.  0.
          5    1    1    2  502    0 -0.15791371726E+02  0.81136996396E+02 -0.12152743434E+03  0.14704960694E+03  0.47000000000E+01 0. -1.
         -5    1    1    2    0  502  0.16665759122E+03 -0.27985043527E+02 -0.96653016181E+02  0.19473523284E+03  0.47000000000E+01 0.  1.
        -11    1    3    3    0    0 -0.10324642705E+03 -0.21620222349E+02 -0.17483963169E+03  0.20419636511E+03  0.00000000000E+00 0. -1.
         11    1    3    3    0    0 -0.47619792440E+02 -0.31531730520E+02 -0.29885711964E+03  0.30426546406E+03  0.00000000000E+00 0.  1.
<mgrwt>
<rscale>  0 0.24084561E+03</rscale>
<asrwt>0</asrwt>
<pdfrwt beam="1">  1        1 0.12182267E-01 0.26308586E+03</pdfrwt>
<pdfrwt beam="2">  1       -1 0.11862491E+00 0.26308586E+03</pdfrwt>
<totfact> 0.33496701E+02</totfact>
</mgrwt>
</event>
<event>
 8    1  0.7550631E-006  0.1355564E+03  0.7546771E-02  0.1231484E+00
         -2   -1    0    0    0  501 -0.00000000000E+00  0.00000000000E+00  0.31654386204E+02  0.31654386204E+02  0.00000000000E+00 0.  1.
          2   -1    0    0  501    0  0.00000000000E+00 -0.00000000000E+00 -0.80506356415E+03  0.80506356415E+03  0.00000000000E+00 0. -1.
         23    2    1    2    0    0 -0.45636836611E+02  0.25833051983E+02 -0.86120470047E+02  0.13618864038E+03  0.91545305590E+02 0.  0.
         23    2    1    2    0    0  0.45636836611E+02 -0.25833051983E+02 -0.68728870789E+03  0.70052930997E+03  0.12500191479E+03 0.  0.
          5    1    4    4  502    0  0.73251309026E+02  0.15161123346E+02 -0.53811739268E+03  0.54331209470E+03  0.47000000000E+01 0.  1.
         -5    1    4    4    0  502 -0.27614472415E+02 -0.40994175329E+02 -0.14917131521E+03  0.15721721528E+03  0.47000000000E+01 0.  1.
        -11    1    3    3    0    0 -0.62058918779E+02  0.27091073064E+02 -0.23873518885E+02  0.71799585958E+02  0.00000000000E+00 0.  1.
         11    1    3    3    0    0  0.16422082168E+02 -0.12580210810E+01 -0.62246951162E+02  0.64389054417E+02  0.00000000000E+00 0. -1.
<mgrwt>
<rscale>  0 0.12732244E+03</rscale>
<asrwt>0</asrwt>
<pdfrwt beam="2">  1        2 0.12385592E+00 0.13555643E+03</pdfrwt>
<pdfrwt beam="1">  1       -2 0.48699060E-02 0.13555643E+03</pdfrwt>
<totfact> 0.69307645E+03</totfact>
</mgrwt>
</event>
<event>
 8    1  0.7550631E-006  0.1558249E+03  0.7546771E-02  0.1201981E+00
          2   -1    0    0  501    0  0.00000000000E+00  0.00000000000E+00  0.88618507531E+02  0.88618507531E+02  0.00000000000E+00 0. -1.
         -2   -1    0    0    0  501 -0.00000000000E+00 -0.00000000000E+00 -0.23809584584E+03  0.23809584584E+03  0.00000000000E+00 0.  1.
         23    2    1    2    0    0 -0.83679580697E+02 -0.40674834277E+02 -0.98705466540E+02  0.16282667431E+03  0.90072428491E+02 0.  0.
         23    2    1    2    0    0  0.83679580697E+02  0.40674834277E+02 -0.50771871771E+02  0.16388767906E+03  0.12499869605E+03 0.  0.
          5    1    4    4  502    0 -0.10874993628E+02  0.32136106687E+02 -0.59268393695E+02  0.68453103148E+02  0.47000000000E+01 0. -1.
         -5    1    4    4    0  502  0.94554574325E+02  0.85387275900E+01  0.84965219235E+01  0.95434575912E+02  0.47000000000E+01 0. -1.
        -11    1    3    3    0    0 -0.61415707983E+02  0.17128548221E+02 -0.30459790596E+02  0.70661695383E+02  0.00000000000E+00 0.  1.
         11    1    3    3    0    0 -0.22263872714E+02 -0.57803382497E+02 -0.68245675944E+02  0.92164978931E+02  0.00000000000E+00 0. -1.
<mgrwt>
<rscale>  0 0.14877961E+03</rscale>
<asrwt>0</asrwt>
<pdfrwt beam="1">  1        2 0.13633617E-01 0.15582486E+03</pdfrwt>
<pdfrwt beam="2">  1       -2 0.36630130E-01 0.15582486E+03</pdfrwt>
<totfact> 0.29866663E+03</totfact>
</mgrwt>
</event>
<event>
 8    1  0.7550631E-006  0.1402090E+03  0.7546771E-02  0.1224211E+00
         -1   -1    0    0    0  501 -0.00000000000E+00  0.00000000000E+00  0.21817785462E+02  0.21817785462E+02  0.00000000000E+00 0.  1.
          1   -1    0    0  501    0  0.00000000000E+00 -0.00000000000E+00 -0.84574830501E+03  0.84574830501E+03  0.00000000000E+00 0. -1.
         23    2    1    2    0    0  0.23737520554E+02 -0.58877704742E+02 -0.20604632848E+03  0.23397360259E+03  0.90876307320E+02 0.  0.
         23    2    1    2    0    0 -0.23737520554E+02  0.58877704742E+02 -0.61788419106E+03  0.63359248788E+03  0.12501405172E+03 0.  0.
          5    1    4    4  502    0 -0.74150716047E+02  0.22945218945E+02 -0.32082429803E+03  0.33011381669E+03  0.47000000000E+01 0.  1.
         -5    1    4    4    0  502  0.50413195493E+02  0.35932485797E+02 -0.29705989304E+03  0.30347867119E+03  0.47000000000E+01 0.  1.
        -11    1    3    3    0    0 -0.12351041903E+02 -0.45311214988E+02 -0.34830584864E+02  0.58470711315E+02  0.00000000000E+00 0.  1.
         11    1    3    3    0    0  0.36088562457E+02 -0.13566489755E+02 -0.17121574362E+03  0.17550289128E+03  0.00000000000E+00 0. -1.
<mgrwt>
<rscale>  0 0.13221160E+03</rscale>
<asrwt>0</asrwt>
<pdfrwt beam="2">  1        1 0.13011514E+00 0.14020901E+03</pdfrwt>
<pdfrwt beam="1">  1       -1 0.33565820E-02 0.14020901E+03</pdfrwt>
<totfact> 0.65400283E+03</totfact>
</mgrwt>
</event>
<event>
 8    1  0.7550631E-006  0.1329196E+03  0.7546771E-02  0.1236148E+00
         -2   -1    0    0    0  501 -0.00000000000E+00  0.00000000000E+00  0.23833231136E+03  0.23833231136E+03  0.00000000000E+00 0.  1.
          2   -1    0    0  501    0  0.00000000000E+00 -0.00000000000E+00 -0.59505721498E+02  0.59505721498E+02  0.00000000000E+00 0. -1.
         23    2    1    2    0    0  0.18985509891E+01  0.45158144363E+02  0.10331787978E+03  0.14496821581E+03  0.91095207409E+02 0.  0.
         23    2    1    2    0    0 -0.18985509891E+01 -0.45158144363E+02  0.75508710078E+02  0.15286981705E+03  0.12499901268E+03 0.  0.
          5    1    4    4  502    0  0.39582343857E+02 -0.22971142960E+02 -0.16947336632E+02  0.49027926461E+02  0.47000000000E+01 0. -1.
         -5    1    4    4    0  502 -0.41480894846E+02 -0.22187001403E+02  0.92456046710E+02  0.10384189059E+03  0.47000000000E+01 0. -1.
        -11    1    3    3    0    0  0.10976874676E+01  0.60829108201E+02  0.11168848830E+03  0.12718374008E+03  0.00000000000E+00 0.  1.
         11    1    3    3    0    0  0.80086352141E+00 -0.15670963838E+02 -0.83706085137E+01  0.17784475727E+02  0.00000000000E+00 0. -1.
<mgrwt>
<rscale>  0 0.12431201E+03</rscale>
<asrwt>0</asrwt>
<pdfrwt beam="2">  1        2 0.91547265E-02 0.13291958E+03</pdfrwt>
<pdfrwt beam="1">  1       -2 0.36666509E-01 0.13291958E+03</pdfrwt>
<totfact> 0.47868701E+03</totfact>
</mgrwt>
</event>
<event>
 8    1  0.7550631E-006  0.1496044E+03  0.7546771E-02  0.1209692E+00
          2   -1    0    0  501    0  0.00000000000E+00  0.00000000000E+00  0.40428959402E+03  0.40428959402E+03  0.00000000000E+00 0. -1.
         -2   -1    0    0    0  501 -0.00000000000E+00 -0.00000000000E+00 -0.46315169110E+02  0.46315169110E+02  0.00000000000E+00 0.  1.
         23    2    1    2    0    0 -0.27536903870E+02  0.77455401093E+02  0.15616274051E+03  0.19938884010E+03  0.92798102351E+02 0.  0.
         23    2    1    2    0    0  0.27536903870E+02 -0.77455401093E+02  0.20181168440E+03  0.25121592303E+03  0.12499545508E+03 0.  0.
          5    1    4    4  502    0  0.72376146229E+02 -0.64490518576E+02  0.10126669480E+03  0.14026534499E+03  0.47000000000E+01 0.  1.
         -5    1    4    4    0  502 -0.44839242359E+02 -0.12964882517E+02  0.10054498959E+03  0.11095057803E+03  0.47000000000E+01 0.  1.
        -11    1    3    3    0    0 -0.52401949346E+02  0.16452859273E+02  0.49038446027E+02  0.73630361009E+02  0.00000000000E+00 0.  1.
         11    1    3    3    0    0  0.24865045476E+02  0.61002541820E+02  0.10712429448E+03  0.12575847909E+03  0.00000000000E+00 0. -1.
<mgrwt>
<rscale>  0 0.14273794E+03</rscale>
<asrwt>0</asrwt>
<pdfrwt beam="1">  1        2 0.62198397E-01 0.14960443E+03</pdfrwt>
<pdfrwt beam="2">  1       -2 0.71254109E-02 0.14960443E+03</pdfrwt>
<totfact> 0.85709120E+03</totfact>
</mgrwt>
</event>
<event>
 8    1  0.7550631E-006  0.1383809E+03  0.7546771E-02  0.1227312E+00
         -1   -1    0    0    0  501 -0.00000000000E+00  0.00000000000E+00  0.25155275334E+03  0.25155275334E+03  0.00000000000E+00 0.  1.
          1   -1    0    0  501    0  0.00000000000E+00 -0.00000000000E+00 -0.60393867348E+02  0.60393867348E+02  0.00000000000E+00 0. -1.
         23    2    1    2    0    0  0.10824125808E+02  0.58367737716E+02  0.81438599619E+02  0.13534587013E+03  0.90345473313E+02 0.  0.
         23    2    1    2    0    0 -0.10824125808E+02 -0.58367737716E+02  0.10972028637E+03  0.17660075056E+03  0.12500131739E+03 0.  0.
          5    1    4    4  502    0 -0.12959903090E+02  0.32447223151E+02  0.15777244900E+01  0.35289666942E+02  0.47000000000E+01 0.  1.
         -5    1    4    4    0  502  0.21357772827E+01 -0.90814960867E+02  0.10814256188E+03  0.14131108362E+03  0.47000000000E+01 0.  1.
        -11    1    3    3    0    0 -0.28044998925E+02 -0.16297960225E+00  0.52173151784E+02  0.59233320810E+02  0.00000000000E+00 0.  1.
         11    1    3    3    0    0  0.38869124733E+02  0.58530717318E+02  0.29265447835E+02  0.76112549322E+02  0.00000000000E+00 0. -1.
<mgrwt>
<rscale>  0 0.13009681E+03</rscale>
<asrwt>0</asrwt>
<pdfrwt beam="2">  1        1 0.92913643E-02 0.13838094E+03</pdfrwt>
<pdfrwt beam="1">  1       -1 0.38700423E-01 0.13838094E+03</pdfrwt>
<totfact> 0.44448413E+03</totfact>
</mgrwt>
</event>
<event>
 8    1  0.7550631E-006  0.1762490E+03  0.7546771E-02  0.1179299E+00
          3   -1    0    0  501    0  0.00000000000E+00  0.00000000000E+00  0.29852922676E+03  0.29852922676E+03  0.00000000000E+00 0. -1.
         -3   -1    0    0    0  501 -0.00000000000E+00 -0.00000000000E+00 -0.89216013452E+02  0.89216013452E+02  0.00000000000E+00 0.  1.
         23    2    1    2    0    0 -0.93590016724E+02 -0.81732956401E+02  0.71677083318E+02  0.16412187511E+03  0.79743452541E+02 0.  0.
         23    2    1    2    0    0  0.93590016724E+02  0.81732956401E+02  0.13763612999E+03  0.22362336511E+03  0.12499735097E+03 0.  0.
          5    1    4    4  502    0  0.54454798230E+02  0.12593298875E+02 -0.89759642231E+01  0.56802941478E+02  0.47000000000E+01 0. -1.
         -5    1    4    4    0  502  0.39135218494E+02  0.69139657526E+02  0.14661209422E+03  0.16682042363E+03  0.47000000000E+01 0. -1.
        -11    1    3    3    0    0 -0.64401015041E+02 -0.91858557928E+02  0.38063151677E+02  0.11846640418E+03  0.00000000000E+00 0.  1.
         11    1    3    3    0    0 -0.29189001683E+02  0.10125601526E+02  0.33613931642E+02  0.45655470931E+02  0.00000000000E+00 0. -1.
<mgrwt>
<rscale>  0 0.16861570E+03</rscale>
<asrwt>0</asrwt>
<pdfrwt beam="1">  1        3 0.45927573E-01 0.17624899E+03</pdfrwt>
<pdfrwt beam="2">  1       -3 0.13725541E-01 0.17624899E+03</pdfrwt>
<totfact> 0.49217430E+02</totfact>
</mgrwt>
</event>
<event>
 8    1  0.7550631E-006  0.1290361E+03  0.7546771E-02  0.1248353E+00
         -3   -1    0    0    0  501 -0.00000000000E+00  0.00000000000E+00  0.29913465631E+02  0.29913465631E+02  0.00000000000E+00 0.  1.
          3   -1    0    0  501    0  0.00000000000E+00 -0.00000000000E+00 -0.57788487361E+03  0.57788487361E+03  0.00000000000E+00 0. -1.
         23    2    1    2    0    0 -0.24946385957E+02 -0.20135796935E+02 -0.66595429140E+02  0.10942785609E+03  0.80695303548E+02 0.  0.
         23    2    1    2    0    0  0.24946385957E+02  0.20135796935E+02 -0.48137597884E+03  0.49837048316E+03  0.12499013156E+03 0.  0.
          5    1    4    4  502    0 -0.25486819120E+02 -0.41212813381E+01 -0.39158189084E+03  0.39246022747E+03  0.47000000000E+01 0. -1.
         -5    1    4    4    0  502  0.50433205076E+02  0.24257078273E+02 -0.89794087998E+02  0.10591025569E+03  0.47000000000E+01 0. -1.
        -11    1    3    3    0    0  0.10378175239E+02 -0.43307420946E+02 -0.36038702907E+02  0.57288980943E+02  0.00000000000E+00 0.  1.
         11    1    3    3    0    0 -0.35324561196E+02  0.23171624011E+02 -0.30556726233E+02  0.52138875142E+02  0.00000000000E+00 0. -1.
<mgrwt>
<rscale>  0 0.11686950E+03</rscale>
<asrwt>0</asrwt>
<pdfrwt beam="2">  1        3 0.88905357E-01 0.12903606E+03</pdfrwt>
<pdfrwt beam="1">  1       -3 0.46020720E-02 0.12903606E+03</pdfrwt>
<totfact> 0.70628950E+02</totfact>
</mgrwt>
</event>
<event>
 7    1  0.7550631E-006  0.1580079E+03  0.7546771E-02  0.1208566E+00
          2   -1    0    0  501    0  0.00000000000E+00  0.00000000000E+00  0.74822851373E+03  0.74822851373E+03  0.00000000000E+00 0. -1.
         -2   -1    0    0    0  501 -0.00000000000E+00 -0.00000000000E+00 -0.35765827217E+02  0.35765827217E+02  0.00000000000E+00 0.  1.
         23    2    1    2    0    0  0.46445823480E+02 -0.29782486719E+02  0.85945613636E+02  0.13785957245E+03  0.92598067903E+02 0.  0.
          5    1    1    2  502    0 -0.39153582637E+02 -0.28908032894E+01  0.60449981625E+03  0.60579161237E+03  0.47000000000E+01 0. -1.
         -5    1    1    2    0  502 -0.72922408426E+01  0.32673290009E+02  0.22017256632E+02  0.40343156125E+02  0.47000000000E+01 0.  1.
        -11    1    3    3    0    0  0.13148046390E+02 -0.48622594123E+02  0.85926713858E+02  0.99601345059E+02  0.00000000000E+00 0. -1.
         11    1    3    3    0    0  0.33297777090E+02  0.18840107403E+02  0.18899778378E-01  0.38258227393E+02  0.00000000000E+00 0.  1.
<mgrwt>
<rscale>  0 0.14359965E+03</rscale>
<asrwt>0</asrwt>
<pdfrwt beam="1">  1        2 0.11511207E+00 0.15800790E+03</pdfrwt>
<pdfrwt beam="2">  1       -2 0.55024355E-02 0.15800790E+03</pdfrwt>
<totfact> 0.63585154E+03</totfact>
</mgrwt>
</event>
<event>
 8    1  0.7550631E-006  0.1615942E+03  0.7546771E-02  0.1193763E+00
          1   -1    0    0  501    0  0.00000000000E+00  0.00000000000E+00  0.79646600609E+03  0.79646600609E+03  0.00000000000E+00 0. -1.
         -1   -1    0    0    0  501 -0.00000000000E+00 -0.00000000000E+00 -0.28408323999E+02  0.28408323999E+02  0.00000000000E+00 0.  1.
         23    2    1    2    0    0 -0.45591899174E+02 -0.91692652331E+02  0.37494171359E+03  0.39984157998E+03  0.93839419911E+02 0.  0.
         23    2    1    2    0    0  0.45591899174E+02  0.91692652331E+02  0.39311596850E+03  0.42503275011E+03  0.12500604070E+03 0.  0.
          5    1    4    4  502    0  0.73579360309E+02  0.98226556050E+02  0.24477143292E+03  0.27385675626E+03  0.47000000000E+01 0.  1.
         -5    1    4    4    0  502 -0.27987461134E+02 -0.65339037198E+01  0.14834453558E+03  0.15117599384E+03  0.47000000000E+01 0.  1.
        -11    1    3    3    0    0 -0.51818996943E+02 -0.47614537367E+02  0.10595356823E+03  0.12719477676E+03  0.00000000000E+00 0.  1.
         11    1    3    3    0    0  0.62270977688E+01 -0.44078114964E+02  0.26898814536E+03  0.27264680322E+03  0.00000000000E+00 0. -1.
<mgrwt>
<rscale>  0 0.15559349E+03</rscale>
<asrwt>0</asrwt>
<pdfrwt beam="1">  1        1 0.12253321E+00 0.16159416E+03</pdfrwt>
<pdfrwt beam="2">  1       -1 0.43705120E-02 0.16159416E+03</pdfrwt>
<totfact> 0.48945406E+03</totfact>
</mgrwt>
</event>
<event>
 8    1  0.7550631E-006  0.1264341E+03  0.7546771E-02  0.1247784E+00
          2   -1    0    0  501    0  0.00000000000E+00  0.00000000000E+00  0.10606004383E+04  0.10606004383E+04  0.00000000000E+00 0. -1.
         -2   -1    0    0    0  501 -0.00000000000E+00 -0.00000000000E+00 -0.12210662727E+02  0.12210662727E+02  0.00000000000E+00 0.  1.
         23    2    1    2    0    0 -0.15687090314E+02  0.10786481477E+02  0.31281648413E+03  0.32645082624E+03  0.91397791116E+02 0.  0.
         23    2    1    2    0    0  0.15687090314E+02 -0.10786481477E+02  0.73557329144E+03  0.74636027479E+03  0.12499263865E+03 0.  0.
          5    1    4    4  502    0 -0.12469595829E+02 -0.63207158387E+02  0.31337180793E+03  0.31996033457E+03  0.47000000000E+01 0. -1.
         -5    1    4    4    0  502  0.28156686143E+02  0.52420676910E+02  0.42220148350E+03  0.42639994022E+03  0.47000000000E+01 0. -1.
        -11    1    3    3    0    0 -0.32547119483E+02  0.39170119826E+02  0.11327480503E+03  0.12419659709E+03  0.00000000000E+00 0.  1.
         11    1    3    3    0    0  0.16860029169E+02 -0.28383638349E+02  0.19954167910E+03  0.20225422915E+03  0.00000000000E+00 0. -1.
<mgrwt>
<rscale>  0 0.11720277E+03</rscale>
<asrwt>0</asrwt>
<pdfrwt beam="1">  1        2 0.16316923E+00 0.12643414E+03</pdfrwt>
<pdfrwt beam="2">  1       -2 0.18785643E-02 0.12643414E+03</pdfrwt>
<totfact> 0.19436023E+04</totfact>
</mgrwt>
</event>
<event>
 8    1  0.7550631E-006  0.1387370E+03  0.7546771E-02  0.1226417E+00
         -1   -1    0    0    0  501 -0.00000000000E+00  0.00000000000E+00  0.94653362461E+02  0.94653362461E+02  0.00000000000E+00 0.  1.
          1   -1    0    0  501    0  0.00000000000E+00 -0.00000000000E+00 -0.20813696509E+03  0.20813696509E+03  0.00000000000E+00 0. -1.
         23    2    1    2    0    0  0.19651238809E+02  0.56900302365E+02  0.19038893767E+02  0.11093058643E+03  0.91210196434E+02 0.  0.
         23    2    1    2    0    0 -0.19651238809E+02 -0.56900302365E+02 -0.13252249640E+03  0.19185974112E+03  0.12499653042E+03 0.  0.
          5    1    4    4  502    0  0.31964855999E+02  0.19978190442E+02 -0.71193682116E+02  0.80693930910E+02  0.47000000000E+01 0.  1.
         -5    1    4    4    0  502 -0.51616094808E+02 -0.76878492807E+02 -0.61328814281E+02  0.11116581021E+03  0.47000000000E+01 0.  1.
        -11    1    3    3    0    0  0.28387529109E+02 -0.16155172511E+01  0.39199278752E+02  0.48425666331E+02  0.00000000000E+00 0.  1.
         11    1    3    3    0    0 -0.87362903010E+01  0.58515819616E+02 -0.20160384985E+02  0.62504920097E+02  0.00000000000E+00 0. -1.
<mgrwt>
<rscale>  0 0.13070249E+03</rscale>
<asrwt>0</asrwt>
<pdfrwt beam="2">  1        1 0.32021071E-01 0.13873697E+03</pdfrwt>
<pdfrwt beam="1">  1       -1 0.14562056E-01 0.13873697E+03</pdfrwt>
<totfact> 0.45098065E+03</totfact>
</mgrwt>
</event>
<event>
 8    1  0.7550631E-006  0.1500778E+03  0.7546771E-02  0.1209447E+00
         -1   -1    0    0    0  501 -0.00000000000E+00  0.00000000000E+00  0.29250882668E+02  0.29250882668E+02  0.00000000000E+00 0.  1.
          1   -1    0    0  501    0  0.00000000000E+00 -0.00000000000E+00 -0.10168426110E+04  0.10168426110E+04  0.00000000000E+00 0. -1.
         23    2    1    2    0    0  0.78004740721E+02  0.28533103323E+02 -0.14585664387E+03  0.19108396759E+03  0.91323844352E+02 0.  0.
         23    2    1    2    0    0 -0.78004740721E+02 -0.28533103323E+02 -0.84173508443E+03  0.85500952605E+03  0.12499783884E+03 0.  0.
          5    1    4    4  502    0 -0.11136979685E+03 -0.28545898461E+02 -0.69454609135E+03  0.70401311279E+03  0.47000000000E+01 0. -1.
         -5    1    4    4    0  502  0.33365056124E+02  0.12795138064E-01 -0.14718899308E+03  0.15099641326E+03  0.47000000000E+01 0. -1.
        -11    1    3    3    0    0  0.22182121844E+02  0.54095142635E+02 -0.94091439481E+02  0.11077693790E+03  0.00000000000E+00 0. -1.
         11    1    3    3    0    0  0.55822618877E+02 -0.25562039312E+02 -0.51765204390E+02  0.80307029690E+02  0.00000000000E+00 0.  1.
<mgrwt>
<rscale>  0 0.14292446E+03</rscale>
<asrwt>0</asrwt>
<pdfrwt beam="2">  1        1 0.15643731E+00 0.15007777E+03</pdfrwt>
<pdfrwt beam="1">  1       -1 0.45001362E-02 0.15007777E+03</pdfrwt>
<totfact> 0.31600405E+03</totfact>
</mgrwt>
</event>
<event>
 8    1  0.7550631E-006  0.1293576E+03  0.7546771E-02  0.1242678E+00
          1   -1    0    0  501    0  0.00000000000E+00  0.00000000000E+00  0.90949784335E+02  0.90949784335E+02  0.00000000000E+00 0. -1.
         -1   -1    0    0    0  501 -0.00000000000E+00 -0.00000000000E+00 -0.18775442727E+03  0.18775442727E+03  0.00000000000E+00 0.  1.
         23    2    1    2    0    0  0.17621894077E+01 -0.33228558786E+02 -0.11262259906E+03  0.14838305023E+03  0.90699709730E+02 0.  0.
         23    2    1    2    0    0 -0.17621894077E+01  0.33228558786E+02  0.15817956122E+02  0.13032116138E+03  0.12500461966E+03 0.  0.
          5    1    4    4  502    0 -0.30049587946E+02  0.68147138213E+02 -0.14347619068E+02  0.75993120447E+02  0.47000000000E+01 0.  1.
         -5    1    4    4    0  502  0.28287398538E+02 -0.34918579427E+02  0.30165575190E+02  0.54328040934E+02  0.47000000000E+01 0.  1.
        -11    1    3    3    0    0  0.42632281046E+02 -0.12896504966E+02 -0.29110907047E+02  0.53209737235E+02  0.00000000000E+00 0. -1.
         11    1    3    3    0    0 -0.40870091638E+02 -0.20332053820E+02 -0.83511692014E+02  0.95173312993E+02  0.00000000000E+00 0.  1.
<mgrwt>
<rscale>  0 0.12025431E+03</rscale>
<asrwt>0</asrwt>
<pdfrwt beam="1">  1        1 0.13992275E-01 0.12935763E+03</pdfrwt>
<pdfrwt beam="2">  1       -1 0.28885296E-01 0.12935763E+03</pdfrwt>
<totfact> 0.42536885E+03</totfact>
</mgrwt>
</event>
<event>
 8    1  0.7550631E-006  0.1472441E+03  0.7546771E-02  0.1213094E+00
          2   -1    0    0  501    0  0.00000000000E+00  0.00000000000E+00  0.19618640180E+04  0.19618640180E+04  0.00000000000E+00 0. -1.
         -2   -1    0    0    0  501 -0.00000000000E+00 -0.00000000000E+00 -0.16611660158E+02  0.16611660158E+02  0.00000000000E+00 0.  1.
         23    2    1    2    0    0 -0.75776070190E+02 -0.17766002381E+02  0.25942042912E+03  0.28622566035E+03  0.92566332676E+02 0.  0.
         23    2    1    2    0    0  0.75776070190E+02  0.17766002381E+02  0.16858319287E+04  0.16922500178E+04  0.12499274862E+03 0.  0.
          5    1    4    4  502    0 -0.30429411881E+02  0.25540115204E+02  0.39274642867E+03  0.39477853770E+03  0.47000000000E+01 0. -1.
         -5    1    4    4    0  502  0.10620548207E+03 -0.77741128234E+01  0.12930855001E+04  0.12974714801E+04  0.47000000000E+01 0. -1.
        -11    1    3    3    0    0 -0.70809738317E+02  0.10734853544E+02  0.24218001137E+03  0.25254784503E+03  0.00000000000E+00 0. -1.
         11    1    3    3    0    0 -0.49663318730E+01 -0.28500855925E+02  0.17240417746E+02  0.33677815321E+02  0.00000000000E+00 0.  1.
<mgrwt>
<rscale>  0 0.14017475E+03</rscale>
<asrwt>0</asrwt>
<pdfrwt beam="1">  1        2 0.30182505E+00 0.14724412E+03</pdfrwt>
<pdfrwt beam="2">  1       -2 0.25556416E-02 0.14724412E+03</pdfrwt>
<totfact> 0.41710013E+03</totfact>
</mgrwt>
</event>
<event>
 8    1  0.7550631E-006  0.1677416E+03  0.7546771E-02  0.1188769E+00
         -2   -1    0    0    0  501 -0.00000000000E+00  0.00000000000E+00  0.19573000695E+03  0.19573000695E+03  0.00000000000E+00 0.  1.
          2   -1    0    0  501    0  0.00000000000E+00 -0.00000000000E+00 -0.13542860987E+03  0.13542860987E+03  0.00000000000E+00 0. -1.
         23    2    1    2    0    0 -0.75577425842E+01  0.11158112283E+03  0.83474544133E+02  0.16182394262E+03  0.81923882013E+02 0.  0.
         23    2    1    2    0    0  0.75577425842E+01 -0.11158112283E+03 -0.23173147058E+02  0.16933467420E+03  0.12501908133E+03 0.  0.
          5    1    4    4  502    0 -0.19872987226E+02  0.22464698619E+02 -0.91805986779E+01  0.31717056885E+02  0.47000000000E+01 0. -1.
         -5    1    4    4    0  502  0.27430729810E+02 -0.13404582145E+03 -0.13992548381E+02  0.13761761731E+03  0.47000000000E+01 0. -1.
        -11    1    3    3    0    0  0.26310015997E+02  0.32236801407E+02  0.58911897541E+02  0.72125168829E+02  0.00000000000E+00 0.  1.
         11    1    3    3    0    0 -0.33867758581E+02  0.79344321419E+02  0.24562646591E+02  0.89698773795E+02  0.00000000000E+00 0. -1.
<mgrwt>
<rscale>  0 0.15993623E+03</rscale>
<asrwt>0</asrwt>
<pdfrwt beam="2">  1        2 0.20835171E-01 0.16774158E+03</pdfrwt>
<pdfrwt beam="1">  1       -2 0.30112309E-01 0.16774158E+03</pdfrwt>
<totfact> 0.26261985E+03</totfact>
</mgrwt>
</event>
<event>
 8    1  0.7550631E-006  0.1264517E+03  0.7546771E-02  0.1253731E+00
          3   -1    0    0  501    0  0.00000000000E+00  0.00000000000E+00  0.69321236073E+02  0.69321236073E+02  0.00000000000E+00 0. -1.
         -3   -1    0    0    0  501 -0.00000000000E+00 -0.00000000000E+00 -0.16007233297E+03  0.16007233297E+03  0.00000000000E+00 0.  1.
         23    2    1    2    0    0  0.13224333974E+02  0.13797190156E+02 -0.48722651443E+02  0.96140368915E+02  0.80646316135E+02 0.  0.
         23    2    1    2    0    0 -0.13224333974E+02 -0.13797190156E+02 -0.42028445455E+02  0.13325320013E+03  0.12499911861E+03 0.  0.
          5    1    4    4  502    0 -0.65849435046E+02  0.93300681946E+01 -0.34557661362E+02  0.75096739125E+02  0.47000000000E+01 0.  1.
         -5    1    4    4    0  502  0.52625101072E+02 -0.23127258351E+02 -0.74707840928E+01  0.58156461005E+02  0.47000000000E+01 0.  1.
        -11    1    3    3    0    0  0.23121813434E+02  0.18726602312E+01  0.16907643967E+02  0.28705287620E+02  0.00000000000E+00 0. -1.
         11    1    3    3    0    0 -0.98974794600E+01  0.11924529925E+02 -0.65630295410E+02  0.67435081295E+02  0.00000000000E+00 0.  1.
<mgrwt>
<rscale>  0 0.11377732E+03</rscale>
<asrwt>0</asrwt>
<pdfrwt beam="1">  1        3 0.10664806E-01 0.12645167E+03</pdfrwt>
<pdfrwt beam="2">  1       -3 0.24626512E-01 0.12645167E+03</pdfrwt>
<totfact> 0.23126616E+03</totfact>
</mgrwt>
</event>
<event>
 7    1  0.7550631E-006  0.2649708E+03  0.7546771E-02  0.1132170E+00
         -2   -1    0    0    0  501 -0.00000000000E+00  0.00000000000E+00  0.79284055240E+02  0.79284055240E+02  0.00000000000E+00 0.  1.
          2   -1    0    0  501    0  0.00000000000E+00 -0.00000000000E+00 -0.51313564397E+03  0.51313564397E+03  0.00000000000E+00 0. -1.
         23    2    1    2    0    0  0.33371137349E+02  0.83688043007E+02 -0.93996779118E+02  0.16147793411E+03  0.95511294457E+02 0.  0.
          5    1    1    2  502    0  0.63999609828E+02 -0.12470790771E+03 -0.26981757240E+03  0.30409147420E+03  0.47000000000E+01 0. -1.
         -5    1    1    2    0  502 -0.97370747177E+02  0.41019864707E+02 -0.70037237215E+02  0.12685029091E+03  0.47000000000E+01 0.  1.
        -11    1    3    3    0    0  0.52924498899E+02  0.89919546486E+02 -0.94752502931E+02  0.14094170510E+03  0.00000000000E+00 0.  1.
         11    1    3    3    0    0 -0.19553361550E+02 -0.62315034786E+01  0.75572381284E+00  0.20536229011E+02  0.00000000000E+00 0. -1.
<mgrwt>
<rscale>  0 0.22231296E+03</rscale>
<asrwt>0</asrwt>
<pdfrwt beam="2">  1        2 0.78943944E-01 0.26497078E+03</pdfrwt>
<pdfrwt beam="1">  1       -2 0.12197547E-01 0.26497078E+03</pdfrwt>
<totfact> 0.28983737E+03</totfact>
</mgrwt>
</event>
<event>
 8    1  0.7550631E-006  0.1560449E+03  0.7546771E-02  0.1201445E+00
         -1   -1    0    0    0  501 -0.00000000000E+00  0.00000000000E+00  0.73385606326E+02  0.73385606326E+02  0.00000000000E+00 0.  1.
          1   -1    0    0  501    0  0.00000000000E+00 -0.00000000000E+00 -0.40297659310E+03  0.40297659310E+03  0.00000000000E+00 0. -1.
         23    2    1    2    0    0 -0.63769152117E+01  0.93178847925E+02 -0.23169703991E+02  0.13249592472E+03  0.91078933545E+02 0.  0.
         23    2    1    2    0    0  0.63769152117E+01 -0.93178847925E+02 -0.30642128278E+03  0.34386627471E+03  0.12500819809E+03 0.  0.
          5    1    4    4  502    0  0.59870980534E+02 -0.49531770155E+02 -0.10375827210E+03  0.12971429988E+03  0.47000000000E+01 0.  1.
         -5    1    4    4    0  502 -0.53494065322E+02 -0.43647077770E+02 -0.20266301068E+03  0.21415197482E+03  0.47000000000E+01 0.  1.
        -11    1    3    3    0    0 -0.24517034512E+02  0.59611252287E+02  0.26646130436E+02  0.69746703490E+02  0.00000000000E+00 0.  1.
         11    1    3    3    0    0  0.18140119301E+02  0.33567595638E+02 -0.49815834427E+02  0.62749221229E+02  0.00000000000E+00 0. -1.
<mgrwt>
<rscale>  0 0.14921134E+03</rscale>
<asrwt>0</asrwt>
<pdfrwt beam="2">  1        1 0.61996400E-01 0.15604490E+03</pdfrwt>
<pdfrwt beam="1">  1       -1 0.11290093E-01 0.15604490E+03</pdfrwt>
<totfact> 0.29578754E+03</totfact>
</mgrwt>
</event>
<event>
 8    1  0.7550631E-006  0.1451066E+03  0.7546771E-02  0.1216949E+00
         -3   -1    0    0    0  501 -0.00000000000E+00  0.00000000000E+00  0.28328133162E+03  0.28328133162E+03  0.00000000000E+00 0.  1.
          3   -1    0    0  501    0  0.00000000000E+00 -0.00000000000E+00 -0.60398367194E+02  0.60398367194E+02  0.00000000000E+00 0. -1.
         23    2    1    2    0    0  0.62481455053E+02  0.39078486947E+02  0.10237272870E+03  0.15505668301E+03  0.90173937461E+02 0.  0.
         23    2    1    2    0    0 -0.62481455053E+02 -0.39078486947E+02  0.12051023572E+03  0.18862301580E+03  0.12499945923E+03 0.  0.
          5    1    4    4  502    0 -0.20412257667E+02  0.29452751171E+02  0.98792404757E+02  0.10519578914E+03  0.47000000000E+01 0.  1.
         -5    1    4    4    0  502 -0.42069197386E+02 -0.68531238118E+02  0.21717830966E+02  0.83427226662E+02  0.47000000000E+01 0.  1.
        -11    1    3    3    0    0  0.49839196895E+01  0.16269897739E+02 -0.14804570285E+02  0.22554918072E+02  0.00000000000E+00 0. -1.
         11    1    3    3    0    0  0.57497535364E+02  0.22808589208E+02  0.11717729898E+03  0.13250176494E+03  0.00000000000E+00 0.  1.
<mgrwt>
<rscale>  0 0.13734329E+03</rscale>
<asrwt>0</asrwt>
<pdfrwt beam="2">  1        3 0.92920566E-02 0.14510660E+03</pdfrwt>
<pdfrwt beam="1">  1       -3 0.43581743E-01 0.14510660E+03</pdfrwt>
<totfact> 0.10198928E+03</totfact>
</mgrwt>
</event>
<event>
 7    1  0.7550631E-006  0.3649180E+03  0.7546771E-02  0.1056653E+00
         -2   -1    0    0    0  501 -0.00000000000E+00  0.00000000000E+00  0.44005854230E+02  0.44005854230E+02  0.00000000000E+00 0.  1.
          2   -1    0    0  501    0  0.00000000000E+00 -0.00000000000E+00 -0.75651956587E+03  0.75651956587E+03  0.00000000000E+00 0. -1.
         23    2    1    2    0    0  0.41547978920E+02  0.10741723712E+02 -0.53087217582E+03  0.54753742583E+03  0.12700530085E+03 0.  0.
          5    1    3    3  502    0 -0.26134888481E+02  0.45821683610E+02 -0.14979335111E+03  0.15887981974E+03  0.47000000000E+01 0. -1.
         -5    1    3    3    0  502  0.67682867401E+02 -0.35079959898E+02 -0.38107882471E+03  0.38865760608E+03  0.47000000000E+01 0.  1.
        -11    1    1    2    0    0  0.50876469551E+02 -0.45564898710E+02 -0.36528928921E+02  0.77452810127E+02  0.00000000000E+00 0.  1.
         11    1    1    2    0    0 -0.92424448471E+02  0.34823174998E+02 -0.14511260691E+03  0.17553518415E+03  0.00000000000E+00 0. -1.
<mgrwt>
<rscale>  0 0.36491802E+03</rscale>
<asrwt>0</asrwt>
<pdfrwt beam="2">  1        2 0.11638763E+00 0.36491802E+03</pdfrwt>
<pdfrwt beam="1">  1       -2 0.67701312E-02 0.36491802E+03</pdfrwt>
<totfact> 0.46974885E+03</totfact>
</mgrwt>
</event>
<event>
 8    1  0.7550631E-006  0.2050274E+03  0.7546771E-02  0.1150045E+00
          2   -1    0    0  501    0  0.00000000000E+00  0.00000000000E+00  0.72898680991E+03  0.72898680991E+03  0.00000000000E+00 0. -1.
         -2   -1    0    0    0  501 -0.00000000000E+00 -0.00000000000E+00 -0.54450966336E+02  0.54450966336E+02  0.00000000000E+00 0.  1.
         23    2    1    2    0    0  0.98437202531E+02 -0.12930900227E+03  0.23683791380E+03  0.30009970218E+03  0.86930621319E+02 0.  0.
         23    2    1    2    0    0 -0.98437202531E+02  0.12930900227E+03  0.43769792978E+03  0.48333807407E+03  0.12500206083E+03 0.  0.
          5    1    4    4  502    0 -0.10501026001E+03  0.76524784182E+02  0.39218094052E+03  0.41317209176E+03  0.47000000000E+01 0.  1.
         -5    1    4    4    0  502  0.65730574813E+01  0.52784218084E+02  0.45516989259E+02  0.70165982318E+02  0.47000000000E+01 0.  1.
        -11    1    3    3    0    0  0.73459515268E+02 -0.51302791202E+02  0.68133993045E+02  0.11256339448E+03  0.00000000000E+00 0.  1.
         11    1    3    3    0    0  0.24977687263E+02 -0.78006211064E+02  0.16870392076E+03  0.18753630770E+03  0.00000000000E+00 0. -1.
<mgrwt>
<rscale>  0 0.19963745E+03</rscale>
<asrwt>0</asrwt>
<pdfrwt beam="1">  1        2 0.11215181E+00 0.20502735E+03</pdfrwt>
<pdfrwt beam="2">  1       -2 0.83770723E-02 0.20502735E+03</pdfrwt>
<totfact> 0.34720432E+03</totfact>
</mgrwt>
</event>
<event>
 8    1  0.7550631E-006  0.1259642E+03  0.7546771E-02  0.1249581E+00
          1   -1    0    0  501    0  0.00000000000E+00  0.00000000000E+00  0.48213891223E+03  0.48213891223E+03  0.00000000000E+00 0. -1.
         -1   -1    0    0    0  501 -0.00000000000E+00 -0.00000000000E+00 -0.32564012145E+02  0.32564012145E+02  0.00000000000E+00 0.  1.
         23    2    1    2    0    0 -0.31855920099E+01  0.15260002536E+02  0.70274131572E+02  0.11503299119E+03  0.89728032522E+02 0.  0.
         23    2    1    2    0    0  0.31855920099E+01 -0.15260002536E+02  0.37930076851E+03  0.39966993319E+03  0.12499586723E+03 0.  0.
          5    1    4    4  502    0  0.80964478801E+01 -0.78158147542E+01  0.38687098896E+03  0.38706316220E+03  0.47000000000E+01 0.  1.
         -5    1    4    4    0  502 -0.49108558702E+01 -0.74441877818E+01 -0.75702204492E+01  0.12606770989E+02  0.47000000000E+01 0.  1.
        -11    1    3    3    0    0  0.95177950843E+00 -0.17507442294E+02 -0.15322742219E+02  0.23285249602E+02  0.00000000000E+00 0.  1.
         11    1    3    3    0    0 -0.41373715184E+01  0.32767444831E+02  0.85596873791E+02  0.91747741589E+02  0.00000000000E+00 0. -1.
<mgrwt>
<rscale>  0 0.11615336E+03</rscale>
<asrwt>0</asrwt>
<pdfrwt beam="1">  1        1 0.74175212E-01 0.12596421E+03</pdfrwt>
<pdfrwt beam="2">  1       -1 0.50098484E-02 0.12596421E+03</pdfrwt>
<totfact> 0.79107950E+03</totfact>
</mgrwt>
</event>
<event>
 8    1  0.7550631E-006  0.1295123E+03  0.7546771E-02  0.1243199E+00
         -2   -1    0    0    0  501 -0.00000000000E+00  0.00000000000E+00  0.42259134163E+02  0.42259134163E+02  0.00000000000E+00 0.  1.
          2   -1    0    0  501    0  0.00000000000E+00 -0.00000000000E+00 -0.35734021856E+03  0.35734021856E+03  0.00000000000E+00 0. -1.
         23    2    1    2    0    0  0.12659712519E+02 -0.31430468416E+02 -0.57433814333E+02  0.11123229020E+03  0.89027168261E+02 0.  0.
         23    2    1    2    0    0 -0.12659712519E+02  0.31430468416E+02 -0.25764727007E+03  0.28836706252E+03  0.12500121723E+03 0.  0.
          5    1    4    4  502    0  0.13394832239E+02  0.46278078621E+02 -0.25308407067E+03  0.25767172705E+03  0.47000000000E+01 0.  1.
         -5    1    4    4    0  502 -0.26054544758E+02 -0.14847610205E+02 -0.45631993957E+01  0.30695335478E+02  0.47000000000E+01 0.  1.
        -11    1    3    3    0    0 -0.15148924934E+02  0.23160942148E+02 -0.37896965267E+02  0.46926529217E+02  0.00000000000E+00 0.  1.
         11    1    3    3    0    0  0.27808637453E+02 -0.54591410564E+02 -0.19536849066E+02  0.64305760984E+02  0.00000000000E+00 0. -1.
<mgrwt>
<rscale>  0 0.11993836E+03</rscale>
<asrwt>0</asrwt>
<pdfrwt beam="2">  1        2 0.54975419E-01 0.12951234E+03</pdfrwt>
<pdfrwt beam="1">  1       -2 0.65014052E-02 0.12951234E+03</pdfrwt>
<totfact> 0.11133545E+04</totfact>
</mgrwt>
</event>
<event>
 8    1  0.7550631E-006  0.2128336E+03  0.7546771E-02  0.1142779E+00
          2   -1    0    0  501    0  0.00000000000E+00  0.00000000000E+00  0.20818603265E+04  0.20818603265E+04  0.00000000000E+00 0. -1.
         -2   -1    0    0    0  501 -0.00000000000E+00 -0.00000000000E+00 -0.21842926370E+02  0.21842926370E+02  0.00000000000E+00 0.  1.
         23    2    1    2    0    0  0.14033504481E+03 -0.99942280360E+02  0.69097121519E+03  0.71821215688E+03  0.93301113956E+02 0.  0.
         23    2    1    2    0    0 -0.14033504481E+03  0.99942280360E+02  0.13690461849E+04  0.13854910960E+04  0.12496293994E+03 0.  0.
          5    1    4    4  502    0 -0.89699331943E+02  0.50812023671E+02  0.11645808447E+04  0.11691443306E+04  0.47000000000E+01 0.  1.
         -5    1    4    4    0  502 -0.50635712866E+02  0.49130256689E+02  0.20446534022E+03  0.21634676538E+03  0.47000000000E+01 0.  1.
        -11    1    3    3    0    0  0.55385897360E+02 -0.60640711973E+02  0.16880561363E+03  0.18772380980E+03  0.00000000000E+00 0.  1.
         11    1    3    3    0    0  0.84949147449E+02 -0.39301568387E+02  0.52216560156E+03  0.53048834708E+03  0.00000000000E+00 0. -1.
<mgrwt>
<rscale>  0 0.20847490E+03</rscale>
<asrwt>0</asrwt>
<pdfrwt beam="1">  1        2 0.32028605E+00 0.21283355E+03</pdfrwt>
<pdfrwt beam="2">  1       -2 0.33604519E-02 0.21283355E+03</pdfrwt>
<totfact> 0.24097780E+03</totfact>
</mgrwt>
</event>
<event>
 8    1  0.7550631E-006  0.1450415E+03  0.7546771E-02  0.1216576E+00
         -2   -1    0    0    0  501 -0.00000000000E+00  0.00000000000E+00  0.12382824392E+03  0.12382824392E+03  0.00000000000E+00 0.  1.
          2   -1    0    0  501    0  0.00000000000E+00 -0.00000000000E+00 -0.14689242179E+03  0.14689242179E+03  0.00000000000E+00 0. -1.
         23    2    1    2    0    0  0.73241623051E+02  0.68231740814E+01  0.20430192180E+02  0.11929813313E+03  0.91672028257E+02 0.  0.
         23    2    1    2    0    0 -0.73241623051E+02 -0.68231740814E+01 -0.43494370057E+02  0.15142253257E+03  0.12500452829E+03 0.  0.
          5    1    4    4  502    0 -0.57400225918E+02  0.53949202882E+02 -0.39680135319E+02  0.88328396147E+02  0.47000000000E+01 0.  1.
         -5    1    4    4    0  502 -0.15841397133E+02 -0.60772376963E+02 -0.38142347379E+01  0.63094136427E+02  0.47000000000E+01 0.  1.
        -11    1    3    3    0    0  0.47712783692E+02  0.38143075997E+02  0.41382284834E+02  0.73782772191E+02  0.00000000000E+00 0.  1.
         11    1    3    3    0    0  0.25528839359E+02 -0.31319901916E+02 -0.20952092654E+02  0.45515360941E+02  0.00000000000E+00 0. -1.
<mgrwt>
<rscale>  0 0.13761368E+03</rscale>
<asrwt>0</asrwt>
<pdfrwt beam="2">  1        2 0.22598834E-01 0.14504145E+03</pdfrwt>
<pdfrwt beam="1">  1       -2 0.19050499E-01 0.14504145E+03</pdfrwt>
<totfact> 0.52801392E+03</totfact>
</mgrwt>
</event>
<event>
 8    1  0.7550631E-006  0.1330171E+03  0.7546771E-02  0.1233860E+00
          1   -1    0    0  501    0  0.00000000000E+00  0.00000000000E+00  0.73920733518E+02  0.73920733518E+02  0.00000000000E+00 0. -1.
         -1   -1    0    0    0  501 -0.00000000000E+00 -0.00000000000E+00 -0.19375985304E+03  0.19375985304E+03  0.00000000000E+00 0.  1.
         23    2    1    2    0    0 -0.21050367374E+02 -0.40308584627E+02 -0.53960514894E+02  0.11924357944E+03  0.96121767092E+02 0.  0.
         23    2    1    2    0    0  0.21050367374E+02  0.40308584627E+02 -0.65878604628E+02  0.14843700712E+03  0.12500261827E+03 0.  0.
          5    1    4    4  502    0 -0.47681324301E+02  0.40025053832E+02 -0.43151059292E+02  0.75892144122E+02  0.47000000000E+01 0.  1.
         -5    1    4    4    0  502  0.68731691675E+02  0.28353079454E+00 -0.22727545336E+02  0.72544862997E+02  0.47000000000E+01 0.  1.
        -11    1    3    3    0    0 -0.49028084780E+02 -0.55386978851E+02 -0.43354102422E+02  0.85738257040E+02  0.00000000000E+00 0.  1.
         11    1    3    3    0    0  0.27977717406E+02  0.15078394224E+02 -0.10606412471E+02  0.33505322400E+02  0.00000000000E+00 0. -1.
<mgrwt>
<rscale>  0 0.12577679E+03</rscale>
<asrwt>0</asrwt>
<pdfrwt beam="1">  1        1 0.11372421E-01 0.13301712E+03</pdfrwt>
<pdfrwt beam="2">  1       -1 0.29809208E-01 0.13301712E+03</pdfrwt>
<totfact> 0.53007765E+03</totfact>
</mgrwt>
</event>
<event>
 8    1  0.7550631E-006  0.1402888E+03  0.7546771E-02  0.1225487E+00
         -1   -1    0    0    0  501 -0.00000000000E+00  0.00000000000E+00  0.24720549154E+02  0.24720549154E+02  0.00000000000E+00 0.  1.
          1   -1    0    0  501    0  0.00000000000E+00 -0.00000000000E+00 -0.66671670470E+03  0.66671670470E+03  0.00000000000E+00 0. -1.
         23    2    1    2    0    0  0.28434454227E+02 -0.56976899299E+02 -0.19314026131E+03  0.22116864844E+03  0.86934028278E+02 0.  0.
         23    2    1    2    0    0 -0.28434454227E+02  0.56976899299E+02 -0.44885589424E+03  0.47026860541E+03  0.12500424876E+03 0.  0.
          5    1    4    4  502    0 -0.28936234632E+01  0.36129575612E+02 -0.23153034087E+02  0.43265139294E+02  0.47000000000E+01 0.  1.
         -5    1    4    4    0  502 -0.25540830763E+02  0.20847323686E+02 -0.42570286015E+03  0.42700346612E+03  0.47000000000E+01 0.  1.
        -11    1    3    3    0    0 -0.22958465597E+02 -0.50605550173E+02 -0.10951649195E+03  0.12280828498E+03  0.00000000000E+00 0. -1.
         11    1    3    3    0    0  0.51392919823E+02 -0.63713491252E+01 -0.83623769362E+02  0.98360363460E+02  0.00000000000E+00 0.  1.
<mgrwt>
<rscale>  0 0.13133563E+03</rscale>
<asrwt>0</asrwt>
<pdfrwt beam="2">  1        1 0.10257178E+00 0.14028880E+03</pdfrwt>
<pdfrwt beam="1">  1       -1 0.38031620E-02 0.14028880E+03</pdfrwt>
<totfact> 0.77302369E+03</totfact>
</mgrwt>
</event>
<event>
 8    1  0.7550631E-006  0.1980092E+03  0.7546771E-02  0.1156126E+00
          2   -1    0    0  501    0  0.00000000000E+00  0.00000000000E+00  0.16689974872E+03  0.16689974872E+03  0.00000000000E+00 0.  1.
         -2   -1    0    0    0  501 -0.00000000000E+00 -0.00000000000E+00 -0.21097697460E+03  0.21097697460E+03  0.00000000000E+00 0. -1.
         23    2    1    2    0    0  0.15339574628E+03 -0.75933053401E+01 -0.21323459836E+02  0.17856444424E+03  0.88558780163E+02 0.  0.
         23    2    1    2    0    0 -0.15339574628E+03  0.75933053401E+01 -0.22753766049E+02  0.19931227907E+03  0.12497894806E+03 0.  0.
          5    1    4    4  502    0 -0.64911150332E+01  0.19137561072E+02  0.35231537810E+02  0.40886820304E+02  0.47000000000E+01 0. -1.
         -5    1    4    4    0  502 -0.14690463125E+03 -0.11544255731E+02 -0.57985303859E+02  0.15842545877E+03  0.47000000000E+01 0. -1.
        -11    1    3    3    0    0  0.89170060309E+02 -0.20811985133E+02  0.28844563698E+02  0.96002329324E+02  0.00000000000E+00 0. -1.
         11    1    3    3    0    0  0.64225685974E+02  0.13218679793E+02 -0.50168023534E+02  0.82562114917E+02  0.00000000000E+00 0.  1.
<mgrwt>
<rscale>  0 0.19261189E+03</rscale>
<asrwt>0</asrwt>
<pdfrwt beam="1">  1        2 0.25676885E-01 0.19800922E+03</pdfrwt>
<pdfrwt beam="2">  1       -2 0.32457996E-01 0.19800922E+03</pdfrwt>
<totfact> 0.18239504E+03</totfact>
</mgrwt>
</event>
<event>
 8    1  0.7550631E-006  0.1607112E+03  0.7546771E-02  0.1195108E+00
          1   -1    0    0  501    0  0.00000000000E+00  0.00000000000E+00  0.55738500239E+03  0.55738500239E+03  0.00000000000E+00 0. -1.
         -1   -1    0    0    0  501 -0.00000000000E+00 -0.00000000000E+00 -0.41996199336E+02  0.41996199336E+02  0.00000000000E+00 0.  1.
         23    2    1    2    0    0 -0.94908433791E+02 -0.34612663042E+02  0.16968047671E+03  0.21814331975E+03  0.92678997232E+02 0.  0.
         23    2    1    2    0    0  0.94908433791E+02  0.34612663042E+02  0.34570832634E+03  0.38123788197E+03  0.12498971358E+03 0.  0.
          5    1    4    4  502    0  0.60155949395E+02  0.77668077697E+02  0.26994260446E+03  0.28730152844E+03  0.47000000000E+01 0. -1.
         -5    1    4    4    0  502  0.34752484395E+02 -0.43055414656E+02  0.75765721879E+02  0.93936353530E+02  0.47000000000E+01 0. -1.
        -11    1    3    3    0    0 -0.45100051816E+02 -0.21519964356E+02  0.15747890815E+03  0.16521722081E+03  0.00000000000E+00 0. -1.
         11    1    3    3    0    0 -0.49808381974E+02 -0.13092698686E+02  0.12201568559E+02  0.52926098941E+02  0.00000000000E+00 0.  1.
<mgrwt>
<rscale>  0 0.15445072E+03</rscale>
<asrwt>0</asrwt>
<pdfrwt beam="1">  1        1 0.85751533E-01 0.16071116E+03</pdfrwt>
<pdfrwt beam="2">  1       -1 0.64609542E-02 0.16071116E+03</pdfrwt>
<totfact> 0.45367991E+03</totfact>
</mgrwt>
</event>
<event>
 8    1  0.7550631E-006  0.1541665E+03  0.7546771E-02  0.1203283E+00
         -2   -1    0    0    0  501 -0.00000000000E+00  0.00000000000E+00  0.22730826676E+02  0.22730826676E+02  0.00000000000E+00 0.  1.
          2   -1    0    0  501    0  0.00000000000E+00 -0.00000000000E+00 -0.91428539382E+03  0.91428539382E+03  0.00000000000E+00 0. -1.
         23    2    1    2    0    0  0.72886993357E+02  0.53211301342E+02 -0.33006867202E+03  0.35475019590E+03  0.93586413820E+02 0.  0.
         23    2    1    2    0    0 -0.72886993357E+02 -0.53211301342E+02 -0.56148589512E+03  0.58226602459E+03  0.12499342616E+03 0.  0.
          5    1    4    4  502    0 -0.69717576400E+02  0.67369048043E+01 -0.14119408242E+03  0.15768254582E+03  0.47000000000E+01 0. -1.
         -5    1    4    4    0  502 -0.31694169570E+01 -0.59948206146E+02 -0.42029181270E+03  0.42458347877E+03  0.47000000000E+01 0. -1.
        -11    1    3    3    0    0  0.53649681567E+01  0.20566017615E+02 -0.59556896324E+01  0.22072929186E+02  0.00000000000E+00 0.  1.
         11    1    3    3    0    0  0.67522025200E+02  0.32645283727E+02 -0.32411298239E+03  0.33267726672E+03  0.00000000000E+00 0. -1.
<mgrwt>
<rscale>  0 0.14773588E+03</rscale>
<asrwt>0</asrwt>
<pdfrwt beam="2">  1        2 0.14065929E+00 0.15416651E+03</pdfrwt>
<pdfrwt beam="1">  1       -2 0.34970503E-02 0.15416651E+03</pdfrwt>
<totfact> 0.97087944E+03</totfact>
</mgrwt>
</event>
<event>
 8    1  0.7550631E-006  0.1385649E+03  0.7546771E-02  0.1226505E+00
          2   -1    0    0  501    0  0.00000000000E+00  0.00000000000E+00  0.64498880607E+02  0.64498880607E+02  0.00000000000E+00 0. -1.
         -2   -1    0    0    0  501 -0.00000000000E+00 -0.00000000000E+00 -0.31062663817E+03  0.31062663817E+03  0.00000000000E+00 0.  1.
         23    2    1    2    0    0  0.55433539916E+02 -0.22412111655E+02 -0.20189164954E+03  0.22967083691E+03  0.91723906788E+02 0.  0.
         23    2    1    2    0    0 -0.55433539916E+02  0.22412111655E+02 -0.44236108026E+02  0.14545468187E+03  0.12500020451E+03 0.  0.
          5    1    4    4  502    0 -0.10144894696E+00  0.66812956045E+02 -0.15372597119E+02  0.68719634236E+02  0.47000000000E+01 0. -1.
         -5    1    4    4    0  502 -0.55332090969E+02 -0.44400844390E+02 -0.28863510907E+02  0.76735047634E+02  0.47000000000E+01 0. -1.
        -11    1    3    3    0    0  0.54772693538E+02 -0.52768505836E+02 -0.11734399262E+03  0.13983624626E+03  0.00000000000E+00 0. -1.
         11    1    3    3    0    0  0.66084637737E+00  0.30356394180E+02 -0.84547656924E+02  0.89834590648E+02  0.00000000000E+00 0.  1.
<mgrwt>
<rscale>  0 0.13064275E+03</rscale>
<asrwt>0</asrwt>
<pdfrwt beam="1">  1        2 0.99229047E-02 0.13856490E+03</pdfrwt>
<pdfrwt beam="2">  1       -2 0.47788714E-01 0.13856490E+03</pdfrwt>
<totfact> 0.26202099E+03</totfact>
</mgrwt>
</event>
<event>
 8    1  0.7550631E-006  0.1878004E+03  0.7546771E-02  0.1164890E+00
         -4   -1    0    0    0  501 -0.00000000000E+00  0.00000000000E+00  0.13137603456E+03  0.13137603456E+03  0.00000000000E+00 0.  1.
          4   -1    0    0  501    0  0.00000000000E+00 -0.00000000000E+00 -0.29827204667E+03  0.29827204667E+03  0.00000000000E+00 0. -1.
         23    2    1    2    0    0 -0.15085317978E+02  0.13934158522E+03  0.12487314994E+02  0.16994179959E+03  0.95292381770E+02 0.  0.
         23    2    1    2    0    0  0.15085317978E+02 -0.13934158522E+03 -0.17938332710E+03  0.25970628164E+03  0.12500132196E+03 0.  0.
          5    1    4    4  502    0  0.62228031442E+02 -0.11889293037E+03 -0.11212669790E+03  0.17493525422E+03  0.47000000000E+01 0.  1.
         -5    1    4    4    0  502 -0.47142713465E+02 -0.20448654852E+02 -0.67256629202E+02  0.84771027419E+02  0.47000000000E+01 0.  1.
        -11    1    3    3    0    0 -0.15828598036E+02  0.12561813455E+03  0.45217179247E+02  0.13444349572E+03  0.00000000000E+00 0.  1.
         11    1    3    3    0    0  0.74328005870E+00  0.13723450668E+02 -0.32729864253E+02  0.35498303868E+02  0.00000000000E+00 0. -1.
<mgrwt>
<rscale>  0 0.18304314E+03</rscale>
<asrwt>0</asrwt>
<pdfrwt beam="2">  1        4 0.45888007E-01 0.18780036E+03</pdfrwt>
<pdfrwt beam="1">  1       -4 0.20211698E-01 0.18780036E+03</pdfrwt>
<totfact> 0.18011481E+02</totfact>
</mgrwt>
</event>
<event>
 7    1  0.7550631E-006  0.1922571E+03  0.7546771E-02  0.1188182E+00
          1   -1    0    0  501    0  0.00000000000E+00  0.00000000000E+00  0.99545171557E+03  0.99545171557E+03  0.00000000000E+00 0. -1.
         -1   -1    0    0    0  501 -0.00000000000E+00 -0.00000000000E+00 -0.22592398574E+02  0.22592398574E+02  0.00000000000E+00 0.  1.
         23    2    1    2    0    0 -0.18459662613E+02  0.11447904496E+02  0.18653490866E+03  0.20855733040E+03  0.90714245026E+02 0.  0.
          5    1    1    2  502    0 -0.85152504462E+02  0.11397103505E+02  0.34744369951E+03  0.35793862227E+03  0.47000000000E+01 0. -1.
         -5    1    1    2    0  502  0.10361216708E+03 -0.22845008001E+02  0.43888070883E+03  0.45154816148E+03  0.47000000000E+01 0.  1.
        -11    1    3    3    0    0 -0.52934581929E+02  0.20197370094E+01  0.77987965976E+02  0.94277633290E+02  0.00000000000E+00 0. -1.
         11    1    3    3    0    0  0.34474919316E+02  0.94281674866E+01  0.10854694269E+03  0.11427969711E+03  0.00000000000E+00 0.  1.
<mgrwt>
<rscale>  0 0.16045645E+03</rscale>
<asrwt>0</asrwt>
<pdfrwt beam="1">  1        1 0.15314638E+00 0.19225706E+03</pdfrwt>
<pdfrwt beam="2">  1       -1 0.34757544E-02 0.19225706E+03</pdfrwt>
<totfact> 0.48323218E+03</totfact>
</mgrwt>
</event>
<event>
 8    1  0.7550631E-006  0.2813858E+03  0.7546771E-02  0.1096810E+00
          2   -1    0    0  501    0  0.00000000000E+00  0.00000000000E+00  0.23672763601E+04  0.23672763601E+04  0.00000000000E+00 0. -1.
         -2   -1    0    0    0  501 -0.00000000000E+00 -0.00000000000E+00 -0.37829524209E+02  0.37829524209E+02  0.00000000000E+00 0.  1.
         23    2    1    2    0    0 -0.62373357051E-01 -0.25209755240E+03  0.66332110752E+03  0.71538610823E+03  0.90715006261E+02 0.  0.
         23    2    1    2    0    0  0.62373357051E-01  0.25209755240E+03  0.16661257284E+04  0.16897197761E+04  0.12499919641E+03 0.  0.
          5    1    4    4  502    0  0.33228002698E+01  0.25768313440E+03  0.16593239722E+04  0.16792229672E+04  0.47000000000E+01 0. -1.
         -5    1    4    4    0  502 -0.32604269128E+01 -0.55855820090E+01  0.68017561561E+01  0.10496808888E+02  0.47000000000E+01 0. -1.
        -11    1    3    3    0    0 -0.19812192454E+02 -0.11117925506E+03  0.18888290201E+03  0.22006839936E+03  0.00000000000E+00 0.  1.
         11    1    3    3    0    0  0.19749819097E+02 -0.14091829734E+03  0.47443820550E+03  0.49531770887E+03  0.00000000000E+00 0. -1.
<mgrwt>
<rscale>  0 0.27795782E+03</rscale>
<asrwt>0</asrwt>
<pdfrwt beam="1">  1        2 0.36419625E+00 0.28138582E+03</pdfrwt>
<pdfrwt beam="2">  1       -2 0.58199287E-02 0.28138582E+03</pdfrwt>
<totfact> 0.73357257E+02</totfact>
</mgrwt>
</event>
<event>
 8    1  0.7550631E-006  0.1739675E+03  0.7546771E-02  0.1179778E+00
          2   -1    0    0  501    0  0.00000000000E+00  0.00000000000E+00  0.21929757380E+04  0.21929757380E+04  0.00000000000E+00 0. -1.
         -2   -1    0    0    0  501 -0.00000000000E+00 -0.00000000000E+00 -0.15601027875E+02  0.15601027875E+02  0.00000000000E+00 0.  1.
         23    2    1    2    0    0 -0.66470499225E+02  0.10110043938E+03  0.50958836285E+03  0.53174165059E+03  0.91810986913E+02 0.  0.
         23    2    1    2    0    0  0.66470499225E+02 -0.10110043938E+03  0.16677863473E+04  0.16768351153E+04  0.12500031025E+03 0.  0.
          5    1    4    4  502    0  0.36148274356E+02 -0.69113467468E+02  0.15321248323E+04  0.15341160193E+04  0.47000000000E+01 0. -1.
         -5    1    4    4    0  502  0.30322224869E+02 -0.31986971911E+02  0.13566151501E+03  0.14271909594E+03  0.47000000000E+01 0. -1.
        -11    1    3    3    0    0 -0.66182811636E+02  0.35958225427E+02  0.16966156671E+03  0.18562921578E+03  0.00000000000E+00 0.  1.
         11    1    3    3    0    0 -0.28768758902E+00  0.65142213952E+02  0.33992679613E+03  0.34611243481E+03  0.00000000000E+00 0. -1.
<mgrwt>
<rscale>  0 0.16816263E+03</rscale>
<asrwt>0</asrwt>
<pdfrwt beam="1">  1        2 0.33738064E+00 0.17396754E+03</pdfrwt>
<pdfrwt beam="2">  1       -2 0.24001599E-02 0.17396754E+03</pdfrwt>
<totfact> 0.34738962E+03</totfact>
</mgrwt>
</event>
<event>
 8    1  0.7550631E-006  0.1999949E+03  0.7546771E-02  0.1153915E+00
          3   -1    0    0  501    0  0.00000000000E+00  0.00000000000E+00  0.49723171282E+03  0.49723171282E+03  0.00000000000E+00 0. -1.
         -3   -1    0    0    0  501 -0.00000000000E+00 -0.00000000000E+00 -0.82716503940E+02  0.82716503940E+02  0.00000000000E+00 0.  1.
         23    2    1    2    0    0  0.13602000235E+03 -0.76626536255E+02  0.99330665320E+02  0.20666646860E+03  0.92040105794E+02 0.  0.
         23    2    1    2    0    0 -0.13602000235E+03  0.76626536255E+02  0.31518454356E+03  0.37328174816E+03  0.12499959965E+03 0.  0.
          5    1    4    4  502    0 -0.55432979852E+02 -0.17557796475E+02  0.18271158356E+03  0.19179860333E+03  0.47000000000E+01 0. -1.
         -5    1    4    4    0  502 -0.80587022494E+02  0.94184332731E+02  0.13247296000E+03  0.18148314483E+03  0.47000000000E+01 0. -1.
        -11    1    3    3    0    0  0.50611374821E+02 -0.60563908078E+02  0.89304874017E+02  0.11918413798E+03  0.00000000000E+00 0. -1.
         11    1    3    3    0    0  0.85408627525E+02 -0.16062628177E+02  0.10025791303E+02  0.87482330621E+02  0.00000000000E+00 0.  1.
<mgrwt>
<rscale>  0 0.19512907E+03</rscale>
<asrwt>0</asrwt>
<pdfrwt beam="1">  1        3 0.76497185E-01 0.19999492E+03</pdfrwt>
<pdfrwt beam="2">  1       -3 0.12725616E-01 0.19999492E+03</pdfrwt>
<totfact> 0.19768894E+02</totfact>
</mgrwt>
</event>
<event>
 8    1  0.7550631E-006  0.1215693E+03  0.7546771E-02  0.1253655E+00
          1   -1    0    0  501    0  0.00000000000E+00  0.00000000000E+00  0.24267333288E+03  0.24267333288E+03  0.00000000000E+00 0. -1.
         -1   -1    0    0    0  501 -0.00000000000E+00 -0.00000000000E+00 -0.13271832758E+03  0.13271832758E+03  0.00000000000E+00 0.  1.
         23    2    1    2    0    0 -0.13151566421E+02 -0.32517507235E+02 -0.97446096128E+02  0.13498720294E+03  0.86576274645E+02 0.  0.
         23    2    1    2    0    0  0.13151566421E+02  0.32517507235E+02  0.20740110143E+03  0.24040445752E+03  0.11639903070E+03 0.  0.
          5    1    4    4  502    0  0.49495805605E+02  0.32548454812E+02  0.46704042328E+02  0.75581705808E+02  0.47000000000E+01 0. -1.
         -5    1    4    4    0  502 -0.36344239184E+02 -0.30947576320E-01  0.16069705910E+03  0.16482275172E+03  0.47000000000E+01 0.  1.
        -11    1    3    3    0    0  0.15470816864E+02  0.23068789571E+02 -0.15163890811E+02  0.31645834026E+02  0.00000000000E+00 0. -1.
         11    1    3    3    0    0 -0.28622383284E+02 -0.55586296806E+02 -0.82282205317E+02  0.10334136892E+03  0.00000000000E+00 0.  1.
<mgrwt>
<rscale>  0 0.11381998E+03</rscale>
<asrwt>0</asrwt>
<pdfrwt beam="1">  1        1 0.37334359E-01 0.12156927E+03</pdfrwt>
<pdfrwt beam="2">  1       -1 0.20418204E-01 0.12156927E+03</pdfrwt>
<totfact> 0.21701553E+03</totfact>
</mgrwt>
</event>
<event>
 8    1  0.7550631E-006  0.1417925E+03  0.7546771E-02  0.1221434E+00
         -2   -1    0    0    0  501 -0.00000000000E+00  0.00000000000E+00  0.47677108453E+02  0.47677108453E+02  0.00000000000E+00 0.  1.
          2   -1    0    0  501    0  0.00000000000E+00 -0.00000000000E+00 -0.36337307043E+03  0.36337307043E+03  0.00000000000E+00 0. -1.
         23    2    1    2    0    0  0.54958006067E+02 -0.38213990270E+02 -0.91847830388E+02  0.14607265181E+03  0.91763305182E+02 0.  0.
         23    2    1    2    0    0 -0.54958006067E+02  0.38213990270E+02 -0.22384813159E+03  0.26497752707E+03  0.12499764939E+03 0.  0.
          5    1    4    4  502    0  0.83154414707E+01 -0.21612832949E+02  0.11634414147E+01  0.23658079188E+02  0.47000000000E+01 0.  1.
         -5    1    4    4    0  502 -0.63273447538E+02  0.59826823219E+02 -0.22501157300E+03  0.24131944788E+03  0.47000000000E+01 0.  1.
        -11    1    3    3    0    0  0.29276138151E+02  0.10716717163E+02  0.77917237910E+01  0.32134891495E+02  0.00000000000E+00 0.  1.
         11    1    3    3    0    0  0.25681867916E+02 -0.48930707434E+02 -0.99639554179E+02  0.11393776032E+03  0.00000000000E+00 0. -1.
<mgrwt>
<rscale>  0 0.13414319E+03</rscale>
<asrwt>0</asrwt>
<pdfrwt beam="2">  1        2 0.55903551E-01 0.14179247E+03</pdfrwt>
<pdfrwt beam="1">  1       -2 0.73349395E-02 0.14179247E+03</pdfrwt>
<totfact> 0.91546761E+03</totfact>
</mgrwt>
</event>
<event>
 8    1  0.7550631E-006  0.1250221E+03  0.7546771E-02  0.1253871E+00
          4   -1    0    0  501    0  0.00000000000E+00  0.00000000000E+00  0.44861863579E+02  0.44861863579E+02  0.00000000000E+00 0. -1.
         -4   -1    0    0    0  501 -0.00000000000E+00 -0.00000000000E+00 -0.32168162118E+03  0.32168162118E+03  0.00000000000E+00 0.  1.
         23    2    1    2    0    0  0.20643563808E+01 -0.17200600773E+01 -0.20556052637E+03  0.22263935884E+03  0.85474756091E+02 0.  0.
         23    2    1    2    0    0 -0.20643563808E+01  0.17200600773E+01 -0.71259231225E+02  0.14390412591E+03  0.12499319680E+03 0.  0.
          5    1    4    4  502    0 -0.62277168755E+01 -0.48293793872E+02  0.84004787692E+01  0.49636005355E+02  0.47000000000E+01 0. -1.
         -5    1    4    4    0  502  0.41633604947E+01  0.50013853949E+02 -0.79659709994E+02  0.94268120559E+02  0.47000000000E+01 0. -1.
        -11    1    3    3    0    0  0.39284082153E+02  0.54356821667E+01 -0.57813508708E+02  0.70108398501E+02  0.00000000000E+00 0. -1.
         11    1    3    3    0    0 -0.37219725772E+02 -0.71557422440E+01 -0.14774701767E+03  0.15253096034E+03  0.00000000000E+00 0.  1.
<mgrwt>
<rscale>  0 0.11369808E+03</rscale>
<asrwt>0</asrwt>
<pdfrwt beam="1">  1        4 0.69018252E-02 0.12502208E+03</pdfrwt>
<pdfrwt beam="2">  1       -4 0.49489480E-01 0.12502208E+03</pdfrwt>
<totfact> 0.90770455E+02</totfact>
</mgrwt>
</event>
<event>
 8    1  0.7550631E-006  0.1743898E+03  0.7546771E-02  0.1179419E+00
         -2   -1    0    0    0  501 -0.00000000000E+00  0.00000000000E+00  0.51647999074E+02  0.51647999074E+02  0.00000000000E+00 0.  1.
          2   -1    0    0  501    0  0.00000000000E+00 -0.00000000000E+00 -0.68152433564E+03  0.68152433564E+03  0.00000000000E+00 0. -1.
         23    2    1    2    0    0 -0.85630107737E+02 -0.86332539169E+02 -0.11807708053E+03  0.19247807967E+03  0.91212891288E+02 0.  0.
         23    2    1    2    0    0  0.85630107737E+02  0.86332539169E+02 -0.51179925604E+03  0.54069425505E+03  0.12500390508E+03 0.  0.
          5    1    4    4  502    0  0.95040412472E+02  0.45915330238E+02 -0.46953903961E+03  0.48127943782E+03  0.47000000000E+01 0.  1.
         -5    1    4    4    0  502 -0.94103047352E+01  0.40417208931E+02 -0.42260216435E+02  0.59414817227E+02  0.47000000000E+01 0.  1.
        -11    1    3    3    0    0 -0.22312318378E+02 -0.80145986153E+02 -0.91112380598E+02  0.12338024374E+03  0.00000000000E+00 0. -1.
         11    1    3    3    0    0 -0.63317789359E+02 -0.61865530158E+01 -0.26964699931E+02  0.69097835928E+02  0.00000000000E+00 0.  1.
<mgrwt>
<rscale>  0 0.16850216E+03</rscale>
<asrwt>0</asrwt>
<pdfrwt beam="2">  1        2 0.10484990E+00 0.17438979E+03</pdfrwt>
<pdfrwt beam="1">  1       -2 0.79458460E-02 0.17438979E+03</pdfrwt>
<totfact> 0.40676371E+03</totfact>
</mgrwt>
</event>
<event>
 8    1  0.7550631E-006  0.1737851E+03  0.7546771E-02  0.1178475E+00
         -1   -1    0    0    0  501 -0.00000000000E+00  0.00000000000E+00  0.65788184266E+02  0.65788184266E+02  0.00000000000E+00 0.  1.
          1   -1    0    0  501    0  0.00000000000E+00 -0.00000000000E+00 -0.41889989551E+03  0.41889989551E+03  0.00000000000E+00 0. -1.
         23    2    1    2    0    0  0.41192342084E+02 -0.11442786151E+03 -0.14593952672E+03  0.21427807264E+03  0.99127203227E+02 0.  0.
         23    2    1    2    0    0 -0.41192342084E+02  0.11442786151E+03 -0.20717218452E+03  0.27041000713E+03  0.12413989440E+03 0.  0.
          5    1    4    4  502    0 -0.17580287683E+02  0.11898641334E+03 -0.21350790475E+03  0.24510109845E+03  0.47000000000E+01 0. -1.
         -5    1    4    4    0  502 -0.23612054401E+02 -0.45585518290E+01  0.63357202249E+01  0.25308908680E+02  0.47000000000E+01 0.  1.
        -11    1    3    3    0    0  0.73683804138E+02 -0.80827786575E+02 -0.92145534786E+02  0.14301480223E+03  0.00000000000E+00 0.  1.
         11    1    3    3    0    0 -0.32491462054E+02 -0.33600074932E+02 -0.53793991937E+02  0.71263270416E+02  0.00000000000E+00 0. -1.
<mgrwt>
<rscale>  0 0.16939993E+03</rscale>
<asrwt>0</asrwt>
<pdfrwt beam="2">  1        1 0.64446137E-01 0.17378509E+03</pdfrwt>
<pdfrwt beam="1">  1       -1 0.10121259E-01 0.17378509E+03</pdfrwt>
<totfact> 0.33452129E+03</totfact>
</mgrwt>
</event>
<event>
 8    1  0.7550631E-006  0.1265385E+03  0.7546771E-02  0.1247678E+00
          1   -1    0    0  501    0  0.00000000000E+00  0.00000000000E+00  0.11837918559E+04  0.11837918559E+04  0.00000000000E+00 0. -1.
         -1   -1    0    0    0  501 -0.00000000000E+00 -0.00000000000E+00 -0.16868667597E+02  0.16868667597E+02  0.00000000000E+00 0.  1.
         23    2    1    2    0    0 -0.11096029337E+02 -0.16237815943E+02  0.15553106206E+03  0.18138332210E+03  0.91231626851E+02 0.  0.
         23    2    1    2    0    0  0.11096029337E+02  0.16237815943E+02  0.10113921263E+04  0.10192772014E+04  0.12500076688E+03 0.  0.
          5    1    4    4  502    0  0.29419078222E+01  0.22926957244E+02  0.31679796698E+02  0.39496831631E+02  0.47000000000E+01 0.  1.
         -5    1    4    4    0  502  0.81541215150E+01 -0.66891413007E+01  0.97971232958E+03  0.97978036979E+03  0.47000000000E+01 0.  1.
        -11    1    3    3    0    0 -0.49156063689E+02 -0.22603108996E+02  0.80191547424E+02  0.96736256967E+02  0.00000000000E+00 0. -1.
         11    1    3    3    0    0  0.38060034352E+02  0.63652930534E+01  0.75339514634E+02  0.84647065134E+02  0.00000000000E+00 0.  1.
<mgrwt>
<rscale>  0 0.11726520E+03</rscale>
<asrwt>0</asrwt>
<pdfrwt beam="1">  1        1 0.18212176E+00 0.12653845E+03</pdfrwt>
<pdfrwt beam="2">  1       -1 0.25951806E-02 0.12653845E+03</pdfrwt>
<totfact> 0.53586505E+03</totfact>
</mgrwt>
</event>
<event>
 8    1  0.7550631E-006  0.1278009E+03  0.7546771E-02  0.1245189E+00
          3   -1    0    0  501    0  0.00000000000E+00  0.00000000000E+00  0.23634880192E+03  0.23634880192E+03  0.00000000000E+00 0. -1.
         -3   -1    0    0    0  501 -0.00000000000E+00 -0.00000000000E+00 -0.60106846160E+02  0.60106846160E+02  0.00000000000E+00 0.  1.
         23    2    1    2    0    0  0.26597579155E+02  0.98169470390E+00  0.25028682929E+02  0.98469471604E+02  0.91440729040E+02 0.  0.
         23    2    1    2    0    0 -0.26597579155E+02 -0.98169470390E+00  0.15121327283E+03  0.19798617647E+03  0.12499870901E+03 0.  0.
          5    1    4    4  502    0 -0.29351148038E+02  0.15799843326E+02  0.16936177197E+03  0.17267491058E+03  0.47000000000E+01 0.  1.
         -5    1    4    4    0  502  0.27535688832E+01 -0.16781538030E+02 -0.18148499137E+02  0.25311265895E+02  0.47000000000E+01 0.  1.
        -11    1    3    3    0    0 -0.23921845342E+02 -0.24033367520E+02  0.24944187101E+02  0.42095960722E+02  0.00000000000E+00 0. -1.
         11    1    3    3    0    0  0.50519424497E+02  0.25015062224E+02  0.84495827434E-01  0.56373510882E+02  0.00000000000E+00 0.  1.
<mgrwt>
<rscale>  0 0.11874086E+03</rscale>
<asrwt>0</asrwt>
<pdfrwt beam="1">  1        3 0.36361354E-01 0.12780091E+03</pdfrwt>
<pdfrwt beam="2">  1       -3 0.92472072E-02 0.12780091E+03</pdfrwt>
<totfact> 0.14277784E+03</totfact>
</mgrwt>
</event>
<event>
 8    1  0.7550631E-006  0.1637218E+03  0.7546771E-02  0.1191754E+00
         -2   -1    0    0    0  501 -0.00000000000E+00  0.00000000000E+00  0.83108848974E+03  0.83108848974E+03  0.00000000000E+00 0.  1.
          2   -1    0    0  501    0  0.00000000000E+00 -0.00000000000E+00 -0.27901701213E+02  0.27901701213E+02  0.00000000000E+00 0. -1.
         23    2    1    2    0    0  0.53231653193E+02  0.91291258788E+02  0.40868497310E+03  0.43186432907E+03  0.91190397800E+02 0.  0.
         23    2    1    2    0    0 -0.53231653193E+02 -0.91291258788E+02  0.39450181543E+03  0.42712586189E+03  0.12504845734E+03 0.  0.
          5    1    4    4  502    0  0.50838668489E+01 -0.99429112291E+02  0.29533862555E+03  0.31170336510E+03  0.47000000000E+01 0.  1.
         -5    1    4    4    0  502 -0.58315520042E+02  0.81378535030E+01  0.99163189879E+02  0.11542249679E+03  0.47000000000E+01 0.  1.
        -11    1    3    3    0    0  0.70252619774E+02  0.42747684308E+02  0.18690420899E+03  0.20419593149E+03  0.00000000000E+00 0.  1.
         11    1    3    3    0    0 -0.17020966582E+02  0.48543574481E+02  0.22178076410E+03  0.22766839757E+03  0.00000000000E+00 0. -1.
<mgrwt>
<rscale>  0 0.15732144E+03</rscale>
<asrwt>0</asrwt>
<pdfrwt beam="2">  1        2 0.42925700E-02 0.16372177E+03</pdfrwt>
<pdfrwt beam="1">  1       -2 0.12785975E+00 0.16372177E+03</pdfrwt>
<totfact> 0.89721103E+02</totfact>
</mgrwt>
</event>
<event>
 8    1  0.7550631E-006  0.1459883E+03  0.7546771E-02  0.1215093E+00
         -1   -1    0    0    0  501 -0.00000000000E+00  0.00000000000E+00  0.18681141014E+03  0.18681141014E+03  0.00000000000E+00 0.  1.
          1   -1    0    0  501    0  0.00000000000E+00 -0.00000000000E+00 -0.95584243571E+02  0.95584243571E+02  0.00000000000E+00 0. -1.
         23    2    1    2    0    0 -0.27218183040E+02 -0.70333167080E+02  0.59539870815E+02  0.13300797207E+03  0.91970324222E+02 0.  0.
         23    2    1    2    0    0  0.27218183040E+02  0.70333167080E+02  0.31687295756E+02  0.14938768165E+03  0.12500004334E+03 0.  0.
          5    1    4    4  502    0 -0.20055398455E+02  0.36711812349E+02 -0.39301586312E+02  0.57590631702E+02  0.47000000000E+01 0.  1.
         -5    1    4    4    0  502  0.47273581495E+02  0.33621354730E+02  0.70988882068E+02  0.91797049945E+02  0.47000000000E+01 0.  1.
        -11    1    3    3    0    0 -0.44494958909E+02 -0.25063683557E+02 -0.60888074558E+01  0.51430177697E+02  0.00000000000E+00 0. -1.
         11    1    3    3    0    0  0.17276775869E+02 -0.45269483523E+02  0.65628678271E+02  0.81577794371E+02  0.00000000000E+00 0.  1.
<mgrwt>
<rscale>  0 0.13869740E+03</rscale>
<asrwt>0</asrwt>
<pdfrwt beam="2">  1        1 0.14705268E-01 0.14598834E+03</pdfrwt>
<pdfrwt beam="1">  1       -1 0.28740217E-01 0.14598834E+03</pdfrwt>
<totfact> 0.40502164E+03</totfact>
</mgrwt>
</event>
<event>
 8    1  0.7550631E-006  0.1345483E+03  0.7546771E-02  0.1232897E+00
          2   -1    0    0  501    0  0.00000000000E+00  0.00000000000E+00  0.72588900006E+03  0.72588900006E+03  0.00000000000E+00 0. -1.
         -2   -1    0    0    0  501 -0.00000000000E+00 -0.00000000000E+00 -0.21043866177E+02  0.21043866177E+02  0.00000000000E+00 0.  1.
         23    2    1    2    0    0  0.49399448849E+02  0.60803349331E+01  0.21871481971E+03  0.24252636379E+03  0.92225748846E+02 0.  0.
         23    2    1    2    0    0 -0.49399448849E+02 -0.60803349331E+01  0.48613031417E+03  0.50440650245E+03  0.12500384530E+03 0.  0.
          5    1    4    4  502    0 -0.70605820027E+02 -0.48289809780E+02  0.27644557777E+03  0.28941550584E+03  0.47000000000E+01 0.  1.
         -5    1    4    4    0  502  0.21206371177E+02  0.42209474847E+02  0.20968473640E+03  0.21499099661E+03  0.47000000000E+01 0.  1.
        -11    1    3    3    0    0 -0.17599586375E+02  0.15236191912E+02  0.14543421211E+02  0.27448098022E+02  0.00000000000E+00 0.  1.
         11    1    3    3    0    0  0.66999035224E+02 -0.91558569784E+01  0.20417139850E+03  0.21507826576E+03  0.00000000000E+00 0. -1.
<mgrwt>
<rscale>  0 0.12640028E+03</rscale>
<asrwt>0</asrwt>
<pdfrwt beam="1">  1        2 0.11167521E+00 0.13454827E+03</pdfrwt>
<pdfrwt beam="2">  1       -2 0.32375184E-02 0.13454827E+03</pdfrwt>
<totfact> 0.14421125E+04</totfact>
</mgrwt>
</event>
<event>
 8    1  0.7550631E-006  0.1386670E+03  0.7546771E-02  0.1227914E+00
          2   -1    0    0  501    0  0.00000000000E+00  0.00000000000E+00  0.16252425400E+03  0.16252425400E+03  0.00000000000E+00 0. -1.
         -2   -1    0    0    0  501 -0.00000000000E+00 -0.00000000000E+00 -0.94594352557E+02  0.94594352557E+02  0.00000000000E+00 0.  1.
         23    2    1    2    0    0 -0.31845648964E+02 -0.50872965608E+02  0.91126049530E+01  0.10649318817E+03  0.87496031732E+02 0.  0.
         23    2    1    2    0    0  0.31845648964E+02  0.50872965608E+02  0.58817296494E+02  0.15062541839E+03  0.12500535313E+03 0.  0.
          5    1    4    4  502    0  0.51726611525E+02 -0.12670696942E+02  0.64336429337E+02  0.83650792230E+02  0.47000000000E+01 0.  1.
         -5    1    4    4    0  502 -0.19880962561E+02  0.63543662550E+02 -0.55191328436E+01  0.66974626165E+02  0.47000000000E+01 0.  1.
        -11    1    3    3    0    0 -0.95170706676E+01 -0.84764925884E+01  0.44908600989E+02  0.46681987998E+02  0.00000000000E+00 0. -1.
         11    1    3    3    0    0 -0.22328578296E+02 -0.42396473020E+02 -0.35795996036E+02  0.59811200167E+02  0.00000000000E+00 0.  1.
<mgrwt>
<rscale>  0 0.12969146E+03</rscale>
<asrwt>0</asrwt>
<pdfrwt beam="1">  1        2 0.25003731E-01 0.13866702E+03</pdfrwt>
<pdfrwt beam="2">  1       -2 0.14552977E-01 0.13866702E+03</pdfrwt>
<totfact> 0.73483807E+03</totfact>
</mgrwt>
</event>
<event>
 8    1  0.7550631E-006  0.1426310E+03  0.7546771E-02  0.1220175E+00
         -1   -1    0    0    0  501 -0.00000000000E+00  0.00000000000E+00  0.16766690762E+02  0.16766690762E+02  0.00000000000E+00 0.  1.
          1   -1    0    0  501    0  0.00000000000E+00 -0.00000000000E+00 -0.10445981806E+04  0.10445981806E+04  0.00000000000E+00 0. -1.
         23    2    1    2    0    0  0.58849384886E+02 -0.35420991078E+02 -0.33646922000E+03  0.35544320861E+03  0.91708461040E+02 0.  0.
         23    2    1    2    0    0 -0.58849384886E+02  0.35420991078E+02 -0.69136226985E+03  0.70592166277E+03  0.12500283630E+03 0.  0.
          5    1    4    4  502    0 -0.13617545674E+02  0.36798352962E+02 -0.62020701122E+03  0.62146470785E+03  0.47000000000E+01 0.  1.
         -5    1    4    4    0  502 -0.45231839212E+02 -0.13773618845E+01 -0.71155258635E+02  0.84456954927E+02  0.47000000000E+01 0.  1.
        -11    1    3    3    0    0  0.28206526890E+02  0.16198090169E+02 -0.33916222428E+02  0.46992514597E+02  0.00000000000E+00 0.  1.
         11    1    3    3    0    0  0.30642857996E+02 -0.51619081247E+02 -0.30255299757E+03  0.30845069401E+03  0.00000000000E+00 0. -1.
<mgrwt>
<rscale>  0 0.13503200E+03</rscale>
<asrwt>0</asrwt>
<pdfrwt beam="2">  1        1 0.16070740E+00 0.14263101E+03</pdfrwt>
<pdfrwt beam="1">  1       -1 0.25794911E-02 0.14263101E+03</pdfrwt>
<totfact> 0.68032990E+03</totfact>
</mgrwt>
</event>
<event>
 8    1  0.7550631E-006  0.1463158E+03  0.7546771E-02  0.1215350E+00
          2   -1    0    0  501    0  0.00000000000E+00  0.00000000000E+00  0.12321984378E+03  0.12321984378E+03  0.00000000000E+00 0. -1.
         -2   -1    0    0    0  501 -0.00000000000E+00 -0.00000000000E+00 -0.14631743382E+03  0.14631743382E+03  0.00000000000E+00 0.  1.
         23    2    1    2    0    0  0.73241380846E+02 -0.20459882964E+02 -0.35369227885E+02  0.12270779244E+03  0.89572949968E+02 0.  0.
         23    2    1    2    0    0 -0.73241380846E+02  0.20459882964E+02  0.12271637842E+02  0.14682948515E+03  0.12500159173E+03 0.  0.
          5    1    4    4  502    0 -0.20945938207E+02  0.68536498747E+02 -0.93523832345E+01  0.72426107586E+02  0.47000000000E+01 0.  1.
         -5    1    4    4    0  502 -0.52295442638E+02 -0.48076615783E+02  0.21624021077E+02  0.74403377567E+02  0.47000000000E+01 0.  1.
        -11    1    3    3    0    0  0.40011317020E+02 -0.18164836486E+02  0.27303423983E+02  0.51733390914E+02  0.00000000000E+00 0. -1.
         11    1    3    3    0    0  0.33230063826E+02 -0.22950464780E+01 -0.62672651868E+02  0.70974401529E+02  0.00000000000E+00 0.  1.
<mgrwt>
<rscale>  0 0.13850891E+03</rscale>
<asrwt>0</asrwt>
<pdfrwt beam="1">  1        2 0.18956899E-01 0.14631577E+03</pdfrwt>
<pdfrwt beam="2">  1       -2 0.22510375E-01 0.14631577E+03</pdfrwt>
<totfact> 0.48481506E+03</totfact>
</mgrwt>
</event>
<event>
 8    1  0.7550631E-006  0.2024348E+03  0.7546771E-02  0.1151784E+00
         -3   -1    0    0    0  501 -0.00000000000E+00  0.00000000000E+00  0.38993147028E+03  0.38993147028E+03  0.00000000000E+00 0.  1.
          3   -1    0    0  501    0  0.00000000000E+00 -0.00000000000E+00 -0.99922241156E+02  0.99922241156E+02  0.00000000000E+00 0. -1.
         23    2    1    2    0    0 -0.11548460050E+03  0.10963409224E+03  0.18903677969E+03  0.26363416166E+03  0.91715538390E+02 0.  0.
         23    2    1    2    0    0  0.11548460050E+03 -0.10963409224E+03  0.10097244943E+03  0.22621954978E+03  0.12499408795E+03 0.  0.
          5    1    4    4  502    0  0.35658776142E+02 -0.40831296569E+02  0.10754320398E+03  0.12052540736E+03  0.47000000000E+01 0. -1.
         -5    1    4    4    0  502  0.79825824362E+02 -0.68802795667E+02 -0.65707545525E+01  0.10569414242E+03  0.47000000000E+01 0. -1.
        -11    1    3    3    0    0 -0.43276619644E+02  0.64260472019E+02  0.29817321593E+02  0.83014135778E+02  0.00000000000E+00 0.  1.
         11    1    3    3    0    0 -0.72207980860E+02  0.45373620217E+02  0.15921945810E+03  0.18062002588E+03  0.00000000000E+00 0. -1.
<mgrwt>
<rscale>  0 0.19759555E+03</rscale>
<asrwt>0</asrwt>
<pdfrwt beam="2">  1        3 0.15372653E-01 0.20243480E+03</pdfrwt>
<pdfrwt beam="1">  1       -3 0.59989456E-01 0.20243480E+03</pdfrwt>
<totfact> 0.23954049E+02</totfact>
</mgrwt>
</event>
<event>
 8    1  0.7550631E-006  0.1492472E+03  0.7546771E-02  0.1208787E+00
          3   -1    0    0  501    0  0.00000000000E+00  0.00000000000E+00  0.15434162484E+03  0.15434162484E+03  0.00000000000E+00 0. -1.
         -3   -1    0    0    0  501 -0.00000000000E+00 -0.00000000000E+00 -0.15338404750E+03  0.15338404750E+03  0.00000000000E+00 0.  1.
         23    2    1    2    0    0  0.36165475454E+02 -0.73085764544E+02 -0.66861112603E+02  0.14379241393E+03  0.97756735478E+02 0.  0.
         23    2    1    2    0    0 -0.36165475454E+02  0.73085764544E+02  0.67818689950E+02  0.16393325841E+03  0.12500107165E+03 0.  0.
          5    1    4    4  502    0 -0.66848017562E+02  0.77221351805E+02  0.16144327934E+02  0.10351098469E+03  0.47000000000E+01 0. -1.
         -5    1    4    4    0  502  0.30682542108E+02 -0.41355872606E+01  0.51674362016E+02  0.60422273724E+02  0.47000000000E+01 0. -1.
        -11    1    3    3    0    0  0.68195120632E+02 -0.61362893040E+02 -0.38723782340E+02  0.99576656095E+02  0.00000000000E+00 0. -1.
         11    1    3    3    0    0 -0.32029645178E+02 -0.11722871504E+02 -0.28137330263E+02  0.44215757835E+02  0.00000000000E+00 0.  1.
<mgrwt>
<rscale>  0 0.14342957E+03</rscale>
<asrwt>0</asrwt>
<pdfrwt beam="1">  1        3 0.23744865E-01 0.14924724E+03</pdfrwt>
<pdfrwt beam="2">  1       -3 0.23597546E-01 0.14924724E+03</pdfrwt>
<totfact> 0.64588231E+02</totfact>
</mgrwt>
</event>
<event>
 8    1  0.7550631E-006  0.1288836E+03  0.7546771E-02  0.1243893E+00
         -1   -1    0    0    0  501 -0.00000000000E+00  0.00000000000E+00  0.61426238050E+02  0.61426238050E+02  0.00000000000E+00 0.  1.
          1   -1    0    0  501    0  0.00000000000E+00 -0.00000000000E+00 -0.20518080525E+03  0.20518080525E+03  0.00000000000E+00 0. -1.
         23    2    1    2    0    0  0.20080435245E+02  0.24208383438E+02 -0.53961078643E+02  0.10952794161E+03  0.89973897750E+02 0.  0.
         23    2    1    2    0    0 -0.20080435245E+02 -0.24208383438E+02 -0.89793488557E+02  0.15707910169E+03  0.12498681487E+03 0.  0.
          5    1    4    4  502    0 -0.46236314907E+02  0.33542905925E+02 -0.15650747345E+02  0.59413460146E+02  0.47000000000E+01 0. -1.
         -5    1    4    4    0  502  0.26155879661E+02 -0.57751289363E+02 -0.74142741212E+02  0.97665641544E+02  0.47000000000E+01 0. -1.
        -11    1    3    3    0    0 -0.11417981507E+02  0.23275526335E+02 -0.69655549662E+02  0.74323724520E+02  0.00000000000E+00 0. -1.
         11    1    3    3    0    0  0.31498416752E+02  0.93285710252E+00  0.15694471019E+02  0.35204217088E+02  0.00000000000E+00 0.  1.
<mgrwt>
<rscale>  0 0.11951880E+03</rscale>
<asrwt>0</asrwt>
<pdfrwt beam="2">  1        1 0.31566278E-01 0.12888357E+03</pdfrwt>
<pdfrwt beam="1">  1       -1 0.94501905E-02 0.12888357E+03</pdfrwt>
<totfact> 0.88932900E+03</totfact>
</mgrwt>
</event>
<event>
 8    1  0.7550631E-006  0.1394612E+03  0.7546771E-02  0.1226584E+00
         -2   -1    0    0    0  501 -0.00000000000E+00  0.00000000000E+00  0.20825890164E+03  0.20825890164E+03  0.00000000000E+00 0.  1.
          2   -1    0    0  501    0  0.00000000000E+00 -0.00000000000E+00 -0.73586874291E+02  0.73586874291E+02  0.00000000000E+00 0. -1.
         23    2    1    2    0    0  0.13007118446E+02 -0.60451298614E+02  0.70566955730E+02  0.12835668747E+03  0.87591091685E+02 0.  0.
         23    2    1    2    0    0 -0.13007118446E+02  0.60451298614E+02  0.64105071622E+02  0.15348908846E+03  0.12500358169E+03 0.  0.
          5    1    4    4  502    0  0.27172708751E+02 -0.21527821000E+01  0.73339479672E+02  0.78382139867E+02  0.47000000000E+01 0. -1.
         -5    1    4    4    0  502 -0.40179827196E+02  0.62604080714E+02 -0.92344080500E+01  0.75106948597E+02  0.47000000000E+01 0. -1.
        -11    1    3    3    0    0 -0.16070206769E+02 -0.35213258354E+01 -0.14512398284E+02  0.21937661342E+02  0.00000000000E+00 0. -1.
         11    1    3    3    0    0  0.29077325214E+02 -0.56929972778E+02  0.85079354014E+02  0.10641902613E+03  0.00000000000E+00 0.  1.
<mgrwt>
<rscale>  0 0.13058921E+03</rscale>
<asrwt>0</asrwt>
<pdfrwt beam="2">  1        2 0.11321058E-01 0.13946125E+03</pdfrwt>
<pdfrwt beam="1">  1       -2 0.32039831E-01 0.13946125E+03</pdfrwt>
<totfact> 0.47456314E+03</totfact>
</mgrwt>
</event>
<event>
 8    1  0.7550631E-006  0.1304339E+03  0.7546771E-02  0.1239671E+00
          1   -1    0    0  501    0  0.00000000000E+00  0.00000000000E+00  0.85518031351E+02  0.85518031351E+02  0.00000000000E+00 0. -1.
         -1   -1    0    0    0  501 -0.00000000000E+00 -0.00000000000E+00 -0.16236035735E+03  0.16236035735E+03  0.00000000000E+00 0.  1.
         23    2    1    2    0    0 -0.36881918011E+02  0.55513039572E+01 -0.58951126397E+02  0.11622319671E+03  0.92959686419E+02 0.  0.
         23    2    1    2    0    0  0.36881918011E+02 -0.55513039572E+01 -0.17891199606E+02  0.13165519199E+03  0.12498760620E+03 0.  0.
          5    1    4    4  502    0  0.39213459627E+02  0.41407874312E+02  0.29802552910E+02  0.64518134124E+02  0.47000000000E+01 0.  1.
         -5    1    4    4    0  502 -0.23315416153E+01 -0.46959178269E+02 -0.47693752516E+02  0.67137057867E+02  0.47000000000E+01 0.  1.
        -11    1    3    3    0    0 -0.67390287274E+01 -0.38667908122E+02 -0.47280474336E+02  0.61449693898E+02  0.00000000000E+00 0.  1.
         11    1    3    3    0    0 -0.30142889284E+02  0.44219212079E+02 -0.11670652062E+02  0.54773502817E+02  0.00000000000E+00 0. -1.
<mgrwt>
<rscale>  0 0.12210107E+03</rscale>
<asrwt>0</asrwt>
<pdfrwt beam="1">  1        1 0.13156620E-01 0.13043387E+03</pdfrwt>
<pdfrwt beam="2">  1       -1 0.24978516E-01 0.13043387E+03</pdfrwt>
<totfact> 0.58644768E+03</totfact>
</mgrwt>
</event>
<event>
 8    1  0.7550631E-006  0.1687588E+03  0.7546771E-02  0.1186185E+00
          2   -1    0    0  501    0  0.00000000000E+00  0.00000000000E+00  0.24851056372E+03  0.24851056372E+03  0.00000000000E+00 0. -1.
         -2   -1    0    0    0  501 -0.00000000000E+00 -0.00000000000E+00 -0.11321099908E+03  0.11321099908E+03  0.00000000000E+00 0.  1.
         23    2    1    2    0    0 -0.24794332871E+02  0.11064618990E+03 -0.19627737145E+01  0.14418884292E+03  0.89046233267E+02 0.  0.
         23    2    1    2    0    0  0.24794332871E+02 -0.11064618990E+03  0.13726233836E+03  0.21753271989E+03  0.12498878514E+03 0.  0.
          5    1    4    4  502    0  0.14092831022E+02  0.25544887930E+02  0.11250486676E+02  0.31619813978E+02  0.47000000000E+01 0.  1.
         -5    1    4    4    0  502  0.10701501849E+02 -0.13619107783E+03  0.12601185168E+03  0.18591290591E+03  0.47000000000E+01 0.  1.
        -11    1    3    3    0    0 -0.63500062185E+00  0.19508608073E+02 -0.38425226230E+02  0.43098573358E+02  0.00000000000E+00 0.  1.
         11    1    3    3    0    0 -0.24159332249E+02  0.91137581826E+02  0.36462452515E+02  0.10109026956E+03  0.00000000000E+00 0. -1.
<mgrwt>
<rscale>  0 0.16224551E+03</rscale>
<asrwt>0</asrwt>
<pdfrwt beam="1">  1        2 0.38232394E-01 0.16875881E+03</pdfrwt>
<pdfrwt beam="2">  1       -2 0.17417077E-01 0.16875881E+03</pdfrwt>
<totfact> 0.34852322E+03</totfact>
</mgrwt>
</event>
<event>
 8    1  0.7550631E-006  0.1749213E+03  0.7546771E-02  0.1178636E+00
          2   -1    0    0  501    0  0.00000000000E+00  0.00000000000E+00  0.59463024770E+03  0.59463024770E+03  0.00000000000E+00 0. -1.
         -2   -1    0    0    0  501 -0.00000000000E+00 -0.00000000000E+00 -0.52547345235E+02  0.52547345235E+02  0.00000000000E+00 0.  1.
         23    2    1    2    0    0 -0.10561537449E+03  0.61785546558E+02  0.13565296933E+03  0.20470415377E+03  0.92358006627E+02 0.  0.
         23    2    1    2    0    0  0.10561537449E+03 -0.61785546558E+02  0.40642993313E+03  0.44247343917E+03  0.12500157091E+03 0.  0.
          5    1    4    4  502    0  0.10072011008E+03 -0.43113339286E+02  0.15286039666E+03  0.18812679625E+03  0.47000000000E+01 0.  1.
         -5    1    4    4    0  502  0.48952644079E+01 -0.18672207273E+02  0.25356953647E+03  0.25434664291E+03  0.47000000000E+01 0.  1.
        -11    1    3    3    0    0 -0.62299208623E+00  0.46921675025E+02  0.48004667327E+02  0.67130319465E+02  0.00000000000E+00 0.  1.
         11    1    3    3    0    0 -0.10499238241E+03  0.14863871534E+02  0.87648302008E+02  0.13757383430E+03  0.00000000000E+00 0. -1.
<mgrwt>
<rscale>  0 0.16924671E+03</rscale>
<asrwt>0</asrwt>
<pdfrwt beam="1">  1        2 0.91481572E-01 0.17492128E+03</pdfrwt>
<pdfrwt beam="2">  1       -2 0.80842074E-02 0.17492128E+03</pdfrwt>
<totfact> 0.46438946E+03</totfact>
</mgrwt>
</event>
<event>
 8    1  0.7550631E-006  0.1504357E+03  0.7546771E-02  0.1208364E+00
          3   -1    0    0  501    0  0.00000000000E+00  0.00000000000E+00  0.15655341817E+03  0.15655341817E+03  0.00000000000E+00 0. -1.
         -3   -1    0    0    0  501 -0.00000000000E+00 -0.00000000000E+00 -0.12251350222E+03  0.12251350222E+03  0.00000000000E+00 0.  1.
         23    2    1    2    0    0 -0.83143956119E+02 -0.95956280177E+01  0.27903598290E+02  0.12850616058E+03  0.93435694425E+02 0.  0.
         23    2    1    2    0    0  0.83143956119E+02  0.95956280177E+01  0.61363176573E+01  0.15056075982E+03  0.12500357790E+03 0.  0.
          5    1    4    4  502    0  0.73673319310E+02 -0.47968781121E+02  0.20289197086E+02  0.90346574139E+02  0.47000000000E+01 0.  1.
         -5    1    4    4    0  502  0.94706368095E+01  0.57564409138E+02 -0.14152879428E+02  0.60214185680E+02  0.47000000000E+01 0.  1.
        -11    1    3    3    0    0 -0.15972078794E+02 -0.40789279664E+02 -0.10549142934E+02  0.45057264155E+02  0.00000000000E+00 0.  1.
         11    1    3    3    0    0 -0.67171877325E+02  0.31193651646E+02  0.38452741224E+02  0.83448896422E+02  0.00000000000E+00 0. -1.
<mgrwt>
<rscale>  0 0.14375475E+03</rscale>
<asrwt>0</asrwt>
<pdfrwt beam="1">  1        3 0.24085141E-01 0.15043566E+03</pdfrwt>
<pdfrwt beam="2">  1       -3 0.18848231E-01 0.15043566E+03</pdfrwt>
<totfact> 0.93929776E+02</totfact>
</mgrwt>
</event>
<event>
 7    1  0.7550631E-006  0.3378416E+03  0.7546771E-02  0.1101882E+00
         -1   -1    0    0    0  501 -0.00000000000E+00  0.00000000000E+00  0.44039076875E+03  0.44039076875E+03  0.00000000000E+00 0.  1.
          1   -1    0    0  501    0  0.00000000000E+00 -0.00000000000E+00 -0.44538559537E+03  0.44538559537E+03  0.00000000000E+00 0. -1.
         23    2    1    2    0    0 -0.26800875277E+02 -0.95496976097E+02  0.36221558650E+03  0.38679699918E+03  0.92594968092E+02 0.  0.
          5    1    1    2  502    0  0.91694401677E+02 -0.47120518584E+02 -0.38780180349E+01  0.10327311167E+03  0.47000000000E+01 0. -1.
         -5    1    1    2    0  502 -0.64893526399E+02  0.14261749468E+03 -0.36333239508E+03  0.39570625327E+03  0.47000000000E+01 0.  1.
        -11    1    3    3    0    0 -0.28701820721E+02  0.31710913868E+00  0.16560555462E+03  0.16807467028E+03  0.00000000000E+00 0.  1.
         11    1    3    3    0    0  0.19009454443E+01 -0.95814085235E+02  0.19661003188E+03  0.21872232890E+03  0.00000000000E+00 0. -1.
<mgrwt>
<rscale>  0 0.26895015E+03</rscale>
<asrwt>0</asrwt>
<pdfrwt beam="2">  1        1 0.68520861E-01 0.33784156E+03</pdfrwt>
<pdfrwt beam="1">  1       -1 0.67752426E-01 0.33784156E+03</pdfrwt>
<totfact> 0.12072485E+02</totfact>
</mgrwt>
</event>
<event>
 8    1  0.7550631E-006  0.1541900E+03  0.7546771E-02  0.1204116E+00
          2   -1    0    0  501    0  0.00000000000E+00  0.00000000000E+00  0.40720789072E+03  0.40720789072E+03  0.00000000000E+00 0. -1.
         -2   -1    0    0    0  501 -0.00000000000E+00 -0.00000000000E+00 -0.59790121528E+02  0.59790121528E+02  0.00000000000E+00 0.  1.
         23    2    1    2    0    0 -0.39692464601E+02 -0.81085444846E+02  0.60439190610E+02  0.14122006086E+03  0.90221220982E+02 0.  0.
         23    2    1    2    0    0  0.39692464601E+02  0.81085444846E+02  0.28697857858E+03  0.32577795139E+03  0.12499691170E+03 0.  0.
          5    1    4    4  502    0 -0.31657759428E+02  0.72956605659E+02  0.18004170487E+03  0.19688063778E+03  0.47000000000E+01 0. -1.
         -5    1    4    4    0  502  0.71350224028E+02  0.81288391874E+01  0.10693687371E+03  0.12889731360E+03  0.47000000000E+01 0. -1.
        -11    1    3    3    0    0 -0.41207781893E+02 -0.73068764893E+01  0.52292751399E+02  0.66977634935E+02  0.00000000000E+00 0. -1.
         11    1    3    3    0    0  0.15153172925E+01 -0.73778568357E+02  0.81464392107E+01  0.74242425924E+02  0.00000000000E+00 0.  1.
<mgrwt>
<rscale>  0 0.14707304E+03</rscale>
<asrwt>0</asrwt>
<pdfrwt beam="1">  1        2 0.62647366E-01 0.15419004E+03</pdfrwt>
<pdfrwt beam="2">  1       -2 0.91984805E-02 0.15419004E+03</pdfrwt>
<totfact> 0.57352039E+03</totfact>
</mgrwt>
</event>
<event>
 8    1  0.7550631E-006  0.1508731E+03  0.7546771E-02  0.1205343E+00
         -1   -1    0    0    0  501 -0.00000000000E+00  0.00000000000E+00  0.17401779244E+03  0.17401779244E+03  0.00000000000E+00 0.  1.
          1   -1    0    0  501    0  0.00000000000E+00 -0.00000000000E+00 -0.11675410136E+03  0.11675410136E+03  0.00000000000E+00 0. -1.
         23    2    1    2    0    0 -0.53358273906E+02 -0.65502453500E+02  0.41776860106E+02  0.13910601932E+03  0.10231080960E+03 0.  0.
         23    2    1    2    0    0  0.53358273906E+02  0.65502453500E+02  0.15486830981E+02  0.15166587448E+03  0.12500007496E+03 0.  0.
          5    1    4    4  502    0  0.86057964280E+02  0.74209044303E+02  0.24482503265E+02  0.11633760544E+03  0.47000000000E+01 0. -1.
         -5    1    4    4    0  502 -0.32699690374E+02 -0.87065908032E+01 -0.89956722848E+01  0.35328269047E+02  0.47000000000E+01 0. -1.
        -11    1    3    3    0    0 -0.12668674585E+02  0.49689540029E+01  0.55004712523E+02  0.56663076332E+02  0.00000000000E+00 0.  1.
         11    1    3    3    0    0 -0.40689599321E+02 -0.70471407502E+02 -0.13227852418E+02  0.82442942984E+02  0.00000000000E+00 0. -1.
<mgrwt>
<rscale>  0 0.14610462E+03</rscale>
<asrwt>0</asrwt>
<pdfrwt beam="2">  1        1 0.17962169E-01 0.15087311E+03</pdfrwt>
<pdfrwt beam="1">  1       -1 0.26771968E-01 0.15087311E+03</pdfrwt>
<totfact> 0.35271847E+03</totfact>
</mgrwt>
</event>
<event>
 8    1  0.7550631E-006  0.1492824E+03  0.7546771E-02  0.1210941E+00
          2   -1    0    0  501    0  0.00000000000E+00  0.00000000000E+00  0.12371670225E+03  0.12371670225E+03  0.00000000000E+00 0. -1.
         -2   -1    0    0    0  501 -0.00000000000E+00 -0.00000000000E+00 -0.20035501526E+03  0.20035501526E+03  0.00000000000E+00 0.  1.
         23    2    1    2    0    0 -0.77373069300E+02 -0.25952836407E+02 -0.11779300413E+03  0.16922039641E+03  0.90001162033E+02 0.  0.
         23    2    1    2    0    0  0.77373069300E+02  0.25952836407E+02  0.41154691131E+02  0.15485132110E+03  0.12500032590E+03 0.  0.
          5    1    4    4  502    0  0.47781305287E+02  0.32959077067E+02  0.83931755586E+02  0.10215666151E+03  0.47000000000E+01 0.  1.
         -5    1    4    4    0  502  0.29591764013E+02 -0.70062406605E+01 -0.42777064455E+02  0.52694659587E+02  0.47000000000E+01 0.  1.
        -11    1    3    3    0    0 -0.83550766171E+02  0.79592507237E+01 -0.99589612060E+02  0.13023889983E+03  0.00000000000E+00 0.  1.
         11    1    3    3    0    0  0.61776968705E+01 -0.33912087131E+02 -0.18203392075E+02  0.38981496575E+02  0.00000000000E+00 0. -1.
<mgrwt>
<rscale>  0 0.14178930E+03</rscale>
<asrwt>0</asrwt>
<pdfrwt beam="1">  1        2 0.19033339E-01 0.14928236E+03</pdfrwt>
<pdfrwt beam="2">  1       -2 0.30823848E-01 0.14928236E+03</pdfrwt>
<totfact> 0.27745953E+03</totfact>
</mgrwt>
</event>
<event>
 8    1  0.7550631E-006  0.1715225E+03  0.7546771E-02  0.1182597E+00
         -4   -1    0    0    0  501 -0.00000000000E+00  0.00000000000E+00  0.38565594420E+03  0.38565594420E+03  0.00000000000E+00 0.  1.
          4   -1    0    0  501    0  0.00000000000E+00 -0.00000000000E+00 -0.92117309580E+02  0.92117309580E+02  0.00000000000E+00 0. -1.
         23    2    1    2    0    0 -0.31213922858E+02 -0.11323322242E+03  0.26499012299E+03  0.30389115944E+03  0.91290743563E+02 0.  0.
         23    2    1    2    0    0  0.31213922858E+02  0.11323322242E+03  0.28548511633E+02  0.17388209435E+03  0.12499557423E+03 0.  0.
          5    1    4    4  502    0  0.27057515882E+02  0.37481066155E+02 -0.47437981512E+02  0.66403249738E+02  0.47000000000E+01 0.  1.
         -5    1    4    4    0  502  0.41564069764E+01  0.75752156267E+02  0.75986493145E+02  0.10747884461E+03  0.47000000000E+01 0.  1.
        -11    1    3    3    0    0  0.12444119712E+01 -0.93056065647E+02  0.24203068009E+03  0.25930644038E+03  0.00000000000E+00 0.  1.
         11    1    3    3    0    0 -0.32458334829E+02 -0.20177156775E+02  0.22959442900E+02  0.44584719061E+02  0.00000000000E+00 0. -1.
<mgrwt>
<rscale>  0 0.16552502E+03</rscale>
<asrwt>0</asrwt>
<pdfrwt beam="2">  1        4 0.14171894E-01 0.17152249E+03</pdfrwt>
<pdfrwt beam="1">  1       -4 0.59331683E-01 0.17152249E+03</pdfrwt>
<totfact> 0.19644856E+02</totfact>
</mgrwt>
</event>
<event>
 8    1  0.7550631E-006  0.1376117E+03  0.7546771E-02  0.1228196E+00
          2   -1    0    0  501    0  0.00000000000E+00  0.00000000000E+00  0.11664145537E+04  0.11664145537E+04  0.00000000000E+00 0. -1.
         -2   -1    0    0    0  501 -0.00000000000E+00 -0.00000000000E+00 -0.13173285945E+02  0.13173285945E+02  0.00000000000E+00 0.  1.
         23    2    1    2    0    0  0.52848421614E+02 -0.22869617933E+02  0.42742650604E+03  0.44084293407E+03  0.91285811376E+02 0.  0.
         23    2    1    2    0    0 -0.52848421614E+02  0.22869617933E+02  0.72581476171E+03  0.73874490557E+03  0.12498396739E+03 0.  0.
          5    1    4    4  502    0 -0.83864601414E+02  0.35788212390E+02  0.36141680281E+03  0.37277105959E+03  0.47000000000E+01 0. -1.
         -5    1    4    4    0  502  0.31016179800E+02 -0.12918594457E+02  0.36439795890E+03  0.36597384598E+03  0.47000000000E+01 0. -1.
        -11    1    3    3    0    0  0.74950249659E+02 -0.34839373250E+02  0.33708525230E+03  0.34707029428E+03  0.00000000000E+00 0.  1.
         11    1    3    3    0    0 -0.22101828046E+02  0.11969755318E+02  0.90341253742E+02  0.93772639789E+02  0.00000000000E+00 0. -1.
<mgrwt>
<rscale>  0 0.12950241E+03</rscale>
<asrwt>0</asrwt>
<pdfrwt beam="1">  1        2 0.17944831E+00 0.13761165E+03</pdfrwt>
<pdfrwt beam="2">  1       -2 0.20266603E-02 0.13761165E+03</pdfrwt>
<totfact> 0.15243446E+04</totfact>
</mgrwt>
</event>
<event>
 8    1  0.7550631E-006  0.1252193E+03  0.7546771E-02  0.1250015E+00
          1   -1    0    0  501    0  0.00000000000E+00  0.00000000000E+00  0.12043667589E+04  0.12043667589E+04  0.00000000000E+00 0. -1.
         -1   -1    0    0    0  501 -0.00000000000E+00 -0.00000000000E+00 -0.10835340945E+02  0.10835340945E+02  0.00000000000E+00 0.  1.
         23    2    1    2    0    0 -0.43156007868E+01  0.52357639420E+01  0.32700499408E+03  0.33967487130E+03  0.91655411225E+02 0.  0.
         23    2    1    2    0    0  0.43156007868E+01 -0.52357639420E+01  0.86652642385E+03  0.87552722852E+03  0.12503538303E+03 0.  0.
          5    1    4    4  502    0 -0.82265393566E+01  0.43734047006E+02  0.70012175763E+03  0.70155036050E+03  0.47000000000E+01 0. -1.
         -5    1    4    4    0  502  0.12542140143E+02 -0.48969810948E+02  0.16640466622E+03  0.17397686802E+03  0.47000000000E+01 0. -1.
        -11    1    3    3    0    0 -0.29505454225E+02 -0.31601289546E+02  0.11130602778E+03  0.11940789400E+03  0.00000000000E+00 0.  1.
         11    1    3    3    0    0  0.25189853438E+02  0.36837053488E+02  0.21569896630E+03  0.22026697730E+03  0.00000000000E+00 0. -1.
<mgrwt>
<rscale>  0 0.11590170E+03</rscale>
<asrwt>0</asrwt>
<pdfrwt beam="1">  1        1 0.18528709E+00 0.12521935E+03</pdfrwt>
<pdfrwt beam="2">  1       -1 0.16669765E-02 0.12521935E+03</pdfrwt>
<totfact> 0.98128674E+03</totfact>
</mgrwt>
</event>
<event>
 8    1  0.7550631E-006  0.1434826E+03  0.7546771E-02  0.1219772E+00
         -1   -1    0    0    0  501 -0.00000000000E+00  0.00000000000E+00  0.65500026210E+03  0.65500026210E+03  0.00000000000E+00 0.  1.
          1   -1    0    0  501    0  0.00000000000E+00 -0.00000000000E+00 -0.25278488456E+02  0.25278488456E+02  0.00000000000E+00 0. -1.
         23    2    1    2    0    0 -0.53944608117E+02  0.45295050313E+02  0.29615510152E+03  0.31716170394E+03  0.89005842300E+02 0.  0.
         23    2    1    2    0    0  0.53944608117E+02 -0.45295050313E+02  0.33356667212E+03  0.36311704661E+03  0.12500240982E+03 0.  0.
          5    1    4    4  502    0  0.57645067933E+01 -0.18702241413E+02 -0.44538349803E+01  0.20613830756E+02  0.47000000000E+01 0.  1.
         -5    1    4    4    0  502  0.48180101324E+02 -0.26592808901E+02  0.33802050710E+03  0.34250321586E+03  0.47000000000E+01 0.  1.
        -11    1    3    3    0    0  0.19293639231E+02  0.18098195720E+02  0.14086009232E+03  0.14332255514E+03  0.00000000000E+00 0.  1.
         11    1    3    3    0    0 -0.73238247348E+02  0.27196854594E+02  0.15529500920E+03  0.17383914880E+03  0.00000000000E+00 0. -1.
<mgrwt>
<rscale>  0 0.13531769E+03</rscale>
<asrwt>0</asrwt>
<pdfrwt beam="2">  1        1 0.38889987E-02 0.14348263E+03</pdfrwt>
<pdfrwt beam="1">  1       -1 0.10076926E+00 0.14348263E+03</pdfrwt>
<totfact> 0.22761445E+03</totfact>
</mgrwt>
</event>
<event>
 8    1  0.7550631E-006  0.2061385E+03  0.7546771E-02  0.1148554E+00
         -2   -1    0    0    0  501 -0.00000000000E+00  0.00000000000E+00  0.25922761373E+03  0.25922761373E+03  0.00000000000E+00 0.  1.
          2   -1    0    0  501    0  0.00000000000E+00 -0.00000000000E+00 -0.14976439930E+03  0.14976439930E+03  0.00000000000E+00 0. -1.
         23    2    1    2    0    0 -0.15553570519E+03  0.51750663367E+02  0.48469883818E+02  0.19401931999E+03  0.91786056368E+02 0.  0.
         23    2    1    2    0    0  0.15553570519E+03 -0.51750663367E+02  0.60993330610E+02  0.21497269303E+03  0.12499434236E+03 0.  0.
          5    1    4    4  502    0  0.11448903236E+03 -0.80290936124E+02  0.53449312752E+01  0.14001796758E+03  0.47000000000E+01 0.  1.
         -5    1    4    4    0  502  0.41046672835E+02  0.28540272757E+02  0.55648399335E+02  0.74954725458E+02  0.47000000000E+01 0.  1.
        -11    1    3    3    0    0 -0.12076004419E+03  0.25660769511E+02  0.73672913077E+02  0.14376773451E+03  0.00000000000E+00 0.  1.
         11    1    3    3    0    0 -0.34775661005E+02  0.26089893857E+02 -0.25203029259E+02  0.50251585484E+02  0.00000000000E+00 0. -1.
<mgrwt>
<rscale>  0 0.20141053E+03</rscale>
<asrwt>0</asrwt>
<pdfrwt beam="2">  1        2 0.23040677E-01 0.20613848E+03</pdfrwt>
<pdfrwt beam="1">  1       -2 0.39881171E-01 0.20613848E+03</pdfrwt>
<totfact> 0.14023505E+03</totfact>
</mgrwt>
</event>
<event>
 8    1  0.7550631E-006  0.1903513E+03  0.7546771E-02  0.1163089E+00
          3   -1    0    0  501    0  0.00000000000E+00  0.00000000000E+00  0.64868608431E+02  0.64868608431E+02  0.00000000000E+00 0. -1.
         -3   -1    0    0    0  501 -0.00000000000E+00 -0.00000000000E+00 -0.54120001577E+03  0.54120001577E+03  0.00000000000E+00 0.  1.
         23    2    1    2    0    0 -0.14093585258E+03 -0.27307908826E+02 -0.30947870312E+03  0.35294131449E+03  0.90453675232E+02 0.  0.
         23    2    1    2    0    0  0.14093585258E+03  0.27307908826E+02 -0.16685270422E+03  0.25312730971E+03  0.12499989435E+03 0.  0.
          5    1    4    4  502    0  0.12471664128E+02 -0.39938152743E+02 -0.58397836210E+02  0.71993025528E+02  0.47000000000E+01 0.  1.
         -5    1    4    4    0  502  0.12846418845E+03  0.67246061569E+02 -0.10845486801E+03  0.18113428419E+03  0.47000000000E+01 0.  1.
        -11    1    3    3    0    0 -0.91252362775E+02 -0.54541713005E+02 -0.15124498505E+03  0.18486978572E+03  0.00000000000E+00 0.  1.
         11    1    3    3    0    0 -0.49683489807E+02  0.27233804180E+02 -0.15823371806E+03  0.16807152877E+03  0.00000000000E+00 0. -1.
<mgrwt>
<rscale>  0 0.18495795E+03</rscale>
<asrwt>0</asrwt>
<pdfrwt beam="1">  1        3 0.99797864E-02 0.19035128E+03</pdfrwt>
<pdfrwt beam="2">  1       -3 0.83261537E-01 0.19035128E+03</pdfrwt>
<totfact> 0.24555771E+02</totfact>
</mgrwt>
</event>
<event>
 8    1  0.7550631E-006  0.1279364E+03  0.7546771E-02  0.1242517E+00
          2   -1    0    0  501    0  0.00000000000E+00  0.00000000000E+00  0.20941771591E+03  0.20941771591E+03  0.00000000000E+00 0. -1.
         -2   -1    0    0    0  501 -0.00000000000E+00 -0.00000000000E+00 -0.62601112617E+02  0.62601112617E+02  0.00000000000E+00 0.  1.
         23    2    1    2    0    0 -0.24622331547E+02  0.11750737934E+02  0.52806106315E+02  0.11325583424E+03  0.96405705599E+02 0.  0.
         23    2    1    2    0    0  0.24622331547E+02 -0.11750737934E+02  0.94010496977E+02  0.15876299429E+03  0.12499350287E+03 0.  0.
          5    1    4    4  502    0  0.68042626608E+02 -0.33402745358E+02  0.39385736576E+02  0.85550386784E+02  0.47000000000E+01 0.  1.
         -5    1    4    4    0  502 -0.43420295061E+02  0.21652007424E+02  0.54624760401E+02  0.73212607504E+02  0.47000000000E+01 0.  1.
        -11    1    3    3    0    0  0.13499804610E+02  0.26940817571E+02 -0.15258912656E+02  0.33777015726E+02  0.00000000000E+00 0.  1.
         11    1    3    3    0    0 -0.38122136157E+02 -0.15190079637E+02  0.68065018971E+02  0.79478818512E+02  0.00000000000E+00 0. -1.
<mgrwt>
<rscale>  0 0.12035207E+03</rscale>
<asrwt>0</asrwt>
<pdfrwt beam="1">  1        2 0.32218110E-01 0.12793637E+03</pdfrwt>
<pdfrwt beam="2">  1       -2 0.96309405E-02 0.12793637E+03</pdfrwt>
<totfact> 0.10706609E+04</totfact>
</mgrwt>
</event>
<event>
 8    1  0.7550631E-006  0.1251131E+03  0.7546771E-02  0.1254925E+00
          1   -1    0    0  501    0  0.00000000000E+00  0.00000000000E+00  0.19221672459E+02  0.19221672459E+02  0.00000000000E+00 0. -1.
         -1   -1    0    0    0  501 -0.00000000000E+00 -0.00000000000E+00 -0.56823012299E+03  0.56823012299E+03  0.00000000000E+00 0.  1.
         23    2    1    2    0    0  0.48736042812E+01  0.22890996069E+01 -0.23647039415E+03  0.25080164533E+03  0.83392001963E+02 0.  0.
         23    2    1    2    0    0 -0.48736042812E+01 -0.22890996069E+01 -0.31253805638E+03  0.33665015013E+03  0.12499717956E+03 0.  0.
          5    1    4    4  502    0  0.14148713003E+02 -0.39712666309E+02 -0.28035122390E+03  0.28354220265E+03  0.47000000000E+01 0. -1.
         -5    1    4    4    0  502 -0.19022317284E+02  0.37423566702E+02 -0.32186832484E+02  0.53107947474E+02  0.47000000000E+01 0. -1.
        -11    1    3    3    0    0  0.40149643322E+02 -0.71561707500E+01 -0.17139142825E+03  0.17617669061E+03  0.00000000000E+00 0.  1.
         11    1    3    3    0    0 -0.35276039041E+02  0.94452703569E+01 -0.65078965909E+02  0.74624954716E+02  0.00000000000E+00 0. -1.
<mgrwt>
<rscale>  0 0.11310558E+03</rscale>
<asrwt>0</asrwt>
<pdfrwt beam="1">  1        1 0.29571798E-02 0.12511310E+03</pdfrwt>
<pdfrwt beam="2">  1       -1 0.87420035E-01 0.12511310E+03</pdfrwt>
<totfact> 0.44734265E+03</totfact>
</mgrwt>
</event>
<event>
 8    1  0.7550631E-006  0.1358739E+03  0.7546771E-02  0.1230638E+00
         -1   -1    0    0    0  501 -0.00000000000E+00  0.00000000000E+00  0.20069800062E+02  0.20069800062E+02  0.00000000000E+00 0.  1.
          1   -1    0    0  501    0  0.00000000000E+00 -0.00000000000E+00 -0.73674976725E+03  0.73674976725E+03  0.00000000000E+00 0. -1.
         23    2    1    2    0    0 -0.12680554684E+02 -0.51717446503E+02 -0.28649968057E+03  0.30569121003E+03  0.92355607207E+02 0.  0.
         23    2    1    2    0    0  0.12680554684E+02  0.51717446503E+02 -0.43018028661E+03  0.45112835728E+03  0.12500489994E+03 0.  0.
          5    1    4    4  502    0  0.35810348442E+02 -0.77117312559E+01 -0.35247022274E+02  0.51051879826E+02  0.47000000000E+01 0.  1.
         -5    1    4    4    0  502 -0.23129793759E+02  0.59429177759E+02 -0.39493326434E+03  0.40007647745E+03  0.47000000000E+01 0.  1.
        -11    1    3    3    0    0  0.25700787847E+02  0.11121472123E+02 -0.43109737818E+02  0.51406878264E+02  0.00000000000E+00 0. -1.
         11    1    3    3    0    0 -0.38381342530E+02 -0.62838918626E+02 -0.24338994275E+03  0.25428433177E+03  0.00000000000E+00 0.  1.
<mgrwt>
<rscale>  0 0.12787877E+03</rscale>
<asrwt>0</asrwt>
<pdfrwt beam="2">  1        1 0.11334612E+00 0.13587390E+03</pdfrwt>
<pdfrwt beam="1">  1       -1 0.30876616E-02 0.13587390E+03</pdfrwt>
<totfact> 0.90706563E+03</totfact>
</mgrwt>
</event>
<event>
 8    1  0.7550631E-006  0.1502743E+03  0.7546771E-02  0.1213142E+00
          1   -1    0    0  501    0  0.00000000000E+00  0.00000000000E+00  0.25623516811E+03  0.25623516811E+03  0.00000000000E+00 0. -1.
         -1   -1    0    0    0  501 -0.00000000000E+00 -0.00000000000E+00 -0.71639178538E+02  0.71639178538E+02  0.00000000000E+00 0.  1.
         23    2    1    2    0    0 -0.77560087195E+02 -0.30677656931E+02  0.43349642317E+02  0.12163928552E+03  0.77202581120E+02 0.  0.
         23    2    1    2    0    0  0.77560087195E+02  0.30677656931E+02  0.14124634726E+03  0.20623506113E+03  0.12500273624E+03 0.  0.
          5    1    4    4  502    0  0.56769266323E+02 -0.10598998861E+02  0.41836100585E+00  0.57942673407E+02  0.47000000000E+01 0.  1.
         -5    1    4    4    0  502  0.20790820872E+02  0.41276655792E+02  0.14082798625E+03  0.14829238773E+03  0.47000000000E+01 0.  1.
        -11    1    3    3    0    0  0.51944894212E+01  0.11786760585E+02  0.23097620148E+02  0.26446370298E+02  0.00000000000E+00 0.  1.
         11    1    3    3    0    0 -0.82754576616E+02 -0.42464417516E+02  0.20252022169E+02  0.95192915218E+02  0.00000000000E+00 0. -1.
<mgrwt>
<rscale>  0 0.14013882E+03</rscale>
<asrwt>0</asrwt>
<pdfrwt beam="1">  1        1 0.39420795E-01 0.15027432E+03</pdfrwt>
<pdfrwt beam="2">  1       -1 0.11021412E-01 0.15027432E+03</pdfrwt>
<totfact> 0.53924638E+03</totfact>
</mgrwt>
</event>
<event>
 8    1  0.7550631E-006  0.1292181E+03  0.7546771E-02  0.1235234E+00
          3   -1    0    0  501    0  0.00000000000E+00  0.00000000000E+00  0.33468577991E+03  0.33468577991E+03  0.00000000000E+00 0. -1.
         -3   -1    0    0    0  501 -0.00000000000E+00 -0.00000000000E+00 -0.44787548411E+02  0.44787548411E+02  0.00000000000E+00 0.  1.
         23    2    1    2    0    0  0.75533144427E+01 -0.67374906885E+02  0.10640421429E+03  0.15504658726E+03  0.90117460928E+02 0.  0.
         23    2    1    2    0    0 -0.75533144427E+01  0.67374906885E+02  0.18349401720E+03  0.22442674106E+03  0.11000398682E+03 0.  0.
          5    1    4    4  502    0  0.12772972288E+02 -0.48883605591E+00  0.14105622645E+03  0.14171216180E+03  0.47000000000E+01 0. -1.
         -5    1    4    4    0  502 -0.20326286730E+02  0.67863742941E+02  0.42437790754E+02  0.82714579261E+02  0.47000000000E+01 0.  1.
        -11    1    3    3    0    0  0.48568732171E+02 -0.28817958211E+02  0.53982771830E+02  0.78125131133E+02  0.00000000000E+00 0. -1.
         11    1    3    3    0    0 -0.41015417728E+02 -0.38556948674E+02  0.52421442463E+02  0.76921456125E+02  0.00000000000E+00 0.  1.
<mgrwt>
<rscale>  0 0.12489441E+03</rscale>
<asrwt>0</asrwt>
<pdfrwt beam="1">  1        3 0.51490118E-01 0.12921806E+03</pdfrwt>
<pdfrwt beam="2">  1       -3 0.68903923E-02 0.12921806E+03</pdfrwt>
<totfact> 0.11716495E+03</totfact>
</mgrwt>
</event>
<event>
 8    1  0.7550631E-006  0.1346669E+03  0.7546771E-02  0.1233415E+00
          2   -1    0    0  501    0  0.00000000000E+00  0.00000000000E+00  0.17551199224E+03  0.17551199224E+03  0.00000000000E+00 0.  1.
         -2   -1    0    0    0  501 -0.00000000000E+00 -0.00000000000E+00 -0.10048978601E+03  0.10048978601E+03  0.00000000000E+00 0. -1.
         23    2    1    2    0    0  0.49578255880E+02  0.66216482400E+01 -0.27197754330E+02  0.10693342622E+03  0.90516242304E+02 0.  0.
         23    2    1    2    0    0 -0.49578255880E+02 -0.66216482400E+01  0.10221996056E+03  0.16906835203E+03  0.12503334612E+03 0.  0.
          5    1    4    4  502    0 -0.58707316319E+02 -0.11031998618E+01 -0.69173719842E+01  0.59310252693E+02  0.47000000000E+01 0.  1.
         -5    1    4    4    0  502  0.91290604389E+01 -0.55184483782E+01  0.10913733254E+03  0.10975809934E+03  0.47000000000E+01 0.  1.
        -11    1    3    3    0    0  0.96711890872E+01 -0.12576156060E+02 -0.53243789636E+02  0.55557112366E+02  0.00000000000E+00 0. -1.
         11    1    3    3    0    0  0.39907066793E+02  0.19197804300E+02  0.26046035306E+02  0.51376313853E+02  0.00000000000E+00 0.  1.
<mgrwt>
<rscale>  0 0.12606472E+03</rscale>
<asrwt>0</asrwt>
<pdfrwt beam="1">  1        2 0.27001845E-01 0.13466695E+03</pdfrwt>
<pdfrwt beam="2">  1       -2 0.15459967E-01 0.13466695E+03</pdfrwt>
<totfact> 0.61055724E+03</totfact>
</mgrwt>
</event>
<event>
 8    1  0.7550631E-006  0.1328842E+03  0.7546771E-02  0.1238611E+00
          2   -1    0    0  501    0  0.00000000000E+00  0.00000000000E+00  0.26891419257E+03  0.26891419257E+03  0.00000000000E+00 0. -1.
         -2   -1    0    0    0  501 -0.00000000000E+00 -0.00000000000E+00 -0.55744166012E+02  0.55744166012E+02  0.00000000000E+00 0.  1.
         23    2    1    2    0    0  0.31648862782E+02 -0.32098770949E+02  0.36161176121E+02  0.10332071623E+03  0.85647872896E+02 0.  0.
         23    2    1    2    0    0 -0.31648862782E+02  0.32098770949E+02  0.17700885044E+03  0.22133764235E+03  0.12500494862E+03 0.  0.
          5    1    4    4  502    0  0.19321163892E+02  0.61943815586E+02  0.53046967381E+02  0.83942923537E+02  0.47000000000E+01 0.  1.
         -5    1    4    4    0  502 -0.50970026673E+02 -0.29845044637E+02  0.12396188305E+03  0.13739471882E+03  0.47000000000E+01 0.  1.
        -11    1    3    3    0    0  0.46651732304E+02 -0.36405419981E+02  0.53652947609E+02  0.79877265339E+02  0.00000000000E+00 0. -1.
         11    1    3    3    0    0 -0.15002869522E+02  0.43066490318E+01 -0.17491771488E+02  0.23443450889E+02  0.00000000000E+00 0.  1.
<mgrwt>
<rscale>  0 0.12276040E+03</rscale>
<asrwt>0</asrwt>
<pdfrwt beam="1">  1        2 0.41371414E-01 0.13288423E+03</pdfrwt>
<pdfrwt beam="2">  1       -2 0.85760257E-02 0.13288423E+03</pdfrwt>
<totfact> 0.98521389E+03</totfact>
</mgrwt>
</event>
<event>
 8    1  0.7550631E-006  0.1457431E+03  0.7546771E-02  0.1216503E+00
          2   -1    0    0  501    0  0.00000000000E+00  0.00000000000E+00  0.76834306667E+02  0.76834306667E+02  0.00000000000E+00 0. -1.
         -2   -1    0    0    0  501 -0.00000000000E+00 -0.00000000000E+00 -0.23073209538E+03  0.23073209538E+03  0.00000000000E+00 0.  1.
         23    2    1    2    0    0  0.53578213563E+02 -0.45703033708E+02 -0.96557262901E+02  0.15094910422E+03  0.92211359318E+02 0.  0.
         23    2    1    2    0    0 -0.53578213563E+02  0.45703033708E+02 -0.57340525810E+02  0.15661729782E+03  0.12759956826E+03 0.  0.
          5    1    4    4  502    0 -0.12217518512E+01  0.81352962940E+02 -0.24422452600E+02  0.85078454662E+02  0.47000000000E+01 0. -1.
         -5    1    4    4    0  502 -0.52356461712E+02 -0.35649929232E+02 -0.32918073209E+02  0.71538843162E+02  0.47000000000E+01 0.  1.
        -11    1    3    3    0    0 -0.87300835558E+01 -0.52288962262E+02 -0.50192024488E+02  0.73004035885E+02  0.00000000000E+00 0.  1.
         11    1    3    3    0    0  0.62308297119E+02  0.65859285531E+01 -0.46365238412E+02  0.77945068335E+02  0.00000000000E+00 0. -1.
<mgrwt>
<rscale>  0 0.13766735E+03</rscale>
<asrwt>0</asrwt>
<pdfrwt beam="1">  1        2 0.11820663E-01 0.14574307E+03</pdfrwt>
<pdfrwt beam="2">  1       -2 0.35497245E-01 0.14574307E+03</pdfrwt>
<totfact> 0.37420987E+03</totfact>
</mgrwt>
</event>
<event>
 7    1  0.7550631E-006  0.1000749E+04  0.7546771E-02  0.9307724E-01
          2   -1    0    0  501    0  0.00000000000E+00  0.00000000000E+00  0.35826727425E+03  0.35826727425E+03  0.00000000000E+00 0. -1.
         -2   -1    0    0    0  501 -0.00000000000E+00 -0.00000000000E+00 -0.69884889249E+03  0.69884889249E+03  0.00000000000E+00 0.  1.
         23    2    1    2    0    0 -0.17678473491E+03  0.44070830660E+02 -0.59103531009E+03  0.62489961025E+03  0.89340385581E+02 0.  0.
          5    1    1    2  502    0  0.16606171015E+03  0.33565019586E+02  0.29626271116E+03  0.34131625532E+03  0.47000000000E+01 0. -1.
         -5    1    1    2    0  502  0.10723024764E+02 -0.77635850246E+02 -0.45809019308E+02  0.90900301173E+02  0.47000000000E+01 0.  1.
        -11    1    3    3    0    0 -0.40212216348E+02  0.52410474001E+02 -0.19784016722E+03  0.20857759202E+03  0.00000000000E+00 0. -1.
         11    1    3    3    0    0 -0.13657251857E+03 -0.83396433410E+01 -0.39319514288E+03  0.41632201823E+03  0.00000000000E+00 0.  1.
<mgrwt>
<rscale>  0 0.10007491E+04</rscale>
<asrwt>0</asrwt>
<pdfrwt beam="1">  1        2 0.55118043E-01 0.10007491E+04</pdfrwt>
<pdfrwt beam="2">  1       -2 0.10751521E+00 0.10007491E+04</pdfrwt>
<totfact> 0.62404076E+01</totfact>
</mgrwt>
</event>
<event>
 8    1  0.7550631E-006  0.2827635E+03  0.7546771E-02  0.1095996E+00
         -1   -1    0    0    0  501 -0.00000000000E+00  0.00000000000E+00  0.37679998555E+02  0.37679998555E+02  0.00000000000E+00 0.  1.
          1   -1    0    0  501    0  0.00000000000E+00 -0.00000000000E+00 -0.23142546577E+04  0.23142546577E+04  0.00000000000E+00 0. -1.
         23    2    1    2    0    0  0.17870170163E+03 -0.17998834618E+03 -0.69909034904E+03  0.74930807482E+03  0.91679724866E+02 0.  0.
         23    2    1    2    0    0 -0.17870170163E+03  0.17998834618E+03 -0.15774843101E+04  0.16026265815E+04  0.12500043183E+03 0.  0.
          5    1    4    4  502    0 -0.17211808749E+03  0.17623209130E+03 -0.11997774019E+04  0.12248143901E+04  0.47000000000E+01 0.  1.
         -5    1    4    4    0  502 -0.65836141399E+01  0.37562548809E+01 -0.37770690820E+03  0.37781219134E+03  0.47000000000E+01 0.  1.
        -11    1    3    3    0    0  0.70185371153E+02 -0.47116809029E+02 -0.13123369020E+03  0.15610336787E+03  0.00000000000E+00 0. -1.
         11    1    3    3    0    0  0.10851633048E+03 -0.13287153715E+03 -0.56785665883E+03  0.59320470695E+03  0.00000000000E+00 0.  1.
<mgrwt>
<rscale>  0 0.27943814E+03</rscale>
<asrwt>0</asrwt>
<pdfrwt beam="2">  1        1 0.35603926E+00 0.28276352E+03</pdfrwt>
<pdfrwt beam="1">  1       -1 0.57969215E-02 0.28276352E+03</pdfrwt>
<totfact> 0.29542795E+02</totfact>
</mgrwt>
</event>
<event>
 8    1  0.7550631E-006  0.1355748E+03  0.7546771E-02  0.1228403E+00
         -1   -1    0    0    0  501 -0.00000000000E+00  0.00000000000E+00  0.36702465817E+02  0.36702465817E+02  0.00000000000E+00 0.  1.
          1   -1    0    0  501    0  0.00000000000E+00 -0.00000000000E+00 -0.42127334176E+03  0.42127334176E+03  0.00000000000E+00 0. -1.
         23    2    1    2    0    0  0.58856605585E+01  0.52182048913E+02 -0.15694417148E+03  0.19303347498E+03  0.99362177263E+02 0.  0.
         23    2    1    2    0    0 -0.58856605585E+01 -0.52182048913E+02 -0.22762670446E+03  0.26494233260E+03  0.12499166289E+03 0.  0.
          5    1    4    4  502    0 -0.63502730981E+02 -0.11252404109E+02 -0.11320173699E+03  0.13036846512E+03  0.47000000000E+01 0.  1.
         -5    1    4    4    0  502  0.57617070422E+02 -0.40929644804E+02 -0.11442496747E+03  0.13457386748E+03  0.47000000000E+01 0.  1.
        -11    1    3    3    0    0 -0.32783876094E+02  0.72077719436E+01 -0.11651128155E+03  0.12125020923E+03  0.00000000000E+00 0. -1.
         11    1    3    3    0    0  0.38669536652E+02  0.44974276969E+02 -0.40432889928E+02  0.71783265750E+02  0.00000000000E+00 0.  1.
<mgrwt>
<rscale>  0 0.12936344E+03</rscale>
<asrwt>0</asrwt>
<pdfrwt beam="2">  1        1 0.64811281E-01 0.13557479E+03</pdfrwt>
<pdfrwt beam="1">  1       -1 0.56465334E-02 0.13557479E+03</pdfrwt>
<totfact> 0.79134470E+03</totfact>
</mgrwt>
</event>
<event>
 7    1  0.7550631E-006  0.1748835E+03  0.7546771E-02  0.1197078E+00
         -1   -1    0    0    0  501 -0.00000000000E+00  0.00000000000E+00  0.25564900488E+03  0.25564900488E+03  0.00000000000E+00 0.  1.
          1   -1    0    0  501    0  0.00000000000E+00 -0.00000000000E+00 -0.11192792792E+03  0.11192792792E+03  0.00000000000E+00 0. -1.
         23    2    1    2    0    0 -0.41029731907E+02  0.75073889485E+01  0.16237126480E+03  0.19170181254E+03  0.92980414660E+02 0.  0.
          5    1    1    2  502    0  0.10671335056E+03  0.20122482650E+01 -0.22875940068E+00  0.10683599890E+03  0.47000000000E+01 0. -1.
         -5    1    1    2    0  502 -0.65683618654E+02 -0.95196372135E+01 -0.18421428441E+02  0.69039121358E+02  0.47000000000E+01 0.  1.
        -11    1    3    3    0    0 -0.55157303256E+02 -0.36227218413E+01  0.16454902759E+03  0.17358523756E+03  0.00000000000E+00 0.  1.
         11    1    3    3    0    0  0.14127571349E+02  0.11130110790E+02 -0.21777627935E+01  0.18116574986E+02  0.00000000000E+00 0. -1.
<mgrwt>
<rscale>  0 0.15279643E+03</rscale>
<asrwt>0</asrwt>
<pdfrwt beam="2">  1        1 0.17219681E-01 0.17488347E+03</pdfrwt>
<pdfrwt beam="1">  1       -1 0.39330616E-01 0.17488347E+03</pdfrwt>
<totfact> 0.19441435E+03</totfact>
</mgrwt>
</event>
<event>
 8    1  0.7550631E-006  0.1623795E+03  0.7546771E-02  0.1193273E+00
         -1   -1    0    0    0  501 -0.00000000000E+00  0.00000000000E+00  0.17516050537E+03  0.17516050537E+03  0.00000000000E+00 0.  1.
          1   -1    0    0  501    0  0.00000000000E+00 -0.00000000000E+00 -0.14548733081E+03  0.14548733081E+03  0.00000000000E+00 0. -1.
         23    2    1    2    0    0 -0.10351592088E+03  0.50970934606E+01  0.67445071353E+02  0.15393303457E+03  0.91678870210E+02 0.  0.
         23    2    1    2    0    0  0.10351592088E+03 -0.50970934606E+01 -0.37771896784E+02  0.16671480161E+03  0.12500233059E+03 0.  0.
          5    1    4    4  502    0  0.37251007248E+00 -0.32429789771E+02  0.26426746312E+02  0.42098609823E+02  0.47000000000E+01 0.  1.
         -5    1    4    4    0  502  0.10314341081E+03  0.27332696311E+02 -0.64198643096E+02  0.12461619179E+03  0.47000000000E+01 0.  1.
        -11    1    3    3    0    0 -0.77511430339E+02 -0.39054701267E+02  0.37187884270E+02  0.94425792349E+02  0.00000000000E+00 0. -1.
         11    1    3    3    0    0 -0.26004490544E+02  0.44151794728E+02  0.30257187083E+02  0.59507242217E+02  0.00000000000E+00 0.  1.
<mgrwt>
<rscale>  0 0.15601262E+03</rscale>
<asrwt>0</asrwt>
<pdfrwt beam="2">  1        1 0.22382666E-01 0.16237952E+03</pdfrwt>
<pdfrwt beam="1">  1       -1 0.26947770E-01 0.16237952E+03</pdfrwt>
<totfact> 0.26440634E+03</totfact>
</mgrwt>
</event>
<event>
 8    1  0.7550631E-006  0.1608385E+03  0.7546771E-02  0.1193112E+00
          1   -1    0    0  501    0  0.00000000000E+00  0.00000000000E+00  0.13773166547E+03  0.13773166547E+03  0.00000000000E+00 0. -1.
         -1   -1    0    0    0  501 -0.00000000000E+00 -0.00000000000E+00 -0.20574231455E+03  0.20574231455E+03  0.00000000000E+00 0.  1.
         23    2    1    2    0    0  0.10289282164E+03  0.35714656149E+02 -0.10635510475E+03  0.17812794279E+03  0.92496952855E+02 0.  0.
         23    2    1    2    0    0 -0.10289282164E+03 -0.35714656149E+02  0.38344455668E+02  0.16534603723E+03  0.11834925153E+03 0.  0.
          5    1    4    4  502    0 -0.20559545971E+02  0.37879672980E+02  0.33358388367E+02  0.54703168373E+02  0.47000000000E+01 0. -1.
         -5    1    4    4    0  502 -0.82333275666E+02 -0.73594329129E+02  0.49860673007E+01  0.11064286886E+03  0.47000000000E+01 0.  1.
        -11    1    3    3    0    0  0.54755029382E+02  0.54769169557E+02 -0.24414870916E+02  0.81202592930E+02  0.00000000000E+00 0. -1.
         11    1    3    3    0    0  0.48137792255E+02 -0.19054513408E+02 -0.81940233838E+02  0.96925349862E+02  0.00000000000E+00 0.  1.
<mgrwt>
<rscale>  0 0.15615091E+03</rscale>
<asrwt>0</asrwt>
<pdfrwt beam="1">  1        1 0.21189487E-01 0.16083847E+03</pdfrwt>
<pdfrwt beam="2">  1       -1 0.31652664E-01 0.16083847E+03</pdfrwt>
<totfact> 0.21618892E+03</totfact>
</mgrwt>
</event>
<event>
 8    1  0.7550631E-006  0.2532854E+03  0.7546771E-02  0.1113145E+00
         -2   -1    0    0    0  501 -0.00000000000E+00  0.00000000000E+00  0.65677590795E+02  0.65677590795E+02  0.00000000000E+00 0.  1.
          2   -1    0    0  501    0  0.00000000000E+00 -0.00000000000E+00 -0.95143467554E+03  0.95143467554E+03  0.00000000000E+00 0. -1.
         23    2    1    2    0    0  0.18234583581E+03 -0.12360766999E+03 -0.35865027728E+03  0.43230879154E+03  0.98650950004E+02 0.  0.
         23    2    1    2    0    0 -0.18234583581E+03  0.12360766999E+03 -0.52710680747E+03  0.58480347479E+03  0.12499863091E+03 0.  0.
          5    1    4    4  502    0  0.98651429428E-01  0.44807973433E+02 -0.17240344655E+03  0.17819316092E+03  0.47000000000E+01 0. -1.
         -5    1    4    4    0  502 -0.18244448724E+03  0.78799696560E+02 -0.35470336092E+03  0.40661031387E+03  0.47000000000E+01 0. -1.
        -11    1    3    3    0    0  0.60345501588E+02  0.91794256319E+01 -0.89005631978E+02  0.10792517751E+03  0.00000000000E+00 0.  1.
         11    1    3    3    0    0  0.12200033422E+03 -0.13278709563E+03 -0.26964464530E+03  0.32438361403E+03  0.00000000000E+00 0. -1.
<mgrwt>
<rscale>  0 0.25025329E+03</rscale>
<asrwt>0</asrwt>
<pdfrwt beam="2">  1        2 0.14637455E+00 0.25328545E+03</pdfrwt>
<pdfrwt beam="1">  1       -2 0.10104246E-01 0.25328545E+03</pdfrwt>
<totfact> 0.18359827E+03</totfact>
</mgrwt>
</event>
<event>
 8    1  0.7550631E-006  0.1293199E+03  0.7546771E-02  0.1242640E+00
         -2   -1    0    0    0  501 -0.00000000000E+00  0.00000000000E+00  0.15114830139E+03  0.15114830139E+03  0.00000000000E+00 0.  1.
          2   -1    0    0  501    0  0.00000000000E+00 -0.00000000000E+00 -0.15226845001E+03  0.15226845001E+03  0.00000000000E+00 0. -1.
         23    2    1    2    0    0  0.22211726185E+02 -0.24662415077E+02  0.10007408223E+03  0.13920982197E+03  0.90900809134E+02 0.  0.
         23    2    1    2    0    0 -0.22211726185E+02  0.24662415077E+02 -0.10119423084E+03  0.16420692943E+03  0.12498819073E+03 0.  0.
          5    1    4    4  502    0  0.29151385782E+01 -0.41245438837E+02 -0.10527174756E+01  0.41627904966E+02  0.47000000000E+01 0.  1.
         -5    1    4    4    0  502 -0.25126864763E+02  0.65907853914E+02 -0.10014151337E+03  0.12257902447E+03  0.47000000000E+01 0.  1.
        -11    1    3    3    0    0 -0.25998384280E+02 -0.35046707459E+02  0.66541371469E+02  0.79573499394E+02  0.00000000000E+00 0.  1.
         11    1    3    3    0    0  0.48210110465E+02  0.10384292383E+02  0.33532710758E+02  0.59636322573E+02  0.00000000000E+00 0. -1.
<mgrwt>
<rscale>  0 0.12027766E+03</rscale>
<asrwt>0</asrwt>
<pdfrwt beam="2">  1        2 0.23425915E-01 0.12931993E+03</pdfrwt>
<pdfrwt beam="1">  1       -2 0.23253585E-01 0.12931993E+03</pdfrwt>
<totfact> 0.35869583E+03</totfact>
</mgrwt>
</event>
<event>
 8    1  0.7550631E-006  0.1271321E+03  0.7546771E-02  0.1246225E+00
         -1   -1    0    0    0  501 -0.00000000000E+00  0.00000000000E+00  0.22049388624E+03  0.22049388624E+03  0.00000000000E+00 0.  1.
          1   -1    0    0  501    0  0.00000000000E+00 -0.00000000000E+00 -0.65942449248E+02  0.65942449248E+02  0.00000000000E+00 0. -1.
         23    2    1    2    0    0  0.11507175357E+02  0.20219890715E+02  0.12333299766E+03  0.15552734691E+03  0.91850249106E+02 0.  0.
         23    2    1    2    0    0 -0.11507175357E+02 -0.20219890715E+02  0.31218439328E+02  0.13090898857E+03  0.12498525221E+03 0.  0.
          5    1    4    4  502    0 -0.65960556244E+02 -0.20970097840E+02  0.31063559596E+01  0.69442634100E+02  0.47000000000E+01 0.  1.
         -5    1    4    4    0  502  0.54453380886E+02  0.75020712557E+00  0.28112083368E+02  0.61466354471E+02  0.47000000000E+01 0.  1.
        -11    1    3    3    0    0 -0.18684308981E+01 -0.33683910586E+02  0.22941033557E+02  0.40796910264E+02  0.00000000000E+00 0. -1.
         11    1    3    3    0    0  0.13375606255E+02  0.53903801301E+02  0.10039196410E+03  0.11473043665E+03  0.00000000000E+00 0.  1.
<mgrwt>
<rscale>  0 0.11812375E+03</rscale>
<asrwt>0</asrwt>
<pdfrwt beam="2">  1        1 0.10144992E-01 0.12713211E+03</pdfrwt>
<pdfrwt beam="1">  1       -1 0.33922136E-01 0.12713211E+03</pdfrwt>
<totfact> 0.49372355E+03</totfact>
</mgrwt>
</event>
<event>
 8    1  0.7550631E-006  0.1565153E+03  0.7546771E-02  0.1200410E+00
         -1   -1    0    0    0  501 -0.00000000000E+00  0.00000000000E+00  0.34510659339E+02  0.34510659339E+02  0.00000000000E+00 0.  1.
          1   -1    0    0  501    0  0.00000000000E+00 -0.00000000000E+00 -0.66028844360E+03  0.66028844360E+03  0.00000000000E+00 0. -1.
         23    2    1    2    0    0 -0.55857113162E+02 -0.75841774253E+02 -0.18762568700E+03  0.22953111553E+03  0.92785466308E+02 0.  0.
         23    2    1    2    0    0  0.55857113162E+02  0.75841774253E+02 -0.43815209726E+03  0.46526798742E+03  0.12500019188E+03 0.  0.
          5    1    4    4  502    0  0.14892037173E+02  0.62305623632E+02 -0.71736023591E+02  0.96290760658E+02  0.47000000000E+01 0.  1.
         -5    1    4    4    0  502  0.40965075988E+02  0.13536150620E+02 -0.36641607367E+03  0.36897722676E+03  0.47000000000E+01 0.  1.
        -11    1    3    3    0    0 -0.22988520547E+02 -0.45815505887E+02 -0.18264070338E+02  0.54416072276E+02  0.00000000000E+00 0.  1.
         11    1    3    3    0    0 -0.32868592615E+02 -0.30026268365E+02 -0.16936161667E+03  0.17511504325E+03  0.00000000000E+00 0. -1.
<mgrwt>
<rscale>  0 0.15005097E+03</rscale>
<asrwt>0</asrwt>
<pdfrwt beam="2">  1        1 0.10158284E+00 0.15651530E+03</pdfrwt>
<pdfrwt beam="1">  1       -1 0.53093321E-02 0.15651530E+03</pdfrwt>
<totfact> 0.48138979E+03</totfact>
</mgrwt>
</event>
<event>
 8    1  0.7550631E-006  0.1415482E+03  0.7546771E-02  0.1221730E+00
         -2   -1    0    0    0  501 -0.00000000000E+00  0.00000000000E+00  0.38227525378E+03  0.38227525378E+03  0.00000000000E+00 0.  1.
          2   -1    0    0  501    0  0.00000000000E+00 -0.00000000000E+00 -0.50986136728E+02  0.50986136728E+02  0.00000000000E+00 0. -1.
         23    2    1    2    0    0 -0.65629956986E+02 -0.10429974349E+02  0.23820476009E+03  0.26384892021E+03  0.91971024498E+02 0.  0.
         23    2    1    2    0    0  0.65629956986E+02  0.10429974349E+02  0.93084356954E+02  0.16941247029E+03  0.12497924612E+03 0.  0.
          5    1    4    4  502    0  0.57779077893E+02 -0.49175111296E+02  0.74184002284E+02  0.10621661644E+03  0.47000000000E+01 0.  1.
         -5    1    4    4    0  502  0.78508790922E+01  0.59605085645E+02  0.18900354670E+02  0.63195853851E+02  0.47000000000E+01 0.  1.
        -11    1    3    3    0    0 -0.20165466016E+02 -0.25443049601E+02  0.15354270959E+02  0.35913067668E+02  0.00000000000E+00 0. -1.
         11    1    3    3    0    0 -0.45464490970E+02  0.15013075253E+02  0.22285048913E+03  0.22793585254E+03  0.00000000000E+00 0.  1.
<mgrwt>
<rscale>  0 0.13393545E+03</rscale>
<asrwt>0</asrwt>
<pdfrwt beam="2">  1        2 0.78440213E-02 0.14154818E+03</pdfrwt>
<pdfrwt beam="1">  1       -2 0.58811576E-01 0.14154818E+03</pdfrwt>
<totfact> 0.23191404E+03</totfact>
</mgrwt>
</event>
<event>
 8    1  0.7550631E-006  0.1716706E+03  0.7546771E-02  0.1182775E+00
         -2   -1    0    0    0  501 -0.00000000000E+00  0.00000000000E+00  0.54922465363E+02  0.54922465363E+02  0.00000000000E+00 0.  1.
          2   -1    0    0  501    0  0.00000000000E+00 -0.00000000000E+00 -0.47477577756E+03  0.47477577756E+03  0.00000000000E+00 0. -1.
         23    2    1    2    0    0  0.11627277298E+03  0.18056936250E+02 -0.15576521092E+03  0.21471677875E+03  0.89415230577E+02 0.  0.
         23    2    1    2    0    0 -0.11627277298E+03 -0.18056936250E+02 -0.26408810127E+03  0.31498146417E+03  0.12500154742E+03 0.  0.
          5    1    4    4  502    0 -0.23045991076E+02  0.31505792961E+02 -0.16667251747E+03  0.17124704604E+03  0.47000000000E+01 0.  1.
         -5    1    4    4    0  502 -0.93226781903E+02 -0.49562729211E+02 -0.97415583799E+02  0.14373441814E+03  0.47000000000E+01 0.  1.
        -11    1    3    3    0    0  0.83783928245E+02  0.51807469893E+02 -0.86491565968E+02  0.13108986060E+03  0.00000000000E+00 0. -1.
         11    1    3    3    0    0  0.32488844734E+02 -0.33750533643E+02 -0.69273644956E+02  0.83626918147E+02  0.00000000000E+00 0.  1.
<mgrwt>
<rscale>  0 0.16535973E+03</rscale>
<asrwt>0</asrwt>
<pdfrwt beam="2">  1        2 0.73042432E-01 0.17167061E+03</pdfrwt>
<pdfrwt beam="1">  1       -2 0.84496096E-02 0.17167061E+03</pdfrwt>
<totfact> 0.55740964E+03</totfact>
</mgrwt>
</event>
<event>
 8    1  0.7550631E-006  0.1506713E+03  0.7546771E-02  0.1208933E+00
          2   -1    0    0  501    0  0.00000000000E+00  0.00000000000E+00  0.77159834770E+02  0.77159834770E+02  0.00000000000E+00 0. -1.
         -2   -1    0    0    0  501 -0.00000000000E+00 -0.00000000000E+00 -0.27186267727E+03  0.27186267727E+03  0.00000000000E+00 0.  1.
         23    2    1    2    0    0 -0.65448785513E+02  0.52854048019E+02 -0.14500259000E+03  0.19036582306E+03  0.90201449912E+02 0.  0.
         23    2    1    2    0    0  0.65448785513E+02 -0.52854048019E+02 -0.49700252495E+02  0.15865668897E+03  0.12499894376E+03 0.  0.
          5    1    4    4  502    0 -0.96065653714E+01 -0.25127424703E+02 -0.70708117200E+02  0.75798426161E+02  0.47000000000E+01 0.  1.
         -5    1    4    4    0  502  0.75055350884E+02 -0.27726623316E+02  0.21007864705E+02  0.82858262812E+02  0.47000000000E+01 0.  1.
        -11    1    3    3    0    0 -0.34901822908E+02  0.56958313651E+02 -0.14488598667E+03  0.15954415022E+03  0.00000000000E+00 0.  1.
         11    1    3    3    0    0 -0.30546962604E+02 -0.41042656321E+01 -0.11660333620E+00  0.30821672846E+02  0.00000000000E+00 0. -1.
<mgrwt>
<rscale>  0 0.14331812E+03</rscale>
<asrwt>0</asrwt>
<pdfrwt beam="1">  1        2 0.11870744E-01 0.15067126E+03</pdfrwt>
<pdfrwt beam="2">  1       -2 0.41825028E-01 0.15067126E+03</pdfrwt>
<totfact> 0.27391212E+03</totfact>
</mgrwt>
</event>
<event>
 8    1  0.7550631E-006  0.1270248E+03  0.7546771E-02  0.1246991E+00
         -2   -1    0    0    0  501 -0.00000000000E+00  0.00000000000E+00  0.50593100045E+02  0.50593100045E+02  0.00000000000E+00 0.  1.
          2   -1    0    0  501    0  0.00000000000E+00 -0.00000000000E+00 -0.26226947591E+03  0.26226947591E+03  0.00000000000E+00 0. -1.
         23    2    1    2    0    0 -0.21005320095E+02  0.82951018007E+01 -0.46410808835E+02  0.10442069383E+03  0.90772715819E+02 0.  0.
         23    2    1    2    0    0  0.21005320095E+02 -0.82951018007E+01 -0.16526556703E+03  0.20844188213E+03  0.12500111356E+03 0.  0.
          5    1    4    4  502    0 -0.36487536151E+02 -0.13436450780E+02 -0.68345751185E+01  0.39757765543E+02  0.47000000000E+01 0.  1.
         -5    1    4    4    0  502  0.57492856246E+02  0.51413489797E+01 -0.15843099192E+03  0.16868411658E+03  0.47000000000E+01 0.  1.
        -11    1    3    3    0    0  0.19077732756E+02  0.24297822317E+02  0.10826756344E+02  0.32734732462E+02  0.00000000000E+00 0.  1.
         11    1    3    3    0    0 -0.40083052851E+02 -0.16002720516E+02 -0.57237565179E+02  0.71685961369E+02  0.00000000000E+00 0. -1.
<mgrwt>
<rscale>  0 0.11767000E+03</rscale>
<asrwt>0</asrwt>
<pdfrwt beam="2">  1        2 0.40349149E-01 0.12702484E+03</pdfrwt>
<pdfrwt beam="1">  1       -2 0.77835540E-02 0.12702484E+03</pdfrwt>
<totfact> 0.11709443E+04</totfact>
</mgrwt>
</event>
<event>
 8    1  0.7550631E-006  0.1542578E+03  0.7546771E-02  0.1203849E+00
         -1   -1    0    0    0  501 -0.00000000000E+00  0.00000000000E+00  0.15706863205E+02  0.15706863205E+02  0.00000000000E+00 0.  1.
          1   -1    0    0  501    0  0.00000000000E+00 -0.00000000000E+00 -0.12980377916E+04  0.12980377916E+04  0.00000000000E+00 0. -1.
         23    2    1    2    0    0 -0.53462046574E+02 -0.72884508953E+02 -0.48698360980E+03  0.50357626239E+03  0.90915750890E+02 0.  0.
         23    2    1    2    0    0  0.53462046574E+02  0.72884508953E+02 -0.79534731859E+03  0.81016839241E+03  0.12500049921E+03 0.  0.
          5    1    4    4  502    0 -0.30350818018E+02  0.49198856839E+02 -0.19260583815E+03  0.20114869763E+03  0.47000000000E+01 0.  1.
         -5    1    4    4    0  502  0.83812864592E+02  0.23685652114E+02 -0.60274148043E+03  0.60901969477E+03  0.47000000000E+01 0.  1.
        -11    1    3    3    0    0 -0.16773272894E+02  0.13857762502E+02 -0.30421734047E+02  0.37401365852E+02  0.00000000000E+00 0. -1.
         11    1    3    3    0    0 -0.36688773680E+02 -0.86742271456E+02 -0.45656187575E+03  0.46617489654E+03  0.00000000000E+00 0.  1.
<mgrwt>
<rscale>  0 0.14728547E+03</rscale>
<asrwt>0</asrwt>
<pdfrwt beam="2">  1        1 0.19969813E+00 0.15425779E+03</pdfrwt>
<pdfrwt beam="1">  1       -1 0.24164404E-02 0.15425779E+03</pdfrwt>
<totfact> 0.50068948E+03</totfact>
</mgrwt>
</event>
<event>
 8    1  0.7550631E-006  0.1668155E+03  0.7546771E-02  0.1188088E+00
          1   -1    0    0  501    0  0.00000000000E+00  0.00000000000E+00  0.17071093546E+03  0.17071093546E+03  0.00000000000E+00 0. -1.
         -1   -1    0    0    0  501 -0.00000000000E+00 -0.00000000000E+00 -0.14103026083E+03  0.14103026083E+03  0.00000000000E+00 0.  1.
         23    2    1    2    0    0  0.52503153931E+02 -0.97238074917E+02  0.57046753189E+01  0.14321153732E+03  0.90913017307E+02 0.  0.
         23    2    1    2    0    0 -0.52503153931E+02  0.97238074917E+02  0.23975999313E+02  0.16852965896E+03  0.12496228639E+03 0.  0.
          5    1    4    4  502    0 -0.42403005747E+02  0.11677066136E+03 -0.13265814183E+02  0.12502589362E+03  0.47000000000E+01 0.  1.
         -5    1    4    4    0  502 -0.10100148184E+02 -0.19532586439E+02  0.37241813496E+02  0.43503765341E+02  0.47000000000E+01 0.  1.
        -11    1    3    3    0    0 -0.13221349738E+02 -0.69663571095E+02  0.10934992896E+02  0.71745322470E+02  0.00000000000E+00 0.  1.
         11    1    3    3    0    0  0.65724503669E+02 -0.27574503822E+02 -0.52303175772E+01  0.71466214854E+02  0.00000000000E+00 0. -1.
<mgrwt>
<rscale>  0 0.16054083E+03</rscale>
<asrwt>0</asrwt>
<pdfrwt beam="1">  1        1 0.26263221E-01 0.16681546E+03</pdfrwt>
<pdfrwt beam="2">  1       -1 0.21696963E-01 0.16681546E+03</pdfrwt>
<totfact> 0.30888643E+03</totfact>
</mgrwt>
</event>
<event>
 8    1  0.7550631E-006  0.2920891E+03  0.7546771E-02  0.1090312E+00
         -2   -1    0    0    0  501 -0.00000000000E+00  0.00000000000E+00  0.12210450380E+03  0.12210450380E+03  0.00000000000E+00 0.  1.
          2   -1    0    0  501    0  0.00000000000E+00 -0.00000000000E+00 -0.76255859610E+03  0.76255859610E+03  0.00000000000E+00 0. -1.
         23    2    1    2    0    0 -0.65191256989E+02 -0.26073211695E+03 -0.46202999544E+03  0.54238956269E+03  0.92106374570E+02 0.  0.
         23    2    1    2    0    0  0.65191256989E+02  0.26073211695E+03 -0.17842409687E+03  0.34227353721E+03  0.11438915654E+03 0.  0.
          5    1    4    4  502    0  0.38091385215E+02  0.23750756445E+03 -0.18764589649E+03  0.30511287955E+03  0.47000000000E+01 0. -1.
         -5    1    4    4    0  502  0.27099871774E+02  0.23224552498E+02  0.92217996259E+01  0.37160657653E+02  0.47000000000E+01 0.  1.
        -11    1    3    3    0    0 -0.17839072697E+02 -0.22089736193E+03 -0.37528563651E+03  0.43583619169E+03  0.00000000000E+00 0.  1.
         11    1    3    3    0    0 -0.47352184292E+02 -0.39834755019E+02 -0.86744358935E+02  0.10655337100E+03  0.00000000000E+00 0. -1.
<mgrwt>
<rscale>  0 0.29007183E+03</rscale>
<asrwt>0</asrwt>
<pdfrwt beam="2">  1        2 0.11731670E+00 0.29208905E+03</pdfrwt>
<pdfrwt beam="1">  1       -2 0.18785309E-01 0.29208905E+03</pdfrwt>
<totfact> 0.88462527E+02</totfact>
</mgrwt>
</event>
<event>
 6    1  0.8244728E-006  0.1688577E+03  0.7546771E-02  0.1214908E+00
          2   -1    0    0  501    0  0.00000000000E+00  0.00000000000E+00  0.29319934483E+03  0.29319934483E+03  0.00000000000E+00 0. -1.
         -2   -1    0    0    0  501 -0.00000000000E+00 -0.00000000000E+00 -0.51753099067E+02  0.51753099067E+02  0.00000000000E+00 0.  1.
          5    1    1    2  502    0 -0.89218506044E+02  0.41359668527E+02  0.86085378375E+02  0.13077976285E+03  0.47000000000E+01 0. -1.
         -5    1    1    2    0  502  0.62263450935E+02  0.29065882203E+02  0.87965847055E+02  0.11172127406E+03  0.47000000000E+01 0.  1.
        -11    1    1    2    0    0  0.14089353335E+02 -0.16681744875E+02  0.21016217261E+02  0.30306300953E+02  0.00000000000E+00 0.  1.
         11    1    1    2    0    0  0.12865701774E+02 -0.53743805855E+02  0.46378803076E+02  0.72145106034E+02  0.00000000000E+00 0. -1.
<mgrwt>
<rscale>  0 0.13883329E+03</rscale>
<asrwt>0</asrwt>
<pdfrwt beam="1">  1        2 0.45107590E-01 0.16885770E+03</pdfrwt>
<pdfrwt beam="2">  1       -2 0.79620155E-02 0.16885770E+03</pdfrwt>
<totfact> 0.10261108E+04</totfact>
</mgrwt>
</event>
<event>
 8    1  0.7550631E-006  0.1384073E+03  0.7546771E-02  0.1227244E+00
         -1   -1    0    0    0  501 -0.00000000000E+00  0.00000000000E+00  0.11118751038E+03  0.11118751038E+03  0.00000000000E+00 0.  1.
          1   -1    0    0  501    0  0.00000000000E+00 -0.00000000000E+00 -0.13889191338E+03  0.13889191338E+03  0.00000000000E+00 0. -1.
         23    2    1    2    0    0  0.29977835000E+02  0.51280616066E+02  0.32894631570E+01  0.10824433679E+03  0.90430325139E+02 0.  0.
         23    2    1    2    0    0 -0.29977835000E+02 -0.51280616066E+02 -0.30993866157E+02  0.14183508696E+03  0.12501279926E+03 0.  0.
          5    1    4    4  502    0  0.23894240352E+02 -0.19971843072E+02  0.37599585982E+02  0.49047202812E+02  0.47000000000E+01 0. -1.
         -5    1    4    4    0  502 -0.53872075352E+02 -0.31308772994E+02 -0.68593452139E+02  0.92787884152E+02  0.47000000000E+01 0. -1.
        -11    1    3    3    0    0  0.55248040201E+02  0.46074715961E+02  0.23272661056E+02  0.75609801941E+02  0.00000000000E+00 0.  1.
         11    1    3    3    0    0 -0.25270205201E+02  0.52059001043E+01 -0.19983197899E+02  0.32634534853E+02  0.00000000000E+00 0. -1.
<mgrwt>
<rscale>  0 0.13014285E+03</rscale>
<asrwt>0</asrwt>
<pdfrwt beam="2">  1        1 0.21367987E-01 0.13840727E+03</pdfrwt>
<pdfrwt beam="1">  1       -1 0.17105771E-01 0.13840727E+03</pdfrwt>
<totfact> 0.58102380E+03</totfact>
</mgrwt>
</event>
<event>
 8    1  0.7550631E-006  0.1261321E+03  0.7546771E-02  0.1249185E+00
         -1   -1    0    0    0  501 -0.00000000000E+00  0.00000000000E+00  0.13530101426E+02  0.13530101426E+02  0.00000000000E+00 0.  1.
          1   -1    0    0  501    0  0.00000000000E+00 -0.00000000000E+00 -0.11513661568E+04  0.11513661568E+04  0.00000000000E+00 0. -1.
         23    2    1    2    0    0 -0.11565327561E+02 -0.12402025246E+02 -0.21719508097E+03  0.23565511081E+03  0.89844649367E+02 0.  0.
         23    2    1    2    0    0  0.11565327561E+02  0.12402025246E+02 -0.92064097439E+03  0.92924114741E+03  0.12498695642E+03 0.  0.
          5    1    4    4  502    0  0.51355481791E+02 -0.33505994139E+02 -0.57402670067E+03  0.57731168379E+03  0.47000000000E+01 0. -1.
         -5    1    4    4    0  502 -0.39790154230E+02  0.45908019385E+02 -0.34661427372E+03  0.35192946362E+03  0.47000000000E+01 0. -1.
        -11    1    3    3    0    0  0.22354258519E+02  0.23204989220E+02 -0.37935412349E+02  0.49772280525E+02  0.00000000000E+00 0.  1.
         11    1    3    3    0    0 -0.33919586080E+02 -0.35607014467E+02 -0.17925966862E+03  0.18588283028E+03  0.00000000000E+00 0. -1.
<mgrwt>
<rscale>  0 0.11638381E+03</rscale>
<asrwt>0</asrwt>
<pdfrwt beam="2">  1        1 0.17713326E+00 0.12613210E+03</pdfrwt>
<pdfrwt beam="1">  1       -1 0.20815540E-02 0.12613210E+03</pdfrwt>
<totfact> 0.77563421E+03</totfact>
</mgrwt>
</event>
<event>
 8    1  0.7550631E-006  0.1940514E+03  0.7546771E-02  0.1157770E+00
         -1   -1    0    0    0  501 -0.00000000000E+00  0.00000000000E+00  0.56325905153E+03  0.56325905153E+03  0.00000000000E+00 0.  1.
          1   -1    0    0  501    0  0.00000000000E+00 -0.00000000000E+00 -0.62792942380E+02  0.62792942380E+02  0.00000000000E+00 0. -1.
         23    2    1    2    0    0  0.96146949191E+02  0.11397293721E+03  0.26251020984E+03  0.31900321897E+03  0.10304065795E+03 0.  0.
         23    2    1    2    0    0 -0.96146949191E+02 -0.11397293721E+03  0.23795589931E+03  0.30704877494E+03  0.12418483771E+03 0.  0.
          5    1    4    4  502    0 -0.93885544465E+02 -0.13850884160E+03  0.19226957619E+03  0.25492915602E+03  0.47000000000E+01 0. -1.
         -5    1    4    4    0  502 -0.22614047257E+01  0.24535904391E+02  0.45686323120E+02  0.52119618915E+02  0.47000000000E+01 0. -1.
        -11    1    3    3    0    0  0.41293193763E+02 -0.11440029104E+02  0.81329997260E+02  0.91926985001E+02  0.00000000000E+00 0.  1.
         11    1    3    3    0    0  0.54853755428E+02  0.12541296632E+03  0.18118021258E+03  0.22707623397E+03  0.00000000000E+00 0. -1.
<mgrwt>
<rscale>  0 0.19076859E+03</rscale>
<asrwt>0</asrwt>
<pdfrwt beam="2">  1        1 0.96604530E-02 0.19405139E+03</pdfrwt>
<pdfrwt beam="1">  1       -1 0.86655236E-01 0.19405139E+03</pdfrwt>
<totfact> 0.92137576E+02</totfact>
</mgrwt>
</event>
<event>
 8    1  0.7550631E-006  0.1359478E+03  0.7546771E-02  0.1229280E+00
          2   -1    0    0  501    0  0.00000000000E+00  0.00000000000E+00  0.51972168139E+03  0.51972168139E+03  0.00000000000E+00 0. -1.
         -2   -1    0    0    0  501 -0.00000000000E+00 -0.00000000000E+00 -0.33986492337E+02  0.33986492337E+02  0.00000000000E+00 0.  1.
         23    2    1    2    0    0 -0.30306844886E+02 -0.44028635576E+02  0.11468554210E+03  0.15853778267E+03  0.95521879010E+02 0.  0.
         23    2    1    2    0    0  0.30306844886E+02  0.44028635576E+02  0.37104964696E+03  0.39517039106E+03  0.12499908746E+03 0.  0.
          5    1    4    4  502    0  0.67498146584E+02  0.57636301664E+02  0.18973764539E+03  0.20952423999E+03  0.47000000000E+01 0. -1.
         -5    1    4    4    0  502 -0.37191301698E+02 -0.13607666088E+02  0.18131200157E+03  0.18564615108E+03  0.47000000000E+01 0. -1.
        -11    1    3    3    0    0 -0.48113546413E+02 -0.55021113384E+02  0.45126181347E+02  0.85898827172E+02  0.00000000000E+00 0.  1.
         11    1    3    3    0    0  0.17806701527E+02  0.10992477808E+02  0.69559360749E+02  0.72638955496E+02  0.00000000000E+00 0. -1.
<mgrwt>
<rscale>  0 0.12877833E+03</rscale>
<asrwt>0</asrwt>
<pdfrwt beam="1">  1        2 0.79957176E-01 0.13594777E+03</pdfrwt>
<pdfrwt beam="2">  1       -2 0.52286915E-02 0.13594777E+03</pdfrwt>
<totfact> 0.10373931E+04</totfact>
</mgrwt>
</event>
<event>
 8    1  0.7550631E-006  0.1839963E+03  0.7546771E-02  0.1169321E+00
          2   -1    0    0  501    0  0.00000000000E+00  0.00000000000E+00  0.25688220317E+03  0.25688220317E+03  0.00000000000E+00 0. -1.
         -2   -1    0    0    0  501 -0.00000000000E+00 -0.00000000000E+00 -0.12486536964E+03  0.12486536964E+03  0.00000000000E+00 0.  1.
         23    2    1    2    0    0 -0.11895881415E+03 -0.63863903662E+02  0.14455184376E+02  0.16340066138E+03  0.90890187211E+02 0.  0.
         23    2    1    2    0    0  0.11895881415E+03  0.63863903662E+02  0.11756164915E+03  0.21834691143E+03  0.12499933889E+03 0.  0.
          5    1    4    4  502    0  0.61836299973E+02 -0.24857667770E+02  0.84390715753E+02  0.10763602811E+03  0.47000000000E+01 0. -1.
         -5    1    4    4    0  502  0.57122514174E+02  0.88721571432E+02  0.33170933399E+02  0.11071088332E+03  0.47000000000E+01 0. -1.
        -11    1    3    3    0    0 -0.11131809788E+03 -0.14511812435E+02  0.37303391879E+01  0.11232197936E+03  0.00000000000E+00 0. -1.
         11    1    3    3    0    0 -0.76407162671E+01 -0.49352091227E+02  0.10724845188E+02  0.51078682030E+02  0.00000000000E+00 0.  1.
<mgrwt>
<rscale>  0 0.17844062E+03</rscale>
<asrwt>0</asrwt>
<pdfrwt beam="1">  1        2 0.39520339E-01 0.18399628E+03</pdfrwt>
<pdfrwt beam="2">  1       -2 0.19210057E-01 0.18399628E+03</pdfrwt>
<totfact> 0.28629479E+03</totfact>
</mgrwt>
</event>
<event>
 8    1  0.7550631E-006  0.1261776E+03  0.7546771E-02  0.1249183E+00
          2   -1    0    0  501    0  0.00000000000E+00  0.00000000000E+00  0.74726824928E+03  0.74726824928E+03  0.00000000000E+00 0. -1.
         -2   -1    0    0    0  501 -0.00000000000E+00 -0.00000000000E+00 -0.17410556765E+02  0.17410556765E+02  0.00000000000E+00 0.  1.
         23    2    1    2    0    0 -0.12711786986E+02  0.11585146482E+02  0.19787437955E+03  0.21793661292E+03  0.89701126093E+02 0.  0.
         23    2    1    2    0    0  0.12711786986E+02 -0.11585146482E+02  0.53198331296E+03  0.54674219312E+03  0.12499990128E+03 0.  0.
          5    1    4    4  502    0 -0.15181442323E+02 -0.41498575075E+02  0.69905915963E+02  0.82834383024E+02  0.47000000000E+01 0.  1.
         -5    1    4    4    0  502  0.27893229309E+02  0.29913428593E+02  0.46207739700E+03  0.46390781010E+03  0.47000000000E+01 0.  1.
        -11    1    3    3    0    0 -0.16619658308E+02  0.43860660702E+02  0.59340853119E+02  0.75639324748E+02  0.00000000000E+00 0.  1.
         11    1    3    3    0    0  0.39078713219E+01 -0.32275514220E+02  0.13853352643E+03  0.14229728817E+03  0.00000000000E+00 0. -1.
<mgrwt>
<rscale>  0 0.11638474E+03</rscale>
<asrwt>0</asrwt>
<pdfrwt beam="1">  1        2 0.11496432E+00 0.12617758E+03</pdfrwt>
<pdfrwt beam="2">  1       -2 0.26785478E-02 0.12617758E+03</pdfrwt>
<totfact> 0.18300430E+04</totfact>
</mgrwt>
</event>
<event>
 8    1  0.7550631E-006  0.1373732E+03  0.7546771E-02  0.1228082E+00
         -2   -1    0    0    0  501 -0.00000000000E+00  0.00000000000E+00  0.31980072582E+02  0.31980072582E+02  0.00000000000E+00 0.  1.
          2   -1    0    0  501    0  0.00000000000E+00 -0.00000000000E+00 -0.52578161295E+03  0.52578161295E+03  0.00000000000E+00 0. -1.
         23    2    1    2    0    0 -0.11933847027E+02 -0.55517983721E+02 -0.13367837778E+03  0.17232676016E+03  0.92746646074E+02 0.  0.
         23    2    1    2    0    0  0.11933847027E+02  0.55517983721E+02 -0.36012316258E+03  0.38543492538E+03  0.12508687481E+03 0.  0.
          5    1    4    4  502    0 -0.52757736492E+02  0.16988064767E+01 -0.14610864585E+03  0.15542229922E+03  0.47000000000E+01 0.  1.
         -5    1    4    4    0  502  0.64691583519E+02  0.53819177245E+02 -0.21401451674E+03  0.23001262616E+03  0.47000000000E+01 0.  1.
        -11    1    3    3    0    0 -0.47269696397E+02 -0.56139367330E+02 -0.91734597838E+02  0.11747888832E+03  0.00000000000E+00 0.  1.
         11    1    3    3    0    0  0.35335849370E+02  0.62138360839E+00 -0.41943779945E+02  0.54847871831E+02  0.00000000000E+00 0. -1.
<mgrwt>
<rscale>  0 0.12957880E+03</rscale>
<asrwt>0</asrwt>
<pdfrwt beam="2">  1        2 0.80889477E-01 0.13737318E+03</pdfrwt>
<pdfrwt beam="1">  1       -2 0.49200113E-02 0.13737318E+03</pdfrwt>
<totfact> 0.11230486E+04</totfact>
</mgrwt>
</event>
<event>
 8    1  0.7550631E-006  0.1361640E+03  0.7546771E-02  0.1230685E+00
         -2   -1    0    0    0  501 -0.00000000000E+00  0.00000000000E+00  0.14471086826E+02  0.14471086826E+02  0.00000000000E+00 0.  1.
          2   -1    0    0  501    0  0.00000000000E+00 -0.00000000000E+00 -0.10313263312E+04  0.10313263312E+04  0.00000000000E+00 0. -1.
         23    2    1    2    0    0  0.52288421642E+02 -0.13352875526E+02 -0.37422301210E+03  0.38889802031E+03  0.91029825275E+02 0.  0.
         23    2    1    2    0    0 -0.52288421642E+02  0.13352875526E+02 -0.64263223230E+03  0.65689939775E+03  0.12501301711E+03 0.  0.
          5    1    4    4  502    0 -0.54737734151E+01 -0.17462208602E+02 -0.53609294788E+03  0.53642579141E+03  0.47000000000E+01 0.  1.
         -5    1    4    4    0  502 -0.46814648227E+02  0.30815084129E+02 -0.10653928442E+03  0.12047360633E+03  0.47000000000E+01 0.  1.
        -11    1    3    3    0    0  0.54430080081E+02  0.30162812254E+02 -0.22443797132E+03  0.23290519923E+03  0.00000000000E+00 0. -1.
         11    1    3    3    0    0 -0.21416584386E+01 -0.43515687781E+02 -0.14978504079E+03  0.15599282108E+03  0.00000000000E+00 0.  1.
<mgrwt>
<rscale>  0 0.12784778E+03</rscale>
<asrwt>0</asrwt>
<pdfrwt beam="2">  1        2 0.15866557E+00 0.13616399E+03</pdfrwt>
<pdfrwt beam="1">  1       -2 0.22263213E-02 0.13616399E+03</pdfrwt>
<totfact> 0.15881017E+04</totfact>
</mgrwt>
</event>
<event>
 8    1  0.7550631E-006  0.1479806E+03  0.7546771E-02  0.1216603E+00
          1   -1    0    0  501    0  0.00000000000E+00  0.00000000000E+00  0.13467134870E+04  0.13467134870E+04  0.00000000000E+00 0. -1.
         -1   -1    0    0    0  501 -0.00000000000E+00 -0.00000000000E+00 -0.13808240523E+02  0.13808240523E+02  0.00000000000E+00 0.  1.
         23    2    1    2    0    0  0.67857438612E+01 -0.78903752457E+02  0.36568597670E+03  0.38204772311E+03  0.77216453586E+02 0.  0.
         23    2    1    2    0    0 -0.67857438612E+01  0.78903752457E+02  0.96721926974E+03  0.97847400438E+03  0.12500565194E+03 0.  0.
          5    1    4    4  502    0 -0.27607680385E+02 -0.23678525157E+02  0.14327474742E+03  0.14789388026E+03  0.47000000000E+01 0. -1.
         -5    1    4    4    0  502  0.20821936524E+02  0.10258227761E+03  0.82394452232E+03  0.83058012412E+03  0.47000000000E+01 0. -1.
        -11    1    3    3    0    0  0.29525362122E+02 -0.15252032094E+02  0.56402844277E+02  0.65464893905E+02  0.00000000000E+00 0.  1.
         11    1    3    3    0    0 -0.22739618261E+02 -0.63651720363E+02  0.30928313243E+03  0.31658282921E+03  0.00000000000E+00 0. -1.
<mgrwt>
<rscale>  0 0.13759438E+03</rscale>
<asrwt>0</asrwt>
<pdfrwt beam="1">  1        1 0.20718659E+00 0.14798061E+03</pdfrwt>
<pdfrwt beam="2">  1       -1 0.21243458E-02 0.14798061E+03</pdfrwt>
<totfact> 0.55925323E+03</totfact>
</mgrwt>
</event>
<event>
 8    1  0.7550631E-006  0.1263306E+03  0.7546771E-02  0.1248833E+00
         -2   -1    0    0    0  501 -0.00000000000E+00  0.00000000000E+00  0.21953785545E+03  0.21953785545E+03  0.00000000000E+00 0.  1.
          2   -1    0    0  501    0  0.00000000000E+00 -0.00000000000E+00 -0.59931453920E+02  0.59931453920E+02  0.00000000000E+00 0. -1.
         23    2    1    2    0    0 -0.97403544197E+01 -0.15458689818E+02  0.11140590131E+03  0.14425575341E+03  0.89803128834E+02 0.  0.
         23    2    1    2    0    0  0.97403544197E+01  0.15458689818E+02  0.48200500215E+02  0.13521355596E+03  0.12500228758E+03 0.  0.
          5    1    4    4  502    0  0.50051419092E+02  0.45660297937E+02  0.39910498804E+01  0.68029595324E+02  0.47000000000E+01 0. -1.
         -5    1    4    4    0  502 -0.40311064672E+02 -0.30201608118E+02  0.44209450334E+02  0.67183960637E+02  0.47000000000E+01 0. -1.
        -11    1    3    3    0    0 -0.33834777458E+02 -0.33181395571E+02  0.26633076867E+02  0.54360996690E+02  0.00000000000E+00 0. -1.
         11    1    3    3    0    0  0.24094423038E+02  0.17722705753E+02  0.84772824445E+02  0.89894756716E+02  0.00000000000E+00 0.  1.
<mgrwt>
<rscale>  0 0.11658865E+03</rscale>
<asrwt>0</asrwt>
<pdfrwt beam="2">  1        2 0.92202238E-02 0.12633059E+03</pdfrwt>
<pdfrwt beam="1">  1       -2 0.33775054E-01 0.12633059E+03</pdfrwt>
<totfact> 0.55011559E+03</totfact>
</mgrwt>
</event>
<event>
 8    1  0.7550631E-006  0.1322836E+03  0.7546771E-02  0.1237419E+00
         -2   -1    0    0    0  501 -0.00000000000E+00  0.00000000000E+00  0.39074292542E+02  0.39074292542E+02  0.00000000000E+00 0.  1.
          2   -1    0    0  501    0  0.00000000000E+00 -0.00000000000E+00 -0.58331381180E+03  0.58331381180E+03  0.00000000000E+00 0. -1.
         23    2    1    2    0    0 -0.22811121249E+02 -0.36793111715E+02 -0.52979197594E+02  0.11362917776E+03  0.90723284437E+02 0.  0.
         23    2    1    2    0    0  0.22811121249E+02  0.36793111715E+02 -0.49126032166E+03  0.50875892658E+03  0.12499944564E+03 0.  0.
          5    1    4    4  502    0 -0.39075296599E+02  0.39706382749E+02 -0.12061515115E+03  0.13294201865E+03  0.47000000000E+01 0.  1.
         -5    1    4    4    0  502  0.61886417848E+02 -0.29132710346E+01 -0.37064517051E+03  0.37581690793E+03  0.47000000000E+01 0.  1.
        -11    1    3    3    0    0 -0.12557505568E+02  0.10068358309E+02  0.20385414344E+02  0.25973600118E+02  0.00000000000E+00 0.  1.
         11    1    3    3    0    0 -0.10253615681E+02 -0.46861470023E+02 -0.73364611938E+02  0.87655577644E+02  0.00000000000E+00 0. -1.
<mgrwt>
<rscale>  0 0.12350808E+03</rscale>
<asrwt>0</asrwt>
<pdfrwt beam="2">  1        2 0.89740579E-01 0.13228357E+03</pdfrwt>
<pdfrwt beam="1">  1       -2 0.60114301E-02 0.13228357E+03</pdfrwt>
<totfact> 0.73745992E+03</totfact>
</mgrwt>
</event>
<event>
 8    1  0.7550631E-006  0.1912449E+03  0.7546771E-02  0.1162118E+00
         -2   -1    0    0    0  501 -0.00000000000E+00  0.00000000000E+00  0.10341758640E+03  0.10341758640E+03  0.00000000000E+00 0.  1.
          2   -1    0    0  501    0  0.00000000000E+00 -0.00000000000E+00 -0.32042216851E+03  0.32042216851E+03  0.00000000000E+00 0. -1.
         23    2    1    2    0    0  0.12142565507E+03  0.78775707166E+02 -0.82049396008E+02  0.18977243888E+03  0.91278000761E+02 0.  0.
         23    2    1    2    0    0 -0.12142565507E+03 -0.78775707166E+02 -0.13495518610E+03  0.23406731603E+03  0.12499921771E+03 0.  0.
          5    1    4    4  502    0  0.12447662288E+02 -0.38452187497E+02 -0.14841458370E+01  0.40716184848E+02  0.47000000000E+01 0.  1.
         -5    1    4    4    0  502 -0.13387331736E+03 -0.40323519669E+02 -0.13347104027E+03  0.19335113118E+03  0.47000000000E+01 0.  1.
        -11    1    3    3    0    0  0.13514560597E+02  0.24939371312E+02 -0.61110790293E+02  0.67373171811E+02  0.00000000000E+00 0. -1.
         11    1    3    3    0    0  0.10791109448E+03  0.53836335854E+02 -0.20938605715E+02  0.12239926707E+03  0.00000000000E+00 0.  1.
<mgrwt>
<rscale>  0 0.18600152E+03</rscale>
<asrwt>0</asrwt>
<pdfrwt beam="2">  1        2 0.49295717E-01 0.19124489E+03</pdfrwt>
<pdfrwt beam="1">  1       -2 0.15910398E-01 0.19124489E+03</pdfrwt>
<totfact> 0.31031126E+03</totfact>
</mgrwt>
</event>
<event>
 7    1  0.7550631E-006  0.1607473E+03  0.7546771E-02  0.1210293E+00
          2   -1    0    0  501    0  0.00000000000E+00  0.00000000000E+00  0.10539178912E+04  0.10539178912E+04  0.00000000000E+00 0. -1.
         -2   -1    0    0    0  501 -0.00000000000E+00 -0.00000000000E+00 -0.31015747513E+02  0.31015747513E+02  0.00000000000E+00 0.  1.
         23    2    1    2    0    0 -0.28871623314E+02 -0.19859238669E+02  0.76150187935E+02  0.12463213632E+03  0.92229920788E+02 0.  0.
          5    1    1    2  502    0  0.38516528787E+02  0.69732602134E+02  0.26783556483E+03  0.27947117665E+03  0.47000000000E+01 0. -1.
         -5    1    1    2    0  502 -0.96449054735E+01 -0.49873363465E+02  0.67891639091E+03  0.68083032573E+03  0.47000000000E+01 0.  1.
        -11    1    3    3    0    0  0.30091314001E+02 -0.22445179719E+02  0.17472644033E+02  0.41407324961E+02  0.00000000000E+00 0.  1.
         11    1    3    3    0    0 -0.58962937315E+02  0.25859410497E+01  0.58677543903E+02  0.83224811362E+02  0.00000000000E+00 0. -1.
<mgrwt>
<rscale>  0 0.14228072E+03</rscale>
<asrwt>0</asrwt>
<pdfrwt beam="1">  1        2 0.16214119E+00 0.16074735E+03</pdfrwt>
<pdfrwt beam="2">  1       -2 0.47716543E-02 0.16074735E+03</pdfrwt>
<totfact> 0.50319127E+03</totfact>
</mgrwt>
</event>
<event>
 8    1  0.7550631E-006  0.1283580E+03  0.7546771E-02  0.1240221E+00
          2   -1    0    0  501    0  0.00000000000E+00  0.00000000000E+00  0.85674910213E+03  0.85674910213E+03  0.00000000000E+00 0. -1.
         -2   -1    0    0    0  501 -0.00000000000E+00 -0.00000000000E+00 -0.21397154092E+02  0.21397154092E+02  0.00000000000E+00 0.  1.
         23    2    1    2    0    0  0.11536576218E+01 -0.29135815709E+02  0.16062010565E+03  0.19131379109E+03  0.99759318560E+02 0.  0.
         23    2    1    2    0    0 -0.11536576218E+01  0.29135815709E+02  0.67473184238E+03  0.68683246513E+03  0.12500219736E+03 0.  0.
          5    1    4    4  502    0  0.41678360225E+02  0.45241742562E+02  0.18651224627E+03  0.19645052555E+03  0.47000000000E+01 0. -1.
         -5    1    4    4    0  502 -0.42832017846E+02 -0.16105926853E+02  0.48821959611E+03  0.49038193958E+03  0.47000000000E+01 0. -1.
        -11    1    3    3    0    0 -0.22962212131E+02 -0.18904618080E+02  0.16235789776E+03  0.16505979139E+03  0.00000000000E+00 0. -1.
         11    1    3    3    0    0  0.24115869753E+02 -0.10231197630E+02 -0.17377921035E+01  0.26253999700E+02  0.00000000000E+00 0.  1.
<mgrwt>
<rscale>  0 0.12176037E+03</rscale>
<asrwt>0</asrwt>
<pdfrwt beam="1">  1        2 0.13180753E+00 0.12835800E+03</pdfrwt>
<pdfrwt beam="2">  1       -2 0.32918705E-02 0.12835800E+03</pdfrwt>
<totfact> 0.11427960E+04</totfact>
</mgrwt>
</event>
<event>
 8    1  0.7550631E-006  0.1525057E+03  0.7546771E-02  0.1204968E+00
         -2   -1    0    0    0  501 -0.00000000000E+00  0.00000000000E+00  0.78036428745E+02  0.78036428745E+02  0.00000000000E+00 0.  1.
          2   -1    0    0  501    0  0.00000000000E+00 -0.00000000000E+00 -0.29526683529E+03  0.29526683529E+03  0.00000000000E+00 0. -1.
         23    2    1    2    0    0 -0.28885999648E+02 -0.82490718871E+02 -0.32069439784E+02  0.13342295846E+03  0.95572575575E+02 0.  0.
         23    2    1    2    0    0  0.28885999648E+02  0.82490718871E+02 -0.18516096677E+03  0.23988030557E+03  0.12497542844E+03 0.  0.
          5    1    4    4  502    0 -0.11647469248E+02 -0.64812737396E+01 -0.12325781856E+03  0.12406550804E+03  0.47000000000E+01 0. -1.
         -5    1    4    4    0  502  0.40533468896E+02  0.88971992611E+02 -0.61903148204E+02  0.11581479753E+03  0.47000000000E+01 0. -1.
        -11    1    3    3    0    0  0.27678267486E+02 -0.47591083807E+02  0.82739857358E+01  0.55672763439E+02  0.00000000000E+00 0. -1.
         11    1    3    3    0    0 -0.56564267133E+02 -0.34899635064E+02 -0.40343425519E+02  0.77750195026E+02  0.00000000000E+00 0.  1.
<mgrwt>
<rscale>  0 0.14640017E+03</rscale>
<asrwt>0</asrwt>
<pdfrwt beam="2">  1        2 0.45425668E-01 0.15250566E+03</pdfrwt>
<pdfrwt beam="1">  1       -2 0.12005604E-01 0.15250566E+03</pdfrwt>
<totfact> 0.52988743E+03</totfact>
</mgrwt>
</event>
<event>
 8    1  0.7550631E-006  0.1311485E+03  0.7546771E-02  0.1239247E+00
         -2   -1    0    0    0  501 -0.00000000000E+00  0.00000000000E+00  0.24774381612E+02  0.24774381612E+02  0.00000000000E+00 0.  1.
          2   -1    0    0  501    0  0.00000000000E+00 -0.00000000000E+00 -0.57062154010E+03  0.57062154010E+03  0.00000000000E+00 0. -1.
         23    2    1    2    0    0 -0.23043021360E+01 -0.39608996632E+02 -0.16523460220E+03  0.19282190419E+03  0.91124258835E+02 0.  0.
         23    2    1    2    0    0  0.23043021360E+01  0.39608996632E+02 -0.38061255629E+03  0.40257401752E+03  0.12500295660E+03 0.  0.
          5    1    4    4  502    0  0.42996577006E+02  0.66576533515E+02 -0.27305829319E+03  0.28436607029E+03  0.47000000000E+01 0.  1.
         -5    1    4    4    0  502 -0.40692274870E+02 -0.26967536883E+02 -0.10755426310E+03  0.11820794724E+03  0.47000000000E+01 0.  1.
        -11    1    3    3    0    0 -0.40568027264E+02 -0.16488358097E+02 -0.38062708730E+02  0.58020691005E+02  0.00000000000E+00 0. -1.
         11    1    3    3    0    0  0.38263725128E+02 -0.23120638535E+02 -0.12717189347E+03  0.13480121318E+03  0.00000000000E+00 0.  1.
<mgrwt>
<rscale>  0 0.12236438E+03</rscale>
<asrwt>0</asrwt>
<pdfrwt beam="2">  1        2 0.87787921E-01 0.13114847E+03</pdfrwt>
<pdfrwt beam="1">  1       -2 0.38114437E-02 0.13114847E+03</pdfrwt>
<totfact> 0.14948113E+04</totfact>
</mgrwt>
</event>
<event>
 8    1  0.7550631E-006  0.1363000E+03  0.7546771E-02  0.1223184E+00
         -2   -1    0    0    0  501 -0.00000000000E+00  0.00000000000E+00  0.16901880065E+03  0.16901880065E+03  0.00000000000E+00 0.  1.
          2   -1    0    0  501    0  0.00000000000E+00 -0.00000000000E+00 -0.11971559992E+03  0.11971559992E+03  0.00000000000E+00 0. -1.
         23    2    1    2    0    0  0.43308246796E+02 -0.32413759438E+02  0.82641271834E+02  0.14841648715E+03  0.11077733435E+03 0.  0.
         23    2    1    2    0    0 -0.43308246796E+02  0.32413759438E+02 -0.33338071106E+02  0.14031791342E+03  0.12510569052E+03 0.  0.
          5    1    4    4  502    0 -0.66523809579E+02  0.59594471769E+02 -0.47874424891E+02  0.10144441268E+03  0.47000000000E+01 0. -1.
         -5    1    4    4    0  502  0.23215562783E+02 -0.27180712331E+02  0.14536353785E+02  0.38873500736E+02  0.47000000000E+01 0.  1.
        -11    1    3    3    0    0  0.22625205140E+02 -0.68888735649E+02  0.77566196335E+02  0.10617943596E+03  0.00000000000E+00 0.  1.
         11    1    3    3    0    0  0.20683041656E+02  0.36474976211E+02  0.50750754996E+01  0.42237051188E+02  0.00000000000E+00 0. -1.
<mgrwt>
<rscale>  0 0.13292135E+03</rscale>
<asrwt>0</asrwt>
<pdfrwt beam="2">  1        2 0.18417785E-01 0.13630000E+03</pdfrwt>
<pdfrwt beam="1">  1       -2 0.26002892E-01 0.13630000E+03</pdfrwt>
<totfact> 0.38821531E+03</totfact>
</mgrwt>
</event>
<event>
 8    1  0.7550631E-006  0.1257758E+03  0.7546771E-02  0.1239451E+00
         -1   -1    0    0    0  501 -0.00000000000E+00  0.00000000000E+00  0.45857689279E+02  0.45857689279E+02  0.00000000000E+00 0.  1.
          1   -1    0    0  501    0  0.00000000000E+00 -0.00000000000E+00 -0.31019504609E+03  0.31019504609E+03  0.00000000000E+00 0. -1.
         23    2    1    2    0    0 -0.13961592121E+02  0.45535900131E+00 -0.11259114161E+03  0.15895764157E+03  0.11133567819E+03 0.  0.
         23    2    1    2    0    0  0.13961592121E+02 -0.45535900131E+00 -0.15174621520E+03  0.19709509380E+03  0.12499771504E+03 0.  0.
          5    1    4    4  502    0  0.58627086833E+02  0.24586467864E+02 -0.43262442021E+02  0.77041278560E+02  0.47000000000E+01 0. -1.
         -5    1    4    4    0  502 -0.44665494712E+02 -0.25041826865E+02 -0.10848377317E+03  0.12005381524E+03  0.47000000000E+01 0. -1.
        -11    1    3    3    0    0 -0.22879621951E+02  0.77959303645E+01 -0.13317697822E+03  0.13535272867E+03  0.00000000000E+00 0. -1.
         11    1    3    3    0    0  0.89180298302E+01 -0.73405713632E+01  0.20585836609E+02  0.23604912897E+02  0.00000000000E+00 0.  1.
<mgrwt>
<rscale>  0 0.12223750E+03</rscale>
<asrwt>0</asrwt>
<pdfrwt beam="2">  1        1 0.47722314E-01 0.12577584E+03</pdfrwt>
<pdfrwt beam="1">  1       -1 0.70550292E-02 0.12577584E+03</pdfrwt>
<totfact> 0.82788921E+03</totfact>
</mgrwt>
</event>
<event>
 8    1  0.7550631E-006  0.1310228E+03  0.7546771E-02  0.1239851E+00
         -2   -1    0    0    0  501 -0.00000000000E+00  0.00000000000E+00  0.14203996598E+03  0.14203996598E+03  0.00000000000E+00 0.  1.
          2   -1    0    0  501    0  0.00000000000E+00 -0.00000000000E+00 -0.93868979850E+02  0.93868979850E+02  0.00000000000E+00 0. -1.
         23    2    1    2    0    0 -0.34961994470E+02 -0.17877688856E+02  0.33812778757E+02  0.10410179800E+03  0.90288025357E+02 0.  0.
         23    2    1    2    0    0  0.34961994470E+02  0.17877688856E+02  0.14358207368E+02  0.13180714783E+03  0.12500005313E+03 0.  0.
          5    1    4    4  502    0 -0.10132067292E+02  0.26007385691E+02  0.60385924545E+02  0.66690275012E+02  0.47000000000E+01 0. -1.
         -5    1    4    4    0  502  0.45094061763E+02 -0.81296968349E+01 -0.46027717176E+02  0.65116872816E+02  0.47000000000E+01 0. -1.
        -11    1    3    3    0    0 -0.17515776555E+02 -0.20145521483E+02  0.63897963040E+02  0.69250228482E+02  0.00000000000E+00 0.  1.
         11    1    3    3    0    0 -0.17446217915E+02  0.22678326274E+01 -0.30085184283E+02  0.34851569516E+02  0.00000000000E+00 0. -1.
<mgrwt>
<rscale>  0 0.12198945E+03</rscale>
<asrwt>0</asrwt>
<pdfrwt beam="2">  1        2 0.14441382E-01 0.13102277E+03</pdfrwt>
<pdfrwt beam="1">  1       -2 0.21852302E-01 0.13102277E+03</pdfrwt>
<totfact> 0.69379632E+03</totfact>
</mgrwt>
</event>
<event>
 8    1  0.7550631E-006  0.1291780E+03  0.7546771E-02  0.1239936E+00
         -2   -1    0    0    0  501 -0.00000000000E+00  0.00000000000E+00  0.89227804399E+02  0.89227804399E+02  0.00000000000E+00 0.  1.
          2   -1    0    0  501    0  0.00000000000E+00 -0.00000000000E+00 -0.54073809027E+03  0.54073809027E+03  0.00000000000E+00 0. -1.
         23    2    1    2    0    0 -0.39292934614E+02  0.23443747923E+02  0.48564540977E+02  0.11347602030E+03  0.91786428825E+02 0.  0.
         23    2    1    2    0    0  0.39292934614E+02 -0.23443747923E+02 -0.50007482685E+03  0.51648987437E+03  0.12080320297E+03 0.  0.
          5    1    4    4  502    0 -0.53241339901E+00  0.12475570906E+02 -0.41873500634E+03  0.41894751326E+03  0.47000000000E+01 0. -1.
         -5    1    4    4    0  502  0.39825348013E+02 -0.35919318829E+02 -0.81339820514E+02  0.97542361109E+02  0.47000000000E+01 0.  1.
        -11    1    3    3    0    0 -0.61843841041E+02  0.25038141451E+02  0.58544584971E+02  0.88763943307E+02  0.00000000000E+00 0.  1.
         11    1    3    3    0    0  0.22550906427E+02 -0.15943935274E+01 -0.99800439941E+01  0.24712076997E+02  0.00000000000E+00 0. -1.
<mgrwt>
<rscale>  0 0.12193674E+03</rscale>
<asrwt>0</asrwt>
<pdfrwt beam="2">  1        2 0.83190475E-01 0.12917801E+03</pdfrwt>
<pdfrwt beam="1">  1       -2 0.13727355E-01 0.12917801E+03</pdfrwt>
<totfact> 0.22108180E+03</totfact>
</mgrwt>
</event>
<event>
 8    1  0.7550631E-006  0.1910549E+03  0.7546771E-02  0.1160837E+00
          1   -1    0    0  501    0  0.00000000000E+00  0.00000000000E+00  0.39304066201E+02  0.39304066201E+02  0.00000000000E+00 0. -1.
         -1   -1    0    0    0  501 -0.00000000000E+00 -0.00000000000E+00 -0.95424325226E+03  0.95424325226E+03  0.00000000000E+00 0.  1.
         23    2    1    2    0    0 -0.10726572254E+03 -0.96796679218E+02 -0.59688032394E+03  0.62251712209E+03  0.10191130383E+03 0.  0.
         23    2    1    2    0    0  0.10726572254E+03  0.96796679218E+02 -0.31805886212E+03  0.37103019637E+03  0.12500573790E+03 0.  0.
          5    1    4    4  502    0  0.66677610060E+02  0.12474961104E+03 -0.23327849692E+03  0.27285402006E+03  0.47000000000E+01 0. -1.
         -5    1    4    4    0  502  0.40588112483E+02 -0.27952931819E+02 -0.84780365200E+02  0.98176176314E+02  0.47000000000E+01 0. -1.
        -11    1    3    3    0    0 -0.68826746359E+02 -0.72508865882E+02 -0.54248816182E+03  0.55162311623E+03  0.00000000000E+00 0.  1.
         11    1    3    3    0    0 -0.38438976184E+02 -0.24287813336E+02 -0.54392162124E+02  0.70894005862E+02  0.00000000000E+00 0. -1.
<mgrwt>
<rscale>  0 0.18738928E+03</rscale>
<asrwt>0</asrwt>
<pdfrwt beam="1">  1        1 0.60467793E-02 0.19105488E+03</pdfrwt>
<pdfrwt beam="2">  1       -1 0.14680666E+00 0.19105488E+03</pdfrwt>
<totfact> 0.51044591E+02</totfact>
</mgrwt>
</event>
<event>
 7    1  0.7550631E-006  0.1547395E+03  0.7546771E-02  0.1207598E+00
          2   -1    0    0  501    0  0.00000000000E+00  0.00000000000E+00  0.61064090327E+03  0.61064090327E+03  0.00000000000E+00 0. -1.
         -2   -1    0    0    0  501 -0.00000000000E+00 -0.00000000000E+00 -0.56700250119E+02  0.56700250119E+02  0.00000000000E+00 0.  1.
         23    2    1    2    0    0  0.31324098951E+02  0.16864383497E+02  0.29890492268E+02  0.12092291025E+03  0.11163916019E+03 0.  0.
          5    1    1    2  502    0 -0.21222735451E+02 -0.67201963694E+02  0.45388980446E+03  0.45935231905E+03  0.47000000000E+01 0. -1.
         -5    1    1    2    0  502 -0.10101363500E+02  0.50337580197E+02  0.70160356425E+02  0.87065924094E+02  0.47000000000E+01 0.  1.
        -11    1    3    3    0    0  0.65796312602E+02  0.37667870427E+02  0.27283401771E+02  0.80575475342E+02  0.00000000000E+00 0.  1.
         11    1    3    3    0    0 -0.34472213650E+02 -0.20803486931E+02  0.26070904971E+01  0.40347434903E+02  0.00000000000E+00 0. -1.
<mgrwt>
<rscale>  0 0.14434624E+03</rscale>
<asrwt>0</asrwt>
<pdfrwt beam="1">  1        2 0.93944750E-01 0.15473954E+03</pdfrwt>
<pdfrwt beam="2">  1       -2 0.87231158E-02 0.15473954E+03</pdfrwt>
<totfact> 0.39814349E+03</totfact>
</mgrwt>
</event>
<event>
 7    1  0.7550631E-006  0.5660612E+03  0.7546771E-02  0.1035002E+00
         -1   -1    0    0    0  501 -0.00000000000E+00  0.00000000000E+00  0.21662101370E+03  0.21662101370E+03  0.00000000000E+00 0.  1.
          1   -1    0    0  501    0  0.00000000000E+00 -0.00000000000E+00 -0.10135118775E+04  0.10135118775E+04  0.00000000000E+00 0. -1.
         23    2    1    2    0    0 -0.15705151537E+03  0.80381948981E+01  0.69626377875E+02  0.19510757115E+03  0.92137618624E+02 0.  0.
          5    1    1    2  502    0  0.29564223404E+03  0.15559940348E+03 -0.64661636253E+03  0.72783948451E+03  0.47000000000E+01 0. -1.
         -5    1    1    2    0  502 -0.13859071867E+03 -0.16363759838E+03 -0.21990087913E+03  0.30718583552E+03  0.47000000000E+01 0.  1.
        -11    1    3    3    0    0 -0.13737525285E+03 -0.26404881238E+01  0.17668640800E+02  0.13853199320E+03  0.00000000000E+00 0.  1.
         11    1    3    3    0    0 -0.19676262521E+02  0.10678683022E+02  0.51957737074E+02  0.56575577945E+02  0.00000000000E+00 0. -1.
<mgrwt>
<rscale>  0 0.42640381E+03</rscale>
<asrwt>0</asrwt>
<pdfrwt beam="2">  1        1 0.15592490E+00 0.56606120E+03</pdfrwt>
<pdfrwt beam="1">  1       -1 0.33326310E-01 0.56606120E+03</pdfrwt>
<totfact> 0.12927454E+02</totfact>
</mgrwt>
</event>
<event>
 8    1  0.7550631E-006  0.1379752E+03  0.7546771E-02  0.1227491E+00
          3   -1    0    0  501    0  0.00000000000E+00  0.00000000000E+00  0.29263753269E+03  0.29263753269E+03  0.00000000000E+00 0. -1.
         -3   -1    0    0    0  501 -0.00000000000E+00 -0.00000000000E+00 -0.53090146238E+02  0.53090146238E+02  0.00000000000E+00 0.  1.
         23    2    1    2    0    0  0.11648277950E+02  0.57251770130E+02  0.80833837469E+02  0.13542519827E+03  0.91610193123E+02 0.  0.
         23    2    1    2    0    0 -0.11648277950E+02 -0.57251770130E+02  0.15871354898E+03  0.21030248066E+03  0.12499478060E+03 0.  0.
          5    1    4    4  502    0  0.71633260389E+01  0.26632069637E+02  0.10537005840E+03  0.10902073005E+03  0.47000000000E+01 0. -1.
         -5    1    4    4    0  502 -0.18811603989E+02 -0.83883839767E+02  0.53343490576E+02  0.10128175060E+03  0.47000000000E+01 0. -1.
        -11    1    3    3    0    0 -0.24692041110E+02  0.66602984979E+02  0.50136433765E+02  0.86944329849E+02  0.00000000000E+00 0.  1.
         11    1    3    3    0    0  0.36340319060E+02 -0.93512148492E+01  0.30697403705E+02  0.48480868420E+02  0.00000000000E+00 0. -1.
<mgrwt>
<rscale>  0 0.12997593E+03</rscale>
<asrwt>0</asrwt>
<pdfrwt beam="1">  1        3 0.45021158E-01 0.13797515E+03</pdfrwt>
<pdfrwt beam="2">  1       -3 0.81677150E-02 0.13797515E+03</pdfrwt>
<totfact> 0.11732508E+03</totfact>
</mgrwt>
</event>
<event>
 8    1  0.7550631E-006  0.1304838E+03  0.7546771E-02  0.1240562E+00
          2   -1    0    0  501    0  0.00000000000E+00  0.00000000000E+00  0.33584263621E+03  0.33584263621E+03  0.00000000000E+00 0. -1.
         -2   -1    0    0    0  501 -0.00000000000E+00 -0.00000000000E+00 -0.40297101664E+02  0.40297101664E+02  0.00000000000E+00 0.  1.
         23    2    1    2    0    0 -0.36193401802E+02  0.94913417475E+01  0.93555344768E+02  0.13566923398E+03  0.90848723772E+02 0.  0.
         23    2    1    2    0    0  0.36193401802E+02 -0.94913417475E+01  0.20199018977E+03  0.24047050389E+03  0.12500391424E+03 0.  0.
          5    1    4    4  502    0  0.44313259281E+02  0.28857144526E+02  0.24191453012E+02  0.58341375859E+02  0.47000000000E+01 0.  1.
         -5    1    4    4    0  502 -0.81198574788E+01 -0.38348486273E+02  0.17779873676E+03  0.18212912804E+03  0.47000000000E+01 0.  1.
        -11    1    3    3    0    0 -0.66088822890E+02  0.98962797708E+01  0.75130502888E+02  0.10054979527E+03  0.00000000000E+00 0.  1.
         11    1    3    3    0    0  0.29895421088E+02 -0.40493802324E+00  0.18424841880E+02  0.35119438708E+02  0.00000000000E+00 0. -1.
<mgrwt>
<rscale>  0 0.12154954E+03</rscale>
<asrwt>0</asrwt>
<pdfrwt beam="1">  1        2 0.51668096E-01 0.13048382E+03</pdfrwt>
<pdfrwt beam="2">  1       -2 0.61995543E-02 0.13048382E+03</pdfrwt>
<totfact> 0.12789357E+04</totfact>
</mgrwt>
</event>
<event>
 8    1  0.7550631E-006  0.1551321E+03  0.7546771E-02  0.1201820E+00
         -1   -1    0    0    0  501 -0.00000000000E+00  0.00000000000E+00  0.46724193598E+03  0.46724193598E+03  0.00000000000E+00 0.  1.
          1   -1    0    0  501    0  0.00000000000E+00 -0.00000000000E+00 -0.45750010652E+02  0.45750010652E+02  0.00000000000E+00 0. -1.
         23    2    1    2    0    0  0.69221589024E+02 -0.60409808392E+02  0.24389912291E+03  0.27718447927E+03  0.94358253772E+02 0.  0.
         23    2    1    2    0    0 -0.69221589024E+02  0.60409808392E+02  0.17759280242E+03  0.23580746737E+03  0.12499993943E+03 0.  0.
          5    1    4    4  502    0 -0.28049089723E+02  0.78885823698E+02  0.17033656745E+03  0.18985879180E+03  0.47000000000E+01 0.  1.
         -5    1    4    4    0  502 -0.41172499301E+02 -0.18476015306E+02  0.72562349769E+01  0.45948675566E+02  0.47000000000E+01 0.  1.
        -11    1    3    3    0    0  0.87184364460E+02 -0.48437744231E+02  0.23201254025E+03  0.25254137742E+03  0.00000000000E+00 0.  1.
         11    1    3    3    0    0 -0.17962775436E+02 -0.11972064161E+02  0.11886582653E+02  0.24643101851E+02  0.00000000000E+00 0. -1.
<mgrwt>
<rscale>  0 0.14890911E+03</rscale>
<asrwt>0</asrwt>
<pdfrwt beam="2">  1        1 0.70384635E-02 0.15513207E+03</pdfrwt>
<pdfrwt beam="1">  1       -1 0.71883371E-01 0.15513207E+03</pdfrwt>
<totfact> 0.20578697E+03</totfact>
</mgrwt>
</event>
<event>
 8    1  0.7550631E-006  0.1618913E+03  0.7546771E-02  0.1193788E+00
         -2   -1    0    0    0  501 -0.00000000000E+00  0.00000000000E+00  0.18176751069E+02  0.18176751069E+02  0.00000000000E+00 0.  1.
          2   -1    0    0  501    0  0.00000000000E+00 -0.00000000000E+00 -0.12453378421E+04  0.12453378421E+04  0.00000000000E+00 0. -1.
         23    2    1    2    0    0  0.32619097077E+02  0.97584257264E+02 -0.51492540362E+03  0.53311165198E+03  0.92049820328E+02 0.  0.
         23    2    1    2    0    0 -0.32619097077E+02 -0.97584257264E+02 -0.71223568741E+03  0.73040294119E+03  0.12498835673E+03 0.  0.
          5    1    4    4  502    0 -0.26981902687E+02 -0.11475786945E+03 -0.38587618409E+03  0.40350949322E+03  0.47000000000E+01 0.  1.
         -5    1    4    4    0  502 -0.56371943902E+01  0.17173612184E+02 -0.32635950332E+03  0.32689344797E+03  0.47000000000E+01 0.  1.
        -11    1    3    3    0    0  0.12680656061E+02  0.83208299959E+02 -0.49312433642E+03  0.50025596587E+03  0.00000000000E+00 0. -1.
         11    1    3    3    0    0  0.19938441016E+02  0.14375957305E+02 -0.21801067202E+02  0.32855686110E+02  0.00000000000E+00 0.  1.
<mgrwt>
<rscale>  0 0.15557239E+03</rscale>
<asrwt>0</asrwt>
<pdfrwt beam="2">  1        2 0.19159049E+00 0.16189127E+03</pdfrwt>
<pdfrwt beam="1">  1       -2 0.27964224E-02 0.16189127E+03</pdfrwt>
<totfact> 0.86778267E+03</totfact>
</mgrwt>
</event>
<event>
 8    1  0.7550631E-006  0.1629426E+03  0.7546771E-02  0.1191958E+00
          1   -1    0    0  501    0  0.00000000000E+00  0.00000000000E+00  0.11961954738E+03  0.11961954738E+03  0.00000000000E+00 0. -1.
         -1   -1    0    0    0  501 -0.00000000000E+00 -0.00000000000E+00 -0.19302989460E+03  0.19302989460E+03  0.00000000000E+00 0.  1.
         23    2    1    2    0    0  0.97813797291E+02  0.36847821307E+02 -0.33126387935E+02  0.14480105763E+03  0.94576359826E+02 0.  0.
         23    2    1    2    0    0 -0.97813797291E+02 -0.36847821307E+02 -0.40283959287E+02  0.16784838434E+03  0.12499992750E+03 0.  0.
          5    1    4    4  502    0  0.10941576211E+02 -0.50563799047E+02 -0.32483092465E+01  0.52048605909E+02  0.47000000000E+01 0.  1.
         -5    1    4    4    0  502 -0.10875537350E+03  0.13715977740E+02 -0.37035650041E+02  0.11579977843E+03  0.47000000000E+01 0.  1.
        -11    1    3    3    0    0  0.46153057517E+02  0.33922623827E+02 -0.62924976237E+02  0.85090550356E+02  0.00000000000E+00 0.  1.
         11    1    3    3    0    0  0.51660739774E+02  0.29251974804E+01  0.29798588302E+02  0.59710507275E+02  0.00000000000E+00 0. -1.
<mgrwt>
<rscale>  0 0.15714502E+03</rscale>
<asrwt>0</asrwt>
<pdfrwt beam="1">  1        1 0.18403008E-01 0.16294258E+03</pdfrwt>
<pdfrwt beam="2">  1       -1 0.29696906E-01 0.16294258E+03</pdfrwt>
<totfact> 0.28854727E+03</totfact>
</mgrwt>
</event>
<event>
 8    1  0.7550631E-006  0.2009776E+03  0.7546771E-02  0.1152773E+00
         -1   -1    0    0    0  501 -0.00000000000E+00  0.00000000000E+00  0.33978574462E+03  0.33978574462E+03  0.00000000000E+00 0.  1.
          1   -1    0    0  501    0  0.00000000000E+00 -0.00000000000E+00 -0.11673165922E+03  0.11673165922E+03  0.00000000000E+00 0. -1.
         23    2    1    2    0    0 -0.25567948375E+01  0.15735411366E+03  0.16647203603E+03  0.24772676815E+03  0.94280213159E+02 0.  0.
         23    2    1    2    0    0  0.25567948375E+01 -0.15735411366E+03  0.56582049371E+02  0.20879063569E+03  0.12500058782E+03 0.  0.
          5    1    4    4  502    0 -0.82242385155E+01 -0.11934517243E+03 -0.21049861446E+02  0.12155696174E+03  0.47000000000E+01 0.  1.
         -5    1    4    4    0  502  0.10781033353E+02 -0.38008941232E+02  0.77631910816E+02  0.87233673950E+02  0.47000000000E+01 0.  1.
        -11    1    3    3    0    0  0.27900243560E+02  0.53265362796E+01  0.26203585622E+02  0.38644837674E+02  0.00000000000E+00 0.  1.
         11    1    3    3    0    0 -0.30457038397E+02  0.15202757738E+03  0.14026845041E+03  0.20908193048E+03  0.00000000000E+00 0. -1.
<mgrwt>
<rscale>  0 0.19644589E+03</rscale>
<asrwt>0</asrwt>
<pdfrwt beam="2">  1        1 0.17958717E-01 0.20097761E+03</pdfrwt>
<pdfrwt beam="1">  1       -1 0.52274730E-01 0.20097761E+03</pdfrwt>
<totfact> 0.11052303E+03</totfact>
</mgrwt>
</event>
<event>
 7    1  0.7550631E-006  0.1890769E+03  0.7546771E-02  0.1177032E+00
          1   -1    0    0  501    0  0.00000000000E+00  0.00000000000E+00  0.89831759681E+03  0.89831759681E+03  0.00000000000E+00 0. -1.
         -1   -1    0    0    0  501 -0.00000000000E+00 -0.00000000000E+00 -0.27904206230E+02  0.27904206230E+02  0.00000000000E+00 0.  1.
         23    2    1    2    0    0 -0.35832276553E+02 -0.80146273644E+02  0.30159823683E+03  0.32680480116E+03  0.90180399091E+02 0.  0.
          5    1    1    2  502    0  0.65939623369E+02  0.10953689931E+03  0.28419357443E+03  0.31166399213E+03  0.47000000000E+01 0. -1.
         -5    1    1    2    0  502 -0.30107346816E+02 -0.29390625663E+02  0.28462157932E+03  0.28775300975E+03  0.47000000000E+01 0.  1.
        -11    1    3    3    0    0 -0.26745855027E+01  0.19602662190E+02  0.64115737966E+02  0.67098775157E+02  0.00000000000E+00 0. -1.
         11    1    3    3    0    0 -0.33157691050E+02 -0.99748935835E+02  0.23748249887E+03  0.25970602601E+03  0.00000000000E+00 0.  1.
<mgrwt>
<rscale>  0 0.17078424E+03</rscale>
<asrwt>0</asrwt>
<pdfrwt beam="1">  1        1 0.13820268E+00 0.18907687E+03</pdfrwt>
<pdfrwt beam="2">  1       -1 0.42929555E-02 0.18907687E+03</pdfrwt>
<totfact> 0.41888950E+03</totfact>
</mgrwt>
</event>
<event>
 8    1  0.7550631E-006  0.1223576E+03  0.7546771E-02  0.1255160E+00
         -1   -1    0    0    0  501 -0.00000000000E+00  0.00000000000E+00  0.18873812404E+02  0.18873812404E+02  0.00000000000E+00 0.  1.
          1   -1    0    0  501    0  0.00000000000E+00 -0.00000000000E+00 -0.72817823272E+03  0.72817823272E+03  0.00000000000E+00 0. -1.
         23    2    1    2    0    0 -0.16311514324E+02  0.11713340612E+02 -0.14878249361E+03  0.17333068288E+03  0.86625789326E+02 0.  0.
         23    2    1    2    0    0  0.16311514324E+02 -0.11713340612E+02 -0.56052192670E+03  0.57372136224E+03  0.12069839819E+03 0.  0.
          5    1    4    4  502    0  0.17563594189E+02 -0.58338912145E+02 -0.44300127962E+03  0.44719585447E+03  0.47000000000E+01 0. -1.
         -5    1    4    4    0  502 -0.12520798654E+01  0.46625571533E+02 -0.11752064708E+03  0.12652550777E+03  0.47000000000E+01 0.  1.
        -11    1    3    3    0    0  0.30984289729E+02 -0.45286943379E+01 -0.94368842883E+02  0.99428435518E+02  0.00000000000E+00 0. -1.
         11    1    3    3    0    0 -0.47295804053E+02  0.16242034950E+02 -0.54413650726E+02  0.73902247365E+02  0.00000000000E+00 0.  1.
<mgrwt>
<rscale>  0 0.11297350E+03</rscale>
<asrwt>0</asrwt>
<pdfrwt beam="2">  1        1 0.11202742E+00 0.12235755E+03</pdfrwt>
<pdfrwt beam="1">  1       -1 0.29036635E-02 0.12235755E+03</pdfrwt>
<totfact> 0.10020400E+04</totfact>
</mgrwt>
</event>
<event>
 8    1  0.7550631E-006  0.1586826E+03  0.7546771E-02  0.1197999E+00
          2   -1    0    0  501    0  0.00000000000E+00  0.00000000000E+00  0.21671813698E+04  0.21671813698E+04  0.00000000000E+00 0. -1.
         -2   -1    0    0    0  501 -0.00000000000E+00 -0.00000000000E+00 -0.10684439503E+02  0.10684439503E+02  0.00000000000E+00 0.  1.
         23    2    1    2    0    0 -0.18933764265E+01  0.97727279452E+02  0.69211642410E+03  0.70491284452E+03  0.91229204989E+02 0.  0.
         23    2    1    2    0    0  0.18933764265E+01 -0.97727279452E+02  0.14643805062E+04  0.14729529648E+04  0.12500385394E+03 0.  0.
          5    1    4    4  502    0 -0.19785854769E+02 -0.84292313514E+02  0.14104293659E+04  0.14130922689E+04  0.47000000000E+01 0. -1.
         -5    1    4    4    0  502  0.21679231196E+02 -0.13434965938E+02  0.53951140333E+02  0.59860695939E+02  0.47000000000E+01 0. -1.
        -11    1    3    3    0    0 -0.32126501941E+02  0.13775174546E+01  0.14087795524E+03  0.14450123859E+03  0.00000000000E+00 0.  1.
         11    1    3    3    0    0  0.30233125514E+02  0.96349761998E+02  0.55123846886E+03  0.56041160594E+03  0.00000000000E+00 0. -1.
<mgrwt>
<rscale>  0 0.15203156E+03</rscale>
<asrwt>0</asrwt>
<pdfrwt beam="1">  1        2 0.33341217E+00 0.15868261E+03</pdfrwt>
<pdfrwt beam="2">  1       -2 0.16437616E-02 0.15868261E+03</pdfrwt>
<totfact> 0.62219015E+03</totfact>
</mgrwt>
</event>
<event>
 8    1  0.7550631E-006  0.1297347E+03  0.7546771E-02  0.1241515E+00
          2   -1    0    0  501    0  0.00000000000E+00  0.00000000000E+00  0.15858192012E+04  0.15858192012E+04  0.00000000000E+00 0. -1.
         -2   -1    0    0    0  501 -0.00000000000E+00 -0.00000000000E+00 -0.95379853229E+01  0.95379853229E+01  0.00000000000E+00 0.  1.
         23    2    1    2    0    0  0.30097618317E+02  0.17343621094E+02  0.39562928706E+03  0.40759876750E+03  0.91692718738E+02 0.  0.
         23    2    1    2    0    0 -0.30097618317E+02 -0.17343621094E+02  0.11806519288E+04  0.11877584190E+04  0.12499766842E+03 0.  0.
          5    1    4    4  502    0  0.45287129982E+02  0.49146775266E+01  0.60736636142E+03  0.60909035880E+03  0.47000000000E+01 0. -1.
         -5    1    4    4    0  502 -0.75384748299E+02 -0.22258298620E+02  0.57328556736E+03  0.57866806019E+03  0.47000000000E+01 0. -1.
        -11    1    3    3    0    0 -0.19813568941E+02 -0.19740816674E+02  0.59238245082E+02  0.65509137054E+02  0.00000000000E+00 0.  1.
         11    1    3    3    0    0  0.49911187258E+02  0.37084437767E+02  0.33639104198E+03  0.34208963045E+03  0.00000000000E+00 0. -1.
<mgrwt>
<rscale>  0 0.12096405E+03</rscale>
<asrwt>0</asrwt>
<pdfrwt beam="1">  1        2 0.24397198E+00 0.12973467E+03</pdfrwt>
<pdfrwt beam="2">  1       -2 0.14673836E-02 0.12973467E+03</pdfrwt>
<totfact> 0.14488665E+04</totfact>
</mgrwt>
</event>
<event>
 8    1  0.7550631E-006  0.1730362E+03  0.7546771E-02  0.1180833E+00
         -1   -1    0    0    0  501 -0.00000000000E+00  0.00000000000E+00  0.39849656800E+02  0.39849656800E+02  0.00000000000E+00 0.  1.
          1   -1    0    0  501    0  0.00000000000E+00 -0.00000000000E+00 -0.72663514682E+03  0.72663514682E+03  0.00000000000E+00 0. -1.
         23    2    1    2    0    0 -0.92487668062E+02 -0.75791005991E+02 -0.20414529434E+03  0.25376353451E+03  0.91773552366E+02 0.  0.
         23    2    1    2    0    0  0.92487668062E+02  0.75791005991E+02 -0.48264019568E+03  0.51272126911E+03  0.12507316250E+03 0.  0.
          5    1    4    4  502    0  0.55555747100E+02  0.10817768584E+03 -0.37628968362E+03  0.39548055419E+03  0.47000000000E+01 0.  1.
         -5    1    4    4    0  502  0.36931920962E+02 -0.32386679847E+02 -0.10635051206E+03  0.11724071491E+03  0.47000000000E+01 0.  1.
        -11    1    3    3    0    0 -0.51402802114E+02  0.12548396067E+02 -0.80782898652E+02  0.96569079025E+02  0.00000000000E+00 0. -1.
         11    1    3    3    0    0 -0.41084865948E+02 -0.88339402058E+02 -0.12336239569E+03  0.15719445549E+03  0.00000000000E+00 0.  1.
<mgrwt>
<rscale>  0 0.16716885E+03</rscale>
<asrwt>0</asrwt>
<pdfrwt beam="2">  1        1 0.11179002E+00 0.17303624E+03</pdfrwt>
<pdfrwt beam="1">  1       -1 0.61307166E-02 0.17303624E+03</pdfrwt>
<totfact> 0.33974142E+03</totfact>
</mgrwt>
</event>
<event>
 8    1  0.7550631E-006  0.1357046E+03  0.7546771E-02  0.1231642E+00
          1   -1    0    0  501    0  0.00000000000E+00  0.00000000000E+00  0.11554059307E+04  0.11554059307E+04  0.00000000000E+00 0. -1.
         -1   -1    0    0    0  501 -0.00000000000E+00 -0.00000000000E+00 -0.20480269224E+02  0.20480269224E+02  0.00000000000E+00 0.  1.
         23    2    1    2    0    0 -0.45203504214E+02  0.27326231495E+02  0.15815411648E+03  0.18973286714E+03  0.90530418054E+02 0.  0.
         23    2    1    2    0    0  0.45203504214E+02 -0.27326231495E+02  0.97677154497E+03  0.98615333275E+03  0.12500265966E+03 0.  0.
          5    1    4    4  502    0 -0.24041255025E+02 -0.50701837265E+02  0.57596678710E+03  0.57871278549E+03  0.47000000000E+01 0.  1.
         -5    1    4    4    0  502  0.69244759239E+02  0.23375605771E+02  0.40080475787E+03  0.40744054727E+03  0.47000000000E+01 0.  1.
        -11    1    3    3    0    0 -0.18933679175E+02  0.37028290940E+02  0.15542336917E+02  0.44397553693E+02  0.00000000000E+00 0.  1.
         11    1    3    3    0    0 -0.26269825038E+02 -0.97020594455E+01  0.14261177956E+03  0.14533531344E+03  0.00000000000E+00 0. -1.
<mgrwt>
<rscale>  0 0.12721846E+03</rscale>
<asrwt>0</asrwt>
<pdfrwt beam="1">  1        1 0.17775471E+00 0.13570462E+03</pdfrwt>
<pdfrwt beam="2">  1       -1 0.31508115E-02 0.13570462E+03</pdfrwt>
<totfact> 0.42389803E+03</totfact>
</mgrwt>
</event>
<event>
 8    1  0.7550631E-006  0.1406674E+03  0.7546771E-02  0.1222611E+00
          1   -1    0    0  501    0  0.00000000000E+00  0.00000000000E+00  0.21865985853E+03  0.21865985853E+03  0.00000000000E+00 0. -1.
         -1   -1    0    0    0  501 -0.00000000000E+00 -0.00000000000E+00 -0.79110328347E+02  0.79110328347E+02  0.00000000000E+00 0.  1.
         23    2    1    2    0    0  0.20230297692E+02  0.61286262461E+02  0.24667052067E+02  0.11615165504E+03  0.93367406516E+02 0.  0.
         23    2    1    2    0    0 -0.20230297692E+02 -0.61286262461E+02  0.11488247812E+03  0.18161853184E+03  0.12498814511E+03 0.  0.
          5    1    4    4  502    0 -0.65337749550E+01  0.22850705959E+02  0.89249923372E+02  0.92479639921E+02  0.47000000000E+01 0.  1.
         -5    1    4    4    0  502 -0.13696522737E+02 -0.84136968419E+02  0.25632554747E+02  0.89138891920E+02  0.47000000000E+01 0.  1.
        -11    1    3    3    0    0  0.37551599060E+02 -0.10926356388E+02  0.11183598018E+02  0.40676537715E+02  0.00000000000E+00 0. -1.
         11    1    3    3    0    0 -0.17321301368E+02  0.72212618848E+02  0.13483454049E+02  0.75475117324E+02  0.00000000000E+00 0.  1.
<mgrwt>
<rscale>  0 0.13332023E+03</rscale>
<asrwt>0</asrwt>
<pdfrwt beam="1">  1        1 0.33639978E-01 0.14066736E+03</pdfrwt>
<pdfrwt beam="2">  1       -1 0.12170820E-01 0.14066736E+03</pdfrwt>
<totfact> 0.56111201E+03</totfact>
</mgrwt>
</event>
<event>
 8    1  0.7550631E-006  0.1262765E+03  0.7546771E-02  0.1249715E+00
         -3   -1    0    0    0  501 -0.00000000000E+00  0.00000000000E+00  0.28317738783E+02  0.28317738783E+02  0.00000000000E+00 0.  1.
          3   -1    0    0  501    0  0.00000000000E+00 -0.00000000000E+00 -0.41649271463E+03  0.41649271463E+03  0.00000000000E+00 0. -1.
         23    2    1    2    0    0 -0.17874172454E+02  0.15151954211E+01 -0.18034747180E+03  0.20162735652E+03  0.88354957166E+02 0.  0.
         23    2    1    2    0    0  0.17874172454E+02 -0.15151954211E+01 -0.20782750405E+03  0.24318309689E+03  0.12499586120E+03 0.  0.
          5    1    4    4  502    0  0.42217799297E+02 -0.50113745638E+02 -0.14960428818E+03  0.16339297145E+03  0.47000000000E+01 0. -1.
         -5    1    4    4    0  502 -0.24343626842E+02  0.48598550217E+02 -0.58223215870E+02  0.79790125437E+02  0.47000000000E+01 0. -1.
        -11    1    3    3    0    0 -0.32330556800E+02  0.38562937517E+02 -0.96875510609E+02  0.10916606436E+03  0.00000000000E+00 0.  1.
         11    1    3    3    0    0  0.14456384345E+02 -0.37047742096E+02 -0.83471961188E+02  0.92461292157E+02  0.00000000000E+00 0. -1.
<mgrwt>
<rscale>  0 0.11607597E+03</rscale>
<asrwt>0</asrwt>
<pdfrwt beam="2">  1        3 0.64075806E-01 0.12627647E+03</pdfrwt>
<pdfrwt beam="1">  1       -3 0.43565749E-02 0.12627647E+03</pdfrwt>
<totfact> 0.15472026E+03</totfact>
</mgrwt>
</event>
<event>
 8    1  0.7550631E-006  0.1580419E+03  0.7546771E-02  0.1199437E+00
          1   -1    0    0  501    0  0.00000000000E+00  0.00000000000E+00  0.66937408058E+03  0.66937408058E+03  0.00000000000E+00 0. -1.
         -1   -1    0    0    0  501 -0.00000000000E+00 -0.00000000000E+00 -0.36455299244E+02  0.36455299244E+02  0.00000000000E+00 0.  1.
         23    2    1    2    0    0 -0.96299508901E+02 -0.88164935477E+01  0.15825258462E+03  0.20554422226E+03  0.88618399865E+02 0.  0.
         23    2    1    2    0    0  0.96299508901E+02  0.88164935477E+01  0.47466619672E+03  0.50028515756E+03  0.12500365832E+03 0.  0.
          5    1    4    4  502    0  0.38878186535E+02 -0.32003379945E+02  0.54991074718E+02  0.74711699317E+02  0.47000000000E+01 0. -1.
         -5    1    4    4    0  502  0.57421322366E+02  0.40819873493E+02  0.41967512200E+03  0.42557345824E+03  0.47000000000E+01 0. -1.
        -11    1    3    3    0    0 -0.37596312580E+02 -0.10137318631E+02  0.13806776240E+03  0.14345366835E+03  0.00000000000E+00 0. -1.
         11    1    3    3    0    0 -0.58703196321E+02  0.13208250830E+01  0.20184822214E+02  0.62090553911E+02  0.00000000000E+00 0.  1.
<mgrwt>
<rscale>  0 0.15084627E+03</rscale>
<asrwt>0</asrwt>
<pdfrwt beam="1">  1        1 0.10298062E+00 0.15804189E+03</pdfrwt>
<pdfrwt beam="2">  1       -1 0.56085081E-02 0.15804189E+03</pdfrwt>
<totfact> 0.43534338E+03</totfact>
</mgrwt>
</event>
<event>
 8    1  0.7550631E-006  0.3120257E+03  0.7546771E-02  0.1080864E+00
         -1   -1    0    0    0  501 -0.00000000000E+00  0.00000000000E+00  0.91424509121E+02  0.91424509121E+02  0.00000000000E+00 0.  1.
          1   -1    0    0  501    0  0.00000000000E+00 -0.00000000000E+00 -0.10246872103E+04  0.10246872103E+04  0.00000000000E+00 0. -1.
         23    2    1    2    0    0 -0.26534265260E+03 -0.10642769459E+03 -0.47570542107E+03  0.56228982719E+03  0.90225410285E+02 0.  0.
         23    2    1    2    0    0  0.26534265260E+03  0.10642769459E+03 -0.45755728014E+03  0.55382189226E+03  0.12500578497E+03 0.  0.
          5    1    4    4  502    0  0.26446633478E+03  0.12520070032E+03 -0.43024395655E+03  0.52033605462E+03  0.47000000000E+01 0.  1.
         -5    1    4    4    0  502  0.87631782212E+00 -0.18773005728E+02 -0.27313323591E+02  0.33485837642E+02  0.47000000000E+01 0.  1.
        -11    1    3    3    0    0 -0.11143078029E+03 -0.56762315776E+02 -0.29132432198E+03  0.31703097619E+03  0.00000000000E+00 0. -1.
         11    1    3    3    0    0 -0.15391187231E+03 -0.49665378811E+02 -0.18438109909E+03  0.24525885100E+03  0.00000000000E+00 0.  1.
<mgrwt>
<rscale>  0 0.30892079E+03</rscale>
<asrwt>0</asrwt>
<pdfrwt beam="2">  1        1 0.15764420E+00 0.31202568E+03</pdfrwt>
<pdfrwt beam="1">  1       -1 0.14065308E-01 0.31202568E+03</pdfrwt>
<totfact> 0.54624287E+02</totfact>
</mgrwt>
</event>
<event>
 8    1  0.7550631E-006  0.1314735E+03  0.7546771E-02  0.1244512E+00
         -2   -1    0    0    0  501 -0.00000000000E+00  0.00000000000E+00  0.17192898939E+03  0.17192898939E+03  0.00000000000E+00 0.  1.
          2   -1    0    0  501    0  0.00000000000E+00 -0.00000000000E+00 -0.71056960379E+02  0.71056960379E+02  0.00000000000E+00 0. -1.
         23    2    1    2    0    0  0.36107228410E+02 -0.18921958657E+02  0.51507728828E+02  0.10255052514E+03  0.78751454679E+02 0.  0.
         23    2    1    2    0    0 -0.36107228410E+02  0.18921958657E+02  0.49364300184E+02  0.14043542463E+03  0.12499400744E+03 0.  0.
          5    1    4    4  502    0  0.42368128167E+02  0.29033681939E+02  0.12777911572E+02  0.53135468337E+02  0.47000000000E+01 0.  1.
         -5    1    4    4    0  502 -0.78475356577E+02 -0.10111723281E+02  0.36586388612E+02  0.87299956296E+02  0.47000000000E+01 0.  1.
        -11    1    3    3    0    0  0.10466041511E+02  0.13187097103E+02  0.58495207109E+02  0.60869752830E+02  0.00000000000E+00 0.  1.
         11    1    3    3    0    0  0.25641186899E+02 -0.32109055760E+02 -0.69874782807E+01  0.41680772307E+02  0.00000000000E+00 0. -1.
<mgrwt>
<rscale>  0 0.11914643E+03</rscale>
<asrwt>0</asrwt>
<pdfrwt beam="2">  1        2 0.10931840E-01 0.13147347E+03</pdfrwt>
<pdfrwt beam="1">  1       -2 0.26450614E-01 0.13147347E+03</pdfrwt>
<totfact> 0.69480235E+03</totfact>
</mgrwt>
</event>
<event>
 8    1  0.7550631E-006  0.1797575E+03  0.7546771E-02  0.1173552E+00
         -2   -1    0    0    0  501 -0.00000000000E+00  0.00000000000E+00  0.25137943526E+03  0.25137943526E+03  0.00000000000E+00 0.  1.
          2   -1    0    0  501    0  0.00000000000E+00 -0.00000000000E+00 -0.11706041789E+03  0.11706041789E+03  0.00000000000E+00 0. -1.
         23    2    1    2    0    0 -0.98621698549E+02 -0.83432279547E+02  0.93835080538E+02  0.18417997358E+03  0.91815334414E+02 0.  0.
         23    2    1    2    0    0  0.98621698549E+02  0.83432279547E+02  0.40483936834E+02  0.18425987957E+03  0.12500227751E+03 0.  0.
          5    1    4    4  502    0  0.14360573208E+02 -0.13748032316E+02 -0.30929089963E+02  0.37066603045E+02  0.47000000000E+01 0.  1.
         -5    1    4    4    0  502  0.84261125341E+02  0.97180311863E+02  0.71413026796E+02  0.14719327652E+03  0.47000000000E+01 0.  1.
        -11    1    3    3    0    0 -0.13575698494E+02 -0.17396440530E+02  0.70680582641E+02  0.74045124723E+02  0.00000000000E+00 0.  1.
         11    1    3    3    0    0 -0.85046000055E+02 -0.66035839018E+02  0.23154497897E+02  0.11013484886E+03  0.00000000000E+00 0. -1.
<mgrwt>
<rscale>  0 0.17418539E+03</rscale>
<asrwt>0</asrwt>
<pdfrwt beam="2">  1        2 0.18009295E-01 0.17975749E+03</pdfrwt>
<pdfrwt beam="1">  1       -2 0.38673759E-01 0.17975749E+03</pdfrwt>
<totfact> 0.19594307E+03</totfact>
</mgrwt>
</event>
<event>
 8    1  0.7550631E-006  0.1318918E+03  0.7546771E-02  0.1237531E+00
          2   -1    0    0  501    0  0.00000000000E+00  0.00000000000E+00  0.14975856023E+04  0.14975856023E+04  0.00000000000E+00 0. -1.
         -2   -1    0    0    0  501 -0.00000000000E+00 -0.00000000000E+00 -0.10358137937E+02  0.10358137937E+02  0.00000000000E+00 0.  1.
         23    2    1    2    0    0  0.32113847765E+02  0.27258401499E+02  0.39390462508E+03  0.40669431893E+03  0.92005954835E+02 0.  0.
         23    2    1    2    0    0 -0.32113847765E+02 -0.27258401499E+02  0.10933228393E+04  0.11012494213E+04  0.12498454842E+03 0.  0.
          5    1    4    4  502    0  0.86092911581E+01 -0.26883463051E+02  0.53962753952E+02  0.61081169717E+02  0.47000000000E+01 0.  1.
         -5    1    4    4    0  502 -0.40723138923E+02 -0.37493844854E+00  0.10393600853E+04  0.10401682516E+04  0.47000000000E+01 0.  1.
        -11    1    3    3    0    0 -0.14678070225E+02  0.46529737565E+02  0.15535709838E+03  0.16283823335E+03  0.00000000000E+00 0.  1.
         11    1    3    3    0    0  0.46791917990E+02 -0.19271336066E+02  0.23854752670E+03  0.24385608559E+03  0.00000000000E+00 0. -1.
<mgrwt>
<rscale>  0 0.12343770E+03</rscale>
<asrwt>0</asrwt>
<pdfrwt beam="1">  1        2 0.23039761E+00 0.13189184E+03</pdfrwt>
<pdfrwt beam="2">  1       -2 0.15935609E-02 0.13189184E+03</pdfrwt>
<totfact> 0.14303229E+04</totfact>
</mgrwt>
</event>
<event>
 8    1  0.7550631E-006  0.1672184E+03  0.7546771E-02  0.1187277E+00
         -1   -1    0    0    0  501 -0.00000000000E+00  0.00000000000E+00  0.28218178761E+02  0.28218178761E+02  0.00000000000E+00 0.  1.
          1   -1    0    0  501    0  0.00000000000E+00 -0.00000000000E+00 -0.96186410344E+03  0.96186410344E+03  0.00000000000E+00 0. -1.
         23    2    1    2    0    0  0.80705708941E+02  0.76332527941E+02 -0.27714453157E+03  0.31261932551E+03  0.92637384600E+02 0.  0.
         23    2    1    2    0    0 -0.80705708941E+02 -0.76332527941E+02 -0.65650139310E+03  0.67746295668E+03  0.12498764842E+03 0.  0.
          5    1    4    4  502    0 -0.76342944866E+02 -0.66541597304E+02 -0.65790912637E+03  0.66567449851E+03  0.47000000000E+01 0.  1.
         -5    1    4    4    0  502 -0.43627640751E+01 -0.97909306376E+01  0.14077332719E+01  0.11788458173E+02  0.47000000000E+01 0.  1.
        -11    1    3    3    0    0  0.84452290181E+02  0.92563005808E+02 -0.26051701626E+03  0.28908340513E+03  0.00000000000E+00 0. -1.
         11    1    3    3    0    0 -0.37465812401E+01 -0.16230477866E+02 -0.16627515316E+02  0.23535920385E+02  0.00000000000E+00 0.  1.
<mgrwt>
<rscale>  0 0.16126411E+03</rscale>
<asrwt>0</asrwt>
<pdfrwt beam="2">  1        1 0.14797910E+00 0.16721836E+03</pdfrwt>
<pdfrwt beam="1">  1       -1 0.43412580E-02 0.16721836E+03</pdfrwt>
<totfact> 0.36705069E+03</totfact>
</mgrwt>
</event>
<event>
 8    1  0.7550631E-006  0.1285787E+03  0.7546771E-02  0.1243674E+00
         -2   -1    0    0    0  501 -0.00000000000E+00  0.00000000000E+00  0.17501817287E+02  0.17501817287E+02  0.00000000000E+00 0.  1.
          2   -1    0    0  501    0  0.00000000000E+00 -0.00000000000E+00 -0.84448831434E+03  0.84448831434E+03  0.00000000000E+00 0. -1.
         23    2    1    2    0    0  0.33518739975E+01 -0.29923067021E+02 -0.20092743071E+03  0.22286382266E+03  0.91595993563E+02 0.  0.
         23    2    1    2    0    0 -0.33518739975E+01  0.29923067021E+02 -0.62605906634E+03  0.63912630897E+03  0.12500343705E+03 0.  0.
          5    1    4    4  502    0  0.53406718276E+02  0.75751246887E+01 -0.15657802433E+03  0.16567567044E+03  0.47000000000E+01 0.  1.
         -5    1    4    4    0  502 -0.56758592274E+02  0.22347942332E+02 -0.46948104201E+03  0.47345063853E+03  0.47000000000E+01 0.  1.
        -11    1    3    3    0    0  0.18062628930E+02  0.35103128735E+01  0.24502928476E+00  0.18402198229E+02  0.00000000000E+00 0.  1.
         11    1    3    3    0    0 -0.14710754932E+02 -0.33433379894E+02 -0.20117246000E+03  0.20446162443E+03  0.00000000000E+00 0. -1.
<mgrwt>
<rscale>  0 0.11965103E+03</rscale>
<asrwt>0</asrwt>
<pdfrwt beam="2">  1        2 0.12992129E+00 0.12857871E+03</pdfrwt>
<pdfrwt beam="1">  1       -2 0.26925870E-02 0.12857871E+03</pdfrwt>
<totfact> 0.15632817E+04</totfact>
</mgrwt>
</event>
<event>
 8    1  0.7550631E-006  0.2083022E+03  0.7546771E-02  0.1146622E+00
          2   -1    0    0  501    0  0.00000000000E+00  0.00000000000E+00  0.64359196526E+03  0.64359196526E+03  0.00000000000E+00 0. -1.
         -2   -1    0    0    0  501 -0.00000000000E+00 -0.00000000000E+00 -0.64519099369E+02  0.64519099369E+02  0.00000000000E+00 0.  1.
         23    2    1    2    0    0 -0.14614525296E+03 -0.80039692355E+02  0.20494386612E+03  0.27990282166E+03  0.92621887256E+02 0.  0.
         23    2    1    2    0    0  0.14614525296E+03  0.80039692355E+02  0.37412899977E+03  0.42820824297E+03  0.12500001425E+03 0.  0.
          5    1    4    4  502    0  0.15215931062E+03  0.57330962567E+02  0.36961781239E+03  0.40383005375E+03  0.47000000000E+01 0.  1.
         -5    1    4    4    0  502 -0.60140576604E+01  0.22708729787E+02  0.45111873853E+01  0.24378189222E+02  0.47000000000E+01 0.  1.
        -11    1    3    3    0    0 -0.53274855945E+02 -0.42548136954E+02  0.22535182097E+02  0.71807998624E+02  0.00000000000E+00 0.  1.
         11    1    3    3    0    0 -0.92870397013E+02 -0.37491555401E+02  0.18240868402E+03  0.20809482303E+03  0.00000000000E+00 0. -1.
<mgrwt>
<rscale>  0 0.20373884E+03</rscale>
<asrwt>0</asrwt>
<pdfrwt beam="1">  1        2 0.99014144E-01 0.20830216E+03</pdfrwt>
<pdfrwt beam="2">  1       -2 0.99260157E-02 0.20830216E+03</pdfrwt>
<totfact> 0.30876175E+03</totfact>
</mgrwt>
</event>
<event>
 8    1  0.7550631E-006  0.1262074E+03  0.7546771E-02  0.1247236E+00
         -1   -1    0    0    0  501 -0.00000000000E+00  0.00000000000E+00  0.16317816563E+03  0.16317816563E+03  0.00000000000E+00 0.  1.
          1   -1    0    0  501    0  0.00000000000E+00 -0.00000000000E+00 -0.75002568361E+02  0.75002568361E+02  0.00000000000E+00 0. -1.
         23    2    1    2    0    0  0.16461697622E+02 -0.54779789209E+01  0.33533598799E+02  0.10065233553E+03  0.93302704451E+02 0.  0.
         23    2    1    2    0    0 -0.16461697622E+02  0.54779789209E+01  0.54641998468E+02  0.13752839846E+03  0.12500926623E+03 0.  0.
          5    1    4    4  502    0 -0.27657760151E+02  0.59096125682E+02  0.50037840088E+02  0.82360058329E+02  0.47000000000E+01 0. -1.
         -5    1    4    4    0  502  0.11196062529E+02 -0.53618146762E+02  0.46041583801E+01  0.55168340130E+02  0.47000000000E+01 0. -1.
        -11    1    3    3    0    0 -0.11790472786E+02 -0.32348850370E+02  0.47994251971E+02  0.59067009329E+02  0.00000000000E+00 0.  1.
         11    1    3    3    0    0  0.28252170408E+02  0.26870871450E+02 -0.14460653172E+02  0.41585326202E+02  0.00000000000E+00 0. -1.
<mgrwt>
<rscale>  0 0.11752561E+03</rscale>
<asrwt>0</asrwt>
<pdfrwt beam="2">  1        1 0.11538857E-01 0.12620742E+03</pdfrwt>
<pdfrwt beam="1">  1       -1 0.25104333E-01 0.12620742E+03</pdfrwt>
<totfact> 0.68884446E+03</totfact>
</mgrwt>
</event>
<event>
 8    1  0.7550631E-006  0.1253842E+03  0.7546771E-02  0.1250044E+00
          1   -1    0    0  501    0  0.00000000000E+00  0.00000000000E+00  0.61744224396E+03  0.61744224396E+03  0.00000000000E+00 0. -1.
         -1   -1    0    0    0  501 -0.00000000000E+00 -0.00000000000E+00 -0.19048107924E+02  0.19048107924E+02  0.00000000000E+00 0.  1.
         23    2    1    2    0    0 -0.12179867524E+01  0.96642840019E+01  0.24809085335E+03  0.26442370056E+03  0.90972193695E+02 0.  0.
         23    2    1    2    0    0  0.12179867524E+01 -0.96642840019E+01  0.35030328269E+03  0.37206665132E+03  0.12500528504E+03 0.  0.
          5    1    4    4  502    0  0.37241263512E+02 -0.29088024041E+02  0.50023950193E+02  0.68974708723E+02  0.47000000000E+01 0. -1.
         -5    1    4    4    0  502 -0.36023276760E+02  0.19423740039E+02  0.30027933249E+03  0.30309194260E+03  0.47000000000E+01 0. -1.
        -11    1    3    3    0    0 -0.34303528390E+02 -0.12652887096E+02  0.47718247302E+02  0.60115378544E+02  0.00000000000E+00 0.  1.
         11    1    3    3    0    0  0.33085541638E+02  0.22317171098E+02  0.20037260605E+03  0.20430832202E+03  0.00000000000E+00 0. -1.
<mgrwt>
<rscale>  0 0.11588525E+03</rscale>
<asrwt>0</asrwt>
<pdfrwt beam="1">  1        1 0.94991099E-01 0.12538422E+03</pdfrwt>
<pdfrwt beam="2">  1       -1 0.29304786E-02 0.12538422E+03</pdfrwt>
<totfact> 0.12486746E+04</totfact>
</mgrwt>
</event>
<event>
 7    1  0.7550631E-006  0.1152041E+03  0.7546771E-02  0.1330836E+00
          2   -1    0    0  501    0  0.00000000000E+00  0.00000000000E+00  0.14963340167E+04  0.14963340167E+04  0.00000000000E+00 0. -1.
         -2   -1    0    0    0  501 -0.00000000000E+00 -0.00000000000E+00 -0.38514691031E+01  0.38514691031E+01  0.00000000000E+00 0.  1.
         23    2    1    2    0    0  0.20238357176E+02 -0.13186234963E+02  0.13774833543E+04  0.13822924372E+04  0.11264334235E+03 0.  0.
          5    1    3    3  502    0  0.21121423575E+02 -0.51753419951E+02  0.11605973272E+04  0.11619521405E+04  0.47000000000E+01 0. -1.
         -5    1    3    3    0  502 -0.88306639929E+00  0.38567184988E+02  0.21688602714E+03  0.22034029666E+03  0.47000000000E+01 0.  1.
        -11    1    1    2    0    0 -0.93241701682E+01  0.91043055354E+01  0.78633843447E+02  0.79706397885E+02  0.00000000000E+00 0. -1.
         11    1    1    2    0    0 -0.10914187007E+02  0.40819294279E+01  0.36365349815E+02  0.38186650718E+02  0.00000000000E+00 0.  1.
<mgrwt>
<rscale>  0 0.79374317E+02</rscale>
<asrwt>0</asrwt>
<pdfrwt beam="1">  1        2 0.23020477E+00 0.11520413E+03</pdfrwt>
<pdfrwt beam="2">  1       -2 0.59253490E-03 0.11520413E+03</pdfrwt>
<totfact> 0.58197568E+04</totfact>
</mgrwt>
</event>
<event>
 7    1  0.7550631E-006  0.3275440E+03  0.7546771E-02  0.1072229E+00
         -1   -1    0    0    0  501 -0.00000000000E+00  0.00000000000E+00  0.16857934505E+02  0.16857934505E+02  0.00000000000E+00 0.  1.
          1   -1    0    0  501    0  0.00000000000E+00 -0.00000000000E+00 -0.15910173951E+04  0.15910173951E+04  0.00000000000E+00 0. -1.
         23    2    1    2    0    0  0.34318819737E+02 -0.69607300198E+02 -0.31847139632E+03  0.34003850063E+03  0.90438896539E+02 0.  0.
          5    1    1    2  502    0 -0.32716902248E+02  0.41202008193E+02 -0.12234273216E+04  0.12245670673E+04  0.47000000000E+01 0. -1.
         -5    1    1    2    0  502 -0.16019174890E+01  0.28405292006E+02 -0.32260742643E+02  0.43269761606E+02  0.47000000000E+01 0.  1.
        -11    1    3    3    0    0  0.45786251722E+02 -0.83269907000E+02 -0.21533233158E+03  0.23536837359E+03  0.00000000000E+00 0.  1.
         11    1    3    3    0    0 -0.11467431985E+02  0.13662606802E+02 -0.10313906473E+03  0.10467012704E+03  0.00000000000E+00 0. -1.
<mgrwt>
<rscale>  0 0.32754399E+03</rscale>
<asrwt>0</asrwt>
<pdfrwt beam="2">  1        1 0.24477197E+00 0.32754399E+03</pdfrwt>
<pdfrwt beam="1">  1       -1 0.25935277E-02 0.32754399E+03</pdfrwt>
<totfact> 0.29158289E+03</totfact>
</mgrwt>
</event>
<event>
 8    1  0.7550631E-006  0.1289051E+03  0.7546771E-02  0.1243056E+00
         -1   -1    0    0    0  501 -0.00000000000E+00  0.00000000000E+00  0.95766571980E+02  0.95766571980E+02  0.00000000000E+00 0.  1.
          1   -1    0    0  501    0  0.00000000000E+00 -0.00000000000E+00 -0.15731921361E+03  0.15731921361E+03  0.00000000000E+00 0. -1.
         23    2    1    2    0    0  0.27192668494E+02 -0.15887931174E+02  0.22151568791E+02  0.99388315698E+02  0.91626839521E+02 0.  0.
         23    2    1    2    0    0 -0.27192668494E+02  0.15887931174E+02 -0.83704210424E+02  0.15369746990E+03  0.12499859933E+03 0.  0.
          5    1    4    4  502    0 -0.41945602354E+02  0.55351446121E+02 -0.86716488493E+02  0.11119827121E+03  0.47000000000E+01 0.  1.
         -5    1    4    4    0  502  0.14752933861E+02 -0.39463514947E+02  0.30122780684E+01  0.42499198683E+02  0.47000000000E+01 0.  1.
        -11    1    3    3    0    0  0.38808263378E+02  0.86830308770E+01  0.47689184649E+02  0.62094562275E+02  0.00000000000E+00 0.  1.
         11    1    3    3    0    0 -0.11615594884E+02 -0.24570962051E+02 -0.25537615858E+02  0.37293753423E+02  0.00000000000E+00 0. -1.
<mgrwt>
<rscale>  0 0.12002462E+03</rscale>
<asrwt>0</asrwt>
<pdfrwt beam="2">  1        1 0.24202956E-01 0.12890507E+03</pdfrwt>
<pdfrwt beam="1">  1       -1 0.14733319E-01 0.12890507E+03</pdfrwt>
<totfact> 0.62505641E+03</totfact>
</mgrwt>
</event>
<event>
 8    1  0.7550631E-006  0.1545396E+03  0.7546771E-02  0.1203926E+00
          2   -1    0    0  501    0  0.00000000000E+00  0.00000000000E+00  0.44877653617E+03  0.44877653617E+03  0.00000000000E+00 0. -1.
         -2   -1    0    0    0  501 -0.00000000000E+00 -0.00000000000E+00 -0.46076725998E+02  0.46076725998E+02  0.00000000000E+00 0.  1.
         23    2    1    2    0    0  0.67167035884E+02  0.61202801086E+02  0.13357635286E+03  0.18451484696E+03  0.89139739369E+02 0.  0.
         23    2    1    2    0    0 -0.67167035884E+02 -0.61202801086E+02  0.26912345732E+03  0.31033841521E+03  0.12500121243E+03 0.  0.
          5    1    4    4  502    0  0.19684301865E+02 -0.23555483071E+02  0.17145206926E+03  0.17424188525E+03  0.47000000000E+01 0.  1.
         -5    1    4    4    0  502 -0.86851337749E+02 -0.37647318015E+02  0.97671388057E+02  0.13609652996E+03  0.47000000000E+01 0.  1.
        -11    1    3    3    0    0  0.67941120831E+00  0.27840111107E+02  0.98331960092E+02  0.10219935304E+03  0.00000000000E+00 0. -1.
         11    1    3    3    0    0  0.66487624676E+02  0.33362689979E+02  0.35244392766E+02  0.82315493919E+02  0.00000000000E+00 0.  1.
<mgrwt>
<rscale>  0 0.14722434E+03</rscale>
<asrwt>0</asrwt>
<pdfrwt beam="1">  1        2 0.69042541E-01 0.15453963E+03</pdfrwt>
<pdfrwt beam="2">  1       -2 0.70887274E-02 0.15453963E+03</pdfrwt>
<totfact> 0.77343431E+03</totfact>
</mgrwt>
</event>
<event>
 7    1  0.7550631E-006  0.2414495E+03  0.7546771E-02  0.1147295E+00
          2   -1    0    0  501    0  0.00000000000E+00  0.00000000000E+00  0.72875018019E+03  0.72875018019E+03  0.00000000000E+00 0. -1.
         -2   -1    0    0    0  501 -0.00000000000E+00 -0.00000000000E+00 -0.48318561896E+02  0.48318561896E+02  0.00000000000E+00 0.  1.
         23    2    1    2    0    0  0.27919376879E+02  0.18449852907E+01  0.13710392772E+03  0.18250768933E+03  0.11716942473E+03 0.  0.
          5    1    1    2  502    0 -0.63973153994E+01  0.88290721574E+02  0.46427832895E+03  0.47266545663E+03  0.47000000000E+01 0. -1.
         -5    1    1    2    0  502 -0.21522061480E+02 -0.90135706865E+02  0.79049361620E+02  0.12189559613E+03  0.47000000000E+01 0.  1.
        -11    1    3    3    0    0 -0.45303576839E+02  0.85669088848E+01  0.42660744826E+02  0.62815166572E+02  0.00000000000E+00 0. -1.
         11    1    3    3    0    0  0.73222953718E+02 -0.67219235941E+01  0.94443182894E+02  0.11969252275E+03  0.00000000000E+00 0.  1.
<mgrwt>
<rscale>  0 0.20292430E+03</rscale>
<asrwt>0</asrwt>
<pdfrwt beam="1">  1        2 0.11211540E+00 0.24144951E+03</pdfrwt>
<pdfrwt beam="2">  1       -2 0.74336255E-02 0.24144951E+03</pdfrwt>
<totfact> 0.42057753E+03</totfact>
</mgrwt>
</event>
<event>
 8    1  0.7550631E-006  0.1251079E+03  0.7546771E-02  0.1262497E+00
         -3   -1    0    0    0  501 -0.00000000000E+00  0.00000000000E+00  0.10408057293E+03  0.10408057293E+03  0.00000000000E+00 0.  1.
          3   -1    0    0  501    0  0.00000000000E+00 -0.00000000000E+00 -0.11028621548E+03  0.11028621548E+03  0.00000000000E+00 0. -1.
         23    2    1    2    0    0 -0.43444294811E+01 -0.28067860343E+01  0.38335926796E+02  0.81566416268E+02  0.71810061023E+02 0.  0.
         23    2    1    2    0    0  0.43444294811E+01  0.28067860343E+01 -0.44541569342E+02  0.13280037214E+03  0.12500094130E+03 0.  0.
          5    1    4    4  502    0  0.39661232571E+02  0.51123097675E+02 -0.26897296056E+02  0.70229189231E+02  0.47000000000E+01 0.  1.
         -5    1    4    4    0  502 -0.35316803090E+02 -0.48316311641E+02 -0.17644273287E+02  0.62571182911E+02  0.47000000000E+01 0.  1.
        -11    1    3    3    0    0  0.28325347190E+02 -0.64146001373E+01  0.39079496086E+02  0.48689623152E+02  0.00000000000E+00 0.  1.
         11    1    3    3    0    0 -0.32669776671E+02  0.36078141030E+01 -0.74356928960E+00  0.32876793116E+02  0.00000000000E+00 0. -1.
<mgrwt>
<rscale>  0 0.10896594E+03</rscale>
<asrwt>0</asrwt>
<pdfrwt beam="2">  1        3 0.16967110E-01 0.12510790E+03</pdfrwt>
<pdfrwt beam="1">  1       -3 0.16012396E-01 0.12510790E+03</pdfrwt>
<totfact> 0.22426271E+03</totfact>
</mgrwt>
</event>
<event>
 8    1  0.7550631E-006  0.1402469E+03  0.7546771E-02  0.1225489E+00
         -2   -1    0    0    0  501 -0.00000000000E+00  0.00000000000E+00  0.30299303529E+02  0.30299303529E+02  0.00000000000E+00 0.  1.
          2   -1    0    0  501    0  0.00000000000E+00 -0.00000000000E+00 -0.50809454854E+03  0.50809454854E+03  0.00000000000E+00 0. -1.
         23    2    1    2    0    0  0.57013713799E+02  0.28158922504E+02 -0.21322888739E+03  0.23895345309E+03  0.87113178379E+02 0.  0.
         23    2    1    2    0    0 -0.57013713799E+02 -0.28158922504E+02 -0.26456635762E+03  0.29944039898E+03  0.12500282589E+03 0.  0.
          5    1    4    4  502    0 -0.88805089541E+02 -0.15841181365E+02 -0.11644438073E+03  0.14737255769E+03  0.47000000000E+01 0.  1.
         -5    1    4    4    0  502  0.31791375742E+02 -0.12317741139E+02 -0.14812197688E+03  0.15206784129E+03  0.47000000000E+01 0.  1.
        -11    1    3    3    0    0  0.20537075383E+02  0.37399332539E+02 -0.30643647844E+02  0.52531083111E+02  0.00000000000E+00 0.  1.
         11    1    3    3    0    0  0.36476638416E+02 -0.92404100349E+01 -0.18258523955E+03  0.18642236998E+03  0.00000000000E+00 0. -1.
<mgrwt>
<rscale>  0 0.13133415E+03</rscale>
<asrwt>0</asrwt>
<pdfrwt beam="2">  1        2 0.78168388E-01 0.14024691E+03</pdfrwt>
<pdfrwt beam="1">  1       -2 0.46614316E-02 0.14024691E+03</pdfrwt>
<totfact> 0.12665309E+04</totfact>
</mgrwt>
</event>
<event>
 7    1  0.7550631E-006  0.1313606E+03  0.7546771E-02  0.1241256E+00
          2   -1    0    0  501    0  0.00000000000E+00  0.00000000000E+00  0.13575013056E+04  0.13575013056E+04  0.00000000000E+00 0. -1.
         -2   -1    0    0    0  501 -0.00000000000E+00 -0.00000000000E+00 -0.22674433904E+02  0.22674433904E+02  0.00000000000E+00 0.  1.
         23    2    1    2    0    0  0.28118859900E+01 -0.24534660040E+02  0.98226627398E+02  0.13661802928E+03  0.91685109743E+02 0.  0.
          5    1    1    2  502    0 -0.44188578285E+02  0.26430160743E+02  0.10878168075E+04  0.10890448478E+04  0.47000000000E+01 0. -1.
         -5    1    1    2    0  502  0.41376692295E+02 -0.18955007030E+01  0.14878343685E+03  0.15451286247E+03  0.47000000000E+01 0.  1.
        -11    1    3    3    0    0 -0.26071185716E+02 -0.22216995900E+02  0.48787594125E-01  0.34253525537E+02  0.00000000000E+00 0.  1.
         11    1    3    3    0    0  0.28883071706E+02 -0.23176641395E+01  0.98177839804E+02  0.10236450374E+03  0.00000000000E+00 0. -1.
<mgrwt>
<rscale>  0 0.12112276E+03</rscale>
<asrwt>0</asrwt>
<pdfrwt beam="1">  1        2 0.20884629E+00 0.13136063E+03</pdfrwt>
<pdfrwt beam="2">  1       -2 0.34883755E-02 0.13136063E+03</pdfrwt>
<totfact> 0.54059015E+03</totfact>
</mgrwt>
</event>
<event>
 8    1  0.7550631E-006  0.1283005E+03  0.7546771E-02  0.1245203E+00
          1   -1    0    0  501    0  0.00000000000E+00  0.00000000000E+00  0.42843245534E+03  0.42843245534E+03  0.00000000000E+00 0. -1.
         -1   -1    0    0    0  501 -0.00000000000E+00 -0.00000000000E+00 -0.28974915913E+02  0.28974915913E+02  0.00000000000E+00 0.  1.
         23    2    1    2    0    0  0.28518699609E+02 -0.48197971708E+01  0.15505325546E+03  0.18137391014E+03  0.89545723400E+02 0.  0.
         23    2    1    2    0    0 -0.28518699609E+02  0.48197971708E+01  0.24440428397E+03  0.27603346111E+03  0.12499788382E+03 0.  0.
          5    1    4    4  502    0 -0.22042963458E+02  0.63149378844E+02  0.15621679296E+03  0.16999856672E+03  0.47000000000E+01 0.  1.
         -5    1    4    4    0  502 -0.64757361510E+01 -0.58329581673E+02  0.88187491011E+02  0.10603489439E+03  0.47000000000E+01 0.  1.
        -11    1    3    3    0    0  0.24942815882E+02 -0.39118071131E+02  0.13194340271E+03  0.13986217884E+03  0.00000000000E+00 0. -1.
         11    1    3    3    0    0  0.35758837275E+01  0.34298273960E+02  0.23109852752E+02  0.41511731297E+02  0.00000000000E+00 0.  1.
<mgrwt>
<rscale>  0 0.11873253E+03</rscale>
<asrwt>0</asrwt>
<pdfrwt beam="1">  1        1 0.65912681E-01 0.12830050E+03</pdfrwt>
<pdfrwt beam="2">  1       -1 0.44576797E-02 0.12830050E+03</pdfrwt>
<totfact> 0.10944029E+04</totfact>
</mgrwt>
</event>
<event>
 8    1  0.7550631E-006  0.1698517E+03  0.7546771E-02  0.1183141E+00
         -2   -1    0    0    0  501 -0.00000000000E+00  0.00000000000E+00  0.13925019048E+03  0.13925019048E+03  0.00000000000E+00 0.  1.
          2   -1    0    0  501    0  0.00000000000E+00 -0.00000000000E+00 -0.19161902415E+03  0.19161902415E+03  0.00000000000E+00 0. -1.
         23    2    1    2    0    0 -0.82612861893E+02 -0.79998270189E+02  0.54736240301E+01  0.15143855586E+03  0.98382251739E+02 0.  0.
         23    2    1    2    0    0  0.82612861893E+02  0.79998270189E+02 -0.57842457703E+02  0.17943065877E+03  0.12500001285E+03 0.  0.
          5    1    4    4  502    0  0.92581152071E+02  0.64340094242E+02  0.57807415712E+01  0.11298860305E+03  0.47000000000E+01 0.  1.
         -5    1    4    4    0  502 -0.99682901781E+01  0.15658175948E+02 -0.63623199274E+02  0.66442055725E+02  0.47000000000E+01 0.  1.
        -11    1    3    3    0    0 -0.94916358271E+02 -0.34747782981E+02 -0.11140853998E+02  0.10168894786E+03  0.00000000000E+00 0. -1.
         11    1    3    3    0    0  0.12303496378E+02 -0.45250487208E+02  0.16614478028E+02  0.49749607997E+02  0.00000000000E+00 0.  1.
<mgrwt>
<rscale>  0 0.16502154E+03</rscale>
<asrwt>0</asrwt>
<pdfrwt beam="2">  1        2 0.29479850E-01 0.16985173E+03</pdfrwt>
<pdfrwt beam="1">  1       -2 0.21423106E-01 0.16985173E+03</pdfrwt>
<totfact> 0.32529416E+03</totfact>
</mgrwt>
</event>
<event>
 8    1  0.7550631E-006  0.1320233E+03  0.7546771E-02  0.1236521E+00
          1   -1    0    0  501    0  0.00000000000E+00  0.00000000000E+00  0.39309579252E+03  0.39309579252E+03  0.00000000000E+00 0. -1.
         -1   -1    0    0    0  501 -0.00000000000E+00 -0.00000000000E+00 -0.35785956831E+02  0.35785956831E+02  0.00000000000E+00 0.  1.
         23    2    1    2    0    0 -0.13987746536E+02 -0.40100787936E+02  0.12807716531E+03  0.16434862993E+03  0.93824206046E+02 0.  0.
         23    2    1    2    0    0  0.13987746536E+02  0.40100787936E+02  0.22923267038E+03  0.26453311943E+03  0.12500569529E+03 0.  0.
          5    1    4    4  502    0  0.55854724620E+00  0.54024416303E+02  0.23702883105E+03  0.24315366804E+03  0.47000000000E+01 0. -1.
         -5    1    4    4    0  502  0.13429199290E+02 -0.13923628367E+02 -0.77961606655E+01  0.21379451386E+02  0.47000000000E+01 0. -1.
        -11    1    3    3    0    0 -0.17694070012E+02 -0.52920937179E+02  0.13724690953E+03  0.14815674093E+03  0.00000000000E+00 0. -1.
         11    1    3    3    0    0  0.37063234758E+01  0.12820149243E+02 -0.91697442255E+01  0.16191889003E+02  0.00000000000E+00 0.  1.
<mgrwt>
<rscale>  0 0.12407536E+03</rscale>
<asrwt>0</asrwt>
<pdfrwt beam="1">  1        1 0.60476273E-01 0.13202331E+03</pdfrwt>
<pdfrwt beam="2">  1       -1 0.55055321E-02 0.13202331E+03</pdfrwt>
<totfact> 0.89506738E+03</totfact>
</mgrwt>
</event>
<event>
 8    1  0.7550631E-006  0.2514063E+03  0.7546771E-02  0.1114947E+00
          2   -1    0    0  501    0  0.00000000000E+00  0.00000000000E+00  0.17673517609E+04  0.17673517609E+04  0.00000000000E+00 0. -1.
         -2   -1    0    0    0  501 -0.00000000000E+00 -0.00000000000E+00 -0.33659210519E+02  0.33659210519E+02  0.00000000000E+00 0.  1.
         23    2    1    2    0    0  0.20401407638E+03  0.77199692997E+02  0.88249299568E+03  0.91346051736E+03  0.89636451185E+02 0.  0.
         23    2    1    2    0    0 -0.20401407638E+03 -0.77199692997E+02  0.85119955473E+03  0.88755045409E+03  0.12499436237E+03 0.  0.
          5    1    4    4  502    0 -0.12465710060E+03 -0.55150099660E+02  0.29182854205E+03  0.32212872299E+03  0.47000000000E+01 0. -1.
         -5    1    4    4    0  502 -0.79356975786E+02 -0.22049593336E+02  0.55937101268E+03  0.56542173109E+03  0.47000000000E+01 0. -1.
        -11    1    3    3    0    0  0.11407557813E+03 -0.43000748387E+01  0.45087521758E+03  0.46510234357E+03  0.00000000000E+00 0. -1.
         11    1    3    3    0    0  0.89938498255E+02  0.81499767835E+02  0.43161777810E+03  0.44835817378E+03  0.00000000000E+00 0.  1.
<mgrwt>
<rscale>  0 0.24741858E+03</rscale>
<asrwt>0</asrwt>
<pdfrwt beam="1">  1        2 0.27190020E+00 0.25140630E+03</pdfrwt>
<pdfrwt beam="2">  1       -2 0.51783414E-02 0.25140630E+03</pdfrwt>
<totfact> 0.18290017E+03</totfact>
</mgrwt>
</event>
<event>
 8    1  0.7550631E-006  0.1408027E+03  0.7546771E-02  0.1223446E+00
          2   -1    0    0  501    0  0.00000000000E+00  0.00000000000E+00  0.58273801221E+03  0.58273801221E+03  0.00000000000E+00 0. -1.
         -2   -1    0    0    0  501 -0.00000000000E+00 -0.00000000000E+00 -0.27457468345E+02  0.27457468345E+02  0.00000000000E+00 0.  1.
         23    2    1    2    0    0  0.60762648530E+02  0.22565847298E+02  0.21884371446E+03  0.24548308808E+03  0.90377310508E+02 0.  0.
         23    2    1    2    0    0 -0.60762648530E+02 -0.22565847298E+02  0.33643682941E+03  0.36471239247E+03  0.12499628844E+03 0.  0.
          5    1    4    4  502    0 -0.15620816119E+02  0.44989287908E+02  0.20173466056E+03  0.20733308755E+03  0.47000000000E+01 0. -1.
         -5    1    4    4    0  502 -0.45141832411E+02 -0.67555135206E+02  0.13470216885E+03  0.15737930492E+03  0.47000000000E+01 0. -1.
        -11    1    3    3    0    0  0.17625319678E+02 -0.26689260424E+02  0.24157085375E+02  0.40081582922E+02  0.00000000000E+00 0.  1.
         11    1    3    3    0    0  0.43137328852E+02  0.49255107722E+02  0.19468662909E+03  0.20540150516E+03  0.00000000000E+00 0. -1.
<mgrwt>
<rscale>  0 0.13273994E+03</rscale>
<asrwt>0</asrwt>
<pdfrwt beam="1">  1        2 0.89651993E-01 0.14080266E+03</pdfrwt>
<pdfrwt beam="2">  1       -2 0.42242263E-02 0.14080266E+03</pdfrwt>
<totfact> 0.12595394E+04</totfact>
</mgrwt>
</event>
<event>
 8    1  0.7550631E-006  0.1348011E+03  0.7546771E-02  0.1233747E+00
          3   -1    0    0  501    0  0.00000000000E+00  0.00000000000E+00  0.41025352313E+03  0.41025352313E+03  0.00000000000E+00 0. -1.
         -3   -1    0    0    0  501 -0.00000000000E+00 -0.00000000000E+00 -0.34978363485E+02  0.34978363485E+02  0.00000000000E+00 0.  1.
         23    2    1    2    0    0 -0.11608622722E+02 -0.49112707231E+02  0.13154503166E+03  0.16670773453E+03  0.89109793303E+02 0.  0.
         23    2    1    2    0    0  0.11608622722E+02  0.49112707231E+02  0.24373012799E+03  0.27852415209E+03  0.12499803949E+03 0.  0.
          5    1    4    4  502    0 -0.32290949874E+02 -0.11351681665E+02  0.14662229881E+02  0.37531814577E+02  0.47000000000E+01 0.  1.
         -5    1    4    4    0  502  0.43899572596E+02  0.60464388896E+02  0.22906789810E+03  0.24099233751E+03  0.47000000000E+01 0.  1.
        -11    1    3    3    0    0 -0.74791897211E+00  0.19584668038E+02  0.73652615288E+02  0.76215656814E+02  0.00000000000E+00 0. -1.
         11    1    3    3    0    0 -0.10860703749E+02 -0.68697375269E+02  0.57892416375E+02  0.90492077712E+02  0.00000000000E+00 0.  1.
<mgrwt>
<rscale>  0 0.12585004E+03</rscale>
<asrwt>0</asrwt>
<pdfrwt beam="1">  1        3 0.63115923E-01 0.13480107E+03</pdfrwt>
<pdfrwt beam="2">  1       -3 0.53812870E-02 0.13480107E+03</pdfrwt>
<totfact> 0.11566071E+03</totfact>
</mgrwt>
</event>
<event>
 8    1  0.7550631E-006  0.1300098E+03  0.7546771E-02  0.1239478E+00
          1   -1    0    0  501    0  0.00000000000E+00  0.00000000000E+00  0.29736473243E+03  0.29736473243E+03  0.00000000000E+00 0. -1.
         -1   -1    0    0    0  501 -0.00000000000E+00 -0.00000000000E+00 -0.69762455413E+02  0.69762455413E+02  0.00000000000E+00 0.  1.
         23    2    1    2    0    0  0.35676978028E+02  0.16179143448E+01 -0.38979017331E+01  0.10161846002E+03  0.95056053831E+02 0.  0.
         23    2    1    2    0    0 -0.35676978028E+02 -0.16179143448E+01  0.23150017875E+03  0.26550872782E+03  0.12500834925E+03 0.  0.
          5    1    4    4  502    0 -0.10827075707E+02 -0.38256256252E+02  0.21393589004E+03  0.21764976857E+03  0.47000000000E+01 0.  1.
         -5    1    4    4    0  502 -0.24849902321E+02  0.36638341907E+02  0.17564288701E+02  0.47858959251E+02  0.47000000000E+01 0.  1.
        -11    1    3    3    0    0  0.53250082787E+02 -0.24300172968E+02  0.20397383983E+02  0.61984861026E+02  0.00000000000E+00 0. -1.
         11    1    3    3    0    0 -0.17573104759E+02  0.25918087313E+02 -0.24295285716E+02  0.39633598989E+02  0.00000000000E+00 0.  1.
<mgrwt>
<rscale>  0 0.12222086E+03</rscale>
<asrwt>0</asrwt>
<pdfrwt beam="1">  1        1 0.45748420E-01 0.13000981E+03</pdfrwt>
<pdfrwt beam="2">  1       -1 0.10732686E-01 0.13000981E+03</pdfrwt>
<totfact> 0.46335976E+03</totfact>
</mgrwt>
</event>
<event>
 8    1  0.7550631E-006  0.1248803E+03  0.7546771E-02  0.1249345E+00
          1   -1    0    0  501    0  0.00000000000E+00  0.00000000000E+00  0.10442675237E+03  0.10442675237E+03  0.00000000000E+00 0. -1.
         -1   -1    0    0    0  501 -0.00000000000E+00 -0.00000000000E+00 -0.12270469608E+03  0.12270469608E+03  0.00000000000E+00 0.  1.
         23    2    1    2    0    0 -0.14056144903E+02  0.13129681688E+02 -0.36849846900E+02  0.10087773862E+03  0.91915413193E+02 0.  0.
         23    2    1    2    0    0  0.14056144903E+02 -0.13129681688E+02  0.18571903195E+02  0.12625370983E+03  0.12339011267E+03 0.  0.
          5    1    4    4  502    0  0.45701372892E+02 -0.55334056241E+02  0.10602889722E+02  0.72697899108E+02  0.47000000000E+01 0. -1.
         -5    1    4    4    0  502 -0.31645227989E+02  0.42204374553E+02  0.79690134726E+01  0.53555810717E+02  0.47000000000E+01 0.  1.
        -11    1    3    3    0    0 -0.44864262241E+02  0.33705591659E+02 -0.28341899456E+02  0.62865986036E+02  0.00000000000E+00 0.  1.
         11    1    3    3    0    0  0.30808117338E+02 -0.20575909971E+02 -0.85079474440E+01  0.38011752587E+02  0.00000000000E+00 0. -1.
<mgrwt>
<rscale>  0 0.11629048E+03</rscale>
<asrwt>0</asrwt>
<pdfrwt beam="1">  1        1 0.16065654E-01 0.12488028E+03</pdfrwt>
<pdfrwt beam="2">  1       -1 0.18877646E-01 0.12488028E+03</pdfrwt>
<totfact> 0.70976835E+03</totfact>
</mgrwt>
</event>
<event>
 8    1  0.7550631E-006  0.1354724E+03  0.7546771E-02  0.1229208E+00
         -2   -1    0    0    0  501 -0.00000000000E+00  0.00000000000E+00  0.77985188844E+02  0.77985188844E+02  0.00000000000E+00 0.  1.
          2   -1    0    0  501    0  0.00000000000E+00 -0.00000000000E+00 -0.24470908811E+03  0.24470908811E+03  0.00000000000E+00 0. -1.
         23    2    1    2    0    0 -0.48582392190E+02 -0.38351542967E+02 -0.38560936416E+01  0.11084834080E+03  0.91877067435E+02 0.  0.
         23    2    1    2    0    0  0.48582392190E+02  0.38351542967E+02 -0.16286780563E+03  0.21184593616E+03  0.12050597030E+03 0.  0.
          5    1    4    4  502    0  0.67041990045E+02  0.49855115235E+02 -0.16915590528E+03  0.18872194158E+03  0.47000000000E+01 0. -1.
         -5    1    4    4    0  502 -0.18459597855E+02 -0.11503572268E+02  0.62880996522E+01  0.23123994575E+02  0.47000000000E+01 0.  1.
        -11    1    3    3    0    0 -0.43089561335E+02 -0.31328572645E+01 -0.40863113015E+02  0.59466958018E+02  0.00000000000E+00 0. -1.
         11    1    3    3    0    0 -0.54928308558E+01 -0.35218685703E+02  0.37007019373E+02  0.51381382779E+02  0.00000000000E+00 0.  1.
<mgrwt>
<rscale>  0 0.12882636E+03</rscale>
<asrwt>0</asrwt>
<pdfrwt beam="2">  1        2 0.37647551E-01 0.13547243E+03</pdfrwt>
<pdfrwt beam="1">  1       -2 0.11997722E-01 0.13547243E+03</pdfrwt>
<totfact> 0.64312420E+03</totfact>
</mgrwt>
</event>
<event>
 8    1  0.7550631E-006  0.2565152E+03  0.7546771E-02  0.1111457E+00
         -2   -1    0    0    0  501 -0.00000000000E+00  0.00000000000E+00  0.62728984436E+02  0.62728984436E+02  0.00000000000E+00 0.  1.
          2   -1    0    0  501    0  0.00000000000E+00 -0.00000000000E+00 -0.10574771705E+04  0.10574771705E+04  0.00000000000E+00 0. -1.
         23    2    1    2    0    0 -0.14838971378E+03  0.16778648954E+03 -0.34557006020E+03  0.42218590014E+03  0.93007819825E+02 0.  0.
         23    2    1    2    0    0  0.14838971378E+03 -0.16778648954E+03 -0.64917812587E+03  0.69802025480E+03  0.12501289444E+03 0.  0.
          5    1    4    4  502    0  0.14416917389E+03 -0.16053272100E+03 -0.65294670472E+03  0.68768960616E+03  0.47000000000E+01 0.  1.
         -5    1    4    4    0  502  0.42205398897E+01 -0.72537685350E+01  0.37685788460E+01  0.10330648646E+02  0.47000000000E+01 0.  1.
        -11    1    3    3    0    0 -0.82337217656E+02  0.85400923155E+02 -0.10102465085E+03  0.15581628659E+03  0.00000000000E+00 0.  1.
         11    1    3    3    0    0 -0.66052496120E+02  0.82385566382E+02 -0.24454540935E+03  0.26636961355E+03  0.00000000000E+00 0. -1.
<mgrwt>
<rscale>  0 0.25294583E+03</rscale>
<asrwt>0</asrwt>
<pdfrwt beam="2">  1        2 0.16268877E+00 0.25651518E+03</pdfrwt>
<pdfrwt beam="1">  1       -2 0.96506144E-02 0.25651518E+03</pdfrwt>
<totfact> 0.17010048E+03</totfact>
</mgrwt>
</event>
<event>
 8    1  0.7550631E-006  0.1820847E+03  0.7546771E-02  0.1171160E+00
         -1   -1    0    0    0  501 -0.00000000000E+00  0.00000000000E+00  0.57782246965E+03  0.57782246965E+03  0.00000000000E+00 0.  1.
          1   -1    0    0  501    0  0.00000000000E+00 -0.00000000000E+00 -0.51369001945E+02  0.51369001945E+02  0.00000000000E+00 0. -1.
         23    2    1    2    0    0  0.12161770807E+03 -0.52316260909E+02  0.21831608104E+03  0.27127600155E+03  0.91656422065E+02 0.  0.
         23    2    1    2    0    0 -0.12161770807E+03  0.52316260909E+02  0.30813738666E+03  0.35791547004E+03  0.12500790601E+03 0.  0.
          5    1    4    4  502    0 -0.52497013033E+02 -0.28597342752E+02  0.18811191846E+03  0.19743841636E+03  0.47000000000E+01 0.  1.
         -5    1    4    4    0  502 -0.69120695036E+02  0.80913603661E+02  0.12002546820E+03  0.16047705368E+03  0.47000000000E+01 0.  1.
        -11    1    3    3    0    0  0.35290519396E+02 -0.15402060291E+02  0.57940252802E+01  0.38938604872E+02  0.00000000000E+00 0.  1.
         11    1    3    3    0    0  0.86327188673E+02 -0.36914200618E+02  0.21252205576E+03  0.23233739668E+03  0.00000000000E+00 0. -1.
<mgrwt>
<rscale>  0 0.17657442E+03</rscale>
<asrwt>0</asrwt>
<pdfrwt beam="2">  1        1 0.79029238E-02 0.18208469E+03</pdfrwt>
<pdfrwt beam="1">  1       -1 0.88895760E-01 0.18208469E+03</pdfrwt>
<totfact> 0.11423744E+03</totfact>
</mgrwt>
</event>
<event>
 8    1  0.7550631E-006  0.1301277E+03  0.7546771E-02  0.1241678E+00
          2   -1    0    0  501    0  0.00000000000E+00  0.00000000000E+00  0.75900957838E+02  0.75900957838E+02  0.00000000000E+00 0. -1.
         -2   -1    0    0    0  501 -0.00000000000E+00 -0.00000000000E+00 -0.18590033447E+03  0.18590033447E+03  0.00000000000E+00 0.  1.
         23    2    1    2    0    0 -0.21526264046E+01  0.36429594930E+02 -0.85917200278E+02  0.12946396819E+03  0.89707327286E+02 0.  0.
         23    2    1    2    0    0  0.21526264046E+01 -0.36429594930E+02 -0.24082176357E+02  0.13233732412E+03  0.12490583233E+03 0.  0.
          5    1    4    4  502    0 -0.35417849121E+02  0.10203505295E+02 -0.53748838848E+02  0.65341894939E+02  0.47000000000E+01 0.  1.
         -5    1    4    4    0  502  0.37570475526E+02 -0.46633100225E+02  0.29666662491E+02  0.66995429181E+02  0.47000000000E+01 0.  1.
        -11    1    3    3    0    0 -0.19753655309E+02  0.27401274738E+01  0.12789592685E+02  0.23691535993E+02  0.00000000000E+00 0. -1.
         11    1    3    3    0    0  0.17601028904E+02  0.33689467456E+02 -0.98706792963E+02  0.10577243220E+03  0.00000000000E+00 0.  1.
<mgrwt>
<rscale>  0 0.12086422E+03</rscale>
<asrwt>0</asrwt>
<pdfrwt beam="1">  1        2 0.11677070E-01 0.13012769E+03</pdfrwt>
<pdfrwt beam="2">  1       -2 0.28600052E-01 0.13012769E+03</pdfrwt>
<totfact> 0.55819702E+03</totfact>
</mgrwt>
</event>
<event>
 8    1  0.7550631E-006  0.1458621E+03  0.7546771E-02  0.1212545E+00
         -2   -1    0    0    0  501 -0.00000000000E+00  0.00000000000E+00  0.75309648904E+02  0.75309648904E+02  0.00000000000E+00 0. -1.
          2   -1    0    0  501    0  0.00000000000E+00 -0.00000000000E+00 -0.40446285958E+03  0.40446285958E+03  0.00000000000E+00 0.  1.
         23    2    1    2    0    0  0.39657748567E+02 -0.63839666302E+02 -0.69152488350E+01  0.12605925672E+03  0.10096967626E+03 0.  0.
         23    2    1    2    0    0 -0.39657748567E+02  0.63839666302E+02 -0.32223796184E+03  0.35371325177E+03  0.12501008122E+03 0.  0.
          5    1    4    4  502    0  0.41500846616E+02  0.12255342034E+02 -0.58251670651E+02  0.72717678813E+02  0.47000000000E+01 0. -1.
         -5    1    4    4    0  502 -0.81158595183E+02  0.51584324268E+02 -0.26398629119E+03  0.28099557295E+03  0.47000000000E+01 0. -1.
        -11    1    3    3    0    0  0.24232451268E+02 -0.35937887252E+02  0.46678503858E+02  0.63699498875E+02  0.00000000000E+00 0. -1.
         11    1    3    3    0    0  0.15425297299E+02 -0.27901779050E+02 -0.53593752693E+02  0.62359757846E+02  0.00000000000E+00 0.  1.
<mgrwt>
<rscale>  0 0.14058435E+03</rscale>
<asrwt>0</asrwt>
<pdfrwt beam="2">  1        2 0.62225055E-01 0.14586213E+03</pdfrwt>
<pdfrwt beam="1">  1       -2 0.11586100E-01 0.14586213E+03</pdfrwt>
<totfact> 0.40009693E+03</totfact>
</mgrwt>
</event>
<event>
 8    1  0.7550631E-006  0.1718510E+03  0.7546771E-02  0.1182208E+00
          1   -1    0    0  501    0  0.00000000000E+00  0.00000000000E+00  0.58009210877E+03  0.58009210877E+03  0.00000000000E+00 0. -1.
         -1   -1    0    0    0  501 -0.00000000000E+00 -0.00000000000E+00 -0.44531606202E+02  0.44531606202E+02  0.00000000000E+00 0.  1.
         23    2    1    2    0    0 -0.96058238699E+01  0.11754652775E+03  0.23344228980E+03  0.27704898791E+03  0.91385890550E+02 0.  0.
         23    2    1    2    0    0  0.96058238699E+01 -0.11754652775E+03  0.30211821276E+03  0.34757472706E+03  0.12499327330E+03 0.  0.
          5    1    4    4  502    0  0.11144613399E+02 -0.10874977794E+03  0.10987058642E+03  0.15506241443E+03  0.47000000000E+01 0. -1.
         -5    1    4    4    0  502 -0.15387895290E+01 -0.87967498173E+01  0.19224762634E+03  0.19251231263E+03  0.47000000000E+01 0. -1.
        -11    1    3    3    0    0 -0.62349073692E+01  0.90117766274E+02  0.78543956505E+02  0.11970479928E+03  0.00000000000E+00 0.  1.
         11    1    3    3    0    0 -0.33709165008E+01  0.27428761479E+02  0.15489833330E+03  0.15734418862E+03  0.00000000000E+00 0. -1.
<mgrwt>
<rscale>  0 0.16588488E+03</rscale>
<asrwt>0</asrwt>
<pdfrwt beam="1">  1        1 0.89244934E-01 0.17185103E+03</pdfrwt>
<pdfrwt beam="2">  1       -1 0.68510168E-02 0.17185103E+03</pdfrwt>
<totfact> 0.39465405E+03</totfact>
</mgrwt>
</event>
<event>
 8    1  0.7550631E-006  0.1504802E+03  0.7546771E-02  0.1208934E+00
          1   -1    0    0  501    0  0.00000000000E+00  0.00000000000E+00  0.25007000087E+03  0.25007000087E+03  0.00000000000E+00 0. -1.
         -1   -1    0    0    0  501 -0.00000000000E+00 -0.00000000000E+00 -0.77147112919E+02  0.77147112919E+02  0.00000000000E+00 0.  1.
         23    2    1    2    0    0 -0.10585360022E+01 -0.83773164646E+02  0.52482305642E+02  0.13447320571E+03  0.91156936295E+02 0.  0.
         23    2    1    2    0    0  0.10585360022E+01  0.83773164646E+02  0.12044058231E+03  0.19274390808E+03  0.12500086649E+03 0.  0.
          5    1    4    4  502    0 -0.53615631709E+02  0.45320955387E+01  0.40233908140E+02  0.67350079568E+02  0.47000000000E+01 0. -1.
         -5    1    4    4    0  502  0.54674167712E+02  0.79241069107E+02  0.80206674170E+02  0.12539382851E+03  0.47000000000E+01 0. -1.
        -11    1    3    3    0    0  0.12362306214E+02  0.65276871277E+01  0.39948628891E+02  0.42324109730E+02  0.00000000000E+00 0. -1.
         11    1    3    3    0    0 -0.13420842216E+02 -0.90300851773E+02  0.12533676751E+02  0.92149095979E+02  0.00000000000E+00 0.  1.
<mgrwt>
<rscale>  0 0.14331691E+03</rscale>
<asrwt>0</asrwt>
<pdfrwt beam="1">  1        1 0.38472308E-01 0.15048017E+03</pdfrwt>
<pdfrwt beam="2">  1       -1 0.11868787E-01 0.15048017E+03</pdfrwt>
<totfact> 0.49582962E+03</totfact>
</mgrwt>
</event>
<event>
 8    1  0.7550631E-006  0.1261008E+03  0.7546771E-02  0.1248994E+00
          1   -1    0    0  501    0  0.00000000000E+00  0.00000000000E+00  0.39875625198E+03  0.39875625198E+03  0.00000000000E+00 0. -1.
         -1   -1    0    0    0  501 -0.00000000000E+00 -0.00000000000E+00 -0.39318885338E+02  0.39318885338E+02  0.00000000000E+00 0.  1.
         23    2    1    2    0    0  0.11978110067E+02 -0.11399464969E+02  0.51461325026E+02  0.10528291044E+03  0.90348217110E+02 0.  0.
         23    2    1    2    0    0 -0.11978110067E+02  0.11399464969E+02  0.30797604162E+03  0.33279222688E+03  0.12501200398E+03 0.  0.
          5    1    4    4  502    0  0.60191065285E+01 -0.34949106713E+02  0.26349903286E+03  0.26591634027E+03  0.47000000000E+01 0.  1.
         -5    1    4    4    0  502 -0.17997216595E+02  0.46348571682E+02  0.44477008762E+02  0.66875886615E+02  0.47000000000E+01 0.  1.
        -11    1    3    3    0    0  0.10867537108E+02  0.28784794951E+02  0.56930644637E+02  0.64712951423E+02  0.00000000000E+00 0. -1.
         11    1    3    3    0    0  0.11105729585E+01 -0.40184259920E+02 -0.54693196108E+01  0.40569959016E+02  0.00000000000E+00 0.  1.
<mgrwt>
<rscale>  0 0.11649493E+03</rscale>
<asrwt>0</asrwt>
<pdfrwt beam="1">  1        1 0.61347113E-01 0.12610085E+03</pdfrwt>
<pdfrwt beam="2">  1       -1 0.60490596E-02 0.12610085E+03</pdfrwt>
<totfact> 0.76193969E+03</totfact>
</mgrwt>
</event>
<event>
 8    1  0.7550631E-006  0.1488183E+03  0.7546771E-02  0.1210237E+00
          1   -1    0    0  501    0  0.00000000000E+00  0.00000000000E+00  0.11097986008E+03  0.11097986008E+03  0.00000000000E+00 0. -1.
         -1   -1    0    0    0  501 -0.00000000000E+00 -0.00000000000E+00 -0.19197660369E+03  0.19197660369E+03  0.00000000000E+00 0.  1.
         23    2    1    2    0    0  0.56703993210E+02  0.57506314897E+02 -0.90387024483E+02  0.15384218629E+03  0.94737980703E+02 0.  0.
         23    2    1    2    0    0 -0.56703993210E+02 -0.57506314897E+02  0.93902808777E+01  0.14911427748E+03  0.12499828509E+03 0.  0.
          5    1    4    4  502    0 -0.53751644696E+01 -0.87839192426E+02 -0.23775569754E+01  0.88160982846E+02  0.47000000000E+01 0. -1.
         -5    1    4    4    0  502 -0.51328828741E+02  0.30332877529E+02  0.11767837853E+02  0.60953294635E+02  0.47000000000E+01 0. -1.
        -11    1    3    3    0    0  0.30675546596E+02 -0.23658074487E+02 -0.21900980361E+02  0.44501085247E+02  0.00000000000E+00 0. -1.
         11    1    3    3    0    0  0.26028446614E+02  0.81164389384E+02 -0.68486044122E+02  0.10934110104E+03  0.00000000000E+00 0.  1.
<mgrwt>
<rscale>  0 0.14232309E+03</rscale>
<asrwt>0</asrwt>
<pdfrwt beam="1">  1        1 0.17073825E-01 0.14881831E+03</pdfrwt>
<pdfrwt beam="2">  1       -1 0.29534862E-01 0.14881831E+03</pdfrwt>
<totfact> 0.31929964E+03</totfact>
</mgrwt>
</event>
<event>
 8    1  0.7550631E-006  0.1290484E+03  0.7546771E-02  0.1241895E+00
         -1   -1    0    0    0  501 -0.00000000000E+00  0.00000000000E+00  0.28106768567E+02  0.28106768567E+02  0.00000000000E+00 0.  1.
          1   -1    0    0  501    0  0.00000000000E+00 -0.00000000000E+00 -0.52132310697E+03  0.52132310697E+03  0.00000000000E+00 0. -1.
         23    2    1    2    0    0 -0.21116628141E+02 -0.24159176054E+02 -0.12572076632E+03  0.15993471345E+03  0.93508415179E+02 0.  0.
         23    2    1    2    0    0  0.21116628141E+02  0.24159176054E+02 -0.36749557208E+03  0.38949516209E+03  0.12499563200E+03 0.  0.
          5    1    4    4  502    0  0.45939722821E+02  0.14159478272E+02 -0.35718101705E+03  0.36043212662E+03  0.47000000000E+01 0.  1.
         -5    1    4    4    0  502 -0.24823094680E+02  0.99996977826E+01 -0.10314555030E+02  0.29063035470E+02  0.47000000000E+01 0.  1.
        -11    1    3    3    0    0 -0.45261947035E+02 -0.28248307268E+02 -0.12445923215E+03  0.13541311303E+03  0.00000000000E+00 0. -1.
         11    1    3    3    0    0  0.24145318894E+02  0.40891312139E+01 -0.12615341714E+01  0.24521600418E+02  0.00000000000E+00 0.  1.
<mgrwt>
<rscale>  0 0.12073138E+03</rscale>
<asrwt>0</asrwt>
<pdfrwt beam="2">  1        1 0.80203551E-01 0.12904839E+03</pdfrwt>
<pdfrwt beam="1">  1       -1 0.43241184E-02 0.12904839E+03</pdfrwt>
<totfact> 0.88906472E+03</totfact>
</mgrwt>
</event>
<event>
 8    1  0.7550631E-006  0.1316074E+03  0.7546771E-02  0.1238019E+00
         -2   -1    0    0    0  501 -0.00000000000E+00  0.00000000000E+00  0.37358196983E+02  0.37358196983E+02  0.00000000000E+00 0.  1.
          2   -1    0    0  501    0  0.00000000000E+00 -0.00000000000E+00 -0.37543456897E+03  0.37543456897E+03  0.00000000000E+00 0. -1.
         23    2    1    2    0    0 -0.38351813979E+02 -0.15022278922E+02 -0.10817410881E+03  0.14788608717E+03  0.92044154957E+02 0.  0.
         23    2    1    2    0    0  0.38351813979E+02  0.15022278922E+02 -0.22990226318E+03  0.26490667879E+03  0.12499586934E+03 0.  0.
          5    1    4    4  502    0  0.88104182789E+01  0.38629093775E+02 -0.92090678003E+01  0.40947860577E+02  0.47000000000E+01 0.  1.
         -5    1    4    4    0  502  0.29541395701E+02 -0.23606814852E+02 -0.22069319538E+03  0.22395881821E+03  0.47000000000E+01 0.  1.
        -11    1    3    3    0    0 -0.40655207264E+02  0.10478919591E+02 -0.58290780461E+01  0.42386693482E+02  0.00000000000E+00 0.  1.
         11    1    3    3    0    0  0.23033932846E+01 -0.25501198513E+02 -0.10234503076E+03  0.10549939369E+03  0.00000000000E+00 0. -1.
<mgrwt>
<rscale>  0 0.12313119E+03</rscale>
<asrwt>0</asrwt>
<pdfrwt beam="2">  1        2 0.57759167E-01 0.13160736E+03</pdfrwt>
<pdfrwt beam="1">  1       -2 0.57474147E-02 0.13160736E+03</pdfrwt>
<totfact> 0.12751678E+04</totfact>
</mgrwt>
</event>
<event>
 7    1  0.7550631E-006  0.3385412E+03  0.7546771E-02  0.1110396E+00
          1   -1    0    0  501    0  0.00000000000E+00  0.00000000000E+00  0.90715587274E+03  0.90715587274E+03  0.00000000000E+00 0. -1.
         -1   -1    0    0    0  501 -0.00000000000E+00 -0.00000000000E+00 -0.19292067087E+03  0.19292067087E+03  0.00000000000E+00 0.  1.
         23    2    1    2    0    0 -0.51600270813E+02 -0.29552077188E+02 -0.14240751288E+03  0.17896476380E+03  0.90623251657E+02 0.  0.
          5    1    1    2  502    0  0.15399094539E+03 -0.91928167909E+02  0.43872019629E+03  0.47398470434E+03  0.47000000000E+01 0. -1.
         -5    1    1    2    0  502 -0.10239067457E+03  0.12148024510E+03  0.41792251846E+03  0.44712707548E+03  0.47000000000E+01 0.  1.
        -11    1    3    3    0    0 -0.63245524474E+02 -0.46470657577E+01 -0.13697110559E+03  0.15093931016E+03  0.00000000000E+00 0.  1.
         11    1    3    3    0    0  0.11645253661E+02 -0.24905011431E+02 -0.54364072969E+01  0.28025453636E+02  0.00000000000E+00 0. -1.
<mgrwt>
<rscale>  0 0.25465747E+03</rscale>
<asrwt>0</asrwt>
<pdfrwt beam="1">  1        1 0.13956244E+00 0.33854124E+03</pdfrwt>
<pdfrwt beam="2">  1       -1 0.29680104E-01 0.33854124E+03</pdfrwt>
<totfact> 0.19622393E+02</totfact>
</mgrwt>
</event>
<event>
 8    1  0.7550631E-006  0.1614660E+03  0.7546771E-02  0.1196379E+00
         -3   -1    0    0    0  501 -0.00000000000E+00  0.00000000000E+00  0.40477614315E+03  0.40477614315E+03  0.00000000000E+00 0.  1.
          3   -1    0    0  501    0  0.00000000000E+00 -0.00000000000E+00 -0.16101036144E+03  0.16101036144E+03  0.00000000000E+00 0. -1.
         23    2    1    2    0    0  0.97964490668E+02  0.29136179912E+02  0.34907521128E+03  0.37301368617E+03  0.82702772192E+02 0.  0.
         23    2    1    2    0    0 -0.97964490668E+02 -0.29136179912E+02 -0.10530942957E+03  0.19277281841E+03  0.12500130060E+03 0.  0.
          5    1    4    4  502    0 -0.12615488024E+03 -0.37396133001E+02 -0.83980718893E+02  0.15616778067E+03  0.47000000000E+01 0. -1.
         -5    1    4    4    0  502  0.28190389575E+02  0.82599530893E+01 -0.21328710677E+02  0.36605037748E+02  0.47000000000E+01 0. -1.
        -11    1    3    3    0    0  0.50232853421E+01 -0.21027239290E+02  0.10277951320E+03  0.10502859859E+03  0.00000000000E+00 0.  1.
         11    1    3    3    0    0  0.92941205326E+02  0.50163419202E+02  0.24629569808E+03  0.26798508758E+03  0.00000000000E+00 0. -1.
<mgrwt>
<rscale>  0 0.15338108E+03</rscale>
<asrwt>0</asrwt>
<pdfrwt beam="2">  1        3 0.24770825E-01 0.16146604E+03</pdfrwt>
<pdfrwt beam="1">  1       -3 0.62273252E-01 0.16146604E+03</pdfrwt>
<totfact> 0.93193325E+01</totfact>
</mgrwt>
</event>
<event>
 8    1  0.7550631E-006  0.1258163E+03  0.7546771E-02  0.1248967E+00
          2   -1    0    0  501    0  0.00000000000E+00  0.00000000000E+00  0.17184584715E+03  0.17184584715E+03  0.00000000000E+00 0. -1.
         -2   -1    0    0    0  501 -0.00000000000E+00 -0.00000000000E+00 -0.70562408312E+02  0.70562408312E+02  0.00000000000E+00 0.  1.
         23    2    1    2    0    0  0.11058250097E+02 -0.90256768479E+01  0.27369282540E+02  0.96486914437E+02  0.91416077869E+02 0.  0.
         23    2    1    2    0    0 -0.11058250097E+02  0.90256768479E+01  0.73914156303E+02  0.14592134103E+03  0.12500395005E+03 0.  0.
          5    1    4    4  502    0 -0.35959797120E+02  0.12913375033E+02  0.10132377287E+03  0.10839030958E+03  0.47000000000E+01 0.  1.
         -5    1    4    4    0  502  0.24901547023E+02 -0.38876981855E+01 -0.27409616563E+02  0.37531031447E+02  0.47000000000E+01 0.  1.
        -11    1    3    3    0    0 -0.85448991272E+01 -0.16319561944E+02 -0.30122397501E+02  0.35308670810E+02  0.00000000000E+00 0.  1.
         11    1    3    3    0    0  0.19603149224E+02  0.72938850966E+01  0.57491680041E+02  0.61178243626E+02  0.00000000000E+00 0. -1.
<mgrwt>
<rscale>  0 0.11651074E+03</rscale>
<asrwt>0</asrwt>
<pdfrwt beam="1">  1        2 0.26437823E-01 0.12581628E+03</pdfrwt>
<pdfrwt beam="2">  1       -2 0.10855755E-01 0.12581628E+03</pdfrwt>
<totfact> 0.10975063E+04</totfact>
</mgrwt>
</event>
<event>
 8    1  0.7550631E-006  0.1508519E+03  0.7546771E-02  0.1208417E+00
         -1   -1    0    0    0  501 -0.00000000000E+00  0.00000000000E+00  0.51623144984E+02  0.51623144984E+02  0.00000000000E+00 0.  1.
          1   -1    0    0  501    0  0.00000000000E+00 -0.00000000000E+00 -0.38154819144E+03  0.38154819144E+03  0.00000000000E+00 0. -1.
         23    2    1    2    0    0  0.15867312556E+02  0.82933869700E+02 -0.10689296195E+03  0.16391380961E+03  0.91169256414E+02 0.  0.
         23    2    1    2    0    0 -0.15867312556E+02 -0.82933869700E+02 -0.22303208450E+03  0.26925752681E+03  0.12500602656E+03 0.  0.
          5    1    4    4  502    0 -0.69979647030E+02 -0.57777190244E+02 -0.13973112098E+03  0.16668002544E+03  0.47000000000E+01 0. -1.
         -5    1    4    4    0  502  0.54112334475E+02 -0.25156679457E+02 -0.83300963529E+02  0.10257750138E+03  0.47000000000E+01 0. -1.
        -11    1    3    3    0    0 -0.38187564884E+02  0.39099090776E+02 -0.48325796717E+02  0.72954860288E+02  0.00000000000E+00 0.  1.
         11    1    3    3    0    0  0.54054877440E+02  0.43834778924E+02 -0.58567165235E+02  0.90958949324E+02  0.00000000000E+00 0. -1.
<mgrwt>
<rscale>  0 0.14371424E+03</rscale>
<asrwt>0</asrwt>
<pdfrwt beam="2">  1        1 0.58699723E-01 0.15085193E+03</pdfrwt>
<pdfrwt beam="1">  1       -1 0.79420221E-02 0.15085193E+03</pdfrwt>
<totfact> 0.54135619E+03</totfact>
</mgrwt>
</event>
<event>
 8    1  0.7550631E-006  0.1438166E+03  0.7546771E-02  0.1212004E+00
          2   -1    0    0  501    0  0.00000000000E+00  0.00000000000E+00  0.33718341939E+03  0.33718341939E+03  0.00000000000E+00 0.  1.
         -2   -1    0    0    0  501 -0.00000000000E+00 -0.00000000000E+00 -0.58107356868E+02  0.58107356868E+02  0.00000000000E+00 0. -1.
         23    2    1    2    0    0 -0.52892581151E+01  0.70925597211E+02  0.10391525715E+03  0.16865334050E+03  0.11219247747E+03 0.  0.
         23    2    1    2    0    0  0.52892581151E+01 -0.70925597211E+02  0.17516080537E+03  0.22663743576E+03  0.12499921183E+03 0.  0.
          5    1    4    4  502    0  0.52758736031E+02 -0.56471584143E+01  0.11206635909E+03  0.12408196269E+03  0.47000000000E+01 0.  1.
         -5    1    4    4    0  502 -0.47469477916E+02 -0.65278438797E+02  0.63094446287E+02  0.10255547307E+03  0.47000000000E+01 0.  1.
        -11    1    3    3    0    0 -0.72163167714E+01  0.10140722596E+03  0.72713001174E+02  0.12499072463E+03  0.00000000000E+00 0.  1.
         11    1    3    3    0    0  0.19270586563E+01 -0.30481628747E+02  0.31202255980E+02  0.43662615867E+02  0.00000000000E+00 0. -1.
<mgrwt>
<rscale>  0 0.14098933E+03</rscale>
<asrwt>0</asrwt>
<pdfrwt beam="1">  1        2 0.51874371E-01 0.14381662E+03</pdfrwt>
<pdfrwt beam="2">  1       -2 0.89395936E-02 0.14381662E+03</pdfrwt>
<totfact> 0.73055493E+03</totfact>
</mgrwt>
</event>
<event>
 8    1  0.7550631E-006  0.1377561E+03  0.7546771E-02  0.1227669E+00
          2   -1    0    0  501    0  0.00000000000E+00  0.00000000000E+00  0.40279690377E+03  0.40279690377E+03  0.00000000000E+00 0. -1.
         -2   -1    0    0    0  501 -0.00000000000E+00 -0.00000000000E+00 -0.42441977437E+02  0.42441977437E+02  0.00000000000E+00 0.  1.
         23    2    1    2    0    0 -0.48377742033E+02 -0.31811944168E+02  0.87562089639E+02  0.13963671897E+03  0.92080877642E+02 0.  0.
         23    2    1    2    0    0  0.48377742033E+02  0.31811944168E+02  0.27279283669E+03  0.30560216223E+03  0.12499737635E+03 0.  0.
          5    1    4    4  502    0 -0.73445550771E+01 -0.43243509876E+02  0.91075568070E+02  0.10119680200E+03  0.47000000000E+01 0. -1.
         -5    1    4    4    0  502  0.55722297110E+02  0.75055454044E+02  0.18171726862E+03  0.20440536023E+03  0.47000000000E+01 0. -1.
        -11    1    3    3    0    0 -0.40371183343E+02 -0.11181550561E+02  0.10396729395E+03  0.11208950766E+03  0.00000000000E+00 0. -1.
         11    1    3    3    0    0 -0.80065586900E+01 -0.20630393606E+02 -0.16405204309E+02  0.27547211308E+02  0.00000000000E+00 0.  1.
<mgrwt>
<rscale>  0 0.12985606E+03</rscale>
<asrwt>0</asrwt>
<pdfrwt beam="1">  1        2 0.61968752E-01 0.13775612E+03</pdfrwt>
<pdfrwt beam="2">  1       -2 0.65295352E-02 0.13775612E+03</pdfrwt>
<totfact> 0.97804974E+03</totfact>
</mgrwt>
</event>
<event>
 8    1  0.7550631E-006  0.1483847E+03  0.7546771E-02  0.1212405E+00
         -2   -1    0    0    0  501 -0.00000000000E+00  0.00000000000E+00  0.37135617441E+02  0.37135617441E+02  0.00000000000E+00 0. -1.
          2   -1    0    0  501    0  0.00000000000E+00 -0.00000000000E+00 -0.53877424117E+03  0.53877424117E+03  0.00000000000E+00 0.  1.
         23    2    1    2    0    0 -0.37995600348E+02  0.70345911551E+02 -0.13603507897E+03  0.18134176957E+03  0.89370474787E+02 0.  0.
         23    2    1    2    0    0  0.37995600348E+02 -0.70345911551E+02 -0.36560354476E+03  0.39456808904E+03  0.12500324807E+03 0.  0.
          5    1    4    4  502    0  0.71967398283E+02 -0.18236891523E+02 -0.27269340310E+03  0.28265822599E+03  0.47000000000E+01 0. -1.
         -5    1    4    4    0  502 -0.33971797935E+02 -0.52109020028E+02 -0.92910141660E+02  0.11190986304E+03  0.47000000000E+01 0. -1.
        -11    1    3    3    0    0  0.23581551280E+02  0.28547766731E+01 -0.52177886190E+02  0.57330368199E+02  0.00000000000E+00 0.  1.
         11    1    3    3    0    0 -0.61577151628E+02  0.67491134877E+02 -0.83857192778E+02  0.12401140137E+03  0.00000000000E+00 0. -1.
<mgrwt>
<rscale>  0 0.14068866E+03</rscale>
<asrwt>0</asrwt>
<pdfrwt beam="2">  1        2 0.82888345E-01 0.14838472E+03</pdfrwt>
<pdfrwt beam="1">  1       -2 0.57131719E-02 0.14838472E+03</pdfrwt>
<totfact> 0.87688636E+03</totfact>
</mgrwt>
</event>
<event>
 8    1  0.7550631E-006  0.1155971E+03  0.7546771E-02  0.1260080E+00
          1   -1    0    0  501    0  0.00000000000E+00  0.00000000000E+00  0.14193338279E+04  0.14193338279E+04  0.00000000000E+00 0. -1.
         -1   -1    0    0    0  501 -0.00000000000E+00 -0.00000000000E+00 -0.90370043330E+01  0.90370043330E+01  0.00000000000E+00 0.  1.
         23    2    1    2    0    0  0.26357381184E+02 -0.97200384827E+01  0.39104217502E+03  0.40258199583E+03  0.91482730758E+02 0.  0.
         23    2    1    2    0    0 -0.26357381184E+02  0.97200384827E+01  0.10192546486E+04  0.10257888365E+04  0.11213165309E+03 0.  0.
          5    1    4    4  502    0 -0.14537131114E+02  0.60850770585E+02  0.58144363068E+03  0.58481871561E+03  0.47000000000E+01 0. -1.
         -5    1    4    4    0  502 -0.11820250070E+02 -0.51130732102E+02  0.43781101791E+03  0.44097012085E+03  0.47000000000E+01 0.  1.
        -11    1    3    3    0    0  0.58789196187E+02  0.70094376483E+01  0.24276402492E+03  0.24987931807E+03  0.00000000000E+00 0.  1.
         11    1    3    3    0    0 -0.32431815003E+02 -0.16729476131E+02  0.14827815011E+03  0.15270267776E+03  0.00000000000E+00 0. -1.
<mgrwt>
<rscale>  0 0.11026484E+03</rscale>
<asrwt>0</asrwt>
<pdfrwt beam="1">  1        1 0.21835887E+00 0.11559714E+03</pdfrwt>
<pdfrwt beam="2">  1       -1 0.13903095E-02 0.11559714E+03</pdfrwt>
<totfact> 0.91178909E+03</totfact>
</mgrwt>
</event>
<event>
 7    1  0.7550631E-006  0.1547617E+03  0.7546771E-02  0.1210769E+00
         -1   -1    0    0    0  501 -0.00000000000E+00  0.00000000000E+00  0.11418505904E+03  0.11418505904E+03  0.00000000000E+00 0.  1.
          1   -1    0    0  501    0  0.00000000000E+00 -0.00000000000E+00 -0.36473847364E+03  0.36473847364E+03  0.00000000000E+00 0. -1.
         23    2    1    2    0    0 -0.14333555939E+02 -0.58760921272E+02  0.65122976313E+02  0.12735167239E+03  0.91209372992E+02 0.  0.
          5    1    1    2  502    0 -0.24111896413E+02  0.51579467817E+02 -0.30562362113E+03  0.31091753383E+03  0.47000000000E+01 0. -1.
         -5    1    1    2    0  502  0.38445452351E+02  0.71814534559E+01 -0.10052769775E+02  0.40654326466E+02  0.47000000000E+01 0.  1.
        -11    1    3    3    0    0 -0.78085722626E+01 -0.81371528678E+02  0.34491875377E+02  0.88724229763E+02  0.00000000000E+00 0.  1.
         11    1    3    3    0    0 -0.65249836761E+01  0.22610607405E+02  0.30631100936E+02  0.38627442625E+02  0.00000000000E+00 0. -1.
<mgrwt>
<rscale>  0 0.14191986E+03</rscale>
<asrwt>0</asrwt>
<pdfrwt beam="2">  1        1 0.56113611E-01 0.15476172E+03</pdfrwt>
<pdfrwt beam="1">  1       -1 0.17566932E-01 0.15476172E+03</pdfrwt>
<totfact> 0.16781970E+03</totfact>
</mgrwt>
</event>
<event>
 8    1  0.7550631E-006  0.1528343E+03  0.7546771E-02  0.1205997E+00
         -2   -1    0    0    0  501 -0.00000000000E+00  0.00000000000E+00  0.83097484448E+02  0.83097484448E+02  0.00000000000E+00 0.  1.
          2   -1    0    0  501    0  0.00000000000E+00 -0.00000000000E+00 -0.23630019757E+03  0.23630019757E+03  0.00000000000E+00 0. -1.
         23    2    1    2    0    0  0.49103467344E+02 -0.72945459415E+02 -0.86034691230E+02  0.15245501091E+03  0.90046497447E+02 0.  0.
         23    2    1    2    0    0 -0.49103467344E+02  0.72945459415E+02 -0.67168021889E+02  0.16694267110E+03  0.12500448678E+03 0.  0.
          5    1    4    4  502    0 -0.58199097727E+02  0.93387306253E+02 -0.84031182624E+02  0.13853394385E+03  0.47000000000E+01 0.  1.
         -5    1    4    4    0  502  0.90956303824E+01 -0.20441846838E+02  0.16863160735E+02  0.28408727254E+02  0.47000000000E+01 0.  1.
        -11    1    3    3    0    0  0.11025288696E+02 -0.76695580304E+02 -0.26898844723E+02  0.82020222362E+02  0.00000000000E+00 0.  1.
         11    1    3    3    0    0  0.38078178649E+02  0.37501208886E+01 -0.59135846507E+02  0.70434788549E+02  0.00000000000E+00 0. -1.
<mgrwt>
<rscale>  0 0.14559179E+03</rscale>
<asrwt>0</asrwt>
<pdfrwt beam="2">  1        2 0.36353876E-01 0.15283426E+03</pdfrwt>
<pdfrwt beam="1">  1       -2 0.12784228E-01 0.15283426E+03</pdfrwt>
<totfact> 0.60761849E+03</totfact>
</mgrwt>
</event>
<event>
 8    1  0.7550631E-006  0.1486123E+03  0.7546771E-02  0.1211459E+00
          2   -1    0    0  501    0  0.00000000000E+00  0.00000000000E+00  0.31846985701E+03  0.31846985701E+03  0.00000000000E+00 0. -1.
         -2   -1    0    0    0  501 -0.00000000000E+00 -0.00000000000E+00 -0.57826935077E+02  0.57826935077E+02  0.00000000000E+00 0.  1.
         23    2    1    2    0    0  0.64667112178E+02 -0.47721060875E+02  0.10136712476E+03  0.15845651057E+03  0.91509762919E+02 0.  0.
         23    2    1    2    0    0 -0.64667112178E+02  0.47721060875E+02  0.15927579717E+03  0.21784028152E+03  0.12500589442E+03 0.  0.
          5    1    4    4  502    0 -0.79246274178E+02  0.51470590860E+02  0.17283910968E+03  0.19703969532E+03  0.47000000000E+01 0. -1.
         -5    1    4    4    0  502  0.14579162000E+02 -0.37495299856E+01 -0.13563312519E+02  0.20800586199E+02  0.47000000000E+01 0. -1.
        -11    1    3    3    0    0  0.14583653660E+02  0.27664685274E+02  0.27011308374E+02  0.41323462409E+02  0.00000000000E+00 0. -1.
         11    1    3    3    0    0  0.50083458518E+02 -0.75385746149E+02  0.74355816389E+02  0.11713304816E+03  0.00000000000E+00 0.  1.
<mgrwt>
<rscale>  0 0.14139865E+03</rscale>
<asrwt>0</asrwt>
<pdfrwt beam="1">  1        2 0.48995361E-01 0.14861228E+03</pdfrwt>
<pdfrwt beam="2">  1       -2 0.88964518E-02 0.14861228E+03</pdfrwt>
<totfact> 0.78382091E+03</totfact>
</mgrwt>
</event>
<event>
 8    1  0.7550631E-006  0.1378465E+03  0.7546771E-02  0.1228617E+00
          2   -1    0    0  501    0  0.00000000000E+00  0.00000000000E+00  0.19119199414E+03  0.19119199414E+03  0.00000000000E+00 0. -1.
         -2   -1    0    0    0  501 -0.00000000000E+00 -0.00000000000E+00 -0.95083516398E+02  0.95083516398E+02  0.00000000000E+00 0.  1.
         23    2    1    2    0    0  0.56888847584E+02  0.11794012761E+02 -0.17209445346E+02  0.10783050843E+03  0.89195368841E+02 0.  0.
         23    2    1    2    0    0 -0.56888847584E+02 -0.11794012761E+02  0.11331792309E+03  0.17844500211E+03  0.12500490938E+03 0.  0.
          5    1    4    4  502    0 -0.96429181350E+02 -0.14484489139E+02  0.85783717555E+02  0.12995893059E+03  0.47000000000E+01 0.  1.
         -5    1    4    4    0  502  0.39540333766E+02  0.26904763777E+01  0.27534205534E+02  0.48486071524E+02  0.47000000000E+01 0.  1.
        -11    1    3    3    0    0  0.19245619662E+02  0.21646589936E+02 -0.49442930917E+02  0.57302461986E+02  0.00000000000E+00 0.  1.
         11    1    3    3    0    0  0.37643227922E+02 -0.98525771749E+01  0.32233485570E+02  0.50528046443E+02  0.00000000000E+00 0. -1.
<mgrwt>
<rscale>  0 0.12922056E+03</rscale>
<asrwt>0</asrwt>
<pdfrwt beam="1">  1        2 0.29414153E-01 0.13784653E+03</pdfrwt>
<pdfrwt beam="2">  1       -2 0.14628233E-01 0.13784653E+03</pdfrwt>
<totfact> 0.60976189E+03</totfact>
</mgrwt>
</event>
<event>
 8    1  0.7550631E-006  0.1358620E+03  0.7546771E-02  0.1229771E+00
         -2   -1    0    0    0  501 -0.00000000000E+00  0.00000000000E+00  0.41068185011E+02  0.41068185011E+02  0.00000000000E+00 0. -1.
          2   -1    0    0  501    0  0.00000000000E+00 -0.00000000000E+00 -0.39377550700E+03  0.39377550700E+03  0.00000000000E+00 0.  1.
         23    2    1    2    0    0 -0.46390414255E+02 -0.26111522705E+02 -0.98398595344E+02  0.14651849246E+03  0.94612382454E+02 0.  0.
         23    2    1    2    0    0  0.46390414255E+02  0.26111522705E+02 -0.25430872664E+03  0.28832519955E+03  0.12499844038E+03 0.  0.
          5    1    4    4  502    0 -0.71678265124E+01  0.52871318287E+02 -0.20102879033E+03  0.20804186737E+03  0.47000000000E+01 0.  1.
         -5    1    4    4    0  502  0.53558240768E+02 -0.26759795582E+02 -0.53279936310E+02  0.80283332186E+02  0.47000000000E+01 0.  1.
        -11    1    3    3    0    0 -0.59216185768E+02  0.13745928038E+02 -0.33851008362E+02  0.69580154941E+02  0.00000000000E+00 0. -1.
         11    1    3    3    0    0  0.12825771512E+02 -0.39857450743E+02 -0.64547586982E+02  0.76938337517E+02  0.00000000000E+00 0.  1.
<mgrwt>
<rscale>  0 0.12845220E+03</rscale>
<asrwt>0</asrwt>
<pdfrwt beam="2">  1        2 0.60580848E-01 0.13586203E+03</pdfrwt>
<pdfrwt beam="1">  1       -2 0.63181822E-02 0.13586203E+03</pdfrwt>
<totfact> 0.10524689E+04</totfact>
</mgrwt>
</event>
<event>
 8    1  0.7550631E-006  0.2409347E+03  0.7546771E-02  0.1122129E+00
          2   -1    0    0  501    0  0.00000000000E+00  0.00000000000E+00  0.16048997632E+04  0.16048997632E+04  0.00000000000E+00 0. -1.
         -2   -1    0    0    0  501 -0.00000000000E+00 -0.00000000000E+00 -0.34590943619E+02  0.34590943619E+02  0.00000000000E+00 0.  1.
         23    2    1    2    0    0 -0.20557912306E+03 -0.12693736600E+02  0.62114730510E+03  0.66022715428E+03  0.87475789911E+02 0.  0.
         23    2    1    2    0    0  0.20557912306E+03  0.12693736600E+02  0.94916151445E+03  0.97926355252E+03  0.12500247192E+03 0.  0.
          5    1    4    4  502    0  0.19116210837E+01 -0.62218765381E+01 -0.27420499470E+00  0.80331333365E+01  0.47000000000E+01 0.  1.
         -5    1    4    4    0  502  0.20366750197E+03  0.18915613138E+02  0.94943571945E+03  0.97123041918E+03  0.47000000000E+01 0.  1.
        -11    1    3    3    0    0 -0.19220998993E+03  0.61044500516E+01  0.59526329424E+03  0.62555601988E+03  0.00000000000E+00 0.  1.
         11    1    3    3    0    0 -0.13369133124E+02 -0.18798186652E+02  0.25884010867E+02  0.34671134398E+02  0.00000000000E+00 0. -1.
<mgrwt>
<rscale>  0 0.23652558E+03</rscale>
<asrwt>0</asrwt>
<pdfrwt beam="1">  1        2 0.24690760E+00 0.24093469E+03</pdfrwt>
<pdfrwt beam="2">  1       -2 0.53216849E-02 0.24093469E+03</pdfrwt>
<totfact> 0.21366615E+03</totfact>
</mgrwt>
</event>
<event>
 8    1  0.7550631E-006  0.1375955E+03  0.7546771E-02  0.1228194E+00
         -1   -1    0    0    0  501 -0.00000000000E+00  0.00000000000E+00  0.49323700204E+02  0.49323700204E+02  0.00000000000E+00 0.  1.
          1   -1    0    0  501    0  0.00000000000E+00 -0.00000000000E+00 -0.37761324274E+03  0.37761324274E+03  0.00000000000E+00 0. -1.
         23    2    1    2    0    0 -0.14756123264E+02  0.55592624429E+02 -0.55482920174E+02  0.12139483991E+03  0.91378715585E+02 0.  0.
         23    2    1    2    0    0  0.14756123264E+02 -0.55592624429E+02 -0.27280662236E+03  0.30554210303E+03  0.12499696179E+03 0.  0.
          5    1    4    4  502    0  0.47521207170E+02 -0.59107720013E+02 -0.81766058825E+02  0.11162332226E+03  0.47000000000E+01 0.  1.
         -5    1    4    4    0  502 -0.32765083907E+02  0.35150955840E+01 -0.19104056354E+03  0.19391878078E+03  0.47000000000E+01 0.  1.
        -11    1    3    3    0    0  0.84933653232E+01  0.75925571761E+02 -0.33155201015E+02  0.83283233943E+02  0.00000000000E+00 0. -1.
         11    1    3    3    0    0 -0.23249488587E+02 -0.20332947332E+02 -0.22327719159E+02  0.38111605970E+02  0.00000000000E+00 0.  1.
<mgrwt>
<rscale>  0 0.12950390E+03</rscale>
<asrwt>0</asrwt>
<pdfrwt beam="2">  1        1 0.58094344E-01 0.13759551E+03</pdfrwt>
<pdfrwt beam="1">  1       -1 0.75882617E-02 0.13759551E+03</pdfrwt>
<totfact> 0.58442428E+03</totfact>
</mgrwt>
</event>
<event>
 8    1  0.7550631E-006  0.1766868E+03  0.7546771E-02  0.1176997E+00
         -2   -1    0    0    0  501 -0.00000000000E+00  0.00000000000E+00  0.34981490213E+02  0.34981490213E+02  0.00000000000E+00 0.  1.
          2   -1    0    0  501    0  0.00000000000E+00 -0.00000000000E+00 -0.82270734131E+03  0.82270734131E+03  0.00000000000E+00 0. -1.
         23    2    1    2    0    0 -0.12332079523E+03 -0.19583053510E+02 -0.27480826438E+03  0.31519211110E+03  0.90746736630E+02 0.  0.
         23    2    1    2    0    0  0.12332079523E+03  0.19583053510E+02 -0.51291758672E+03  0.54249672042E+03  0.12500690535E+03 0.  0.
          5    1    4    4  502    0  0.12415400972E+03  0.38875574991E+02 -0.28057405681E+03  0.30930473616E+03  0.47000000000E+01 0.  1.
         -5    1    4    4    0  502 -0.83321449159E+00 -0.19292521482E+02 -0.23234352991E+03  0.23319198426E+03  0.47000000000E+01 0.  1.
        -11    1    3    3    0    0 -0.71801619148E+02 -0.43622840086E+02 -0.96039176894E+02  0.12760073741E+03  0.00000000000E+00 0.  1.
         11    1    3    3    0    0 -0.51519176077E+02  0.24039786576E+02 -0.17876908748E+03  0.18759137369E+03  0.00000000000E+00 0. -1.
<mgrwt>
<rscale>  0 0.17081880E+03</rscale>
<asrwt>0</asrwt>
<pdfrwt beam="2">  1        2 0.12657036E+00 0.17668684E+03</pdfrwt>
<pdfrwt beam="1">  1       -2 0.53817678E-02 0.17668684E+03</pdfrwt>
<totfact> 0.58713654E+03</totfact>
</mgrwt>
</event>
<event>
 8    1  0.7550631E-006  0.1789946E+03  0.7546771E-02  0.1175949E+00
         -2   -1    0    0    0  501 -0.00000000000E+00  0.00000000000E+00  0.38124976711E+02  0.38124976711E+02  0.00000000000E+00 0.  1.
          2   -1    0    0  501    0  0.00000000000E+00 -0.00000000000E+00 -0.72167205542E+03  0.72167205542E+03  0.00000000000E+00 0. -1.
         23    2    1    2    0    0  0.10985650894E+03  0.65932852503E+02 -0.28902155553E+03  0.32656561010E+03  0.81829362339E+02 0.  0.
         23    2    1    2    0    0 -0.10985650894E+03 -0.65932852503E+02 -0.39452552318E+03  0.43323142203E+03  0.12499393186E+03 0.  0.
          5    1    4    4  502    0 -0.17209440838E+02  0.33909194362E+02 -0.13185793795E+03  0.13731206835E+03  0.47000000000E+01 0. -1.
         -5    1    4    4    0  502 -0.92647068104E+02 -0.99842046866E+02 -0.26266758523E+03  0.29591935368E+03  0.47000000000E+01 0. -1.
        -11    1    3    3    0    0  0.10398839397E+03  0.81940057127E+02 -0.27181662340E+03  0.30234423394E+03  0.00000000000E+00 0.  1.
         11    1    3    3    0    0  0.58681149724E+01 -0.16007204623E+02 -0.17204932131E+02  0.24221376155E+02  0.00000000000E+00 0. -1.
<mgrwt>
<rscale>  0 0.17183390E+03</rscale>
<asrwt>0</asrwt>
<pdfrwt beam="2">  1        2 0.11102647E+00 0.17899463E+03</pdfrwt>
<pdfrwt beam="1">  1       -2 0.58653809E-02 0.17899463E+03</pdfrwt>
<totfact> 0.60639621E+03</totfact>
</mgrwt>
</event>
<event>
 8    1  0.7550631E-006  0.1702817E+03  0.7546771E-02  0.1184174E+00
         -2   -1    0    0    0  501 -0.00000000000E+00  0.00000000000E+00  0.21512732068E+02  0.21512732068E+02  0.00000000000E+00 0.  1.
          2   -1    0    0  501    0  0.00000000000E+00 -0.00000000000E+00 -0.12128076541E+04  0.12128076541E+04  0.00000000000E+00 0. -1.
         23    2    1    2    0    0  0.11474322713E+03 -0.14329101166E+02 -0.43503371731E+03  0.45912565989E+03  0.90391952380E+02 0.  0.
         23    2    1    2    0    0 -0.11474322713E+03  0.14329101166E+02 -0.75626120467E+03  0.77519472623E+03  0.12499809029E+03 0.  0.
          5    1    4    4  502    0 -0.74259719192E+01 -0.46144237995E+02 -0.21581299111E+03  0.22086596137E+03  0.47000000000E+01 0. -1.
         -5    1    4    4    0  502 -0.10731725521E+03  0.60473339161E+02 -0.54044821356E+03  0.55432876487E+03  0.47000000000E+01 0. -1.
        -11    1    3    3    0    0  0.10474726206E+03  0.20943335076E+02 -0.27670775893E+03  0.29661051237E+03  0.00000000000E+00 0.  1.
         11    1    3    3    0    0  0.99959650685E+01 -0.35272436242E+02 -0.15832595838E+03  0.16251514752E+03  0.00000000000E+00 0. -1.
<mgrwt>
<rscale>  0 0.16407288E+03</rscale>
<asrwt>0</asrwt>
<pdfrwt beam="2">  1        2 0.18658576E+00 0.17028169E+03</pdfrwt>
<pdfrwt beam="1">  1       -2 0.33096516E-02 0.17028169E+03</pdfrwt>
<totfact> 0.70651072E+03</totfact>
</mgrwt>
</event>
<event>
 8    1  0.7550631E-006  0.1988013E+03  0.7546771E-02  0.1155178E+00
         -1   -1    0    0    0  501 -0.00000000000E+00  0.00000000000E+00  0.96631223221E+02  0.96631223221E+02  0.00000000000E+00 0.  1.
          1   -1    0    0  501    0  0.00000000000E+00 -0.00000000000E+00 -0.46496007476E+03  0.46496007476E+03  0.00000000000E+00 0. -1.
         23    2    1    2    0    0  0.78369215862E+02  0.13325116735E+03 -0.49447313651E+02  0.18581559925E+03  0.90469843052E+02 0.  0.
         23    2    1    2    0    0 -0.78369215862E+02 -0.13325116735E+03 -0.31888153789E+03  0.37577569873E+03  0.12499733181E+03 0.  0.
          5    1    4    4  502    0  0.60740134527E+01  0.15210901036E+02 -0.39674158133E+01  0.17495586243E+02  0.47000000000E+01 0.  1.
         -5    1    4    4    0  502 -0.84443229314E+02 -0.14846206838E+03 -0.31491412207E+03  0.35828011249E+03  0.47000000000E+01 0.  1.
        -11    1    3    3    0    0 -0.12776642562E+02  0.56872747182E+02 -0.29172402104E+02  0.65182674168E+02  0.00000000000E+00 0.  1.
         11    1    3    3    0    0  0.91145858423E+02  0.76378420164E+02 -0.20274911547E+02  0.12063292508E+03  0.00000000000E+00 0. -1.
<mgrwt>
<rscale>  0 0.19368577E+03</rscale>
<asrwt>0</asrwt>
<pdfrwt beam="2">  1        1 0.71532317E-01 0.19880126E+03</pdfrwt>
<pdfrwt beam="1">  1       -1 0.14866342E-01 0.19880126E+03</pdfrwt>
<totfact> 0.16126261E+03</totfact>
</mgrwt>
</event>
<event>
 7    1  0.7550631E-006  0.2005021E+03  0.7546771E-02  0.1163017E+00
          1   -1    0    0  501    0  0.00000000000E+00  0.00000000000E+00  0.77303829810E+03  0.77303829810E+03  0.00000000000E+00 0. -1.
         -1   -1    0    0    0  501 -0.00000000000E+00 -0.00000000000E+00 -0.43688757272E+02  0.43688757272E+02  0.00000000000E+00 0.  1.
         23    2    1    2    0    0 -0.31357715485E+02 -0.11014417394E+03  0.17682663431E+03  0.22894932566E+03  0.89638662106E+02 0.  0.
          5    1    1    2  502    0 -0.10661828362E+01  0.18636187101E+02  0.43431369192E+03  0.43474005705E+03  0.47000000000E+01 0. -1.
         -5    1    1    2    0  502  0.32423898322E+02  0.91507986841E+02  0.11820921459E+03  0.15303767266E+03  0.47000000000E+01 0.  1.
        -11    1    3    3    0    0 -0.55253960046E+02 -0.99760217096E+02  0.16440416433E+03  0.20008455779E+03  0.00000000000E+00 0. -1.
         11    1    3    3    0    0  0.23896244560E+02 -0.10383956846E+02  0.12422469980E+02  0.28864767872E+02  0.00000000000E+00 0.  1.
<mgrwt>
<rscale>  0 0.18503478E+03</rscale>
<asrwt>0</asrwt>
<pdfrwt beam="1">  1        1 0.11892896E+00 0.20050211E+03</pdfrwt>
<pdfrwt beam="2">  1       -1 0.67213478E-02 0.20050211E+03</pdfrwt>
<totfact> 0.27093165E+03</totfact>
</mgrwt>
</event>
<event>
 8    1  0.7550631E-006  0.1850930E+03  0.7546771E-02  0.1169837E+00
         -1   -1    0    0    0  501 -0.00000000000E+00  0.00000000000E+00  0.84452646464E+02  0.84452646464E+02  0.00000000000E+00 0.  1.
          1   -1    0    0  501    0  0.00000000000E+00 -0.00000000000E+00 -0.40423557114E+03  0.40423557114E+03  0.00000000000E+00 0. -1.
         23    2    1    2    0    0  0.19343000894E+02 -0.13512656545E+03 -0.23952181779E+03  0.28694264194E+03  0.79574105041E+02 0.  0.
         23    2    1    2    0    0 -0.19343000894E+02  0.13512656545E+03 -0.80261106885E+02  0.20174557566E+03  0.12500436651E+03 0.  0.
          5    1    4    4  502    0 -0.41163922987E+02  0.23686901614E+01  0.58942625898E+01  0.41915529106E+02  0.47000000000E+01 0. -1.
         -5    1    4    4    0  502  0.21820922093E+02  0.13275787529E+03 -0.86155369475E+02  0.15983004655E+03  0.47000000000E+01 0. -1.
        -11    1    3    3    0    0  0.47673528802E+02 -0.74246539816E+02 -0.16126808487E+03  0.18382793374E+03  0.00000000000E+00 0. -1.
         11    1    3    3    0    0 -0.28330527908E+02 -0.60880025635E+02 -0.78253732913E+02  0.10311470820E+03  0.00000000000E+00 0.  1.
<mgrwt>
<rscale>  0 0.17791388E+03</rscale>
<asrwt>0</asrwt>
<pdfrwt beam="2">  1        1 0.62190085E-01 0.18509304E+03</pdfrwt>
<pdfrwt beam="1">  1       -1 0.12992715E-01 0.18509304E+03</pdfrwt>
<totfact> 0.23827536E+03</totfact>
</mgrwt>
</event>
<event>
 8    1  0.7550631E-006  0.2497254E+03  0.7546771E-02  0.1115867E+00
          1   -1    0    0  501    0  0.00000000000E+00  0.00000000000E+00  0.17841029559E+03  0.17841029559E+03  0.00000000000E+00 0. -1.
         -1   -1    0    0    0  501 -0.00000000000E+00 -0.00000000000E+00 -0.38329042717E+03  0.38329042717E+03  0.00000000000E+00 0.  1.
         23    2    1    2    0    0 -0.16445110473E+03  0.14033451823E+03 -0.20507103075E+03  0.31197528529E+03  0.92393225542E+02 0.  0.
         23    2    1    2    0    0  0.16445110473E+03 -0.14033451823E+03  0.19089916657E+00  0.24972543747E+03  0.12499925929E+03 0.  0.
          5    1    4    4  502    0  0.31902712610E+02 -0.56622886026E+02  0.53251384110E+02  0.84153040370E+02  0.47000000000E+01 0. -1.
         -5    1    4    4    0  502  0.13254839212E+03 -0.83711632203E+02 -0.53060484944E+02  0.16557239710E+03  0.47000000000E+01 0. -1.
        -11    1    3    3    0    0 -0.67746565438E+02  0.97019273409E+01 -0.88914325416E+02  0.11220285998E+03  0.00000000000E+00 0.  1.
         11    1    3    3    0    0 -0.96704539288E+02  0.13063259089E+03 -0.11615670534E+03  0.19977242531E+03  0.00000000000E+00 0. -1.
<mgrwt>
<rscale>  0 0.24598722E+03</rscale>
<asrwt>0</asrwt>
<pdfrwt beam="1">  1        1 0.27447738E-01 0.24972536E+03</pdfrwt>
<pdfrwt beam="2">  1       -1 0.58967758E-01 0.24972536E+03</pdfrwt>
<totfact> 0.51194737E+02</totfact>
</mgrwt>
</event>
<event>
 8    1  0.7550631E-006  0.1408842E+03  0.7546771E-02  0.1219651E+00
         -4   -1    0    0    0  501 -0.00000000000E+00  0.00000000000E+00  0.17121760022E+03  0.17121760022E+03  0.00000000000E+00 0.  1.
          4   -1    0    0  501    0  0.00000000000E+00 -0.00000000000E+00 -0.10353717967E+03  0.10353717967E+03  0.00000000000E+00 0. -1.
         23    2    1    2    0    0  0.71966026372E+01  0.64584132410E+02  0.58190922786E+02  0.13355132361E+03  0.10112799461E+03 0.  0.
         23    2    1    2    0    0 -0.71966026372E+01 -0.64584132410E+02  0.94894977687E+01  0.14120345629E+03  0.12500185699E+03 0.  0.
          5    1    4    4  502    0  0.23106293111E+01 -0.14593826406E+02 -0.56016004031E+02  0.58122297654E+02  0.47000000000E+01 0.  1.
         -5    1    4    4    0  502 -0.95072319483E+01 -0.49990306004E+02  0.65505501800E+02  0.83081158633E+02  0.47000000000E+01 0.  1.
        -11    1    3    3    0    0  0.49882239068E+02  0.11070673999E+02  0.31825111262E+02  0.60196638644E+02  0.00000000000E+00 0.  1.
         11    1    3    3    0    0 -0.42685636431E+02  0.53513458411E+02  0.26365811524E+02  0.73354684962E+02  0.00000000000E+00 0. -1.
<mgrwt>
<rscale>  0 0.13540335E+03</rscale>
<asrwt>0</asrwt>
<pdfrwt beam="2">  1        4 0.15928797E-01 0.14088423E+03</pdfrwt>
<pdfrwt beam="1">  1       -4 0.26341169E-01 0.14088423E+03</pdfrwt>
<totfact> 0.76777448E+02</totfact>
</mgrwt>
</event>
<event>
 8    1  0.7550631E-006  0.1295550E+03  0.7546771E-02  0.1241585E+00
         -4   -1    0    0    0  501 -0.00000000000E+00  0.00000000000E+00  0.40281348061E+02  0.40281348061E+02  0.00000000000E+00 0.  1.
          4   -1    0    0  501    0  0.00000000000E+00 -0.00000000000E+00 -0.40462031927E+03  0.40462031927E+03  0.00000000000E+00 0. -1.
         23    2    1    2    0    0 -0.33396217428E+02 -0.66371273254E+01 -0.62685740514E+02  0.11660428622E+03  0.92237187205E+02 0.  0.
         23    2    1    2    0    0  0.33396217428E+02  0.66371273254E+01 -0.30165323070E+03  0.32829738111E+03  0.12500056023E+03 0.  0.
          5    1    4    4  502    0 -0.10917116461E+02  0.44594816679E+02 -0.23543243995E+03  0.23991332787E+03  0.47000000000E+01 0.  1.
         -5    1    4    4    0  502  0.44313333889E+02 -0.37957689353E+02 -0.66220790744E+02  0.88384053246E+02  0.47000000000E+01 0.  1.
        -11    1    3    3    0    0 -0.62588881790E+02 -0.96872720376E+01 -0.59810805767E+02  0.87112248563E+02  0.00000000000E+00 0. -1.
         11    1    3    3    0    0  0.29192664362E+02  0.30501447122E+01 -0.28749347471E+01  0.29492037656E+02  0.00000000000E+00 0.  1.
<mgrwt>
<rscale>  0 0.12092119E+03</rscale>
<asrwt>0</asrwt>
<pdfrwt beam="2">  1        4 0.62249279E-01 0.12955500E+03</pdfrwt>
<pdfrwt beam="1">  1       -4 0.61971305E-02 0.12955500E+03</pdfrwt>
<totfact> 0.67822663E+02</totfact>
</mgrwt>
</event>
<event>
 8    1  0.7550631E-006  0.1506245E+03  0.7546771E-02  0.1206319E+00
         -1   -1    0    0    0  501 -0.00000000000E+00  0.00000000000E+00  0.80883427465E+01  0.80883427465E+01  0.00000000000E+00 0.  1.
          1   -1    0    0  501    0  0.00000000000E+00 -0.00000000000E+00 -0.34851619748E+04  0.34851619748E+04  0.00000000000E+00 0. -1.
         23    2    1    2    0    0  0.52540885231E+02 -0.65658631950E+02 -0.69865524105E+03  0.71075206870E+03  0.99888721797E+02 0.  0.
         23    2    1    2    0    0 -0.52540885231E+02  0.65658631950E+02 -0.27784183910E+04  0.27824982489E+04  0.12496459020E+03 0.  0.
          5    1    4    4  502    0 -0.14211430038E+02  0.83703925581E+02 -0.10121236061E+04  0.10156892222E+04  0.47000000000E+01 0.  1.
         -5    1    4    4    0  502 -0.38329455193E+02 -0.18045293631E+02 -0.17662947849E+04  0.17668090267E+04  0.47000000000E+01 0.  1.
        -11    1    3    3    0    0  0.43188863223E+02  0.17348066474E+02 -0.22099391940E+03  0.22584186000E+03  0.00000000000E+00 0.  1.
         11    1    3    3    0    0  0.93520220082E+01 -0.83006698424E+02 -0.47766132165E+03  0.48491020869E+03  0.00000000000E+00 0. -1.
<mgrwt>
<rscale>  0 0.14534004E+03</rscale>
<asrwt>0</asrwt>
<pdfrwt beam="2">  1        1 0.53617756E+00 0.15062453E+03</pdfrwt>
<pdfrwt beam="1">  1       -1 0.12443632E-02 0.15062453E+03</pdfrwt>
<totfact> 0.45442926E+02</totfact>
</mgrwt>
</event>
<event>
 8    1  0.7550631E-006  0.1264558E+03  0.7546771E-02  0.1247979E+00
         -1   -1    0    0    0  501 -0.00000000000E+00  0.00000000000E+00  0.10382906945E+03  0.10382906945E+03  0.00000000000E+00 0.  1.
          1   -1    0    0  501    0  0.00000000000E+00 -0.00000000000E+00 -0.11783822045E+03  0.11783822045E+03  0.00000000000E+00 0. -1.
         23    2    1    2    0    0 -0.18957270061E+02 -0.25221051613E+01  0.80721400452E+01  0.93298065094E+02  0.90959498694E+02 0.  0.
         23    2    1    2    0    0  0.18957270061E+02  0.25221051613E+01 -0.22081291045E+02  0.12836922480E+03  0.12500134143E+03 0.  0.
          5    1    4    4  502    0  0.38550472154E+02 -0.53590975585E+02 -0.18109239182E+02  0.68616077644E+02  0.47000000000E+01 0. -1.
         -5    1    4    4    0  502 -0.19593202093E+02  0.56113080747E+02 -0.39720518631E+01  0.59753147157E+02  0.47000000000E+01 0. -1.
        -11    1    3    3    0    0  0.14469306622E+01  0.22987096266E+02 -0.33359251132E+02  0.40538128215E+02  0.00000000000E+00 0. -1.
         11    1    3    3    0    0 -0.20404200723E+02 -0.25509201427E+02  0.41431391177E+02  0.52759936879E+02  0.00000000000E+00 0.  1.
<mgrwt>
<rscale>  0 0.11708854E+03</rscale>
<asrwt>0</asrwt>
<pdfrwt beam="2">  1        1 0.18128957E-01 0.12645582E+03</pdfrwt>
<pdfrwt beam="1">  1       -1 0.15973703E-01 0.12645582E+03</pdfrwt>
<totfact> 0.79266526E+03</totfact>
</mgrwt>
</event>
<event>
 8    1  0.7550631E-006  0.1349059E+03  0.7546771E-02  0.1229877E+00
         -2   -1    0    0    0  501 -0.00000000000E+00  0.00000000000E+00  0.24169856601E+02  0.24169856601E+02  0.00000000000E+00 0.  1.
          2   -1    0    0  501    0  0.00000000000E+00 -0.00000000000E+00 -0.63682999305E+03  0.63682999305E+03  0.00000000000E+00 0. -1.
         23    2    1    2    0    0  0.17154420207E+02  0.47753494602E+02 -0.22936128561E+03  0.25465318681E+03  0.98320780291E+02 0.  0.
         23    2    1    2    0    0 -0.17154420207E+02 -0.47753494602E+02 -0.38329885083E+03  0.40634666284E+03  0.12499972387E+03 0.  0.
          5    1    4    4  502    0 -0.42663297892E+02 -0.63272716349E+02 -0.36041334231E+03  0.36843379451E+03  0.47000000000E+01 0. -1.
         -5    1    4    4    0  502  0.25508877685E+02  0.15519221747E+02 -0.22885508525E+02  0.37912868328E+02  0.47000000000E+01 0. -1.
        -11    1    3    3    0    0  0.50370676127E+02  0.51150260539E+01 -0.70111981939E+02  0.86481550150E+02  0.00000000000E+00 0.  1.
         11    1    3    3    0    0 -0.33216255920E+02  0.42638468548E+02 -0.15924930367E+03  0.16817163666E+03  0.00000000000E+00 0. -1.
<mgrwt>
<rscale>  0 0.12838172E+03</rscale>
<asrwt>0</asrwt>
<pdfrwt beam="2">  1        2 0.97973838E-01 0.13490590E+03</pdfrwt>
<pdfrwt beam="1">  1       -2 0.37184398E-02 0.13490590E+03</pdfrwt>
<totfact> 0.13712741E+04</totfact>
</mgrwt>
</event>
<event>
 7    1  0.7550631E-006  0.2150322E+03  0.7546771E-02  0.1153133E+00
          2   -1    0    0  501    0  0.00000000000E+00  0.00000000000E+00  0.39693688377E+04  0.39693688377E+04  0.00000000000E+00 0. -1.
         -2   -1    0    0    0  501 -0.00000000000E+00 -0.00000000000E+00 -0.34592362344E+02  0.34592362344E+02  0.00000000000E+00 0.  1.
         23    2    1    2    0    0  0.99849599776E+02  0.51022900341E+02  0.14325306059E+03  0.20634502102E+03  0.97383517077E+02 0.  0.
          5    1    1    2  502    0 -0.88589211699E+02  0.15520592076E+02  0.33243435225E+04  0.33255632429E+04  0.47000000000E+01 0. -1.
         -5    1    1    2    0  502 -0.11260388077E+02 -0.66543492418E+02  0.46717989229E+03  0.47205293610E+03  0.47000000000E+01 0.  1.
        -11    1    3    3    0    0  0.61300443130E+02  0.56511575835E+02  0.33435938476E+02  0.89829085006E+02  0.00000000000E+00 0.  1.
         11    1    3    3    0    0  0.38549156646E+02 -0.54886754936E+01  0.10981712211E+03  0.11651593602E+03  0.00000000000E+00 0. -1.
<mgrwt>
<rscale>  0 0.19602907E+03</rscale>
<asrwt>0</asrwt>
<pdfrwt beam="1">  1        2 0.61067177E+00 0.21503218E+03</pdfrwt>
<pdfrwt beam="2">  1       -2 0.53219050E-02 0.21503218E+03</pdfrwt>
<totfact> 0.86432961E+01</totfact>
</mgrwt>
</event>
<event>
 7    1  0.7550631E-006  0.2592935E+03  0.7546771E-02  0.1136679E+00
         -2   -1    0    0    0  501 -0.00000000000E+00  0.00000000000E+00  0.72170132861E+02  0.72170132861E+02  0.00000000000E+00 0.  1.
          2   -1    0    0  501    0  0.00000000000E+00 -0.00000000000E+00 -0.53020781642E+03  0.53020781642E+03  0.00000000000E+00 0. -1.
         23    2    1    2    0    0  0.86820989867E+02  0.84106240497E+01 -0.10102993112E+03  0.16114373041E+03  0.90286388738E+02 0.  0.
          5    1    1    2  502    0  0.50688453327E+02 -0.27894770829E+02 -0.27245436658E+03  0.27856939783E+03  0.47000000000E+01 0. -1.
         -5    1    1    2    0  502 -0.13750944319E+03  0.19484146780E+02 -0.84553385866E+02  0.16266482104E+03  0.47000000000E+01 0.  1.
        -11    1    3    3    0    0  0.47216975186E+02  0.36405576018E+02 -0.13585981321E+02  0.61150532290E+02  0.00000000000E+00 0.  1.
         11    1    3    3    0    0  0.39604014680E+02 -0.27994951968E+02 -0.87443949800E+02  0.99993198124E+02  0.00000000000E+00 0. -1.
<mgrwt>
<rscale>  0 0.21629132E+03</rscale>
<asrwt>0</asrwt>
<pdfrwt beam="2">  1        2 0.81570433E-01 0.25929346E+03</pdfrwt>
<pdfrwt beam="1">  1       -2 0.11103097E-01 0.25929346E+03</pdfrwt>
<totfact> 0.32492139E+03</totfact>
</mgrwt>
</event>
<event>
 8    1  0.7550631E-006  0.1369585E+03  0.7546771E-02  0.1229365E+00
         -2   -1    0    0    0  501 -0.00000000000E+00  0.00000000000E+00  0.17584050473E+02  0.17584050473E+02  0.00000000000E+00 0.  1.
          2   -1    0    0  501    0  0.00000000000E+00 -0.00000000000E+00 -0.10155048596E+04  0.10155048596E+04  0.00000000000E+00 0. -1.
         23    2    1    2    0    0 -0.18604333467E+02  0.52800529977E+02 -0.23754065911E+03  0.26047282539E+03  0.91030274349E+02 0.  0.
         23    2    1    2    0    0  0.18604333467E+02 -0.52800529977E+02 -0.76038015006E+03  0.77261608472E+03  0.12499449818E+03 0.  0.
          5    1    4    4  502    0  0.14821104148E+01  0.17693932543E+02 -0.15040957150E+02  0.23740098823E+02  0.47000000000E+01 0. -1.
         -5    1    4    4    0  502  0.17122223052E+02 -0.70494462521E+02 -0.74533919291E+03  0.74887598590E+03  0.47000000000E+01 0. -1.
        -11    1    3    3    0    0 -0.10198007144E+02  0.71608093302E+02 -0.22503458466E+03  0.23637318517E+03  0.00000000000E+00 0. -1.
         11    1    3    3    0    0 -0.84063263230E+01 -0.18807563324E+02 -0.12506074444E+02  0.24099640214E+02  0.00000000000E+00 0.  1.
<mgrwt>
<rscale>  0 0.12872195E+03</rscale>
<asrwt>0</asrwt>
<pdfrwt beam="2">  1        2 0.15623152E+00 0.13695854E+03</pdfrwt>
<pdfrwt beam="1">  1       -2 0.27052385E-02 0.13695854E+03</pdfrwt>
<totfact> 0.12212525E+04</totfact>
</mgrwt>
</event>
<event>
 8    1  0.7550631E-006  0.1385967E+03  0.7546771E-02  0.1226334E+00
          2   -1    0    0  501    0  0.00000000000E+00  0.00000000000E+00  0.38283851201E+02  0.38283851201E+02  0.00000000000E+00 0. -1.
         -2   -1    0    0    0  501 -0.00000000000E+00 -0.00000000000E+00 -0.42092009024E+03  0.42092009024E+03  0.00000000000E+00 0.  1.
         23    2    1    2    0    0  0.24554214973E+02 -0.54607513125E+02 -0.21724457847E+03  0.24341827527E+03  0.92045423023E+02 0.  0.
         23    2    1    2    0    0 -0.24554214973E+02  0.54607513125E+02 -0.16539166057E+03  0.21578566617E+03  0.12499664946E+03 0.  0.
          5    1    4    4  502    0  0.25428854590E+02  0.53749563289E+02 -0.21530197358E+02  0.63413575816E+02  0.47000000000E+01 0.  1.
         -5    1    4    4    0  502 -0.49983069563E+02  0.85794983582E+00 -0.14386146321E+03  0.15237209035E+03  0.47000000000E+01 0.  1.
        -11    1    3    3    0    0  0.41264990072E+02 -0.44191773864E+02 -0.21530314681E+03  0.22363174486E+03  0.00000000000E+00 0.  1.
         11    1    3    3    0    0 -0.16710775099E+02 -0.10415739261E+02 -0.19414316560E+01  0.19786530409E+02  0.00000000000E+00 0. -1.
<mgrwt>
<rscale>  0 0.13075875E+03</rscale>
<asrwt>0</asrwt>
<pdfrwt beam="1">  1        2 0.58898234E-02 0.13859673E+03</pdfrwt>
<pdfrwt beam="2">  1       -2 0.64756935E-01 0.13859673E+03</pdfrwt>
<totfact> 0.27352095E+03</totfact>
</mgrwt>
</event>
<event>
 8    1  0.7550631E-006  0.1530019E+03  0.7546771E-02  0.1205416E+00
         -2   -1    0    0    0  501 -0.00000000000E+00  0.00000000000E+00  0.32467391593E+02  0.32467391593E+02  0.00000000000E+00 0.  1.
          2   -1    0    0  501    0  0.00000000000E+00 -0.00000000000E+00 -0.93540998665E+03  0.93540998665E+03  0.00000000000E+00 0. -1.
         23    2    1    2    0    0  0.66191289890E+02  0.58335969122E+02 -0.13709196018E+03  0.18689288503E+03  0.91380374138E+02 0.  0.
         23    2    1    2    0    0 -0.66191289890E+02 -0.58335969122E+02 -0.76585063488E+03  0.78098449322E+03  0.12500084620E+03 0.  0.
          5    1    4    4  502    0 -0.88827374655E+02 -0.80114661925E+02 -0.64590535182E+03  0.65690522532E+03  0.47000000000E+01 0.  1.
         -5    1    4    4    0  502  0.22636084765E+02  0.21778692802E+02 -0.11994528306E+03  0.12407926789E+03  0.47000000000E+01 0.  1.
        -11    1    3    3    0    0  0.88309009268E+02  0.35570951489E+02 -0.10561882709E+03  0.14219391809E+03  0.00000000000E+00 0.  1.
         11    1    3    3    0    0 -0.22117719378E+02  0.22765017634E+02 -0.31473133093E+02  0.44698966935E+02  0.00000000000E+00 0. -1.
<mgrwt>
<rscale>  0 0.14604709E+03</rscale>
<asrwt>0</asrwt>
<pdfrwt beam="2">  1        2 0.14390922E+00 0.15300191E+03</pdfrwt>
<pdfrwt beam="1">  1       -2 0.49949836E-02 0.15300191E+03</pdfrwt>
<totfact> 0.55275153E+03</totfact>
</mgrwt>
</event>
<event>
 8    1  0.7550631E-006  0.2159177E+03  0.7546771E-02  0.1140303E+00
          1   -1    0    0  501    0  0.00000000000E+00  0.00000000000E+00  0.13951196422E+03  0.13951196422E+03  0.00000000000E+00 0. -1.
         -1   -1    0    0    0  501 -0.00000000000E+00 -0.00000000000E+00 -0.32391309703E+03  0.32391309703E+03  0.00000000000E+00 0.  1.
         23    2    1    2    0    0  0.24249324795E+02  0.17437991283E+03 -0.38557254611E+02  0.20286621835E+03  0.93121731689E+02 0.  0.
         23    2    1    2    0    0 -0.24249324795E+02 -0.17437991283E+03 -0.14584387820E+03  0.26055884291E+03  0.12499636019E+03 0.  0.
          5    1    4    4  502    0  0.46241498002E+02 -0.54174710178E+02 -0.77218516508E+02  0.10515685737E+03  0.47000000000E+01 0. -1.
         -5    1    4    4    0  502 -0.70490822797E+02 -0.12020520265E+03 -0.68625361690E+02  0.15540198554E+03  0.47000000000E+01 0. -1.
        -11    1    3    3    0    0  0.37393984874E+02  0.50292582983E+02  0.18946272292E+02  0.65472247873E+02  0.00000000000E+00 0.  1.
         11    1    3    3    0    0 -0.13144660078E+02  0.12408732984E+03 -0.57503526903E+02  0.13739397047E+03  0.00000000000E+00 0. -1.
<mgrwt>
<rscale>  0 0.21160277E+03</rscale>
<asrwt>0</asrwt>
<pdfrwt beam="1">  1        1 0.21463379E-01 0.21591775E+03</pdfrwt>
<pdfrwt beam="2">  1       -1 0.49832783E-01 0.21591775E+03</pdfrwt>
<totfact> 0.96094941E+02</totfact>
</mgrwt>
</event>
<event>
 8    1  0.7550631E-006  0.3160558E+03  0.7546771E-02  0.1078915E+00
         -1   -1    0    0    0  501 -0.00000000000E+00  0.00000000000E+00  0.45727275964E+03  0.45727275964E+03  0.00000000000E+00 0.  1.
          1   -1    0    0  501    0  0.00000000000E+00 -0.00000000000E+00 -0.25942294577E+03  0.25942294577E+03  0.00000000000E+00 0. -1.
         23    2    1    2    0    0 -0.35334486561E+02  0.28812819293E+03  0.25342081316E+03  0.39579168385E+03  0.90346925547E+02 0.  0.
         23    2    1    2    0    0  0.35334486561E+02 -0.28812819293E+03 -0.55570999295E+02  0.32090402156E+03  0.12499949436E+03 0.  0.
          5    1    4    4  502    0  0.58916264902E+02 -0.58761989884E+02  0.13715642661E+01  0.83355077312E+02  0.47000000000E+01 0. -1.
         -5    1    4    4    0  502 -0.23581778341E+02 -0.22936620305E+03 -0.56942563561E+02  0.23754894425E+03  0.47000000000E+01 0. -1.
        -11    1    3    3    0    0 -0.39013145180E+02  0.16450830017E+03  0.19772612329E+03  0.26015500409E+03  0.00000000000E+00 0.  1.
         11    1    3    3    0    0  0.36786586186E+01  0.12361989276E+03  0.55694689872E+02  0.13563667976E+03  0.00000000000E+00 0. -1.
<mgrwt>
<rscale>  0 0.31300322E+03</rscale>
<asrwt>0</asrwt>
<pdfrwt beam="2">  1        1 0.39911222E-01 0.31605578E+03</pdfrwt>
<pdfrwt beam="1">  1       -1 0.70349655E-01 0.31605578E+03</pdfrwt>
<totfact> 0.22443531E+02</totfact>
</mgrwt>
</event>
<event>
 8    1  0.7550631E-006  0.1444261E+03  0.7546771E-02  0.1217666E+00
         -1   -1    0    0    0  501 -0.00000000000E+00  0.00000000000E+00  0.27601682542E+02  0.27601682542E+02  0.00000000000E+00 0.  1.
          1   -1    0    0  501    0  0.00000000000E+00 -0.00000000000E+00 -0.80973234471E+03  0.80973234471E+03  0.00000000000E+00 0. -1.
         23    2    1    2    0    0  0.15395318797E+02 -0.70690494678E+02 -0.15508653758E+03  0.19387210400E+03  0.91106512901E+02 0.  0.
         23    2    1    2    0    0 -0.15395318797E+02  0.70690494678E+02 -0.62704412458E+03  0.64346192325E+03  0.12499900245E+03 0.  0.
          5    1    4    4  502    0 -0.22272910464E+02  0.10559581341E+03 -0.44594279755E+03  0.45883943492E+03  0.47000000000E+01 0.  1.
         -5    1    4    4    0  502  0.68775916670E+01 -0.34905318728E+02 -0.18110132703E+03  0.18462248832E+03  0.47000000000E+01 0.  1.
        -11    1    3    3    0    0  0.31733242792E+02 -0.51993750113E+02 -0.32982164945E+02  0.69268838256E+02  0.00000000000E+00 0.  1.
         11    1    3    3    0    0 -0.16337923995E+02 -0.18696744564E+02 -0.12210437264E+03  0.12460326575E+03  0.00000000000E+00 0. -1.
<mgrwt>
<rscale>  0 0.13682482E+03</rscale>
<asrwt>0</asrwt>
<pdfrwt beam="2">  1        1 0.12457421E+00 0.14442615E+03</pdfrwt>
<pdfrwt beam="1">  1       -1 0.42464128E-02 0.14442615E+03</pdfrwt>
<totfact> 0.49575733E+03</totfact>
</mgrwt>
</event>
<event>
 8    1  0.7550631E-006  0.1257083E+03  0.7546771E-02  0.1249481E+00
         -1   -1    0    0    0  501 -0.00000000000E+00  0.00000000000E+00  0.31013169528E+03  0.31013169528E+03  0.00000000000E+00 0.  1.
          1   -1    0    0  501    0  0.00000000000E+00 -0.00000000000E+00 -0.41905461506E+02  0.41905461506E+02  0.00000000000E+00 0. -1.
         23    2    1    2    0    0 -0.40356669847E+01  0.12676805568E+02  0.16725866127E+03  0.19080119790E+03  0.90844093594E+02 0.  0.
         23    2    1    2    0    0  0.40356669847E+01 -0.12676805568E+02  0.10096757250E+03  0.16123595889E+03  0.12500238291E+03 0.  0.
          5    1    4    4  502    0  0.46890231910E+02 -0.10162786859E+00  0.10604224931E+03  0.11604203038E+03  0.47000000000E+01 0.  1.
         -5    1    4    4    0  502 -0.42854564926E+02 -0.12575177700E+02 -0.50746768061E+01  0.45193928506E+02  0.47000000000E+01 0.  1.
        -11    1    3    3    0    0 -0.34494165264E+02 -0.21131312206E+02  0.11279470736E+03  0.11982915255E+03  0.00000000000E+00 0.  1.
         11    1    3    3    0    0  0.30458498279E+02  0.33808117774E+02  0.54463953914E+02  0.70972045347E+02  0.00000000000E+00 0. -1.
<mgrwt>
<rscale>  0 0.11621151E+03</rscale>
<asrwt>0</asrwt>
<pdfrwt beam="2">  1        1 0.64469943E-02 0.12570833E+03</pdfrwt>
<pdfrwt beam="1">  1       -1 0.47712567E-01 0.12570833E+03</pdfrwt>
<totfact> 0.49749773E+03</totfact>
</mgrwt>
</event>
<event>
 8    1  0.7550631E-006  0.1296536E+03  0.7546771E-02  0.1241479E+00
          2   -1    0    0  501    0  0.00000000000E+00  0.00000000000E+00  0.29976179159E+03  0.29976179159E+03  0.00000000000E+00 0. -1.
         -2   -1    0    0    0  501 -0.00000000000E+00 -0.00000000000E+00 -0.43369611906E+02  0.43369611906E+02  0.00000000000E+00 0.  1.
         23    2    1    2    0    0 -0.21612538512E+02  0.26800002045E+02  0.10613288847E+03  0.14466753159E+03  0.92082369380E+02 0.  0.
         23    2    1    2    0    0  0.21612538512E+02 -0.26800002045E+02  0.15025929121E+03  0.19846387190E+03  0.12499884770E+03 0.  0.
          5    1    4    4  502    0  0.15580508085E+02  0.45175834229E+02  0.98182747449E+02  0.10929570041E+03  0.47000000000E+01 0. -1.
         -5    1    4    4    0  502  0.60320304264E+01 -0.71975836274E+02  0.52076543761E+02  0.89168171499E+02  0.47000000000E+01 0. -1.
        -11    1    3    3    0    0  0.20822873177E+02  0.18456039623E+02 -0.23084194838E+01  0.27920355413E+02  0.00000000000E+00 0.  1.
         11    1    3    3    0    0 -0.42435411689E+02  0.83439624223E+01  0.10844130796E+03  0.11674717618E+03  0.00000000000E+00 0. -1.
<mgrwt>
<rscale>  0 0.12098621E+03</rscale>
<asrwt>0</asrwt>
<pdfrwt beam="1">  1        2 0.46117197E-01 0.12965359E+03</pdfrwt>
<pdfrwt beam="2">  1       -2 0.66722482E-02 0.12965359E+03</pdfrwt>
<totfact> 0.12892027E+04</totfact>
</mgrwt>
</event>
<event>
 7    1  0.7550631E-006  0.1552460E+03  0.7546771E-02  0.1207399E+00
         -2   -1    0    0    0  501 -0.00000000000E+00  0.00000000000E+00  0.53347275109E+02  0.53347275109E+02  0.00000000000E+00 0.  1.
          2   -1    0    0  501    0  0.00000000000E+00 -0.00000000000E+00 -0.40130204688E+03  0.40130204688E+03  0.00000000000E+00 0. -1.
         23    2    1    2    0    0 -0.43106175318E+02  0.60067481810E+02 -0.69041732121E+02  0.13544122108E+03  0.90062860665E+02 0.  0.
          5    1    1    2  502    0  0.75888941244E+02  0.29660948494E+01 -0.19401626903E+03  0.20840425084E+03  0.47000000000E+01 0. -1.
         -5    1    1    2    0  502 -0.32782765926E+02 -0.63033576659E+02 -0.84896770627E+02  0.11080385007E+03  0.47000000000E+01 0.  1.
        -11    1    3    3    0    0 -0.52607372736E+02  0.27273585165E+02 -0.80024594445E+02  0.99575698993E+02  0.00000000000E+00 0.  1.
         11    1    3    3    0    0  0.95011974182E+01  0.32793896645E+02  0.10982862324E+02  0.35865522084E+02  0.00000000000E+00 0. -1.
<mgrwt>
<rscale>  0 0.14450008E+03</rscale>
<asrwt>0</asrwt>
<pdfrwt beam="2">  1        2 0.61738777E-01 0.15524602E+03</pdfrwt>
<pdfrwt beam="1">  1       -2 0.82072730E-02 0.15524602E+03</pdfrwt>
<totfact> 0.69617832E+03</totfact>
</mgrwt>
</event>
<event>
 8    1  0.7550632E-006  0.2260538E+03  0.7546771E-02  0.1132783E+00
          2   -1    0    0  501    0  0.00000000000E+00  0.00000000000E+00  0.84632322417E+03  0.84632322417E+03  0.00000000000E+00 0. -1.
         -2   -1    0    0    0  501 -0.00000000000E+00 -0.00000000000E+00 -0.60975147212E+02  0.60975147212E+02  0.00000000000E+00 0.  1.
         23    2    1    2    0    0  0.21658268001E+02  0.18709903492E+03  0.24512141884E+03  0.32168317724E+03  0.88996781422E+02 0.  0.
         23    2    1    2    0    0 -0.21658268001E+02 -0.18709903492E+03  0.54022665812E+03  0.58561519414E+03  0.12500073610E+03 0.  0.
          5    1    4    4  502    0  0.51258292855E+02 -0.56706005907E+02  0.18327627599E+03  0.19863349927E+03  0.47000000000E+01 0. -1.
         -5    1    4    4    0  502 -0.72916560856E+02 -0.13039302901E+03  0.35695038213E+03  0.38698169487E+03  0.47000000000E+01 0. -1.
        -11    1    3    3    0    0 -0.13492892995E+02  0.13091890079E+03  0.11135223027E+03  0.17239819005E+03  0.00000000000E+00 0.  1.
         11    1    3    3    0    0  0.35151160996E+02  0.56180134129E+02  0.13376918856E+03  0.14928498719E+03  0.00000000000E+00 0. -1.
<mgrwt>
<rscale>  0 0.22148254E+03</rscale>
<asrwt>0</asrwt>
<pdfrwt beam="1">  1        2 0.13020356E+00 0.22605378E+03</pdfrwt>
<pdfrwt beam="2">  1       -2 0.93807925E-02 0.22605378E+03</pdfrwt>
<totfact> 0.24131145E+03</totfact>
</mgrwt>
</event>
<event>
 8    1  0.7550631E-006  0.1903381E+03  0.7546771E-02  0.1163455E+00
          2   -1    0    0  501    0  0.00000000000E+00  0.00000000000E+00  0.13771384609E+03  0.13771384609E+03  0.00000000000E+00 0. -1.
         -2   -1    0    0    0  501 -0.00000000000E+00 -0.00000000000E+00 -0.29313185640E+03  0.29313185640E+03  0.00000000000E+00 0.  1.
         23    2    1    2    0    0  0.13903778543E+03  0.35650511976E+02 -0.17094141899E+03  0.23987560377E+03  0.87845727131E+02 0.  0.
         23    2    1    2    0    0 -0.13903778543E+03 -0.35650511976E+02  0.15523408677E+02  0.19097009872E+03  0.12500455035E+03 0.  0.
          5    1    4    4  502    0 -0.19938032467E+02 -0.27701489403E+02 -0.45305427761E+02  0.56917215659E+02  0.47000000000E+01 0. -1.
         -5    1    4    4    0  502 -0.11909975296E+03 -0.79490225732E+01  0.60828836437E+02  0.13405288306E+03  0.47000000000E+01 0. -1.
        -11    1    3    3    0    0  0.82769591182E+02  0.17589507871E+00 -0.37695557898E+02  0.90949388391E+02  0.00000000000E+00 0. -1.
         11    1    3    3    0    0  0.56268194243E+02  0.35474616897E+02 -0.13324586109E+03  0.14892621537E+03  0.00000000000E+00 0.  1.
<mgrwt>
<rscale>  0 0.18456729E+03</rscale>
<asrwt>0</asrwt>
<pdfrwt beam="1">  1        2 0.21186746E-01 0.19033813E+03</pdfrwt>
<pdfrwt beam="2">  1       -2 0.45097208E-01 0.19033813E+03</pdfrwt>
<totfact> 0.12138116E+03</totfact>
</mgrwt>
</event>
<event>
 8    1  0.7550631E-006  0.1243397E+03  0.7546771E-02  0.1246952E+00
          1   -1    0    0  501    0  0.00000000000E+00  0.00000000000E+00  0.44693442831E+03  0.44693442831E+03  0.00000000000E+00 0. -1.
         -1   -1    0    0    0  501 -0.00000000000E+00 -0.00000000000E+00 -0.29789476131E+02  0.29789476131E+02  0.00000000000E+00 0.  1.
         23    2    1    2    0    0 -0.32906528947E+01 -0.40978500021E+02  0.13066779117E+03  0.16442673470E+03  0.90950610631E+02 0.  0.
         23    2    1    2    0    0  0.32906528947E+01  0.40978500021E+02  0.28647716101E+03  0.31229716975E+03  0.11734688998E+03 0.  0.
          5    1    4    4  502    0 -0.20894830882E+02  0.66625229119E+02  0.25621431166E+03  0.26560003504E+03  0.47000000000E+01 0. -1.
         -5    1    4    4    0  502  0.24185483777E+02 -0.25646729098E+02  0.30262849353E+02  0.46697134708E+02  0.47000000000E+01 0.  1.
        -11    1    3    3    0    0 -0.33978120694E+02 -0.87645623679E+01  0.10982652950E+03  0.11529612665E+03  0.00000000000E+00 0. -1.
         11    1    3    3    0    0  0.30687467799E+02 -0.32213937653E+02  0.20841261671E+02  0.49130608047E+02  0.00000000000E+00 0.  1.
<mgrwt>
<rscale>  0 0.11769312E+03</rscale>
<asrwt>0</asrwt>
<pdfrwt beam="1">  1        1 0.68759138E-01 0.12433969E+03</pdfrwt>
<pdfrwt beam="2">  1       -1 0.45829966E-02 0.12433969E+03</pdfrwt>
<totfact> 0.99329882E+03</totfact>
</mgrwt>
</event>
<event>
 8    1  0.7550631E-006  0.1536049E+03  0.7546771E-02  0.1204581E+00
          2   -1    0    0  501    0  0.00000000000E+00  0.00000000000E+00  0.18755677975E+04  0.18755677975E+04  0.00000000000E+00 0.  1.
         -2   -1    0    0    0  501 -0.00000000000E+00 -0.00000000000E+00 -0.10878569944E+02  0.10878569944E+02  0.00000000000E+00 0. -1.
         23    2    1    2    0    0  0.85168670019E+02 -0.26773249985E+02  0.68769236651E+03  0.69946866711E+03  0.91461008283E+02 0.  0.
         23    2    1    2    0    0 -0.85168670019E+02  0.26773249985E+02  0.11769968610E+04  0.11869777003E+04  0.12499576362E+03 0.  0.
          5    1    4    4  502    0 -0.11392672264E+03  0.93632718078E+01  0.10173088838E+04  0.10237218490E+04  0.47000000000E+01 0.  1.
         -5    1    4    4    0  502  0.28758052621E+02  0.17409978178E+02  0.15968797719E+03  0.16325585132E+03  0.47000000000E+01 0.  1.
        -11    1    3    3    0    0  0.28466356106E+02  0.34201531005E+02  0.24869817010E+03  0.25264769535E+03  0.00000000000E+00 0.  1.
         11    1    3    3    0    0  0.56702313912E+02 -0.60974780991E+02  0.43899419642E+03  0.44682097176E+03  0.00000000000E+00 0. -1.
<mgrwt>
<rscale>  0 0.14670525E+03</rscale>
<asrwt>0</asrwt>
<pdfrwt beam="1">  1        2 0.28854863E+00 0.15360485E+03</pdfrwt>
<pdfrwt beam="2">  1       -2 0.16736276E-02 0.15360485E+03</pdfrwt>
<totfact> 0.85648531E+03</totfact>
</mgrwt>
</event>
<event>
 8    1  0.7550631E-006  0.1564212E+03  0.7546771E-02  0.1200683E+00
         -3   -1    0    0    0  501 -0.00000000000E+00  0.00000000000E+00  0.46123210164E+02  0.46123210164E+02  0.00000000000E+00 0.  1.
          3   -1    0    0  501    0  0.00000000000E+00 -0.00000000000E+00 -0.59358590395E+03  0.59358590395E+03  0.00000000000E+00 0. -1.
         23    2    1    2    0    0 -0.85395309156E+02 -0.39374679572E+02 -0.98969176367E+02  0.16472067242E+03  0.92169831470E+02 0.  0.
         23    2    1    2    0    0  0.85395309156E+02  0.39374679572E+02 -0.44849351742E+03  0.47498844170E+03  0.12499944145E+03 0.  0.
          5    1    4    4  502    0  0.72918146670E+02  0.27557244567E+02 -0.45035450522E+03  0.45707518880E+03  0.47000000000E+01 0. -1.
         -5    1    4    4    0  502  0.12477162486E+02  0.11817435005E+02  0.18609878042E+01  0.17913252898E+02  0.47000000000E+01 0. -1.
        -11    1    3    3    0    0 -0.27532203329E+02 -0.41756299490E+01  0.15385241569E+02  0.31814521272E+02  0.00000000000E+00 0.  1.
         11    1    3    3    0    0 -0.57863105827E+02 -0.35199049623E+02 -0.11435441794E+03  0.13290615114E+03  0.00000000000E+00 0. -1.
<mgrwt>
<rscale>  0 0.14982923E+03</rscale>
<asrwt>0</asrwt>
<pdfrwt beam="2">  1        3 0.91320911E-01 0.15642118E+03</pdfrwt>
<pdfrwt beam="1">  1       -3 0.70958783E-02 0.15642118E+03</pdfrwt>
<totfact> 0.34267016E+02</totfact>
</mgrwt>
</event>
<event>
 8    1  0.7550631E-006  0.1747831E+03  0.7546771E-02  0.1178593E+00
          4   -1    0    0  501    0  0.00000000000E+00  0.00000000000E+00  0.79589553237E+02  0.79589553237E+02  0.00000000000E+00 0. -1.
         -4   -1    0    0    0  501 -0.00000000000E+00 -0.00000000000E+00 -0.36598961669E+03  0.36598961669E+03  0.00000000000E+00 0.  1.
         23    2    1    2    0    0 -0.10062557749E+03 -0.69276855877E+02 -0.19492653719E+03  0.24830640899E+03  0.93460838005E+02 0.  0.
         23    2    1    2    0    0  0.10062557749E+03  0.69276855877E+02 -0.91473526260E+02  0.19727276093E+03  0.12499738635E+03 0.  0.
          5    1    4    4  502    0  0.86975910785E+02  0.54866395285E+02 -0.12258177689E+03  0.16007345943E+03  0.47000000000E+01 0. -1.
         -5    1    4    4    0  502  0.13649666700E+02  0.14410460592E+02  0.31108250626E+02  0.37199301506E+02  0.47000000000E+01 0. -1.
        -11    1    3    3    0    0 -0.72337668108E+02 -0.75023279674E+02 -0.19304430708E+03  0.21937943207E+03  0.00000000000E+00 0.  1.
         11    1    3    3    0    0 -0.28287909377E+02  0.57464237971E+01 -0.18822301083E+01  0.28926976917E+02  0.00000000000E+00 0. -1.
<mgrwt>
<rscale>  0 0.16928785E+03</rscale>
<asrwt>0</asrwt>
<pdfrwt beam="1">  1        4 0.12244546E-01 0.17478311E+03</pdfrwt>
<pdfrwt beam="2">  1       -4 0.56306096E-01 0.17478311E+03</pdfrwt>
<totfact> 0.28333121E+02</totfact>
</mgrwt>
</event>
<event>
 8    1  0.7550631E-006  0.1608581E+03  0.7546771E-02  0.1195369E+00
         -2   -1    0    0    0  501 -0.00000000000E+00  0.00000000000E+00  0.46954070319E+02  0.46954070319E+02  0.00000000000E+00 0. -1.
          2   -1    0    0  501    0  0.00000000000E+00 -0.00000000000E+00 -0.97901753450E+03  0.97901753450E+03  0.00000000000E+00 0.  1.
         23    2    1    2    0    0  0.47847183191E+02  0.89222617554E+02 -0.77665912892E+02  0.15656346300E+03  0.90719873776E+02 0.  0.
         23    2    1    2    0    0 -0.47847183191E+02 -0.89222617554E+02 -0.85439755129E+03  0.86940814182E+03  0.12500125197E+03 0.  0.
          5    1    4    4  502    0 -0.28363387735E+02  0.19501918774E+02 -0.80818371442E+02  0.87968777201E+02  0.47000000000E+01 0. -1.
         -5    1    4    4    0  502 -0.19483795456E+02 -0.10872453633E+03 -0.77357917985E+03  0.78143936462E+03  0.47000000000E+01 0. -1.
        -11    1    3    3    0    0  0.10196148871E+01  0.75334241161E+02 -0.14513157157E+02  0.76726261713E+02  0.00000000000E+00 0. -1.
         11    1    3    3    0    0  0.46827568304E+02  0.13888376394E+02 -0.63152755735E+02  0.79837201285E+02  0.00000000000E+00 0.  1.
<mgrwt>
<rscale>  0 0.15423054E+03</rscale>
<asrwt>0</asrwt>
<pdfrwt beam="2">  1        2 0.15061810E+00 0.16085814E+03</pdfrwt>
<pdfrwt beam="1">  1       -2 0.72237023E-02 0.16085814E+03</pdfrwt>
<totfact> 0.29684219E+03</totfact>
</mgrwt>
</event>
<event>
 8    1  0.7550631E-006  0.1269231E+03  0.7546771E-02  0.1245355E+00
          2   -1    0    0  501    0  0.00000000000E+00  0.00000000000E+00  0.17976835590E+03  0.17976835590E+03  0.00000000000E+00 0. -1.
         -2   -1    0    0    0  501 -0.00000000000E+00 -0.00000000000E+00 -0.85359078583E+02  0.85359078583E+02  0.00000000000E+00 0.  1.
         23    2    1    2    0    0 -0.58160547283E+01 -0.21224729754E+02 -0.14379033259E+02  0.97961737602E+02  0.94368584766E+02 0.  0.
         23    2    1    2    0    0  0.58160547283E+01  0.21224729754E+02  0.10878831057E+03  0.16716569688E+03  0.12500063220E+03 0.  0.
          5    1    4    4  502    0 -0.46812762783E+02  0.45199849032E+02  0.77287635769E+02  0.10114311521E+03  0.47000000000E+01 0.  1.
         -5    1    4    4    0  502  0.52628817511E+02 -0.23975119279E+02  0.31500674805E+02  0.66022581669E+02  0.47000000000E+01 0.  1.
        -11    1    3    3    0    0  0.23582443971E+02  0.12236302823E+02 -0.38907628218E+02  0.47113292222E+02  0.00000000000E+00 0.  1.
         11    1    3    3    0    0 -0.29398498699E+02 -0.33461032576E+02  0.24528594960E+02  0.50848445380E+02  0.00000000000E+00 0. -1.
<mgrwt>
<rscale>  0 0.11864167E+03</rscale>
<asrwt>0</asrwt>
<pdfrwt beam="1">  1        2 0.27656670E-01 0.12692310E+03</pdfrwt>
<pdfrwt beam="2">  1       -2 0.13132166E-01 0.12692310E+03</pdfrwt>
<totfact> 0.77198643E+03</totfact>
</mgrwt>
</event>
<event>
 8    1  0.7550631E-006  0.1320460E+03  0.7546771E-02  0.1237952E+00
         -1   -1    0    0    0  501 -0.00000000000E+00  0.00000000000E+00  0.16239612895E+03  0.16239612895E+03  0.00000000000E+00 0.  1.
          1   -1    0    0  501    0  0.00000000000E+00 -0.00000000000E+00 -0.85220107970E+02  0.85220107970E+02  0.00000000000E+00 0. -1.
         23    2    1    2    0    0  0.40842962212E+02 -0.11874881608E+02  0.53751930994E+02  0.11350866110E+03  0.90475331904E+02 0.  0.
         23    2    1    2    0    0 -0.40842962212E+02  0.11874881608E+02  0.23424089984E+02  0.13410757582E+03  0.12500797385E+03 0.  0.
          5    1    4    4  502    0 -0.14359684545E+02  0.66505291254E+02  0.26425993452E+02  0.73140805539E+02  0.47000000000E+01 0. -1.
         -5    1    4    4    0  502 -0.26483277667E+02 -0.54630409645E+02 -0.30019034681E+01  0.60966770281E+02  0.47000000000E+01 0. -1.
        -11    1    3    3    0    0  0.61935913252E+02 -0.25394541201E+02  0.17060880851E+02  0.69079763524E+02  0.00000000000E+00 0.  1.
         11    1    3    3    0    0 -0.21092951039E+02  0.13519659593E+02  0.36691050142E+02  0.44428897573E+02  0.00000000000E+00 0. -1.
<mgrwt>
<rscale>  0 0.12317330E+03</rscale>
<asrwt>0</asrwt>
<pdfrwt beam="2">  1        1 0.13110786E-01 0.13204603E+03</pdfrwt>
<pdfrwt beam="1">  1       -1 0.24984020E-01 0.13204603E+03</pdfrwt>
<totfact> 0.58942519E+03</totfact>
</mgrwt>
</event>
<event>
 7    1  0.7550631E-006  0.1829756E+03  0.7546771E-02  0.1186335E+00
         -2   -1    0    0    0  501 -0.00000000000E+00  0.00000000000E+00  0.32286588316E+02  0.32286588316E+02  0.00000000000E+00 0.  1.
          2   -1    0    0  501    0  0.00000000000E+00 -0.00000000000E+00 -0.18281354269E+04  0.18281354269E+04  0.00000000000E+00 0. -1.
         23    2    1    2    0    0 -0.66301302029E+02 -0.26321342428E+01 -0.88570887129E+02  0.14336695693E+03  0.91139955622E+02 0.  0.
          5    1    1    2  502    0  0.12336575354E+03  0.13209000559E+02 -0.10960243914E+04  0.11030345160E+04  0.47000000000E+01 0. -1.
         -5    1    1    2    0  502 -0.57064451515E+02 -0.10576866316E+02 -0.61125356004E+03  0.61402054232E+03  0.47000000000E+01 0.  1.
        -11    1    3    3    0    0 -0.52841212132E+01  0.13086055133E+02 -0.78256853169E+02  0.79519191670E+02  0.00000000000E+00 0. -1.
         11    1    3    3    0    0 -0.61017180816E+02 -0.15718189376E+02 -0.10314033960E+02  0.63847765258E+02  0.00000000000E+00 0.  1.
<mgrwt>
<rscale>  0 0.16211008E+03</rscale>
<asrwt>0</asrwt>
<pdfrwt beam="2">  1        2 0.28125168E+00 0.18297560E+03</pdfrwt>
<pdfrwt beam="1">  1       -2 0.49671661E-02 0.18297560E+03</pdfrwt>
<totfact> 0.18188651E+03</totfact>
</mgrwt>
</event>
<event>
 8    1  0.7550631E-006  0.1386019E+03  0.7546771E-02  0.1226628E+00
         -2   -1    0    0    0  501 -0.00000000000E+00  0.00000000000E+00  0.31946537672E+03  0.31946537672E+03  0.00000000000E+00 0. -1.
          2   -1    0    0  501    0  0.00000000000E+00 -0.00000000000E+00 -0.56532132379E+02  0.56532132379E+02  0.00000000000E+00 0.  1.
         23    2    1    2    0    0  0.42266191244E+02 -0.42482223257E+02  0.19066716379E+03  0.21968733178E+03  0.91199704947E+02 0.  0.
         23    2    1    2    0    0 -0.42266191244E+02  0.42482223257E+02  0.72266080551E+02  0.15631017732E+03  0.12497725761E+03 0.  0.
          5    1    4    4  502    0  0.13338875481E+01  0.80128586535E+02  0.48703936720E+02  0.93896395501E+02  0.47000000000E+01 0.  1.
         -5    1    4    4    0  502 -0.43600078792E+02 -0.37646363278E+02  0.23562143832E+02  0.62413781817E+02  0.47000000000E+01 0.  1.
        -11    1    3    3    0    0 -0.26681079541E+01 -0.59160035588E+02  0.84318301556E+02  0.10303690886E+03  0.00000000000E+00 0.  1.
         11    1    3    3    0    0  0.44934299198E+02  0.16677812331E+02  0.10634886223E+03  0.11665042292E+03  0.00000000000E+00 0. -1.
<mgrwt>
<rscale>  0 0.13055974E+03</rscale>
<asrwt>0</asrwt>
<pdfrwt beam="2">  1        2 0.86972513E-02 0.13860189E+03</pdfrwt>
<pdfrwt beam="1">  1       -2 0.49148518E-01 0.13860189E+03</pdfrwt>
<totfact> 0.29189229E+03</totfact>
</mgrwt>
</event>
<event>
 8    1  0.7550631E-006  0.1859119E+03  0.7546771E-02  0.1169347E+00
         -1   -1    0    0    0  501 -0.00000000000E+00  0.00000000000E+00  0.19644527330E+03  0.19644527330E+03  0.00000000000E+00 0.  1.
          1   -1    0    0  501    0  0.00000000000E+00 -0.00000000000E+00 -0.15735755315E+03  0.15735755315E+03  0.00000000000E+00 0. -1.
         23    2    1    2    0    0 -0.24785937009E+02 -0.13537243917E+03  0.55501498112E+02  0.16716772677E+03  0.76971375323E+02 0.  0.
         23    2    1    2    0    0  0.24785937009E+02  0.13537243917E+03 -0.16413777963E+02  0.18663509968E+03  0.12499283325E+03 0.  0.
          5    1    4    4  502    0 -0.37798858237E+02  0.11475931482E+02 -0.25828459182E+02  0.47430475341E+02  0.47000000000E+01 0. -1.
         -5    1    4    4    0  502  0.62584795246E+02  0.12389650769E+03  0.94146812191E+01  0.13920462434E+03  0.47000000000E+01 0. -1.
        -11    1    3    3    0    0 -0.50953921199E+00 -0.58889573055E+02  0.63405586387E+02  0.86536176423E+02  0.00000000000E+00 0.  1.
         11    1    3    3    0    0 -0.24276397797E+02 -0.76482866119E+02 -0.79040882746E+01  0.80631550346E+02  0.00000000000E+00 0. -1.
<mgrwt>
<rscale>  0 0.17841371E+03</rscale>
<asrwt>0</asrwt>
<pdfrwt beam="2">  1        1 0.24208855E-01 0.18591194E+03</pdfrwt>
<pdfrwt beam="1">  1       -1 0.30222350E-01 0.18591194E+03</pdfrwt>
<totfact> 0.19841385E+03</totfact>
</mgrwt>
</event>
<event>
 8    1  0.7550631E-006  0.1375727E+03  0.7546771E-02  0.1228116E+00
         -1   -1    0    0    0  501 -0.00000000000E+00  0.00000000000E+00  0.54673855862E+02  0.54673855862E+02  0.00000000000E+00 0.  1.
          1   -1    0    0  501    0  0.00000000000E+00 -0.00000000000E+00 -0.55516313534E+03  0.55516313534E+03  0.00000000000E+00 0. -1.
         23    2    1    2    0    0  0.13703292704E+02 -0.54262393541E+02 -0.19991412943E+02  0.11003258382E+03  0.92603052466E+02 0.  0.
         23    2    1    2    0    0 -0.13703292704E+02  0.54262393541E+02 -0.48049786653E+03  0.49980440738E+03  0.12567441392E+03 0.  0.
          5    1    4    4  502    0  0.53248629724E+02  0.25400710100E+02 -0.28549067298E+03  0.29156067464E+03  0.47000000000E+01 0. -1.
         -5    1    4    4    0  502 -0.66951922428E+02  0.28861683440E+02 -0.19500719356E+03  0.20824373274E+03  0.47000000000E+01 0. -1.
        -11    1    3    3    0    0  0.28743870606E+02 -0.21378266909E+02 -0.51050117149E+02  0.62364692370E+02  0.00000000000E+00 0. -1.
         11    1    3    3    0    0 -0.15040577902E+02 -0.32884126631E+02  0.31058704206E+02  0.47667891445E+02  0.00000000000E+00 0.  1.
<mgrwt>
<rscale>  0 0.12955592E+03</rscale>
<asrwt>0</asrwt>
<pdfrwt beam="2">  1        1 0.85409713E-01 0.13757269E+03</pdfrwt>
<pdfrwt beam="1">  1       -1 0.84113625E-02 0.13757269E+03</pdfrwt>
<totfact> 0.30458034E+03</totfact>
</mgrwt>
</event>
<event>
 8    1  0.7550631E-006  0.1316125E+03  0.7546771E-02  0.1239149E+00
          2   -1    0    0  501    0  0.00000000000E+00  0.00000000000E+00  0.38047879008E+03  0.38047879008E+03  0.00000000000E+00 0. -1.
         -2   -1    0    0    0  501 -0.00000000000E+00 -0.00000000000E+00 -0.39490256271E+02  0.39490256271E+02  0.00000000000E+00 0.  1.
         23    2    1    2    0    0 -0.34428929412E+02 -0.22615810372E+02  0.77217643026E+02  0.12518618834E+03  0.89510844576E+02 0.  0.
         23    2    1    2    0    0  0.34428929412E+02  0.22615810372E+02  0.26377089078E+03  0.29478285801E+03  0.12500009798E+03 0.  0.
          5    1    4    4  502    0  0.11773979775E+02  0.65685240106E+02  0.21717180202E+03  0.22724185125E+03  0.47000000000E+01 0.  1.
         -5    1    4    4    0  502  0.22654949637E+02 -0.43069429734E+02  0.46599088760E+02  0.67541006758E+02  0.47000000000E+01 0.  1.
        -11    1    3    3    0    0  0.42043789792E+01 -0.50068838020E+02  0.48130374966E+02  0.69578001822E+02  0.00000000000E+00 0. -1.
         11    1    3    3    0    0 -0.38633308391E+02  0.27453027648E+02  0.29087268060E+02  0.55608186515E+02  0.00000000000E+00 0.  1.
<mgrwt>
<rscale>  0 0.12242490E+03</rscale>
<asrwt>0</asrwt>
<pdfrwt beam="1">  1        2 0.58535196E-01 0.13161250E+03</pdfrwt>
<pdfrwt beam="2">  1       -2 0.60754243E-02 0.13161250E+03</pdfrwt>
<totfact> 0.11559045E+04</totfact>
</mgrwt>
</event>
<event>
 8    1  0.7550631E-006  0.1547842E+03  0.7546771E-02  0.1203172E+00
          1   -1    0    0  501    0  0.00000000000E+00  0.00000000000E+00  0.39106934968E+03  0.39106934968E+03  0.00000000000E+00 0. -1.
         -1   -1    0    0    0  501 -0.00000000000E+00 -0.00000000000E+00 -0.87102679991E+02  0.87102679991E+02  0.00000000000E+00 0.  1.
         23    2    1    2    0    0 -0.90643612216E+02 -0.10607612963E+02 -0.89389835849E+01  0.12907590775E+03  0.90839961723E+02 0.  0.
         23    2    1    2    0    0  0.90643612216E+02  0.10607612963E+02  0.31290565327E+03  0.34909612192E+03  0.12501747318E+03 0.  0.
          5    1    4    4  502    0  0.11221451020E+03  0.12045908351E+02  0.30558336019E+03  0.32579208129E+03  0.47000000000E+01 0.  1.
         -5    1    4    4    0  502 -0.21570897988E+02 -0.14382953883E+01  0.73222930884E+01  0.23304040631E+02  0.47000000000E+01 0.  1.
        -11    1    3    3    0    0 -0.39033618924E+01 -0.20688435597E+02 -0.32414291932E+02  0.38651441409E+02  0.00000000000E+00 0.  1.
         11    1    3    3    0    0 -0.86740250323E+02  0.10080822634E+02  0.23475308347E+02  0.90424466342E+02  0.00000000000E+00 0. -1.
<mgrwt>
<rscale>  0 0.14782413E+03</rscale>
<asrwt>0</asrwt>
<pdfrwt beam="1">  1        1 0.60164514E-01 0.15478422E+03</pdfrwt>
<pdfrwt beam="2">  1       -1 0.13400413E-01 0.15478422E+03</pdfrwt>
<totfact> 0.23546612E+03</totfact>
</mgrwt>
</event>
<event>
 8    1  0.7550631E-006  0.1971318E+03  0.7546771E-02  0.1156749E+00
          2   -1    0    0  501    0  0.00000000000E+00  0.00000000000E+00  0.65403554801E+03  0.65403554801E+03  0.00000000000E+00 0. -1.
         -2   -1    0    0    0  501 -0.00000000000E+00 -0.00000000000E+00 -0.56016958129E+02  0.56016958129E+02  0.00000000000E+00 0.  1.
         23    2    1    2    0    0 -0.14103674463E+03 -0.57810075671E+02  0.20885984651E+03  0.27381236882E+03  0.90096668377E+02 0.  0.
         23    2    1    2    0    0  0.14103674463E+03  0.57810075671E+02  0.38915874338E+03  0.43624013732E+03  0.12501024628E+03 0.  0.
          5    1    4    4  502    0 -0.17346319835E+02  0.31503633800E+02  0.80349671913E+02  0.88156301708E+02  0.47000000000E+01 0. -1.
         -5    1    4    4    0  502  0.15838306447E+03  0.26306441871E+02  0.30880907147E+03  0.34808383561E+03  0.47000000000E+01 0. -1.
        -11    1    3    3    0    0 -0.11445613476E+03 -0.25144263294E+02  0.90137566293E+02  0.14784188046E+03  0.00000000000E+00 0.  1.
         11    1    3    3    0    0 -0.26580609872E+02 -0.32665812377E+02  0.11872228021E+03  0.12597048836E+03  0.00000000000E+00 0. -1.
<mgrwt>
<rscale>  0 0.19191039E+03</rscale>
<asrwt>0</asrwt>
<pdfrwt beam="1">  1        2 0.10062085E+00 0.19713176E+03</pdfrwt>
<pdfrwt beam="2">  1       -2 0.86179940E-02 0.19713176E+03</pdfrwt>
<totfact> 0.37791588E+03</totfact>
</mgrwt>
</event>
<event>
 8    1  0.7550631E-006  0.1292973E+03  0.7546771E-02  0.1241290E+00
         -2   -1    0    0    0  501 -0.00000000000E+00  0.00000000000E+00  0.21982737179E+03  0.21982737179E+03  0.00000000000E+00 0.  1.
          2   -1    0    0  501    0  0.00000000000E+00 -0.00000000000E+00 -0.59549375771E+02  0.59549375771E+02  0.00000000000E+00 0. -1.
         23    2    1    2    0    0  0.26340592853E+02  0.20004052393E+02  0.67533594243E+02  0.12025628927E+03  0.93844551323E+02 0.  0.
         23    2    1    2    0    0 -0.26340592853E+02 -0.20004052393E+02  0.92744401780E+02  0.15912045830E+03  0.12499522888E+03 0.  0.
          5    1    4    4  502    0  0.26499097147E+02 -0.23122902638E+02 -0.15358050180E+02  0.38663037664E+02  0.47000000000E+01 0. -1.
         -5    1    4    4    0  502 -0.52839690001E+02  0.31188502448E+01  0.10810245196E+03  0.12045742063E+03  0.47000000000E+01 0. -1.
        -11    1    3    3    0    0 -0.33794427546E+02  0.81566102642E+01  0.99555832618E+01  0.36162235304E+02  0.00000000000E+00 0. -1.
         11    1    3    3    0    0  0.60135020399E+02  0.11847442129E+02  0.57578010981E+02  0.84094053963E+02  0.00000000000E+00 0.  1.
<mgrwt>
<rscale>  0 0.12110187E+03</rscale>
<asrwt>0</asrwt>
<pdfrwt beam="2">  1        2 0.91614425E-02 0.12929732E+03</pdfrwt>
<pdfrwt beam="1">  1       -2 0.33819595E-01 0.12929732E+03</pdfrwt>
<totfact> 0.55412015E+03</totfact>
</mgrwt>
</event>
<event>
 8    1  0.7550631E-006  0.1395229E+03  0.7546771E-02  0.1222646E+00
          1   -1    0    0  501    0  0.00000000000E+00  0.00000000000E+00  0.24345831026E+03  0.24345831026E+03  0.00000000000E+00 0. -1.
         -1   -1    0    0    0  501 -0.00000000000E+00 -0.00000000000E+00 -0.67221114103E+02  0.67221114103E+02  0.00000000000E+00 0.  1.
         23    2    1    2    0    0 -0.53038561891E+02  0.32068693521E+02  0.75779551684E+02  0.13875389239E+03  0.98329100725E+02 0.  0.
         23    2    1    2    0    0  0.53038561891E+02 -0.32068693521E+02  0.10045764447E+03  0.17192553196E+03  0.12500064023E+03 0.  0.
          5    1    4    4  502    0  0.79323125024E+02  0.19116722912E+02  0.56337722671E+02  0.99265483700E+02  0.47000000000E+01 0. -1.
         -5    1    4    4    0  502 -0.26284563132E+02 -0.51185416433E+02  0.44119921797E+02  0.72660048264E+02  0.47000000000E+01 0. -1.
        -11    1    3    3    0    0  0.49947017156E+01 -0.19568762167E+02 -0.10412393738E+02  0.22722267522E+02  0.00000000000E+00 0.  1.
         11    1    3    3    0    0 -0.58033263607E+02  0.51637455688E+02  0.86191945422E+02  0.11603162487E+03  0.00000000000E+00 0. -1.
<mgrwt>
<rscale>  0 0.13329582E+03</rscale>
<asrwt>0</asrwt>
<pdfrwt beam="1">  1        1 0.37455124E-01 0.13952294E+03</pdfrwt>
<pdfrwt beam="2">  1       -1 0.10341710E-01 0.13952294E+03</pdfrwt>
<totfact> 0.63062086E+03</totfact>
</mgrwt>
</event>
<event>
 7    1  0.7550631E-006  0.1339858E+03  0.7546771E-02  0.1235203E+00
         -2   -1    0    0    0  501 -0.00000000000E+00  0.00000000000E+00  0.19107332264E+02  0.19107332264E+02  0.00000000000E+00 0.  1.
          2   -1    0    0  501    0  0.00000000000E+00 -0.00000000000E+00 -0.81185096698E+03  0.81185096698E+03  0.00000000000E+00 0. -1.
         23    2    1    2    0    0  0.24130500030E+02  0.21478968702E+02 -0.21153682256E+03  0.23450749708E+03  0.95928680605E+02 0.  0.
          5    1    1    2  502    0 -0.15017582731E+02  0.12314041869E+02 -0.54673812159E+03  0.54710312283E+03  0.47000000000E+01 0. -1.
         -5    1    1    2    0  502 -0.91129172998E+01 -0.33793010571E+02 -0.34468690568E+02  0.49347679323E+02  0.47000000000E+01 0.  1.
        -11    1    3    3    0    0  0.31302785313E+02  0.49105897208E+02 -0.19007612730E+03  0.19879685027E+03  0.00000000000E+00 0.  1.
         11    1    3    3    0    0 -0.71722852829E+01 -0.27626928506E+02 -0.21460695262E+02  0.35710646816E+02  0.00000000000E+00 0. -1.
<mgrwt>
<rscale>  0 0.12491457E+03</rscale>
<asrwt>0</asrwt>
<pdfrwt beam="2">  1        2 0.12490016E+00 0.13398582E+03</pdfrwt>
<pdfrwt beam="1">  1       -2 0.29395894E-02 0.13398582E+03</pdfrwt>
<totfact> 0.14488311E+04</totfact>
</mgrwt>
</event>
<event>
 8    1  0.7550631E-006  0.1873458E+03  0.7546771E-02  0.1166139E+00
          1   -1    0    0  501    0  0.00000000000E+00  0.00000000000E+00  0.46022215627E+02  0.46022215627E+02  0.00000000000E+00 0. -1.
         -1   -1    0    0    0  501 -0.00000000000E+00 -0.00000000000E+00 -0.67849636396E+03  0.67849636396E+03  0.00000000000E+00 0.  1.
         23    2    1    2    0    0  0.52001572482E+02  0.12950020814E+03 -0.30912467465E+03  0.35081636605E+03  0.89663765045E+02 0.  0.
         23    2    1    2    0    0 -0.52001572482E+02 -0.12950020814E+03 -0.32334947369E+03  0.37370221354E+03  0.12499597923E+03 0.  0.
          5    1    4    4  502    0 -0.11153847802E+02 -0.12167909021E+03 -0.30384304009E+03  0.32752540715E+03  0.47000000000E+01 0. -1.
         -5    1    4    4    0  502 -0.40847724680E+02 -0.78211179252E+01 -0.19506433595E+02  0.46176806394E+02  0.47000000000E+01 0. -1.
        -11    1    3    3    0    0  0.62308847056E+02  0.85501596035E+02 -0.13835977922E+03  0.17417331555E+03  0.00000000000E+00 0. -1.
         11    1    3    3    0    0 -0.10307274574E+02  0.43998612103E+02 -0.17076489543E+03  0.17664305050E+03  0.00000000000E+00 0.  1.
<mgrwt>
<rscale>  0 0.18173031E+03</rscale>
<asrwt>0</asrwt>
<pdfrwt beam="1">  1        1 0.70803409E-02 0.18734584E+03</pdfrwt>
<pdfrwt beam="2">  1       -1 0.10438406E+00 0.18734584E+03</pdfrwt>
<totfact> 0.93390921E+02</totfact>
</mgrwt>
</event>
<event>
 8    1  0.7550631E-006  0.1302783E+03  0.7546771E-02  0.1238668E+00
         -1   -1    0    0    0  501 -0.00000000000E+00  0.00000000000E+00  0.23739999833E+02  0.23739999833E+02  0.00000000000E+00 0.  1.
          1   -1    0    0  501    0  0.00000000000E+00 -0.00000000000E+00 -0.65777076839E+03  0.65777076839E+03  0.00000000000E+00 0. -1.
         23    2    1    2    0    0 -0.38858436188E+01  0.36502146705E+02 -0.16134174490E+03  0.19119724631E+03  0.95800427220E+02 0.  0.
         23    2    1    2    0    0  0.38858436188E+01 -0.36502146705E+02 -0.47268902366E+03  0.49031352191E+03  0.12499972075E+03 0.  0.
          5    1    4    4  502    0 -0.33858364828E+02 -0.34423753946E+02 -0.66353952722E+02  0.82196841462E+02  0.47000000000E+01 0.  1.
         -5    1    4    4    0  502  0.37744208447E+02 -0.20783927589E+01 -0.40633507094E+03  0.40811668045E+03  0.47000000000E+01 0.  1.
        -11    1    3    3    0    0  0.34756175298E+02  0.13766942961E+02 -0.18946295081E+02  0.41910410844E+02  0.00000000000E+00 0.  1.
         11    1    3    3    0    0 -0.38642018917E+02  0.22735203744E+02 -0.14239544982E+03  0.14928683547E+03  0.00000000000E+00 0. -1.
<mgrwt>
<rscale>  0 0.12272499E+03</rscale>
<asrwt>0</asrwt>
<pdfrwt beam="2">  1        1 0.10119550E+00 0.13027830E+03</pdfrwt>
<pdfrwt beam="1">  1       -1 0.36523076E-02 0.13027830E+03</pdfrwt>
<totfact> 0.83223931E+03</totfact>
</mgrwt>
</event>
<event>
 8    1  0.7550631E-006  0.1262765E+03  0.7546771E-02  0.1248203E+00
         -2   -1    0    0    0  501 -0.00000000000E+00  0.00000000000E+00  0.12752245800E+02  0.12752245800E+02  0.00000000000E+00 0.  1.
          2   -1    0    0  501    0  0.00000000000E+00 -0.00000000000E+00 -0.14891097803E+04  0.14891097803E+04  0.00000000000E+00 0. -1.
         23    2    1    2    0    0 -0.11138482844E+02 -0.13971812734E+02 -0.21530161673E+03  0.23449949589E+03  0.91191831084E+02 0.  0.
         23    2    1    2    0    0  0.11138482844E+02  0.13971812734E+02 -0.12610559178E+04  0.12673625302E+04  0.12500591138E+03 0.  0.
          5    1    4    4  502    0 -0.18654858014E+02 -0.39891228747E+02 -0.21646645955E+03  0.22095051928E+03  0.47000000000E+01 0.  1.
         -5    1    4    4    0  502  0.29793340858E+02  0.53863041481E+02 -0.10445894582E+04  0.10464120109E+04  0.47000000000E+01 0.  1.
        -11    1    3    3    0    0  0.28554798002E+02  0.79380447934E+01 -0.24703406325E+02  0.38582992732E+02  0.00000000000E+00 0.  1.
         11    1    3    3    0    0 -0.39693280847E+02 -0.21909857527E+02 -0.19059821041E+03  0.19591650316E+03  0.00000000000E+00 0. -1.
<mgrwt>
<rscale>  0 0.11695698E+03</rscale>
<asrwt>0</asrwt>
<pdfrwt beam="2">  1        2 0.22909393E+00 0.12627650E+03</pdfrwt>
<pdfrwt beam="1">  1       -2 0.19618829E-02 0.12627650E+03</pdfrwt>
<totfact> 0.10675259E+04</totfact>
</mgrwt>
</event>
<event>
 8    1  0.7550631E-006  0.1376700E+03  0.7546771E-02  0.1217356E+00
         -2   -1    0    0    0  501 -0.00000000000E+00  0.00000000000E+00  0.42476549710E+02  0.42476549710E+02  0.00000000000E+00 0. -1.
          2   -1    0    0  501    0  0.00000000000E+00 -0.00000000000E+00 -0.46320625499E+03  0.46320625499E+03  0.00000000000E+00 0.  1.
         23    2    1    2    0    0  0.25958280144E+02 -0.44484422488E+02 -0.15346005682E+03  0.20616258367E+03  0.12767272894E+03 0.  0.
         23    2    1    2    0    0 -0.25958280144E+02  0.44484422488E+02 -0.26726964846E+03  0.29952022103E+03  0.12500640650E+03 0.  0.
          5    1    4    4  502    0  0.24293274616E+02 -0.33514850179E+02 -0.69780989656E+02  0.81270442914E+02  0.47000000000E+01 0.  1.
         -5    1    4    4    0  502 -0.50251554761E+02  0.77999272666E+02 -0.19748865880E+03  0.21824977812E+03  0.47000000000E+01 0.  1.
        -11    1    3    3    0    0 -0.33769027364E+02 -0.37087807391E+02 -0.13373067969E+03  0.14282768414E+03  0.00000000000E+00 0.  1.
         11    1    3    3    0    0  0.59727307508E+02 -0.73966150965E+01 -0.19729377137E+02  0.63334899536E+02  0.00000000000E+00 0. -1.
<mgrwt>
<rscale>  0 0.13704852E+03</rscale>
<asrwt>0</asrwt>
<pdfrwt beam="2">  1        2 0.71262497E-01 0.13766997E+03</pdfrwt>
<pdfrwt beam="1">  1       -2 0.65348541E-02 0.13766997E+03</pdfrwt>
<totfact> 0.84025764E+03</totfact>
</mgrwt>
</event>
<event>
 8    1  0.7550631E-006  0.1329662E+03  0.7546771E-02  0.1239113E+00
          1   -1    0    0  501    0  0.00000000000E+00  0.00000000000E+00  0.46633420279E+03  0.46633420279E+03  0.00000000000E+00 0. -1.
         -1   -1    0    0    0  501 -0.00000000000E+00 -0.00000000000E+00 -0.30749255015E+02  0.30749255015E+02  0.00000000000E+00 0.  1.
         23    2    1    2    0    0  0.45119199218E+02 -0.44475657155E+01  0.11215677389E+03  0.14738958619E+03  0.84196349134E+02 0.  0.
         23    2    1    2    0    0 -0.45119199218E+02  0.44475657155E+01  0.32342817389E+03  0.34969387162E+03  0.12499798881E+03 0.  0.
          5    1    4    4  502    0 -0.70441532047E+02  0.54613444406E+01  0.88429506783E+02  0.11328593642E+03  0.47000000000E+01 0.  1.
         -5    1    4    4    0  502  0.25322332828E+02 -0.10137787252E+01  0.23499866710E+03  0.23640793521E+03  0.47000000000E+01 0.  1.
        -11    1    3    3    0    0  0.38883380031E+02 -0.41382477934E+02  0.55006457881E+02  0.79057808794E+02  0.00000000000E+00 0.  1.
         11    1    3    3    0    0  0.62358191866E+01  0.36934912219E+02  0.57150316009E+02  0.68331777392E+02  0.00000000000E+00 0. -1.
<mgrwt>
<rscale>  0 0.12244789E+03</rscale>
<asrwt>0</asrwt>
<pdfrwt beam="1">  1        1 0.71743718E-01 0.13296624E+03</pdfrwt>
<pdfrwt beam="2">  1       -1 0.47306550E-02 0.13296624E+03</pdfrwt>
<totfact> 0.90208792E+03</totfact>
</mgrwt>
</event>
<event>
 8    1  0.7550631E-006  0.1260481E+03  0.7546771E-02  0.1250249E+00
          1   -1    0    0  501    0  0.00000000000E+00  0.00000000000E+00  0.10061626851E+04  0.10061626851E+04  0.00000000000E+00 0. -1.
         -1   -1    0    0    0  501 -0.00000000000E+00 -0.00000000000E+00 -0.12579528384E+02  0.12579528384E+02  0.00000000000E+00 0.  1.
         23    2    1    2    0    0  0.82020945829E+01 -0.13867078278E+02  0.27698377547E+03  0.29114149994E+03  0.88225794977E+02 0.  0.
         23    2    1    2    0    0 -0.82020945829E+01  0.13867078278E+02  0.71659938120E+03  0.72760071350E+03  0.12501421890E+03 0.  0.
          5    1    4    4  502    0 -0.10379402224E+02  0.66723431728E+02  0.29482093001E+03  0.30249168435E+03  0.47000000000E+01 0.  1.
         -5    1    4    4    0  502  0.21773076412E+01 -0.52856353449E+02  0.42177845119E+03  0.42510902914E+03  0.47000000000E+01 0.  1.
        -11    1    3    3    0    0 -0.17854654122E+02 -0.45084319972E+02  0.13475433360E+03  0.14321352940E+03  0.00000000000E+00 0.  1.
         11    1    3    3    0    0  0.26056748705E+02  0.31217241694E+02  0.14222944187E+03  0.14792797054E+03  0.00000000000E+00 0. -1.
<mgrwt>
<rscale>  0 0.11576624E+03</rscale>
<asrwt>0</asrwt>
<pdfrwt beam="1">  1        1 0.15479420E+00 0.12604811E+03</pdfrwt>
<pdfrwt beam="2">  1       -1 0.19353129E-02 0.12604811E+03</pdfrwt>
<totfact> 0.10915414E+04</totfact>
</mgrwt>
</event>
<event>
 8    1  0.7550631E-006  0.1383232E+03  0.7546771E-02  0.1227728E+00
          1   -1    0    0  501    0  0.00000000000E+00  0.00000000000E+00  0.18433168457E+03  0.18433168457E+03  0.00000000000E+00 0. -1.
         -1   -1    0    0    0  501 -0.00000000000E+00 -0.00000000000E+00 -0.97189850012E+02  0.97189850012E+02  0.00000000000E+00 0.  1.
         23    2    1    2    0    0 -0.34627451660E+01 -0.59149918195E+02 -0.16643140747E+02  0.10859197108E+03  0.89467975404E+02 0.  0.
         23    2    1    2    0    0  0.34627451660E+01  0.59149918195E+02  0.10378497531E+03  0.17292956350E+03  0.12499043726E+03 0.  0.
          5    1    4    4  502    0 -0.41061768087E+02  0.74632704747E+02  0.42049312722E+02  0.95112271115E+02  0.47000000000E+01 0.  1.
         -5    1    4    4    0  502  0.44524513253E+02 -0.15482786552E+02  0.61735662584E+02  0.77817292388E+02  0.47000000000E+01 0.  1.
        -11    1    3    3    0    0 -0.17489654544E+02 -0.22915367723E+02  0.34118783438E+02  0.44666469272E+02  0.00000000000E+00 0. -1.
         11    1    3    3    0    0  0.14026909378E+02 -0.36234550473E+02 -0.50761924185E+02  0.63925501809E+02  0.00000000000E+00 0.  1.
<mgrwt>
<rscale>  0 0.12981664E+03</rscale>
<asrwt>0</asrwt>
<pdfrwt beam="1">  1        1 0.28358721E-01 0.13832322E+03</pdfrwt>
<pdfrwt beam="2">  1       -1 0.14952285E-01 0.13832322E+03</pdfrwt>
<totfact> 0.50319955E+03</totfact>
</mgrwt>
</event>
<event>
 8    1  0.7550631E-006  0.1307025E+03  0.7546771E-02  0.1241182E+00
         -1   -1    0    0    0  501 -0.00000000000E+00  0.00000000000E+00  0.17072160996E+02  0.17072160996E+02  0.00000000000E+00 0.  1.
          1   -1    0    0  501    0  0.00000000000E+00 -0.00000000000E+00 -0.76050328782E+03  0.76050328782E+03  0.00000000000E+00 0. -1.
         23    2    1    2    0    0 -0.13767508064E+02  0.35531871225E+02 -0.28718377486E+03  0.30297584450E+03  0.88700527949E+02 0.  0.
         23    2    1    2    0    0  0.13767508064E+02 -0.35531871225E+02 -0.45624735197E+03  0.47459960432E+03  0.12502431799E+03 0.  0.
          5    1    4    4  502    0 -0.18512935238E+02  0.21537072890E+02 -0.24278265187E+02  0.37657647833E+02  0.47000000000E+01 0. -1.
         -5    1    4    4    0  502  0.32280443302E+02 -0.57068944114E+02 -0.43196908678E+03  0.43694195648E+03  0.47000000000E+01 0. -1.
        -11    1    3    3    0    0 -0.49933366619E+02  0.32312593706E+02 -0.19612670267E+03  0.20494664748E+03  0.00000000000E+00 0. -1.
         11    1    3    3    0    0  0.36165858555E+02  0.32192775188E+01 -0.91057072191E+02  0.98029197022E+02  0.00000000000E+00 0.  1.
<mgrwt>
<rscale>  0 0.12116828E+03</rscale>
<asrwt>0</asrwt>
<pdfrwt beam="2">  1        1 0.11700047E+00 0.13070248E+03</pdfrwt>
<pdfrwt beam="1">  1       -1 0.26264871E-02 0.13070248E+03</pdfrwt>
<totfact> 0.10927016E+04</totfact>
</mgrwt>
</event>
<event>
 8    1  0.7550631E-006  0.1620108E+03  0.7546771E-02  0.1192999E+00
         -1   -1    0    0    0  501 -0.00000000000E+00  0.00000000000E+00  0.15932252827E+03  0.15932252827E+03  0.00000000000E+00 0.  1.
          1   -1    0    0  501    0  0.00000000000E+00 -0.00000000000E+00 -0.45933662252E+03  0.45933662252E+03  0.00000000000E+00 0. -1.
         23    2    1    2    0    0 -0.90364562218E+02  0.49533728065E+02  0.10975758959E+03  0.17802286116E+03  0.95005611956E+02 0.  0.
         23    2    1    2    0    0  0.90364562218E+02 -0.49533728065E+02 -0.40977168385E+03  0.44063628963E+03  0.12501264949E+03 0.  0.
          5    1    4    4  502    0  0.62979363264E+02 -0.14934764664E+02 -0.38374137364E+03  0.38919015819E+03  0.47000000000E+01 0.  1.
         -5    1    4    4    0  502  0.27385198955E+02 -0.34598963401E+02 -0.26030310212E+02  0.51446131438E+02  0.47000000000E+01 0.  1.
        -11    1    3    3    0    0 -0.92638533284E+02  0.72139344345E+02  0.93274582795E+02  0.14995376170E+03  0.00000000000E+00 0.  1.
         11    1    3    3    0    0  0.22739710653E+01 -0.22605616281E+02  0.16483006796E+02  0.28069099467E+02  0.00000000000E+00 0. -1.
<mgrwt>
<rscale>  0 0.15624843E+03</rscale>
<asrwt>0</asrwt>
<pdfrwt beam="2">  1        1 0.70667172E-01 0.16201082E+03</pdfrwt>
<pdfrwt beam="1">  1       -1 0.24511158E-01 0.16201082E+03</pdfrwt>
<totfact> 0.73057034E+02</totfact>
</mgrwt>
</event>
<event>
 8    1  0.7550631E-006  0.1321608E+03  0.7546771E-02  0.1237861E+00
         -2   -1    0    0    0  501 -0.00000000000E+00  0.00000000000E+00  0.41575325334E+02  0.41575325334E+02  0.00000000000E+00 0.  1.
          2   -1    0    0  501    0  0.00000000000E+00 -0.00000000000E+00 -0.45223803360E+03  0.45223803360E+03  0.00000000000E+00 0. -1.
         23    2    1    2    0    0 -0.31888597994E+02 -0.28974811700E+02 -0.54233075388E+02  0.11367055585E+03  0.90129608925E+02 0.  0.
         23    2    1    2    0    0  0.31888597994E+02  0.28974811700E+02 -0.35642963288E+03  0.38014280309E+03  0.12494016629E+03 0.  0.
          5    1    4    4  502    0 -0.45771004374E+02  0.11032552465E+02 -0.85812571251E+02  0.97992803001E+02  0.47000000000E+01 0. -1.
         -5    1    4    4    0  502  0.77659602367E+02  0.17942259235E+02 -0.27061706163E+03  0.28215000009E+03  0.47000000000E+01 0. -1.
        -11    1    3    3    0    0  0.19635132623E+02 -0.42101094511E+02 -0.29500495210E+02  0.55030171813E+02  0.00000000000E+00 0. -1.
         11    1    3    3    0    0 -0.51523730617E+02  0.13126282812E+02 -0.24732580178E+02  0.58640384032E+02  0.00000000000E+00 0.  1.
<mgrwt>
<rscale>  0 0.12323015E+03</rscale>
<asrwt>0</asrwt>
<pdfrwt beam="2">  1        2 0.69575081E-01 0.13216076E+03</pdfrwt>
<pdfrwt beam="1">  1       -2 0.63962040E-02 0.13216076E+03</pdfrwt>
<totfact> 0.88861660E+03</totfact>
</mgrwt>
</event>
<event>
 8    1  0.7550631E-006  0.1611252E+03  0.7546771E-02  0.1195352E+00
          1   -1    0    0  501    0  0.00000000000E+00  0.00000000000E+00  0.20260637606E+03  0.20260637606E+03  0.00000000000E+00 0. -1.
         -1   -1    0    0    0  501 -0.00000000000E+00 -0.00000000000E+00 -0.11966831407E+03  0.11966831407E+03  0.00000000000E+00 0.  1.
         23    2    1    2    0    0 -0.10152082621E+03 -0.55674368756E+01 -0.11006271737E+02  0.13576228032E+03  0.89290448707E+02 0.  0.
         23    2    1    2    0    0  0.10152082621E+03  0.55674368756E+01  0.93944333727E+02  0.18651240982E+03  0.12499546659E+03 0.  0.
          5    1    4    4  502    0  0.78236613394E+02 -0.48789462211E+02  0.86878172559E+02  0.12677257655E+03  0.47000000000E+01 0. -1.
         -5    1    4    4    0  502  0.23284212821E+02  0.54356899087E+02  0.70661611677E+01  0.59739833266E+02  0.47000000000E+01 0. -1.
        -11    1    3    3    0    0 -0.37253183552E+02  0.19528849880E+02 -0.42611278894E+02  0.59874007310E+02  0.00000000000E+00 0.  1.
         11    1    3    3    0    0 -0.64267642663E+02 -0.25096286756E+02  0.31605007157E+02  0.75888273006E+02  0.00000000000E+00 0. -1.
<mgrwt>
<rscale>  0 0.15424443E+03</rscale>
<asrwt>0</asrwt>
<pdfrwt beam="1">  1        1 0.31170212E-01 0.16112523E+03</pdfrwt>
<pdfrwt beam="2">  1       -1 0.18410510E-01 0.16112523E+03</pdfrwt>
<totfact> 0.32431648E+03</totfact>
</mgrwt>
</event>
<event>
 6    1  0.7550631E-006  0.2418589E+03  0.7546771E-02  0.1147869E+00
          2   -1    0    0  501    0  0.00000000000E+00  0.00000000000E+00  0.73638365897E+03  0.73638365897E+03  0.00000000000E+00 0. -1.
         -2   -1    0    0    0  501 -0.00000000000E+00 -0.00000000000E+00 -0.15450157537E+03  0.15450157537E+03  0.00000000000E+00 0.  1.
          5    1    1    2  502    0  0.14046796037E+03  0.11102413659E+02  0.68412070314E+03  0.69849677018E+03  0.47000000000E+01 0. -1.
         -5    1    1    2    0  502 -0.24106103189E+02 -0.20352231807E+02  0.55798762997E+01  0.32381207049E+02  0.47000000000E+01 0.  1.
        -11    1    1    2    0    0 -0.99259855769E+02  0.16768922522E+01 -0.94366693845E+02  0.13696862357E+03  0.00000000000E+00 0.  1.
         11    1    1    2    0    0 -0.17102001413E+02  0.75729258957E+01 -0.13451801996E+02  0.23038633551E+02  0.00000000000E+00 0. -1.
<mgrwt>
<rscale>  0 0.20223216E+03</rscale>
<asrwt>0</asrwt>
<pdfrwt beam="1">  1        2 0.11328979E+00 0.24185890E+03</pdfrwt>
<pdfrwt beam="2">  1       -2 0.23769474E-01 0.24185890E+03</pdfrwt>
<totfact> 0.61603555E+02</totfact>
</mgrwt>
</event>
<event>
 8    1  0.7550631E-006  0.1582914E+03  0.7546771E-02  0.1198489E+00
          1   -1    0    0  501    0  0.00000000000E+00  0.00000000000E+00  0.56850488050E+02  0.56850488050E+02  0.00000000000E+00 0. -1.
         -1   -1    0    0    0  501 -0.00000000000E+00 -0.00000000000E+00 -0.37403823056E+03  0.37403823056E+03  0.00000000000E+00 0.  1.
         23    2    1    2    0    0 -0.93113271801E+02  0.27585146105E+02 -0.13977720557E+03  0.19312692424E+03  0.91265108335E+02 0.  0.
         23    2    1    2    0    0  0.93113271801E+02 -0.27585146105E+02 -0.17741053694E+03  0.23776179436E+03  0.12500060229E+03 0.  0.
          5    1    4    4  502    0 -0.16418593146E+02 -0.16252239962E+02 -0.10083578454E+03  0.10355506240E+03  0.47000000000E+01 0. -1.
         -5    1    4    4    0  502  0.10953186495E+03 -0.11332906144E+02 -0.76574752400E+02  0.13420673197E+03  0.47000000000E+01 0. -1.
        -11    1    3    3    0    0 -0.91776278387E+02  0.42374275361E+02 -0.14553747474E+03  0.17719938217E+03  0.00000000000E+00 0.  1.
         11    1    3    3    0    0 -0.13369934131E+01 -0.14789129255E+02  0.57602691729E+01  0.15927542072E+02  0.00000000000E+00 0. -1.
<mgrwt>
<rscale>  0 0.15162626E+03</rscale>
<asrwt>0</asrwt>
<pdfrwt beam="1">  1        1 0.87462288E-02 0.15829142E+03</pdfrwt>
<pdfrwt beam="2">  1       -1 0.57544344E-01 0.15829142E+03</pdfrwt>
<totfact> 0.23660971E+03</totfact>
</mgrwt>
</event>
<event>
 8    1  0.7550631E-006  0.1289083E+03  0.7546771E-02  0.1243107E+00
          2   -1    0    0  501    0  0.00000000000E+00  0.00000000000E+00  0.13583195899E+03  0.13583195899E+03  0.00000000000E+00 0. -1.
         -2   -1    0    0    0  501 -0.00000000000E+00 -0.00000000000E+00 -0.97900390830E+02  0.97900390830E+02  0.00000000000E+00 0.  1.
         23    2    1    2    0    0  0.28560160281E+02 -0.13276318011E+02 -0.74494281384E+01  0.97069321853E+02  0.91515112906E+02 0.  0.
         23    2    1    2    0    0 -0.28560160281E+02  0.13276318011E+02  0.45380996302E+02  0.13666302797E+03  0.12500162004E+03 0.  0.
          5    1    4    4  502    0  0.11763829252E+02  0.60580489274E+02  0.40862194649E+02  0.74163281419E+02  0.47000000000E+01 0.  1.
         -5    1    4    4    0  502 -0.40323989533E+02 -0.47304171263E+02  0.45188016531E+01  0.62499746553E+02  0.47000000000E+01 0.  1.
        -11    1    3    3    0    0 -0.25956502693E+02 -0.30082223773E+02 -0.33784233954E+01  0.39875982293E+02  0.00000000000E+00 0.  1.
         11    1    3    3    0    0  0.54516662974E+02  0.16805905763E+02 -0.40710047430E+01  0.57193339560E+02  0.00000000000E+00 0. -1.
<mgrwt>
<rscale>  0 0.11999426E+03</rscale>
<asrwt>0</asrwt>
<pdfrwt beam="1">  1        2 0.20897224E-01 0.12890829E+03</pdfrwt>
<pdfrwt beam="2">  1       -2 0.15061599E-01 0.12890829E+03</pdfrwt>
<totfact> 0.84382553E+03</totfact>
</mgrwt>
</event>
<event>
 8    1  0.7550631E-006  0.1371554E+03  0.7546771E-02  0.1228645E+00
         -1   -1    0    0    0  501 -0.00000000000E+00  0.00000000000E+00  0.68499914512E+02  0.68499914512E+02  0.00000000000E+00 0.  1.
          1   -1    0    0  501    0  0.00000000000E+00 -0.00000000000E+00 -0.22337221246E+03  0.22337221246E+03  0.00000000000E+00 0. -1.
         23    2    1    2    0    0 -0.37043161035E+01 -0.56357716015E+02 -0.48952881939E+02  0.11857895648E+03  0.92057971728E+02 0.  0.
         23    2    1    2    0    0  0.37043161035E+01  0.56357716015E+02 -0.10591941601E+03  0.17329317049E+03  0.12498674385E+03 0.  0.
          5    1    4    4  502    0 -0.10786339853E+02 -0.33250998093E+02 -0.64266793256E+02  0.73309513141E+02  0.47000000000E+01 0.  1.
         -5    1    4    4    0  502  0.14490655957E+02  0.89608714108E+02 -0.41652622755E+02  0.99983657347E+02  0.47000000000E+01 0.  1.
        -11    1    3    3    0    0 -0.52646351081E+01 -0.77900572159E+02 -0.16833034432E+02  0.79872188987E+02  0.00000000000E+00 0.  1.
         11    1    3    3    0    0  0.15603190047E+01  0.21542856144E+02 -0.32119847506E+02  0.38706767497E+02  0.00000000000E+00 0. -1.
<mgrwt>
<rscale>  0 0.12920172E+03</rscale>
<asrwt>0</asrwt>
<pdfrwt beam="2">  1        1 0.34364956E-01 0.13715539E+03</pdfrwt>
<pdfrwt beam="1">  1       -1 0.10538448E-01 0.13715539E+03</pdfrwt>
<totfact> 0.68089027E+03</totfact>
</mgrwt>
</event>
<event>
 8    1  0.7550631E-006  0.1291313E+03  0.7546771E-02  0.1241614E+00
         -1   -1    0    0    0  501 -0.00000000000E+00  0.00000000000E+00  0.24590682560E+03  0.24590682560E+03  0.00000000000E+00 0.  1.
          1   -1    0    0  501    0  0.00000000000E+00 -0.00000000000E+00 -0.75598385929E+02  0.75598385929E+02  0.00000000000E+00 0. -1.
         23    2    1    2    0    0 -0.28758754979E+02  0.14955276604E+02  0.16466027948E+03  0.19225047490E+03  0.93789717846E+02 0.  0.
         23    2    1    2    0    0  0.28758754979E+02 -0.14955276604E+02  0.56481601843E+01  0.12925473663E+03  0.12499663572E+03 0.  0.
          5    1    4    4  502    0  0.23279876920E+02 -0.57649617064E+02 -0.33588451079E+02  0.70821642617E+02  0.47000000000E+01 0. -1.
         -5    1    4    4    0  502  0.54788780590E+01  0.42694340460E+02  0.39236611263E+02  0.58433094009E+02  0.47000000000E+01 0. -1.
        -11    1    3    3    0    0 -0.31719827826E+02 -0.15965410125E+02  0.13594672776E+02  0.38024425382E+02  0.00000000000E+00 0. -1.
         11    1    3    3    0    0  0.29610728467E+01  0.30920686730E+02  0.15106560671E+03  0.15422604952E+03  0.00000000000E+00 0.  1.
<mgrwt>
<rscale>  0 0.12090322E+03</rscale>
<asrwt>0</asrwt>
<pdfrwt beam="2">  1        1 0.11630521E-01 0.12913127E+03</pdfrwt>
<pdfrwt beam="1">  1       -1 0.37831819E-01 0.12913127E+03</pdfrwt>
<totfact> 0.34218781E+03</totfact>
</mgrwt>
</event>
<event>
 8    1  0.7550631E-006  0.1374776E+03  0.7546771E-02  0.1228440E+00
          2   -1    0    0  501    0  0.00000000000E+00  0.00000000000E+00  0.92759758264E+03  0.92759758264E+03  0.00000000000E+00 0. -1.
         -2   -1    0    0    0  501 -0.00000000000E+00 -0.00000000000E+00 -0.17147150274E+02  0.17147150274E+02  0.00000000000E+00 0.  1.
         23    2    1    2    0    0 -0.56114112384E+02  0.11252919458E+02  0.29282393050E+03  0.31200262637E+03  0.91237945972E+02 0.  0.
         23    2    1    2    0    0  0.56114112384E+02 -0.11252919458E+02  0.61762650186E+03  0.63274210654E+03  0.12499862310E+03 0.  0.
          5    1    4    4  502    0  0.41023617468E+02  0.73581231505E+01  0.53001519769E+02  0.67589424204E+02  0.47000000000E+01 0.  1.
         -5    1    4    4    0  502  0.15090494916E+02 -0.18611042609E+02  0.56462498209E+03  0.56515268233E+03  0.47000000000E+01 0.  1.
        -11    1    3    3    0    0 -0.30051328474E+02 -0.38287424886E+02  0.17355198223E+03  0.18024788427E+03  0.00000000000E+00 0.  1.
         11    1    3    3    0    0 -0.26062783910E+02  0.49540344344E+02  0.11927194827E+03  0.13175474211E+03  0.00000000000E+00 0. -1.
<mgrwt>
<rscale>  0 0.12933917E+03</rscale>
<asrwt>0</asrwt>
<pdfrwt beam="1">  1        2 0.14270728E+00 0.13747755E+03</pdfrwt>
<pdfrwt beam="2">  1       -2 0.26380238E-02 0.13747755E+03</pdfrwt>
<totfact> 0.14329005E+04</totfact>
</mgrwt>
</event>
<event>
 8    1  0.7550631E-006  0.1259567E+03  0.7546771E-02  0.1251168E+00
          1   -1    0    0  501    0  0.00000000000E+00  0.00000000000E+00  0.54890409741E+03  0.54890409741E+03  0.00000000000E+00 0. -1.
         -1   -1    0    0    0  501 -0.00000000000E+00 -0.00000000000E+00 -0.25389275263E+02  0.25389275263E+02  0.00000000000E+00 0.  1.
         23    2    1    2    0    0 -0.15510781606E+02  0.16409220422E+00  0.10460739832E+03  0.13685936912E+03  0.86874437320E+02 0.  0.
         23    2    1    2    0    0  0.15510781606E+02 -0.16409220422E+00  0.41890742382E+03  0.43743400355E+03  0.12499786581E+03 0.  0.
          5    1    4    4  502    0  0.22369619828E+02  0.38860551021E+02  0.37656303766E+03  0.37925236143E+03  0.47000000000E+01 0.  1.
         -5    1    4    4    0  502 -0.68588382215E+01 -0.39024643225E+02  0.42344386158E+02  0.58181642119E+02  0.47000000000E+01 0.  1.
        -11    1    3    3    0    0  0.89655812456E+00 -0.36414618625E+02  0.84484625184E+02  0.92002609520E+02  0.00000000000E+00 0. -1.
         11    1    3    3    0    0 -0.16407339731E+02  0.36578710829E+02  0.20122773138E+02  0.44856759599E+02  0.00000000000E+00 0.  1.
<mgrwt>
<rscale>  0 0.11523716E+03</rscale>
<asrwt>0</asrwt>
<pdfrwt beam="1">  1        1 0.84446776E-01 0.12595665E+03</pdfrwt>
<pdfrwt beam="2">  1       -1 0.39060427E-02 0.12595665E+03</pdfrwt>
<totfact> 0.96258713E+03</totfact>
</mgrwt>
</event>
<event>
 8    1  0.7550631E-006  0.1299760E+03  0.7546771E-02  0.1243123E+00
          1   -1    0    0  501    0  0.00000000000E+00  0.00000000000E+00  0.64623792112E+02  0.64623792112E+02  0.00000000000E+00 0. -1.
         -1   -1    0    0    0  501 -0.00000000000E+00 -0.00000000000E+00 -0.21010510150E+03  0.21010510150E+03  0.00000000000E+00 0.  1.
         23    2    1    2    0    0 -0.33051643956E+02  0.13288641727E+02 -0.98761591912E+02  0.13661119653E+03  0.87405765331E+02 0.  0.
         23    2    1    2    0    0  0.33051643956E+02 -0.13288641727E+02 -0.46719717472E+02  0.13811769708E+03  0.12499906831E+03 0.  0.
          5    1    4    4  502    0 -0.45213490923E+02 -0.20580799116E+02 -0.86117377969E+01  0.50636756230E+02  0.47000000000E+01 0.  1.
         -5    1    4    4    0  502  0.78265134878E+02  0.72921573888E+01 -0.38107979675E+02  0.87480940849E+02  0.47000000000E+01 0.  1.
        -11    1    3    3    0    0 -0.50532938351E+02  0.37441620718E+01 -0.18544197003E+02  0.53958167598E+02  0.00000000000E+00 0. -1.
         11    1    3    3    0    0  0.17481294396E+02  0.95444796552E+01 -0.80217394908E+02  0.82653028931E+02  0.00000000000E+00 0.  1.
<mgrwt>
<rscale>  0 0.11998436E+03</rscale>
<asrwt>0</asrwt>
<pdfrwt beam="1">  1        1 0.99421220E-02 0.12997602E+03</pdfrwt>
<pdfrwt beam="2">  1       -1 0.32323861E-01 0.12997602E+03</pdfrwt>
<totfact> 0.55130697E+03</totfact>
</mgrwt>
</event>
<event>
 8    1  0.7550631E-006  0.1435123E+03  0.7546771E-02  0.1219421E+00
          1   -1    0    0  501    0  0.00000000000E+00  0.00000000000E+00  0.68337507331E+03  0.68337507331E+03  0.00000000000E+00 0. -1.
         -1   -1    0    0    0  501 -0.00000000000E+00 -0.00000000000E+00 -0.27520981583E+02  0.27520981583E+02  0.00000000000E+00 0.  1.
         23    2    1    2    0    0 -0.54340347121E+02 -0.44908403798E+02  0.17437653036E+03  0.20848543775E+03  0.89940899236E+02 0.  0.
         23    2    1    2    0    0  0.54340347121E+02  0.44908403798E+02  0.48147756137E+03  0.50241061715E+03  0.12500459217E+03 0.  0.
          5    1    4    4  502    0 -0.40726944696E+02  0.16340100413E+02  0.14869975433E+03  0.15511089531E+03  0.47000000000E+01 0. -1.
         -5    1    4    4    0  502  0.95067291817E+02  0.28568303385E+02  0.33277780704E+03  0.34729972184E+03  0.47000000000E+01 0. -1.
        -11    1    3    3    0    0 -0.38905153850E+02 -0.18262727855E+02  0.17234722959E+03  0.17762518338E+03  0.00000000000E+00 0. -1.
         11    1    3    3    0    0 -0.15435193270E+02 -0.26645675944E+02  0.20293007708E+01  0.30860254364E+02  0.00000000000E+00 0.  1.
<mgrwt>
<rscale>  0 0.13556752E+03</rscale>
<asrwt>0</asrwt>
<pdfrwt beam="1">  1        1 0.10513461E+00 0.14351232E+03</pdfrwt>
<pdfrwt beam="2">  1       -1 0.42339977E-02 0.14351232E+03</pdfrwt>
<totfact> 0.63836533E+03</totfact>
</mgrwt>
</event>
<event>
 6    1  0.1051532E-005  0.1594495E+03  0.7546771E-02  0.1217346E+00
         -2   -1    0    0    0  501 -0.00000000000E+00  0.00000000000E+00  0.16512175400E+02  0.16512175400E+02  0.00000000000E+00 0.  1.
          2   -1    0    0  501    0  0.00000000000E+00 -0.00000000000E+00 -0.17423116386E+04  0.17423116386E+04  0.00000000000E+00 0. -1.
          5    1    1    2  502    0  0.36185848876E+02  0.12284636284E+02 -0.12999650678E+04  0.13005351189E+04  0.47000000000E+01 0. -1.
         -5    1    1    2    0  502 -0.47613728879E+01  0.65344298530E+02 -0.28703555677E+03  0.29445551255E+03  0.47000000000E+01 0.  1.
        -11    1    1    2    0    0 -0.16031452932E+02 -0.63910805253E+02 -0.11299712338E+03  0.13080500144E+03  0.00000000000E+00 0.  1.
         11    1    1    2    0    0 -0.15393023056E+02 -0.13718129561E+02 -0.25801715205E+02  0.33028181072E+02  0.00000000000E+00 0. -1.
<mgrwt>
<rscale>  0 0.13705620E+03</rscale>
<asrwt>0</asrwt>
<pdfrwt beam="2">  1        2 0.26804802E+00 0.15944947E+03</pdfrwt>
<pdfrwt beam="1">  1       -2 0.25403340E-02 0.15944947E+03</pdfrwt>
<totfact> 0.54609622E+03</totfact>
</mgrwt>
</event>
<event>
 6    1  0.7550631E-006  0.1456735E+03  0.7546771E-02  0.1270707E+00
         -2   -1    0    0    0  501 -0.00000000000E+00  0.00000000000E+00  0.16506925432E+02  0.16506925432E+02  0.00000000000E+00 0.  1.
          2   -1    0    0  501    0  0.00000000000E+00 -0.00000000000E+00 -0.60805530615E+03  0.60805530615E+03  0.00000000000E+00 0. -1.
          5    1    1    2  502    0 -0.46809523542E+02  0.45338843877E+02 -0.31390698023E+03  0.32063440941E+03  0.47000000000E+01 0. -1.
         -5    1    1    2    0  502  0.68629757002E+02 -0.33852629015E+02 -0.22997427764E+03  0.24241761985E+03  0.47000000000E+01 0.  1.
        -11    1    1    2    0    0  0.12185587555E+01 -0.14972621006E+02 -0.23880006652E+02  0.28212036136E+02  0.00000000000E+00 0. -1.
         11    1    1    2    0    0 -0.23038792215E+02  0.34864061427E+01 -0.23787116186E+02  0.33298166181E+02  0.00000000000E+00 0.  1.
<mgrwt>
<rscale>  0 0.10470225E+03</rscale>
<asrwt>0</asrwt>
<pdfrwt beam="2">  1        2 0.93546973E-01 0.14567349E+03</pdfrwt>
<pdfrwt beam="1">  1       -2 0.25395269E-02 0.14567349E+03</pdfrwt>
<totfact> 0.25510112E+04</totfact>
</mgrwt>
</event>
<event>
 8    1  0.7550631E-006  0.2060020E+03  0.7546771E-02  0.1148689E+00
          2   -1    0    0  501    0  0.00000000000E+00  0.00000000000E+00  0.47334934931E+03  0.47334934931E+03  0.00000000000E+00 0. -1.
         -2   -1    0    0    0  501 -0.00000000000E+00 -0.00000000000E+00 -0.88207581786E+02  0.88207581786E+02  0.00000000000E+00 0.  1.
         23    2    1    2    0    0  0.15426011554E+03  0.54901427374E+02  0.25960772172E+03  0.32031926698E+03  0.91640131237E+02 0.  0.
         23    2    1    2    0    0 -0.15426011554E+03 -0.54901427374E+02  0.12553404581E+03  0.24123766412E+03  0.12500585569E+03 0.  0.
          5    1    4    4  502    0 -0.65026165991E+02 -0.88821609021E+02  0.61377720336E+02  0.12612293624E+03  0.47000000000E+01 0. -1.
         -5    1    4    4    0  502 -0.89233949548E+02  0.33920181647E+02  0.64156325477E+02  0.11511472787E+03  0.47000000000E+01 0. -1.
        -11    1    3    3    0    0  0.12984361926E+03  0.33846847271E+01  0.19312242113E+03  0.23273824588E+03  0.00000000000E+00 0. -1.
         11    1    3    3    0    0  0.24416496283E+02  0.51516742647E+02  0.66485300584E+02  0.87581021102E+02  0.00000000000E+00 0.  1.
<mgrwt>
<rscale>  0 0.20124918E+03</rscale>
<asrwt>0</asrwt>
<pdfrwt beam="1">  1        2 0.72822975E-01 0.20600198E+03</pdfrwt>
<pdfrwt beam="2">  1       -2 0.13570397E-01 0.20600198E+03</pdfrwt>
<totfact> 0.26476642E+03</totfact>
</mgrwt>
</event>
<event>
 8    1  0.7550631E-006  0.1396673E+03  0.7546771E-02  0.1224544E+00
          1   -1    0    0  501    0  0.00000000000E+00  0.00000000000E+00  0.90109756941E+03  0.90109756941E+03  0.00000000000E+00 0. -1.
         -1   -1    0    0    0  501 -0.00000000000E+00 -0.00000000000E+00 -0.18385452881E+02  0.18385452881E+02  0.00000000000E+00 0.  1.
         23    2    1    2    0    0 -0.10494589252E+02 -0.61417056686E+02  0.29288655125E+03  0.31334677115E+03  0.92311840148E+02 0.  0.
         23    2    1    2    0    0  0.10494589252E+02  0.61417056686E+02  0.58982556528E+03  0.60613625114E+03  0.12499906494E+03 0.  0.
          5    1    4    4  502    0  0.42791510030E+02  0.29345347026E+02  0.52031391747E+03  0.52291579192E+03  0.47000000000E+01 0.  1.
         -5    1    4    4    0  502 -0.32296920779E+02  0.32071709659E+02  0.69511647805E+02  0.83220459220E+02  0.47000000000E+01 0.  1.
        -11    1    3    3    0    0 -0.51307763098E+02 -0.27978103470E+02  0.14527993304E+03  0.15659348573E+03  0.00000000000E+00 0.  1.
         11    1    3    3    0    0  0.40813173847E+02 -0.33438953216E+02  0.14760661821E+03  0.15675328542E+03  0.00000000000E+00 0. -1.
<mgrwt>
<rscale>  0 0.13198204E+03</rscale>
<asrwt>0</asrwt>
<pdfrwt beam="1">  1        1 0.13863036E+00 0.13966731E+03</pdfrwt>
<pdfrwt beam="2">  1       -1 0.28285319E-02 0.13966731E+03</pdfrwt>
<totfact> 0.75975553E+03</totfact>
</mgrwt>
</event>
<event>
 8    1  0.7550631E-006  0.1913853E+03  0.7546771E-02  0.1161478E+00
          2   -1    0    0  501    0  0.00000000000E+00  0.00000000000E+00  0.12210516160E+04  0.12210516160E+04  0.00000000000E+00 0. -1.
         -2   -1    0    0    0  501 -0.00000000000E+00 -0.00000000000E+00 -0.30310955185E+02  0.30310955185E+02  0.00000000000E+00 0.  1.
         23    2    1    2    0    0 -0.65873534974E+02 -0.12908936874E+03  0.36954653280E+03  0.40816146157E+03  0.95014478235E+02 0.  0.
         23    2    1    2    0    0  0.65873534974E+02  0.12908936874E+03  0.82119412803E+03  0.84320110963E+03  0.12499971056E+03 0.  0.
          5    1    4    4  502    0 -0.26230633731E+02  0.75011410366E+02  0.25995957970E+03  0.27187466029E+03  0.47000000000E+01 0. -1.
         -5    1    4    4    0  502  0.92104168705E+02  0.54077958376E+02  0.56123454833E+03  0.57132644934E+03  0.47000000000E+01 0. -1.
        -11    1    3    3    0    0 -0.78282379582E+02 -0.56873688448E+02  0.17031234835E+03  0.19588017610E+03  0.00000000000E+00 0.  1.
         11    1    3    3    0    0  0.12408844608E+02 -0.72215680294E+02  0.19923418446E+03  0.21228128547E+03  0.00000000000E+00 0. -1.
<mgrwt>
<rscale>  0 0.18669291E+03</rscale>
<asrwt>0</asrwt>
<pdfrwt beam="1">  1        2 0.18785406E+00 0.19138525E+03</pdfrwt>
<pdfrwt beam="2">  1       -2 0.46632248E-02 0.19138525E+03</pdfrwt>
<totfact> 0.42002862E+03</totfact>
</mgrwt>
</event>
<event>
 8    1  0.7550631E-006  0.1450152E+03  0.7546771E-02  0.1215004E+00
          1   -1    0    0  501    0  0.00000000000E+00  0.00000000000E+00  0.30255298291E+03  0.30255298291E+03  0.00000000000E+00 0. -1.
         -1   -1    0    0    0  501 -0.00000000000E+00 -0.00000000000E+00 -0.58833709310E+02  0.58833709310E+02  0.00000000000E+00 0.  1.
         23    2    1    2    0    0  0.73036247035E+01  0.73156150712E+02  0.11887335573E+03  0.17003382490E+03  0.96826967251E+02 0.  0.
         23    2    1    2    0    0 -0.73036247035E+01 -0.73156150712E+02  0.12484591787E+03  0.19135286732E+03  0.12499700517E+03 0.  0.
          5    1    4    4  502    0  0.54937981855E+01 -0.72943440837E+02  0.80248993905E+01  0.73738839087E+02  0.47000000000E+01 0. -1.
         -5    1    4    4    0  502 -0.12797422889E+02 -0.21270987466E+00  0.11682101848E+03  0.11761402823E+03  0.47000000000E+01 0. -1.
        -11    1    3    3    0    0 -0.29347168729E+02  0.38448441320E+02  0.91084546938E+01  0.49218928262E+02  0.00000000000E+00 0.  1.
         11    1    3    3    0    0  0.36650793433E+02  0.34707709392E+02  0.10976490103E+03  0.12081489663E+03  0.00000000000E+00 0. -1.
<mgrwt>
<rscale>  0 0.13876240E+03</rscale>
<asrwt>0</asrwt>
<pdfrwt beam="1">  1        1 0.46546612E-01 0.14501523E+03</pdfrwt>
<pdfrwt beam="2">  1       -1 0.90513401E-02 0.14501523E+03</pdfrwt>
<totfact> 0.59189190E+03</totfact>
</mgrwt>
</event>
<event>
 8    1  0.7550631E-006  0.2543603E+03  0.7546771E-02  0.1113036E+00
          2   -1    0    0  501    0  0.00000000000E+00  0.00000000000E+00  0.18031920264E+03  0.18031920264E+03  0.00000000000E+00 0. -1.
         -2   -1    0    0    0  501 -0.00000000000E+00 -0.00000000000E+00 -0.36881359546E+03  0.36881359546E+03  0.00000000000E+00 0.  1.
         23    2    1    2    0    0 -0.61443014329E+02 -0.21283515636E+03 -0.17159991738E+03  0.29421205938E+03  0.89666919469E+02 0.  0.
         23    2    1    2    0    0  0.61443014329E+02  0.21283515636E+03 -0.16894475444E+02  0.25492073873E+03  0.12500044776E+03 0.  0.
          5    1    4    4  502    0  0.31933086696E+02  0.13565449390E+03  0.50380519288E+02  0.14826378676E+03  0.47000000000E+01 0.  1.
         -5    1    4    4    0  502  0.29509927633E+02  0.77180662456E+02 -0.67274994732E+02  0.10665695196E+03  0.47000000000E+01 0.  1.
        -11    1    3    3    0    0 -0.78651610450E+02 -0.18560347484E+03 -0.16680049592E+03  0.26164313700E+03  0.00000000000E+00 0.  1.
         11    1    3    3    0    0  0.17208596120E+02 -0.27231681519E+02 -0.47994214629E+01  0.32568922382E+02  0.00000000000E+00 0. -1.
<mgrwt>
<rscale>  0 0.25042634E+03</rscale>
<asrwt>0</asrwt>
<pdfrwt beam="1">  1        2 0.27741416E-01 0.25436030E+03</pdfrwt>
<pdfrwt beam="2">  1       -2 0.56740553E-01 0.25436030E+03</pdfrwt>
<totfact> 0.56943539E+02</totfact>
</mgrwt>
</event>
<event>
 8    1  0.7550631E-006  0.1151878E+03  0.7546771E-02  0.1262471E+00
          1   -1    0    0  501    0  0.00000000000E+00  0.00000000000E+00  0.49835006344E+03  0.49835006344E+03  0.00000000000E+00 0. -1.
         -1   -1    0    0    0  501 -0.00000000000E+00 -0.00000000000E+00 -0.71712873171E+02  0.71712873171E+02  0.00000000000E+00 0.  1.
         23    2    1    2    0    0 -0.14560968894E+02 -0.34967589907E+01 -0.31613873068E+02  0.97556578020E+02  0.91069203389E+02 0.  0.
         23    2    1    2    0    0  0.14560968894E+02  0.34967589907E+01  0.45825106334E+03  0.47250635859E+03  0.11421021286E+03 0.  0.
          5    1    4    4  502    0  0.38089464444E+02 -0.30552930005E+02  0.95409114396E+02  0.10728130286E+03  0.47000000000E+01 0.  1.
         -5    1    4    4    0  502 -0.23528495549E+02  0.34049688995E+02  0.36284194894E+03  0.36522505573E+03  0.47000000000E+01 0. -1.
        -11    1    3    3    0    0 -0.12443329782E+02 -0.47059276330E+02 -0.16384555461E+02  0.51360155787E+02  0.00000000000E+00 0.  1.
         11    1    3    3    0    0 -0.21176391122E+01  0.43562517339E+02 -0.15229317607E+02  0.46196422233E+02  0.00000000000E+00 0. -1.
<mgrwt>
<rscale>  0 0.10897980E+03</rscale>
<asrwt>0</asrwt>
<pdfrwt beam="1">  1        1 0.76669238E-01 0.11518777E+03</pdfrwt>
<pdfrwt beam="2">  1       -1 0.11032750E-01 0.11518777E+03</pdfrwt>
<totfact> 0.23089386E+03</totfact>
</mgrwt>
</event>
<event>
 8    1  0.7550631E-006  0.1255986E+03  0.7546771E-02  0.1250573E+00
         -2   -1    0    0    0  501 -0.00000000000E+00  0.00000000000E+00  0.81860954415E+01  0.81860954415E+01  0.00000000000E+00 0.  1.
          2   -1    0    0  501    0  0.00000000000E+00 -0.00000000000E+00 -0.20849105213E+04  0.20849105213E+04  0.00000000000E+00 0. -1.
         23    2    1    2    0    0 -0.12079190099E+02 -0.14821447400E+01 -0.33648903879E+03  0.34833467847E+03  0.89241646170E+02 0.  0.
         23    2    1    2    0    0  0.12079190099E+02  0.14821447400E+01 -0.17402353871E+04  0.17447619383E+04  0.12500766079E+03 0.  0.
          5    1    4    4  502    0 -0.49419020846E+02 -0.12207124065E+02 -0.43414386219E+03  0.43714326779E+03  0.47000000000E+01 0.  1.
         -5    1    4    4    0  502  0.61498210944E+02  0.13689268805E+02 -0.13060915249E+04  0.13076186705E+04  0.47000000000E+01 0.  1.
        -11    1    3    3    0    0  0.90242515435E+01 -0.41578834330E+02 -0.20153143220E+03  0.20597367489E+03  0.00000000000E+00 0. -1.
         11    1    3    3    0    0 -0.21103441642E+02  0.40096689590E+02 -0.13495760658E+03  0.14236100358E+03  0.00000000000E+00 0.  1.
<mgrwt>
<rscale>  0 0.11557952E+03</rscale>
<asrwt>0</asrwt>
<pdfrwt beam="2">  1        2 0.32075537E+00 0.12559864E+03</pdfrwt>
<pdfrwt beam="1">  1       -2 0.12593997E-02 0.12559864E+03</pdfrwt>
<totfact> 0.10022269E+04</totfact>
</mgrwt>
</event>
<event>
 7    1  0.7550631E-006  0.1821297E+03  0.7546771E-02  0.1174614E+00
          1   -1    0    0  501    0  0.00000000000E+00  0.00000000000E+00  0.17376304565E+04  0.17376304565E+04  0.00000000000E+00 0. -1.
         -1   -1    0    0    0  501 -0.00000000000E+00 -0.00000000000E+00 -0.27316645467E+02  0.27316645467E+02  0.00000000000E+00 0.  1.
         23    2    1    2    0    0  0.73856110385E+02  0.91032864243E+02  0.23286386523E+03  0.27631364446E+03  0.91552951726E+02 0.  0.
          5    1    1    2  502    0  0.15694106283E+02 -0.90285007781E+02  0.81204087048E+03  0.81720875725E+03  0.47000000000E+01 0. -1.
         -5    1    1    2    0  502 -0.89550216668E+02 -0.74785646149E+00  0.66540907534E+03  0.67142470028E+03  0.47000000000E+01 0.  1.
        -11    1    3    3    0    0  0.16755402408E+02  0.20652997813E+02  0.17234097928E+00  0.26595479502E+02  0.00000000000E+00 0.  1.
         11    1    3    3    0    0  0.57100707977E+02  0.70379866430E+02  0.23269152426E+03  0.24971816496E+03  0.00000000000E+00 0. -1.
<mgrwt>
<rscale>  0 0.17313811E+03</rscale>
<asrwt>0</asrwt>
<pdfrwt beam="1">  1        1 0.26732768E+00 0.18212970E+03</pdfrwt>
<pdfrwt beam="2">  1       -1 0.42025622E-02 0.18212970E+03</pdfrwt>
<totfact> 0.11486679E+03</totfact>
</mgrwt>
</event>
<event>
 8    1  0.7550631E-006  0.1421155E+03  0.7546771E-02  0.1220614E+00
         -2   -1    0    0    0  501 -0.00000000000E+00  0.00000000000E+00  0.58218816934E+03  0.58218816934E+03  0.00000000000E+00 0.  1.
          2   -1    0    0  501    0  0.00000000000E+00 -0.00000000000E+00 -0.28400782365E+02  0.28400782365E+02  0.00000000000E+00 0. -1.
         23    2    1    2    0    0  0.45854588934E+01 -0.67458233850E+02  0.23303296884E+03  0.25976105632E+03  0.92735117753E+02 0.  0.
         23    2    1    2    0    0 -0.45854588934E+01  0.67458233850E+02  0.32075441813E+03  0.35082789539E+03  0.12500070273E+03 0.  0.
          5    1    4    4  502    0 -0.20972779542E+02  0.83021929452E+02  0.11331823129E+03  0.14211125851E+03  0.47000000000E+01 0.  1.
         -5    1    4    4    0  502  0.16387320649E+02 -0.15563695603E+02  0.20743618685E+03  0.20871663688E+03  0.47000000000E+01 0.  1.
        -11    1    3    3    0    0 -0.18505538931E+02  0.10253413909E+02  0.11268913742E+03  0.11465787875E+03  0.00000000000E+00 0.  1.
         11    1    3    3    0    0  0.23090997825E+02 -0.77711647758E+02  0.12034383142E+03  0.14510317757E+03  0.00000000000E+00 0. -1.
<mgrwt>
<rscale>  0 0.13472099E+03</rscale>
<asrwt>0</asrwt>
<pdfrwt beam="2">  1        2 0.43693516E-02 0.14211550E+03</pdfrwt>
<pdfrwt beam="1">  1       -2 0.89567402E-01 0.14211550E+03</pdfrwt>
<totfact> 0.20039792E+03</totfact>
</mgrwt>
</event>
<event>
 8    1  0.7550631E-006  0.1829149E+03  0.7546771E-02  0.1169921E+00
          2   -1    0    0  501    0  0.00000000000E+00  0.00000000000E+00  0.25331786857E+04  0.25331786857E+04  0.00000000000E+00 0. -1.
         -2   -1    0    0    0  501 -0.00000000000E+00 -0.00000000000E+00 -0.16126292491E+02  0.16126292491E+02  0.00000000000E+00 0.  1.
         23    2    1    2    0    0 -0.63834106275E+02  0.11729369806E+03  0.54984717741E+03  0.57361415828E+03  0.94173665860E+02 0.  0.
         23    2    1    2    0    0  0.63834106275E+02 -0.11729369806E+03  0.19672052158E+04  0.19756908199E+04  0.12500100039E+03 0.  0.
          5    1    4    4  502    0  0.25329429107E+02 -0.12310682897E+03  0.17790694779E+04  0.17835097892E+04  0.47000000000E+01 0.  1.
         -5    1    4    4    0  502  0.38504677168E+02  0.58131309175E+01  0.18813573790E+03  0.19218103062E+03  0.47000000000E+01 0.  1.
        -11    1    3    3    0    0 -0.26609433993E+02  0.15184895519E+01  0.31839688944E+02  0.41522687533E+02  0.00000000000E+00 0.  1.
         11    1    3    3    0    0 -0.37224672283E+02  0.11577520850E+03  0.51800748847E+03  0.53209147075E+03  0.00000000000E+00 0. -1.
<mgrwt>
<rscale>  0 0.17782929E+03</rscale>
<asrwt>0</asrwt>
<pdfrwt beam="1">  1        2 0.38971948E+00 0.18291488E+03</pdfrwt>
<pdfrwt beam="2">  1       -2 0.24809701E-02 0.18291488E+03</pdfrwt>
<totfact> 0.21802010E+03</totfact>
</mgrwt>
</event>
<event>
 8    1  0.7550631E-006  0.1471707E+03  0.7546771E-02  0.1213742E+00
          1   -1    0    0  501    0  0.00000000000E+00  0.00000000000E+00  0.27151983158E+03  0.27151983158E+03  0.00000000000E+00 0. -1.
         -1   -1    0    0    0  501 -0.00000000000E+00 -0.00000000000E+00 -0.67639734927E+02  0.67639734927E+02  0.00000000000E+00 0.  1.
         23    2    1    2    0    0  0.75037691827E+02 -0.19985851496E+02  0.12197266485E+03  0.17073145014E+03  0.90784401978E+02 0.  0.
         23    2    1    2    0    0 -0.75037691827E+02  0.19985851496E+02  0.81907431803E+02  0.16842811636E+03  0.12501645309E+03 0.  0.
          5    1    4    4  502    0 -0.41224730018E+02 -0.36720704241E+02 -0.88383375289E+01  0.56107884431E+02  0.47000000000E+01 0.  1.
         -5    1    4    4    0  502 -0.33812961809E+02  0.56706555738E+02  0.90745769332E+02  0.11232023193E+03  0.47000000000E+01 0.  1.
        -11    1    3    3    0    0  0.30308195396E+02 -0.51594172224E+02  0.87539453077E+02  0.10603632001E+03  0.00000000000E+00 0.  1.
         11    1    3    3    0    0  0.44729496431E+02  0.31608320728E+02  0.34433211770E+02  0.64695130134E+02  0.00000000000E+00 0. -1.
<mgrwt>
<rscale>  0 0.13969348E+03</rscale>
<asrwt>0</asrwt>
<pdfrwt beam="1">  1        1 0.41772281E-01 0.14717066E+03</pdfrwt>
<pdfrwt beam="2">  1       -1 0.10406113E-01 0.14717066E+03</pdfrwt>
<totfact> 0.54751875E+03</totfact>
</mgrwt>
</event>
<event>
 8    1  0.7550631E-006  0.1971449E+03  0.7546771E-02  0.1155725E+00
          2   -1    0    0  501    0  0.00000000000E+00  0.00000000000E+00  0.32728918613E+03  0.32728918613E+03  0.00000000000E+00 0. -1.
         -2   -1    0    0    0  501 -0.00000000000E+00 -0.00000000000E+00 -0.12056878210E+03  0.12056878210E+03  0.00000000000E+00 0.  1.
         23    2    1    2    0    0  0.55855358818E+02  0.14184783097E+03  0.31381228117E+02  0.18402103399E+03  0.98175002984E+02 0.  0.
         23    2    1    2    0    0 -0.55855358818E+02 -0.14184783097E+03  0.17533917591E+03  0.26383693425E+03  0.12500189201E+03 0.  0.
          5    1    4    4  502    0 -0.73568612416E+02 -0.98567545585E+02  0.55324757168E+02  0.13494747323E+03  0.47000000000E+01 0.  1.
         -5    1    4    4    0  502  0.17713253598E+02 -0.43280285388E+02  0.12001441874E+03  0.12888946102E+03  0.47000000000E+01 0.  1.
        -11    1    3    3    0    0  0.18936546844E+02  0.13596049626E+03  0.44648439040E+02  0.14435142001E+03  0.00000000000E+00 0.  1.
         11    1    3    3    0    0  0.36918811974E+02  0.58873347143E+01 -0.13267210923E+02  0.39669613980E+02  0.00000000000E+00 0. -1.
<mgrwt>
<rscale>  0 0.19306514E+03</rscale>
<asrwt>0</asrwt>
<pdfrwt beam="1">  1        2 0.50352182E-01 0.19714487E+03</pdfrwt>
<pdfrwt beam="2">  1       -2 0.18549044E-01 0.19714487E+03</pdfrwt>
<totfact> 0.23490660E+03</totfact>
</mgrwt>
</event>
<event>
 8    1  0.7550631E-006  0.1922546E+03  0.7546771E-02  0.1161063E+00
          2   -1    0    0  501    0  0.00000000000E+00  0.00000000000E+00  0.10525827134E+04  0.10525827134E+04  0.00000000000E+00 0. -1.
         -2   -1    0    0    0  501 -0.00000000000E+00 -0.00000000000E+00 -0.32780666940E+02  0.32780666940E+02  0.00000000000E+00 0.  1.
         23    2    1    2    0    0  0.14607551359E+03  0.11539455197E+00  0.38142621000E+03  0.41866589646E+03  0.91962547813E+02 0.  0.
         23    2    1    2    0    0 -0.14607551359E+03 -0.11539455197E+00  0.63837583649E+03  0.66669748391E+03  0.12499502970E+03 0.  0.
          5    1    4    4  502    0 -0.12008668698E+03  0.38225236266E+02  0.30436104540E+03  0.32945366447E+03  0.47000000000E+01 0.  1.
         -5    1    4    4    0  502 -0.25988826603E+02 -0.38340630818E+02  0.33401479109E+03  0.33724381944E+03  0.47000000000E+01 0.  1.
        -11    1    3    3    0    0  0.84516770517E+02  0.42748021805E+02  0.25097102833E+03  0.26824789827E+03  0.00000000000E+00 0. -1.
         11    1    3    3    0    0  0.61558743068E+02 -0.42632627253E+02  0.13045518167E+03  0.15041799819E+03  0.00000000000E+00 0.  1.
<mgrwt>
<rscale>  0 0.18714395E+03</rscale>
<asrwt>0</asrwt>
<pdfrwt beam="1">  1        2 0.16193578E+00 0.19225459E+03</pdfrwt>
<pdfrwt beam="2">  1       -2 0.50431803E-02 0.19225459E+03</pdfrwt>
<totfact> 0.46623343E+03</totfact>
</mgrwt>
</event>
<event>
 8    1  0.7550631E-006  0.1382789E+03  0.7546771E-02  0.1226918E+00
         -1   -1    0    0    0  501 -0.00000000000E+00  0.00000000000E+00  0.39200334732E+02  0.39200334732E+02  0.00000000000E+00 0.  1.
          1   -1    0    0  501    0  0.00000000000E+00 -0.00000000000E+00 -0.58723760344E+03  0.58723760344E+03  0.00000000000E+00 0. -1.
         23    2    1    2    0    0 -0.25385734901E+02  0.53394730675E+02 -0.72252383481E+02  0.13096613761E+03  0.91849275890E+02 0.  0.
         23    2    1    2    0    0  0.25385734901E+02 -0.53394730675E+02 -0.47578488523E+03  0.49547180056E+03  0.12500246134E+03 0.  0.
          5    1    4    4  502    0  0.20431232246E+02  0.28509586143E+02 -0.29212545082E+03  0.29426110985E+03  0.47000000000E+01 0. -1.
         -5    1    4    4    0  502  0.49545026542E+01 -0.81904316817E+02 -0.18365943440E+03  0.20121069071E+03  0.47000000000E+01 0. -1.
        -11    1    3    3    0    0 -0.45457404306E+02  0.45987765825E+01 -0.62323769276E+02  0.77277270714E+02  0.00000000000E+00 0. -1.
         11    1    3    3    0    0  0.20071669406E+02  0.48795954092E+02 -0.99286142057E+01  0.53688866896E+02  0.00000000000E+00 0.  1.
<mgrwt>
<rscale>  0 0.13036313E+03</rscale>
<asrwt>0</asrwt>
<pdfrwt beam="2">  1        1 0.90344239E-01 0.13827888E+03</pdfrwt>
<pdfrwt beam="1">  1       -1 0.60308212E-02 0.13827888E+03</pdfrwt>
<totfact> 0.46550032E+03</totfact>
</mgrwt>
</event>
<event>
 8    1  0.7550631E-006  0.1440492E+03  0.7546771E-02  0.1218424E+00
          2   -1    0    0  501    0  0.00000000000E+00  0.00000000000E+00  0.15174714544E+04  0.15174714544E+04  0.00000000000E+00 0. -1.
         -2   -1    0    0    0  501 -0.00000000000E+00 -0.00000000000E+00 -0.25016591530E+02  0.25016591530E+02  0.00000000000E+00 0.  1.
         23    2    1    2    0    0  0.67083219911E+02 -0.24993794691E+02  0.13580738142E+03  0.17821440496E+03  0.90509011269E+02 0.  0.
         23    2    1    2    0    0 -0.67083219911E+02  0.24993794691E+02  0.13566474815E+04  0.13642736410E+04  0.12500132140E+03 0.  0.
          5    1    4    4  502    0  0.24801680091E+02  0.15230646236E+01  0.75713030496E+02  0.79824783420E+02  0.47000000000E+01 0.  1.
         -5    1    4    4    0  502 -0.91884900002E+02  0.23470730067E+02  0.12809344510E+04  0.12844488576E+04  0.47000000000E+01 0.  1.
        -11    1    3    3    0    0  0.30899781198E+02  0.36264276039E+01  0.12762229230E+03  0.13135979958E+03  0.00000000000E+00 0. -1.
         11    1    3    3    0    0  0.36183438713E+02 -0.28620222295E+02  0.81850891240E+01  0.46854605380E+02  0.00000000000E+00 0.  1.
<mgrwt>
<rscale>  0 0.13628024E+03</rscale>
<asrwt>0</asrwt>
<pdfrwt beam="1">  1        2 0.23345707E+00 0.14404922E+03</pdfrwt>
<pdfrwt beam="2">  1       -2 0.38487076E-02 0.14404922E+03</pdfrwt>
<totfact> 0.38588459E+03</totfact>
</mgrwt>
</event>
<event>
 8    1  0.7550631E-006  0.1384922E+03  0.7546771E-02  0.1226511E+00
         -1   -1    0    0    0  501 -0.00000000000E+00  0.00000000000E+00  0.13192104126E+02  0.13192104126E+02  0.00000000000E+00 0.  1.
          1   -1    0    0  501    0  0.00000000000E+00 -0.00000000000E+00 -0.13499338531E+04  0.13499338531E+04  0.00000000000E+00 0. -1.
         23    2    1    2    0    0  0.20646299006E+02  0.55927864372E+02 -0.35171729434E+03  0.36841330347E+03  0.92027774938E+02 0.  0.
         23    2    1    2    0    0 -0.20646299006E+02 -0.55927864372E+02 -0.98502445459E+03  0.99471265371E+03  0.12500356650E+03 0.  0.
          5    1    4    4  502    0 -0.59421771013E+02 -0.73103311301E+02 -0.60651716500E+03  0.61380795240E+03  0.47000000000E+01 0. -1.
         -5    1    4    4    0  502  0.38775472007E+02  0.17175446929E+02 -0.37850728959E+03  0.38090470131E+03  0.47000000000E+01 0. -1.
        -11    1    3    3    0    0  0.86857243585E+01 -0.24666533447E+02 -0.11916972826E+03  0.12200534338E+03  0.00000000000E+00 0.  1.
         11    1    3    3    0    0  0.11960574647E+02  0.80594397818E+02 -0.23254756608E+03  0.24640796009E+03  0.00000000000E+00 0. -1.
<mgrwt>
<rscale>  0 0.13063873E+03</rscale>
<asrwt>0</asrwt>
<pdfrwt beam="2">  1        1 0.20768202E+00 0.13849219E+03</pdfrwt>
<pdfrwt beam="1">  1       -1 0.20295556E-02 0.13849219E+03</pdfrwt>
<totfact> 0.59308348E+03</totfact>
</mgrwt>
</event>
<event>
 8    1  0.7550631E-006  0.3145995E+03  0.7546771E-02  0.1079591E+00
         -2   -1    0    0    0  501 -0.00000000000E+00  0.00000000000E+00  0.49722477551E+02  0.49722477551E+02  0.00000000000E+00 0.  1.
          2   -1    0    0  501    0  0.00000000000E+00 -0.00000000000E+00 -0.19426962251E+04  0.19426962251E+04  0.00000000000E+00 0. -1.
         23    2    1    2    0    0  0.12977456016E+03  0.25788589942E+03 -0.81145096633E+03  0.86606866940E+03  0.90970851210E+02 0.  0.
         23    2    1    2    0    0 -0.12977456016E+03 -0.25788589942E+03 -0.10815227812E+04  0.11263500332E+04  0.12500519001E+03 0.  0.
          5    1    4    4  502    0 -0.25614142079E+02 -0.23270683786E+02 -0.37590335687E+02  0.51310158209E+02  0.47000000000E+01 0.  1.
         -5    1    4    4    0  502 -0.10416041808E+03 -0.23461521563E+03 -0.10439324455E+04  0.10750398750E+04  0.47000000000E+01 0.  1.
        -11    1    3    3    0    0  0.11176060253E+03  0.18870106504E+03 -0.70094021234E+03  0.73444925319E+03  0.00000000000E+00 0. -1.
         11    1    3    3    0    0  0.18013957624E+02  0.69184834374E+02 -0.11051075399E+03  0.13161941621E+03  0.00000000000E+00 0.  1.
<mgrwt>
<rscale>  0 0.31157937E+03</rscale>
<asrwt>0</asrwt>
<pdfrwt beam="2">  1        2 0.29887636E+00 0.31459954E+03</pdfrwt>
<pdfrwt beam="1">  1       -2 0.76496115E-02 0.31459954E+03</pdfrwt>
<totfact> 0.80407400E+02</totfact>
</mgrwt>
</event>
<event>
 8    1  0.7550631E-006  0.1920133E+03  0.7546771E-02  0.1161356E+00
          2   -1    0    0  501    0  0.00000000000E+00  0.00000000000E+00  0.18925618451E+03  0.18925618451E+03  0.00000000000E+00 0. -1.
         -2   -1    0    0    0  501 -0.00000000000E+00 -0.00000000000E+00 -0.19367854526E+03  0.19367854526E+03  0.00000000000E+00 0.  1.
         23    2    1    2    0    0 -0.10565079870E+03 -0.10040943157E+03 -0.61289063035E+02  0.18267758977E+03  0.91491023298E+02 0.  0.
         23    2    1    2    0    0  0.10565079870E+03  0.10040943157E+03  0.56866702288E+02  0.20025714000E+03  0.12499982032E+03 0.  0.
          5    1    4    4  502    0  0.12373157112E+03  0.74890838909E+02  0.75839728789E+02  0.16337654026E+03  0.47000000000E+01 0.  1.
         -5    1    4    4    0  502 -0.18080772425E+02  0.25518592656E+02 -0.18973026501E+02  0.36880599740E+02  0.47000000000E+01 0.  1.
        -11    1    3    3    0    0 -0.52299822631E+02  0.63618007833E+01 -0.16835271749E+02  0.55309767052E+02  0.00000000000E+00 0.  1.
         11    1    3    3    0    0 -0.53350976065E+02 -0.10677123235E+03 -0.44453791286E+02  0.12736782272E+03  0.00000000000E+00 0. -1.
<mgrwt>
<rscale>  0 0.18682585E+03</rscale>
<asrwt>0</asrwt>
<pdfrwt beam="1">  1        2 0.29116336E-01 0.19201328E+03</pdfrwt>
<pdfrwt beam="2">  1       -2 0.29796699E-01 0.19201328E+03</pdfrwt>
<totfact> 0.18535649E+03</totfact>
</mgrwt>
</event>
<event>
 8    1  0.7550631E-006  0.1331108E+03  0.7546771E-02  0.1236119E+00
          4   -1    0    0  501    0  0.00000000000E+00  0.00000000000E+00  0.33826083393E+03  0.33826083393E+03  0.00000000000E+00 0. -1.
         -4   -1    0    0    0  501 -0.00000000000E+00 -0.00000000000E+00 -0.41401891031E+02  0.41401891031E+02  0.00000000000E+00 0.  1.
         23    2    1    2    0    0  0.23298459156E+02 -0.39417831255E+02  0.15459636978E+03  0.18483683104E+03  0.90377170455E+02 0.  0.
         23    2    1    2    0    0 -0.23298459156E+02  0.39417831255E+02  0.14226257311E+03  0.19482589392E+03  0.12498762184E+03 0.  0.
          5    1    4    4  502    0  0.23456663694E+02  0.71787231887E+02  0.88346792199E+02  0.11632225679E+03  0.47000000000E+01 0. -1.
         -5    1    4    4    0  502 -0.46755122851E+02 -0.32369400632E+02  0.53915780912E+02  0.78503637122E+02  0.47000000000E+01 0. -1.
        -11    1    3    3    0    0  0.12301314088E+01  0.25830553487E+02  0.16954031152E+02  0.30921996848E+02  0.00000000000E+00 0.  1.
         11    1    3    3    0    0  0.22068327748E+02 -0.65248384742E+02  0.13764233863E+03  0.15391483419E+03  0.00000000000E+00 0. -1.
<mgrwt>
<rscale>  0 0.12433055E+03</rscale>
<asrwt>0</asrwt>
<pdfrwt beam="1">  1        4 0.52040126E-01 0.13311082E+03</pdfrwt>
<pdfrwt beam="2">  1       -4 0.63695219E-02 0.13311082E+03</pdfrwt>
<totfact> 0.94676612E+02</totfact>
</mgrwt>
</event>
<event>
 8    1  0.7550631E-006  0.3174588E+03  0.7546771E-02  0.1078509E+00
         -1   -1    0    0    0  501 -0.00000000000E+00  0.00000000000E+00  0.67624965336E+03  0.67624965336E+03  0.00000000000E+00 0.  1.
          1   -1    0    0  501    0  0.00000000000E+00 -0.00000000000E+00 -0.14274341829E+03  0.14274341829E+03  0.00000000000E+00 0. -1.
         23    2    1    2    0    0  0.28027126933E+03 -0.81262758574E+02  0.27878246576E+03  0.41197427637E+03  0.82749748238E+02 0.  0.
         23    2    1    2    0    0 -0.28027126933E+03  0.81262758574E+02  0.25472376931E+03  0.40701879528E+03  0.12499792287E+03 0.  0.
          5    1    4    4  502    0 -0.26640678340E+03  0.87320921949E+02  0.18595936965E+03  0.33645281216E+03  0.47000000000E+01 0. -1.
         -5    1    4    4    0  502 -0.13864485929E+02 -0.60581633749E+01  0.68764399658E+02  0.70565983122E+02  0.47000000000E+01 0. -1.
        -11    1    3    3    0    0  0.17023322358E+03 -0.69584824327E+02  0.21976920339E+03  0.28656570092E+03  0.00000000000E+00 0.  1.
         11    1    3    3    0    0  0.11003804575E+03 -0.11677934247E+02  0.59013262378E+02  0.12540857545E+03  0.00000000000E+00 0. -1.
<mgrwt>
<rscale>  0 0.31386355E+03</rscale>
<asrwt>0</asrwt>
<pdfrwt beam="2">  1        1 0.21960526E-01 0.31745882E+03</pdfrwt>
<pdfrwt beam="1">  1       -1 0.10403841E+00 0.31745882E+03</pdfrwt>
<totfact> 0.20874854E+02</totfact>
</mgrwt>
</event>
<event>
 8    1  0.7550631E-006  0.1350303E+03  0.7546771E-02  0.1244450E+00
          2   -1    0    0  501    0  0.00000000000E+00  0.00000000000E+00  0.41164713827E+03  0.41164713827E+03  0.00000000000E+00 0. -1.
         -2   -1    0    0    0  501 -0.00000000000E+00 -0.00000000000E+00 -0.31805342383E+02  0.31805342383E+02  0.00000000000E+00 0.  1.
         23    2    1    2    0    0 -0.48511153312E+02  0.16027699747E+02  0.79623260145E+02  0.11426506610E+03  0.64081374988E+02 0.  0.
         23    2    1    2    0    0  0.48511153312E+02 -0.16027699747E+02  0.30021853575E+03  0.32918741455E+03  0.12499186190E+03 0.  0.
          5    1    4    4  502    0 -0.39190239583E+02  0.52131180342E+00  0.14292982503E+03  0.14828071866E+03  0.47000000000E+01 0. -1.
         -5    1    4    4    0  502  0.87701392895E+02 -0.16549011550E+02  0.15728871072E+03  0.18090669589E+03  0.47000000000E+01 0. -1.
        -11    1    3    3    0    0 -0.39864664579E+02  0.89067487671E-02  0.83838467645E+01  0.40736721123E+02  0.00000000000E+00 0.  1.
         11    1    3    3    0    0 -0.86464887330E+01  0.16018792998E+02  0.71239413380E+02  0.73528344978E+02  0.00000000000E+00 0. -1.
<mgrwt>
<rscale>  0 0.11918387E+03</rscale>
<asrwt>0</asrwt>
<pdfrwt beam="1">  1        2 0.63330325E-01 0.13503031E+03</pdfrwt>
<pdfrwt beam="2">  1       -2 0.48931299E-02 0.13503031E+03</pdfrwt>
<totfact> 0.14756937E+04</totfact>
</mgrwt>
</event>
<event>
 8    1  0.7550631E-006  0.2264843E+03  0.7546771E-02  0.1132146E+00
          1   -1    0    0  501    0  0.00000000000E+00  0.00000000000E+00  0.44430886507E+04  0.44430886507E+04  0.00000000000E+00 0. -1.
         -1   -1    0    0    0  501 -0.00000000000E+00 -0.00000000000E+00 -0.15126462329E+02  0.15126462329E+02  0.00000000000E+00 0.  1.
         23    2    1    2    0    0 -0.19382603728E+02 -0.18786845005E+03  0.95604619617E+03  0.97891981020E+03  0.92679154887E+02 0.  0.
         23    2    1    2    0    0  0.19382603728E+02  0.18786845005E+03  0.34719159922E+04  0.34792953028E+04  0.12499962996E+03 0.  0.
          5    1    4    4  502    0  0.36329435237E+02  0.18139112980E+03  0.33981762570E+04  0.34032112091E+04  0.47000000000E+01 0.  1.
         -5    1    4    4    0  502 -0.16946831509E+02  0.64773202496E+01  0.73739735140E+02  0.76084093701E+02  0.47000000000E+01 0.  1.
        -11    1    3    3    0    0  0.20824867708E+02 -0.31810690451E+02  0.85352460062E+02  0.93437880865E+02  0.00000000000E+00 0.  1.
         11    1    3    3    0    0 -0.40207471436E+02 -0.15605775960E+03  0.87069373611E+03  0.88548192934E+03  0.00000000000E+00 0. -1.
<mgrwt>
<rscale>  0 0.22234615E+03</rscale>
<asrwt>0</asrwt>
<pdfrwt beam="1">  1        1 0.68355106E+00 0.22648432E+03</pdfrwt>
<pdfrwt beam="2">  1       -1 0.23271516E-02 0.22648432E+03</pdfrwt>
<totfact> 0.28110485E+01</totfact>
</mgrwt>
</event>
<event>
 8    1  0.7550631E-006  0.1659704E+03  0.7546771E-02  0.1188869E+00
          1   -1    0    0  501    0  0.00000000000E+00  0.00000000000E+00  0.76755730197E+03  0.76755730197E+03  0.00000000000E+00 0. -1.
         -1   -1    0    0    0  501 -0.00000000000E+00 -0.00000000000E+00 -0.36836848390E+02  0.36836848390E+02  0.00000000000E+00 0.  1.
         23    2    1    2    0    0  0.10452204735E+03  0.31564885680E+02  0.18325843905E+03  0.23232698359E+03  0.92037880432E+02 0.  0.
         23    2    1    2    0    0 -0.10452204735E+03 -0.31564885680E+02  0.54746201453E+03  0.57206716676E+03  0.12499994217E+03 0.  0.
          5    1    4    4  502    0  0.18597916070E+02  0.23841620432E+02  0.11447603846E+03  0.11849539539E+03  0.47000000000E+01 0.  1.
         -5    1    4    4    0  502 -0.12311996342E+03 -0.55406506112E+02  0.43298597607E+03  0.45357177137E+03  0.47000000000E+01 0.  1.
        -11    1    3    3    0    0  0.77508792623E+02 -0.20654908816E+02  0.78709367334E+02  0.11238061531E+03  0.00000000000E+00 0.  1.
         11    1    3    3    0    0  0.27013254728E+02  0.52219794496E+02  0.10454907171E+03  0.11994636828E+03  0.00000000000E+00 0. -1.
<mgrwt>
<rscale>  0 0.15984755E+03</rscale>
<asrwt>0</asrwt>
<pdfrwt beam="1">  1        1 0.11808573E+00 0.16597044E+03</pdfrwt>
<pdfrwt beam="2">  1       -1 0.56672080E-02 0.16597044E+03</pdfrwt>
<totfact> 0.35201022E+03</totfact>
</mgrwt>
</event>
<event>
 8    1  0.7550631E-006  0.1265751E+03  0.7546771E-02  0.1246250E+00
          1   -1    0    0  501    0  0.00000000000E+00  0.00000000000E+00  0.63253280534E+02  0.63253280534E+02  0.00000000000E+00 0. -1.
         -1   -1    0    0    0  501 -0.00000000000E+00 -0.00000000000E+00 -0.20858950438E+03  0.20858950438E+03  0.00000000000E+00 0.  1.
         23    2    1    2    0    0  0.19767439730E+02 -0.22117130982E+01 -0.96739731492E+02  0.13625927888E+03  0.93874235455E+02 0.  0.
         23    2    1    2    0    0 -0.19767439730E+02  0.22117130982E+01 -0.48596492352E+02  0.13558350604E+03  0.12500249874E+03 0.  0.
          5    1    4    4  502    0 -0.57074008234E+02 -0.39272693204E+02 -0.17807067337E+02  0.71686599128E+02  0.47000000000E+01 0.  1.
         -5    1    4    4    0  502  0.37306568504E+02  0.41484406302E+02 -0.30789425015E+02  0.63896906909E+02  0.47000000000E+01 0.  1.
        -11    1    3    3    0    0  0.19171468529E+01 -0.39773972356E+02 -0.83676028246E+02  0.92667804723E+02  0.00000000000E+00 0.  1.
         11    1    3    3    0    0  0.17850292877E+02  0.37562259258E+02 -0.13063703246E+02  0.43591474153E+02  0.00000000000E+00 0. -1.
<mgrwt>
<rscale>  0 0.11810875E+03</rscale>
<asrwt>0</asrwt>
<pdfrwt beam="1">  1        1 0.97312738E-02 0.12657515E+03</pdfrwt>
<pdfrwt beam="2">  1       -1 0.32090693E-01 0.12657515E+03</pdfrwt>
<totfact> 0.57309363E+03</totfact>
</mgrwt>
</event>
<event>
 8    1  0.7550631E-006  0.1615057E+03  0.7546771E-02  0.1194599E+00
         -2   -1    0    0    0  501 -0.00000000000E+00  0.00000000000E+00  0.99682925433E+02  0.99682925433E+02  0.00000000000E+00 0.  1.
          2   -1    0    0  501    0  0.00000000000E+00 -0.00000000000E+00 -0.22676785887E+03  0.22676785887E+03  0.00000000000E+00 0. -1.
         23    2    1    2    0    0 -0.70721484785E+02  0.73880013614E+02 -0.37001987546E+02  0.14152097367E+03  0.90549732653E+02 0.  0.
         23    2    1    2    0    0  0.70721484785E+02 -0.73880013614E+02 -0.90082945888E+02  0.18492981063E+03  0.12499725157E+03 0.  0.
          5    1    4    4  502    0  0.74595724680E+02  0.11746569648E+02 -0.42628641319E+02  0.86843509255E+02  0.47000000000E+01 0. -1.
         -5    1    4    4    0  502 -0.38742398949E+01 -0.85626583262E+02 -0.47454304569E+02  0.98086301377E+02  0.47000000000E+01 0. -1.
        -11    1    3    3    0    0 -0.35705292003E+02 -0.17960875607E+01  0.19570556985E+02  0.40756600794E+02  0.00000000000E+00 0.  1.
         11    1    3    3    0    0 -0.35016192782E+02  0.75676101175E+02 -0.56572544531E+02  0.10076437287E+03  0.00000000000E+00 0. -1.
<mgrwt>
<rscale>  0 0.15488241E+03</rscale>
<asrwt>0</asrwt>
<pdfrwt beam="2">  1        2 0.34887363E-01 0.16150572E+03</pdfrwt>
<pdfrwt beam="1">  1       -2 0.15335835E-01 0.16150572E+03</pdfrwt>
<totfact> 0.47383823E+03</totfact>
</mgrwt>
</event>
<event>
 8    1  0.7550631E-006  0.1713821E+03  0.7546771E-02  0.1182595E+00
         -1   -1    0    0    0  501 -0.00000000000E+00  0.00000000000E+00  0.42664470443E+02  0.42664470443E+02  0.00000000000E+00 0.  1.
          1   -1    0    0  501    0  0.00000000000E+00 -0.00000000000E+00 -0.78740108350E+03  0.78740108350E+03  0.00000000000E+00 0. -1.
         23    2    1    2    0    0  0.11629531356E+03  0.14692973306E+02 -0.15156569581E+03  0.21263252012E+03  0.92195146544E+02 0.  0.
         23    2    1    2    0    0 -0.11629531356E+03 -0.14692973306E+02 -0.59317091724E+03  0.61743303382E+03  0.12502532049E+03 0.  0.
          5    1    4    4  502    0 -0.90792629218E+02  0.16859982960E+02 -0.18106378390E+03  0.20330702001E+03  0.47000000000E+01 0.  1.
         -5    1    4    4    0  502 -0.25502684343E+02 -0.31552956266E+02 -0.41210713334E+03  0.41412601380E+03  0.47000000000E+01 0.  1.
        -11    1    3    3    0    0  0.26411810424E+02  0.14199349058E+02  0.66054127410E+01  0.30705646402E+02  0.00000000000E+00 0.  1.
         11    1    3    3    0    0  0.89883503138E+02  0.49362424833E+00 -0.15817110855E+03  0.18192687372E+03  0.00000000000E+00 0. -1.
<mgrwt>
<rscale>  0 0.16552627E+03</rscale>
<asrwt>0</asrwt>
<pdfrwt beam="2">  1        1 0.12113862E+00 0.17138207E+03</pdfrwt>
<pdfrwt beam="1">  1       -1 0.65637649E-02 0.17138207E+03</pdfrwt>
<totfact> 0.27208878E+03</totfact>
</mgrwt>
</event>
<event>
 8    1  0.7550631E-006  0.1431234E+03  0.7546771E-02  0.1214394E+00
          2   -1    0    0  501    0  0.00000000000E+00  0.00000000000E+00  0.19670089867E+03  0.19670089867E+03  0.00000000000E+00 0. -1.
         -2   -1    0    0    0  501 -0.00000000000E+00 -0.00000000000E+00 -0.13012859371E+03  0.13012859371E+03  0.00000000000E+00 0.  1.
         23    2    1    2    0    0 -0.53793258181E+02 -0.72200238121E+02 -0.54642977090E+02  0.13927297447E+03  0.91129125216E+02 0.  0.
         23    2    1    2    0    0  0.53793258181E+02  0.72200238121E+02  0.12121528205E+03  0.18755651790E+03  0.11125517424E+03 0.  0.
          5    1    4    4  502    0  0.37631451526E+02  0.86920249984E+02  0.39316622543E+02  0.10266032734E+03  0.47000000000E+01 0. -1.
         -5    1    4    4    0  502  0.16161806655E+02 -0.14720011863E+02  0.81898659503E+02  0.84896190563E+02  0.47000000000E+01 0.  1.
        -11    1    3    3    0    0  0.25914558037E+02 -0.14545773602E+02 -0.13564133980E+02  0.32666949331E+02  0.00000000000E+00 0. -1.
         11    1    3    3    0    0 -0.79707816218E+02 -0.57654464518E+02 -0.41078843110E+02  0.10660602514E+03  0.00000000000E+00 0.  1.
<mgrwt>
<rscale>  0 0.13921152E+03</rscale>
<asrwt>0</asrwt>
<pdfrwt beam="1">  1        2 0.30261677E-01 0.14312338E+03</pdfrwt>
<pdfrwt beam="2">  1       -2 0.20019784E-01 0.14312338E+03</pdfrwt>
<totfact> 0.35189967E+03</totfact>
</mgrwt>
</event>
<event>
 8    1  0.7550631E-006  0.2008240E+03  0.7546771E-02  0.1153202E+00
          1   -1    0    0  501    0  0.00000000000E+00  0.00000000000E+00  0.74141341421E+03  0.74141341421E+03  0.00000000000E+00 0. -1.
         -1   -1    0    0    0  501 -0.00000000000E+00 -0.00000000000E+00 -0.85719366082E+02  0.85719366082E+02  0.00000000000E+00 0.  1.
         23    2    1    2    0    0  0.29966468477E+02  0.15430193604E+03  0.49639024207E+02  0.18867138051E+03  0.91792049773E+02 0.  0.
         23    2    1    2    0    0 -0.29966468477E+02 -0.15430193604E+03  0.60605502392E+03  0.63846139978E+03  0.12499276097E+03 0.  0.
          5    1    4    4  502    0  0.33594148043E+02 -0.10301855113E+03  0.44238156641E+03  0.45548318186E+03  0.47000000000E+01 0. -1.
         -5    1    4    4    0  502 -0.63560616520E+02 -0.51283384909E+02  0.16367345751E+03  0.18297821792E+03  0.47000000000E+01 0. -1.
        -11    1    3    3    0    0 -0.24233275185E+02  0.49012924744E+02 -0.10778938330E+02  0.55728842888E+02  0.00000000000E+00 0.  1.
         11    1    3    3    0    0  0.54199743662E+02  0.10528901129E+03  0.60417962537E+02  0.13294253762E+03  0.00000000000E+00 0. -1.
<mgrwt>
<rscale>  0 0.19594944E+03</rscale>
<asrwt>0</asrwt>
<pdfrwt beam="1">  1        1 0.11406360E+00 0.20082397E+03</pdfrwt>
<pdfrwt beam="2">  1       -1 0.13187595E-01 0.20082397E+03</pdfrwt>
<totfact> 0.10233990E+03</totfact>
</mgrwt>
</event>
<event>
 8    1  0.7550631E-006  0.1436034E+03  0.7546771E-02  0.1218513E+00
          2   -1    0    0  501    0  0.00000000000E+00  0.00000000000E+00  0.58875165906E+03  0.58875165906E+03  0.00000000000E+00 0. -1.
         -2   -1    0    0    0  501 -0.00000000000E+00 -0.00000000000E+00 -0.29111907719E+02  0.29111907719E+02  0.00000000000E+00 0.  1.
         23    2    1    2    0    0 -0.66404807961E+02  0.24182987388E+02  0.21314118323E+03  0.24278597984E+03  0.92311714421E+02 0.  0.
         23    2    1    2    0    0  0.66404807961E+02 -0.24182987388E+02  0.34649856811E+03  0.37507758694E+03  0.12501009207E+03 0.  0.
          5    1    4    4  502    0  0.94028552806E+02  0.14474490270E+02  0.21407357324E+03  0.23430848122E+03  0.47000000000E+01 0.  1.
         -5    1    4    4    0  502 -0.27623744844E+02 -0.38657477658E+02  0.13242499487E+03  0.14076910571E+03  0.47000000000E+01 0.  1.
        -11    1    3    3    0    0 -0.42918233087E+02  0.47162837593E+02  0.19519267550E+03  0.20534480405E+03  0.00000000000E+00 0. -1.
         11    1    3    3    0    0 -0.23486574875E+02 -0.22979850205E+02  0.17948507724E+02  0.37441175787E+02  0.00000000000E+00 0.  1.
<mgrwt>
<rscale>  0 0.13621629E+03</rscale>
<asrwt>0</asrwt>
<pdfrwt beam="1">  1        2 0.90577169E-01 0.14360341E+03</pdfrwt>
<pdfrwt beam="2">  1       -2 0.44787555E-02 0.14360341E+03</pdfrwt>
<totfact> 0.11423628E+04</totfact>
</mgrwt>
</event>
<event>
 7    1  0.7550631E-006  0.1402988E+03  0.7546771E-02  0.1228035E+00
         -2   -1    0    0    0  501 -0.00000000000E+00  0.00000000000E+00  0.69079619731E+02  0.69079619731E+02  0.00000000000E+00 0.  1.
          2   -1    0    0  501    0  0.00000000000E+00 -0.00000000000E+00 -0.24098179135E+03  0.24098179135E+03  0.00000000000E+00 0. -1.
         23    2    1    2    0    0 -0.11819240398E+02  0.47866660205E+02 -0.21582635389E+02  0.10444107338E+03  0.89505396797E+02 0.  0.
          5    1    1    2  502    0 -0.46913563327E+02 -0.63550211267E+02 -0.90265530448E+02  0.12003944253E+03  0.47000000000E+01 0. -1.
         -5    1    1    2    0  502  0.58732803725E+02  0.15683551062E+02 -0.60054005778E+02  0.85580895165E+02  0.47000000000E+01 0.  1.
        -11    1    3    3    0    0 -0.65022268125E+01  0.74623175511E+02 -0.15605258185E+02  0.76514190579E+02  0.00000000000E+00 0.  1.
         11    1    3    3    0    0 -0.53170135858E+01 -0.26756515306E+02 -0.59773772036E+01  0.27926882802E+02  0.00000000000E+00 0. -1.
<mgrwt>
<rscale>  0 0.12961019E+03</rscale>
<asrwt>0</asrwt>
<pdfrwt beam="2">  1        2 0.37074121E-01 0.14029883E+03</pdfrwt>
<pdfrwt beam="1">  1       -2 0.10627634E-01 0.14029883E+03</pdfrwt>
<totfact> 0.79446493E+03</totfact>
</mgrwt>
</event>
<event>
 8    1  0.7550631E-006  0.1752134E+03  0.7546771E-02  0.1178688E+00
         -1   -1    0    0    0  501 -0.00000000000E+00  0.00000000000E+00  0.62004215582E+02  0.62004215582E+02  0.00000000000E+00 0. -1.
          1   -1    0    0  501    0  0.00000000000E+00 -0.00000000000E+00 -0.63374346299E+03  0.63374346299E+03  0.00000000000E+00 0.  1.
         23    2    1    2    0    0  0.11877118401E+03 -0.35027351287E+02 -0.76618680219E+02  0.17053902651E+03  0.88767268262E+02 0.  0.
         23    2    1    2    0    0 -0.11877118401E+03  0.35027351287E+02 -0.49512056719E+03  0.52520865207E+03  0.12396064963E+03 0.  0.
          5    1    4    4  502    0 -0.12163349925E+02 -0.32697992762E+02 -0.42050424636E+02  0.54840076806E+02  0.47000000000E+01 0. -1.
         -5    1    4    4    0  502 -0.10660783409E+03  0.67725344048E+02 -0.45307014256E+03  0.47036857526E+03  0.47000000000E+01 0. -1.
        -11    1    3    3    0    0  0.10268250257E+03 -0.61678098636E+02 -0.69918541810E+02  0.13869566206E+03  0.00000000000E+00 0.  1.
         11    1    3    3    0    0  0.16088681446E+02  0.26650747350E+02 -0.67001384096E+01  0.31843364453E+02  0.00000000000E+00 0. -1.
<mgrwt>
<rscale>  0 0.16919686E+03</rscale>
<asrwt>0</asrwt>
<pdfrwt beam="2">  1        1 0.97498995E-01 0.17521345E+03</pdfrwt>
<pdfrwt beam="1">  1       -1 0.95391101E-02 0.17521345E+03</pdfrwt>
<totfact> 0.21144542E+03</totfact>
</mgrwt>
</event>
<event>
 8    1  0.7550631E-006  0.1516209E+03  0.7546771E-02  0.1206999E+00
         -2   -1    0    0    0  501 -0.00000000000E+00  0.00000000000E+00  0.50134602786E+02  0.50134602786E+02  0.00000000000E+00 0.  1.
          2   -1    0    0  501    0  0.00000000000E+00 -0.00000000000E+00 -0.39052136410E+03  0.39052136410E+03  0.00000000000E+00 0. -1.
         23    2    1    2    0    0 -0.79449803561E+02 -0.32444089253E+02 -0.18143169632E+03  0.22098438780E+03  0.92475667132E+02 0.  0.
         23    2    1    2    0    0  0.79449803561E+02  0.32444089253E+02 -0.15895506500E+03  0.21967157908E+03  0.12499599896E+03 0.  0.
          5    1    4    4  502    0  0.55541914322E+02 -0.39461278305E+02 -0.10953703821E+03  0.12908349806E+03  0.47000000000E+01 0.  1.
         -5    1    4    4    0  502  0.23907889239E+02  0.71905367558E+02 -0.49418026787E+02  0.90588081021E+02  0.47000000000E+01 0.  1.
        -11    1    3    3    0    0 -0.30135553828E+02  0.13744799496E+02 -0.69037798618E+01  0.33833907461E+02  0.00000000000E+00 0.  1.
         11    1    3    3    0    0 -0.49314249733E+02 -0.46188888748E+02 -0.17452791645E+03  0.18715048034E+03  0.00000000000E+00 0. -1.
<mgrwt>
<rscale>  0 0.14481071E+03</rscale>
<asrwt>0</asrwt>
<pdfrwt beam="2">  1        2 0.60080210E-01 0.15162088E+03</pdfrwt>
<pdfrwt beam="1">  1       -2 0.77130158E-02 0.15162088E+03</pdfrwt>
<totfact> 0.78800966E+03</totfact>
</mgrwt>
</event>
<event>
 7    1  0.7550631E-006  0.5590475E+03  0.7546771E-02  0.9994212E-01
          1   -1    0    0  501    0  0.00000000000E+00  0.00000000000E+00  0.36688684906E+03  0.36688684906E+03  0.00000000000E+00 0. -1.
         -1   -1    0    0    0  501 -0.00000000000E+00 -0.00000000000E+00 -0.21296351719E+03  0.21296351719E+03  0.00000000000E+00 0.  1.
         23    2    1    2    0    0  0.12076564939E+03  0.36571218590E+02  0.22222019639E+03  0.28317024487E+03  0.12199088406E+03 0.  0.
          5    1    3    3  502    0  0.62541554655E+02  0.47210080617E+02  0.20770925551E+03  0.22204833392E+03  0.47000000000E+01 0. -1.
         -5    1    3    3    0  502  0.58224094733E+02 -0.10638862027E+02  0.14510940873E+02  0.61121910946E+02  0.47000000000E+01 0.  1.
        -11    1    1    2    0    0 -0.10916835356E+03 -0.93959246144E+02  0.59708609840E+02  0.15592045230E+03  0.00000000000E+00 0.  1.
         11    1    1    2    0    0 -0.11597295824E+02  0.57388027554E+02 -0.12800547435E+03  0.14075966908E+03  0.00000000000E+00 0. -1.
<mgrwt>
<rscale>  0 0.55904745E+03</rscale>
<asrwt>0</asrwt>
<pdfrwt beam="1">  1        1 0.56444131E-01 0.55904745E+03</pdfrwt>
<pdfrwt beam="2">  1       -1 0.32763618E-01 0.55904745E+03</pdfrwt>
<totfact> 0.59308902E+02</totfact>
</mgrwt>
</event>
<event>
 8    1  0.7550631E-006  0.1532231E+03  0.7546771E-02  0.1205758E+00
          1   -1    0    0  501    0  0.00000000000E+00  0.00000000000E+00  0.25379202636E+03  0.25379202636E+03  0.00000000000E+00 0. -1.
         -1   -1    0    0    0  501 -0.00000000000E+00 -0.00000000000E+00 -0.79539970689E+02  0.79539970689E+02  0.00000000000E+00 0.  1.
         23    2    1    2    0    0 -0.12612383238E+02  0.87708301308E+02  0.11095391437E+03  0.16754905436E+03  0.88938721455E+02 0.  0.
         23    2    1    2    0    0  0.12612383238E+02 -0.87708301308E+02  0.63298141299E+02  0.16578294269E+03  0.12500204424E+03 0.  0.
          5    1    4    4  502    0  0.71815630726E+00  0.26794743515E+02 -0.10266214316E+02  0.29085377510E+02  0.47000000000E+01 0. -1.
         -5    1    4    4    0  502  0.11894226931E+02 -0.11450304482E+03  0.73564355615E+02  0.13669756518E+03  0.47000000000E+01 0. -1.
        -11    1    3    3    0    0 -0.31997370788E+02  0.30349660058E+02  0.35359980202E+01  0.44242930339E+02  0.00000000000E+00 0.  1.
         11    1    3    3    0    0  0.19384987550E+02  0.57358641249E+02  0.10741791635E+03  0.12330612402E+03  0.00000000000E+00 0. -1.
<mgrwt>
<rscale>  0 0.14577880E+03</rscale>
<asrwt>0</asrwt>
<pdfrwt beam="1">  1        1 0.39044927E-01 0.15322314E+03</pdfrwt>
<pdfrwt beam="2">  1       -1 0.12236919E-01 0.15322314E+03</pdfrwt>
<totfact> 0.46481180E+03</totfact>
</mgrwt>
</event>
<event>
 8    1  0.7550631E-006  0.1258555E+03  0.7546771E-02  0.1249257E+00
          2   -1    0    0  501    0  0.00000000000E+00  0.00000000000E+00  0.28905559892E+02  0.28905559892E+02  0.00000000000E+00 0. -1.
         -2   -1    0    0    0  501 -0.00000000000E+00 -0.00000000000E+00 -0.41201904718E+03  0.41201904718E+03  0.00000000000E+00 0.  1.
         23    2    1    2    0    0 -0.11305383361E+02  0.90408472152E+01 -0.17664184303E+03  0.19911861870E+03  0.90754256058E+02 0.  0.
         23    2    1    2    0    0  0.11305383361E+02 -0.90408472152E+01 -0.20647164426E+03  0.24180598837E+03  0.12502018844E+03 0.  0.
          5    1    4    4  502    0 -0.49964133410E+02 -0.31789319797E+02 -0.83643621546E+02  0.10259298663E+03  0.47000000000E+01 0.  1.
         -5    1    4    4    0  502  0.61269516771E+02  0.22748472582E+02 -0.12282802271E+03  0.13921300174E+03  0.47000000000E+01 0.  1.
        -11    1    3    3    0    0 -0.29558180933E+02  0.43372090680E+02 -0.90728445823E+02  0.10481638799E+03  0.00000000000E+00 0.  1.
         11    1    3    3    0    0  0.18252797572E+02 -0.34331243465E+02 -0.85913397207E+02  0.94302230709E+02  0.00000000000E+00 0. -1.
<mgrwt>
<rscale>  0 0.11634150E+03</rscale>
<asrwt>0</asrwt>
<pdfrwt beam="1">  1        2 0.44470095E-02 0.12585546E+03</pdfrwt>
<pdfrwt beam="2">  1       -2 0.63387542E-01 0.12585546E+03</pdfrwt>
<totfact> 0.40946350E+03</totfact>
</mgrwt>
</event>
<event>
 8    1  0.7550631E-006  0.1759162E+03  0.7546771E-02  0.1177310E+00
          2   -1    0    0  501    0  0.00000000000E+00  0.00000000000E+00  0.12948869675E+03  0.12948869675E+03  0.00000000000E+00 0. -1.
         -2   -1    0    0    0  501 -0.00000000000E+00 -0.00000000000E+00 -0.21257251189E+03  0.21257251189E+03  0.00000000000E+00 0.  1.
         23    2    1    2    0    0  0.35730265066E+02  0.11850953913E+03 -0.28621608606E+02  0.15790736762E+03  0.93778342728E+02 0.  0.
         23    2    1    2    0    0 -0.35730265066E+02 -0.11850953913E+03 -0.54462206538E+02  0.18415384101E+03  0.12500137004E+03 0.  0.
          5    1    4    4  502    0 -0.80969264930E+02 -0.93383818892E+02 -0.33683735513E+02  0.12819221323E+03  0.47000000000E+01 0.  1.
         -5    1    4    4    0  502  0.45238999864E+02 -0.25125720234E+02 -0.20778471024E+02  0.55961627783E+02  0.47000000000E+01 0.  1.
        -11    1    3    3    0    0  0.34865741240E+02  0.15445053891E+02 -0.38720570670E+02  0.54345673194E+02  0.00000000000E+00 0. -1.
         11    1    3    3    0    0  0.86452382627E+00  0.10306448523E+03  0.10098962065E+02  0.10356169443E+03  0.00000000000E+00 0.  1.
<mgrwt>
<rscale>  0 0.17051653E+03</rscale>
<asrwt>0</asrwt>
<pdfrwt beam="1">  1        2 0.19921338E-01 0.17591619E+03</pdfrwt>
<pdfrwt beam="2">  1       -2 0.32703463E-01 0.17591619E+03</pdfrwt>
<totfact> 0.23827722E+03</totfact>
</mgrwt>
</event>
<event>
 8    1  0.7550631E-006  0.1765089E+03  0.7546771E-02  0.1176698E+00
         -2   -1    0    0    0  501 -0.00000000000E+00  0.00000000000E+00  0.31466592460E+02  0.31466592460E+02  0.00000000000E+00 0.  1.
          2   -1    0    0  501    0  0.00000000000E+00 -0.00000000000E+00 -0.88234740857E+03  0.88234740857E+03  0.00000000000E+00 0. -1.
         23    2    1    2    0    0 -0.12014905335E+02  0.12404155566E+03 -0.36621436044E+03  0.39800690313E+03  0.93626233840E+02 0.  0.
         23    2    1    2    0    0  0.12014905335E+02 -0.12404155566E+03 -0.48466645567E+03  0.51580709790E+03  0.12499889406E+03 0.  0.
          5    1    4    4  502    0  0.52516056354E+02 -0.12203299901E+03 -0.32814435893E+03  0.35404914817E+03  0.47000000000E+01 0.  1.
         -5    1    4    4    0  502 -0.40501151019E+02 -0.20085566452E+01 -0.15652209674E+03  0.16175794973E+03  0.47000000000E+01 0.  1.
        -11    1    3    3    0    0 -0.41998951156E+02  0.73848629938E+02 -0.13493742013E+03  0.15945419215E+03  0.00000000000E+00 0.  1.
         11    1    3    3    0    0  0.29984045821E+02  0.50192925722E+02 -0.23127694031E+03  0.23855271098E+03  0.00000000000E+00 0. -1.
<mgrwt>
<rscale>  0 0.17110708E+03</rscale>
<asrwt>0</asrwt>
<pdfrwt beam="2">  1        2 0.13574575E+00 0.17650889E+03</pdfrwt>
<pdfrwt beam="1">  1       -2 0.48410144E-02 0.17650889E+03</pdfrwt>
<totfact> 0.62962268E+03</totfact>
</mgrwt>
</event>
<event>
 8    1  0.7550631E-006  0.1921787E+03  0.7546771E-02  0.1161796E+00
         -1   -1    0    0    0  501 -0.00000000000E+00  0.00000000000E+00  0.23379671590E+02  0.23379671590E+02  0.00000000000E+00 0.  1.
          1   -1    0    0  501    0  0.00000000000E+00 -0.00000000000E+00 -0.14030738233E+04  0.14030738233E+04  0.00000000000E+00 0. -1.
         23    2    1    2    0    0  0.14452442328E+03 -0.20421598067E+02 -0.62671238838E+03  0.64933433356E+03  0.86961534016E+02 0.  0.
         23    2    1    2    0    0 -0.14452442328E+03  0.20421598067E+02 -0.75298176333E+03  0.77711916133E+03  0.12501321693E+03 0.  0.
          5    1    4    4  502    0 -0.97602727199E+02  0.63826978070E+02 -0.60013016918E+03  0.61137425972E+03  0.47000000000E+01 0. -1.
         -5    1    4    4    0  502 -0.46921696078E+02 -0.43405380004E+02 -0.15285159415E+03  0.16574490161E+03  0.47000000000E+01 0. -1.
        -11    1    3    3    0    0  0.10088854555E+02 -0.14460217291E+02 -0.15476447097E+02  0.23460675290E+02  0.00000000000E+00 0.  1.
         11    1    3    3    0    0  0.13443556872E+03 -0.59613807758E+01 -0.61123594129E+03  0.62587365827E+03  0.00000000000E+00 0. -1.
<mgrwt>
<rscale>  0 0.18634962E+03</rscale>
<asrwt>0</asrwt>
<pdfrwt beam="2">  1        1 0.21585756E+00 0.19217871E+03</pdfrwt>
<pdfrwt beam="1">  1       -1 0.35968717E-02 0.19217871E+03</pdfrwt>
<totfact> 0.23891494E+03</totfact>
</mgrwt>
</event>
<event>
 8    1  0.7550631E-006  0.1735035E+03  0.7546771E-02  0.1180055E+00
         -1   -1    0    0    0  501 -0.00000000000E+00  0.00000000000E+00  0.19428210992E+03  0.19428210992E+03  0.00000000000E+00 0.  1.
          1   -1    0    0  501    0  0.00000000000E+00 -0.00000000000E+00 -0.18188405840E+03  0.18188405840E+03  0.00000000000E+00 0. -1.
         23    2    1    2    0    0  0.28626547896E+02  0.11687112570E+03  0.99727431555E+02  0.18192435608E+03  0.93126642073E+02 0.  0.
         23    2    1    2    0    0 -0.28626547896E+02 -0.11687112570E+03 -0.87329380043E+02  0.19424181224E+03  0.12500048694E+03 0.  0.
          5    1    4    4  502    0 -0.34455503156E+02 -0.57045737558E+02 -0.11093011240E+03  0.12949508758E+03  0.47000000000E+01 0.  1.
         -5    1    4    4    0  502  0.58289552602E+01 -0.59825388143E+02  0.23600732356E+02  0.64746724656E+02  0.47000000000E+01 0.  1.
        -11    1    3    3    0    0 -0.15944417163E+02  0.61755058394E+02  0.55058814175E+01  0.64017391435E+02  0.00000000000E+00 0. -1.
         11    1    3    3    0    0  0.44570965059E+02  0.55116067307E+02  0.94221550138E+02  0.11790696465E+03  0.00000000000E+00 0.  1.
<mgrwt>
<rscale>  0 0.16790057E+03</rscale>
<asrwt>0</asrwt>
<pdfrwt beam="2">  1        1 0.27982163E-01 0.17350349E+03</pdfrwt>
<pdfrwt beam="1">  1       -1 0.29889556E-01 0.17350349E+03</pdfrwt>
<totfact> 0.16801607E+03</totfact>
</mgrwt>
</event>
<event>
 8    1  0.7550631E-006  0.1474052E+03  0.7546771E-02  0.1214535E+00
          2   -1    0    0  501    0  0.00000000000E+00  0.00000000000E+00  0.24823004331E+03  0.24823004331E+03  0.00000000000E+00 0. -1.
         -2   -1    0    0    0  501 -0.00000000000E+00 -0.00000000000E+00 -0.87961675912E+02  0.87961675912E+02  0.00000000000E+00 0.  1.
         23    2    1    2    0    0  0.37338083974E+02 -0.68621137619E+02 -0.20481915778E+01  0.11693168570E+03  0.86981785390E+02 0.  0.
         23    2    1    2    0    0 -0.37338083974E+02  0.68621137619E+02  0.16231655897E+03  0.21926003352E+03  0.12500121575E+03 0.  0.
          5    1    4    4  502    0  0.26720494613E+01  0.37598505924E+02  0.16404438980E+03  0.16838479539E+03  0.47000000000E+01 0.  1.
         -5    1    4    4    0  502 -0.40010133436E+02  0.31022631696E+02 -0.17278308218E+01  0.50875238125E+02  0.47000000000E+01 0.  1.
        -11    1    3    3    0    0  0.52352716977E+02 -0.22286782725E+02 -0.26112498120E+02  0.62604873750E+02  0.00000000000E+00 0. -1.
         11    1    3    3    0    0 -0.15014633003E+02 -0.46334354894E+02  0.24064306543E+02  0.54326811954E+02  0.00000000000E+00 0.  1.
<mgrwt>
<rscale>  0 0.13910765E+03</rscale>
<asrwt>0</asrwt>
<pdfrwt beam="1">  1        2 0.38189237E-01 0.14740521E+03</pdfrwt>
<pdfrwt beam="2">  1       -2 0.13532566E-01 0.14740521E+03</pdfrwt>
<totfact> 0.52464606E+03</totfact>
</mgrwt>
</event>
<event>
 8    1  0.7550631E-006  0.1296123E+03  0.7546771E-02  0.1241190E+00
         -1   -1    0    0    0  501 -0.00000000000E+00  0.00000000000E+00  0.56749074809E+02  0.56749074809E+02  0.00000000000E+00 0.  1.
          1   -1    0    0  501    0  0.00000000000E+00 -0.00000000000E+00 -0.48214151782E+03  0.48214151782E+03  0.00000000000E+00 0. -1.
         23    2    1    2    0    0 -0.75782060267E+01 -0.33420773975E+02 -0.51484728598E+01  0.99112994530E+02  0.92857426048E+02 0.  0.
         23    2    1    2    0    0  0.75782060267E+01  0.33420773975E+02 -0.42024397015E+03  0.43977759809E+03  0.12499985600E+03 0.  0.
          5    1    4    4  502    0 -0.85963082454E+01 -0.61588859919E+00 -0.39280040512E+03  0.39292305112E+03  0.47000000000E+01 0. -1.
         -5    1    4    4    0  502  0.16174514272E+02  0.34036662574E+02 -0.27443565023E+02  0.46854546976E+02  0.47000000000E+01 0. -1.
        -11    1    3    3    0    0  0.26945315977E+01 -0.43113586589E+02 -0.41630254349E+02  0.59992665604E+02  0.00000000000E+00 0. -1.
         11    1    3    3    0    0 -0.10272737624E+02  0.96928126137E+01  0.36481781490E+02  0.39120328926E+02  0.00000000000E+00 0.  1.
<mgrwt>
<rscale>  0 0.12116315E+03</rscale>
<asrwt>0</asrwt>
<pdfrwt beam="2">  1        1 0.74175615E-01 0.12961227E+03</pdfrwt>
<pdfrwt beam="1">  1       -1 0.87306272E-02 0.12961227E+03</pdfrwt>
<totfact> 0.34560730E+03</totfact>
</mgrwt>
</event>
<event>
 8    1  0.7550631E-006  0.1476021E+03  0.7546771E-02  0.1211758E+00
          1   -1    0    0  501    0  0.00000000000E+00  0.00000000000E+00  0.10537667039E+03  0.10537667039E+03  0.00000000000E+00 0. -1.
         -1   -1    0    0    0  501 -0.00000000000E+00 -0.00000000000E+00 -0.19718816447E+03  0.19718816447E+03  0.00000000000E+00 0.  1.
         23    2    1    2    0    0  0.75709813709E+02  0.20673841532E+02 -0.93555052789E+02  0.15495243363E+03  0.95385141241E+02 0.  0.
         23    2    1    2    0    0 -0.75709813709E+02 -0.20673841532E+02  0.17435587135E+01  0.14761240124E+03  0.12500798929E+03 0.  0.
          5    1    4    4  502    0  0.17110795030E+02  0.15249124715E+02 -0.34414275239E+02  0.41614269805E+02  0.47000000000E+01 0.  1.
         -5    1    4    4    0  502 -0.92820608739E+02 -0.35922966247E+02  0.36157833952E+02  0.10599813143E+03  0.47000000000E+01 0.  1.
        -11    1    3    3    0    0  0.87402876347E+02  0.37047042965E+02 -0.50726317892E+02  0.10763319894E+03  0.00000000000E+00 0. -1.
         11    1    3    3    0    0 -0.11693062638E+02 -0.16373201434E+02 -0.42828734897E+02  0.47319234693E+02  0.00000000000E+00 0.  1.
<mgrwt>
<rscale>  0 0.14117428E+03</rscale>
<asrwt>0</asrwt>
<pdfrwt beam="1">  1        1 0.16211796E-01 0.14760210E+03</pdfrwt>
<pdfrwt beam="2">  1       -1 0.30336641E-01 0.14760210E+03</pdfrwt>
<totfact> 0.32617377E+03</totfact>
</mgrwt>
</event>
<event>
 8    1  0.7550631E-006  0.2266541E+03  0.7546771E-02  0.1132085E+00
          2   -1    0    0  501    0  0.00000000000E+00  0.00000000000E+00  0.22887354259E+03  0.22887354259E+03  0.00000000000E+00 0.  1.
         -2   -1    0    0    0  501 -0.00000000000E+00 -0.00000000000E+00 -0.21611203729E+03  0.21611203729E+03  0.00000000000E+00 0. -1.
         23    2    1    2    0    0 -0.18905932401E+03 -0.13716065766E+01 -0.35643245417E+02  0.21322037621E+03  0.91908533799E+02 0.  0.
         23    2    1    2    0    0  0.18905932401E+03  0.13716065766E+01  0.48404750718E+02  0.23176520368E+03  0.12500712158E+03 0.  0.
          5    1    4    4  502    0  0.40463708150E+02 -0.39054362969E+02 -0.24253439192E+02  0.61423727148E+02  0.47000000000E+01 0. -1.
         -5    1    4    4    0  502  0.14859561586E+03  0.40425969546E+02  0.72658189910E+02  0.17034147653E+03  0.47000000000E+01 0. -1.
        -11    1    3    3    0    0 -0.55792329360E+02 -0.25172989264E+00  0.31414382552E+02  0.64028984175E+02  0.00000000000E+00 0.  1.
         11    1    3    3    0    0 -0.13326699465E+03 -0.11198766839E+01 -0.67057627969E+02  0.14919139203E+03  0.00000000000E+00 0. -1.
<mgrwt>
<rscale>  0 0.22242893E+03</rscale>
<asrwt>0</asrwt>
<pdfrwt beam="1">  1        2 0.35211314E-01 0.22665412E+03</pdfrwt>
<pdfrwt beam="2">  1       -2 0.33248006E-01 0.22665412E+03</pdfrwt>
<totfact> 0.12381383E+03</totfact>
</mgrwt>
</event>
<event>
 8    1  0.7550631E-006  0.1487917E+03  0.7546771E-02  0.1211289E+00
          2   -1    0    0  501    0  0.00000000000E+00  0.00000000000E+00  0.11719959386E+03  0.11719959386E+03  0.00000000000E+00 0.  1.
         -2   -1    0    0    0  501 -0.00000000000E+00 -0.00000000000E+00 -0.15720111803E+03  0.15720111803E+03  0.00000000000E+00 0. -1.
         23    2    1    2    0    0 -0.28912031141E+02  0.75300455897E+02 -0.29034133291E+02  0.12520533534E+03  0.91254210307E+02 0.  0.
         23    2    1    2    0    0  0.28912031141E+02 -0.75300455897E+02 -0.10967390879E+02  0.14919537655E+03  0.12503164606E+03 0.  0.
          5    1    4    4  502    0  0.73028037020E+02 -0.35187160420E+02 -0.29791335485E+02  0.86491873141E+02  0.47000000000E+01 0.  1.
         -5    1    4    4    0  502 -0.44116005879E+02 -0.40113295477E+02  0.18823944606E+02  0.62703503405E+02  0.47000000000E+01 0.  1.
        -11    1    3    3    0    0 -0.99516115254E+01  0.20018017379E+02  0.33075657313E+02  0.39921857402E+02  0.00000000000E+00 0.  1.
         11    1    3    3    0    0 -0.18960419616E+02  0.55282438518E+02 -0.62109790604E+02  0.85283477939E+02  0.00000000000E+00 0. -1.
<mgrwt>
<rscale>  0 0.14152695E+03</rscale>
<asrwt>0</asrwt>
<pdfrwt beam="1">  1        2 0.18030707E-01 0.14879172E+03</pdfrwt>
<pdfrwt beam="2">  1       -2 0.24184787E-01 0.14879172E+03</pdfrwt>
<totfact> 0.45389812E+03</totfact>
</mgrwt>
</event>
<event>
 8    1  0.7550631E-006  0.1532060E+03  0.7546771E-02  0.1204654E+00
         -2   -1    0    0    0  501 -0.00000000000E+00  0.00000000000E+00  0.65944102274E+02  0.65944102274E+02  0.00000000000E+00 0.  1.
          2   -1    0    0  501    0  0.00000000000E+00 -0.00000000000E+00 -0.39535165479E+03  0.39535165479E+03  0.00000000000E+00 0. -1.
         23    2    1    2    0    0  0.64254292769E+02  0.60977106093E+02 -0.41459602068E+02  0.13512694726E+03  0.93239324670E+02 0.  0.
         23    2    1    2    0    0 -0.64254292769E+02 -0.60977106093E+02 -0.28794795045E+03  0.32616880981E+03  0.12500099486E+03 0.  0.
          5    1    4    4  502    0 -0.63525545613E+02  0.32849537444E+01 -0.23271818319E+03  0.24130090893E+03  0.47000000000E+01 0.  1.
         -5    1    4    4    0  502 -0.72874715563E+00 -0.64262059837E+02 -0.55229767266E+02  0.84867900877E+02  0.47000000000E+01 0.  1.
        -11    1    3    3    0    0  0.38538374281E+01  0.21515446585E+02  0.27631705428E+02  0.35231770457E+02  0.00000000000E+00 0.  1.
         11    1    3    3    0    0  0.60400455340E+02  0.39461659507E+02 -0.69091307496E+02  0.99895176800E+02  0.00000000000E+00 0. -1.
<mgrwt>
<rscale>  0 0.14664761E+03</rscale>
<asrwt>0</asrwt>
<pdfrwt beam="2">  1        2 0.60823330E-01 0.15320597E+03</pdfrwt>
<pdfrwt beam="1">  1       -2 0.10145247E-01 0.15320597E+03</pdfrwt>
<totfact> 0.50735334E+03</totfact>
</mgrwt>
</event>
<event>
 8    1  0.7550631E-006  0.1823864E+03  0.7546771E-02  0.1170994E+00
         -3   -1    0    0    0  501 -0.00000000000E+00  0.00000000000E+00  0.68771489048E+03  0.68771489048E+03  0.00000000000E+00 0.  1.
          3   -1    0    0  501    0  0.00000000000E+00 -0.00000000000E+00 -0.42992946483E+02  0.42992946483E+02  0.00000000000E+00 0. -1.
         23    2    1    2    0    0  0.26661217980E+02  0.13011694091E+03  0.32508836804E+03  0.36269912714E+03  0.90702651205E+02 0.  0.
         23    2    1    2    0    0 -0.26661217980E+02 -0.13011694091E+03  0.31963357596E+03  0.36800870982E+03  0.12499419495E+03 0.  0.
          5    1    4    4  502    0 -0.55576446314E+02 -0.10766570923E+02  0.73420235759E+02  0.92829313545E+02  0.47000000000E+01 0. -1.
         -5    1    4    4    0  502  0.28915228334E+02 -0.11935036999E+03  0.24621334020E+03  0.27517939628E+03  0.47000000000E+01 0. -1.
        -11    1    3    3    0    0  0.20989786339E+02  0.36850993138E+01  0.10811069832E+02  0.23896240675E+02  0.00000000000E+00 0.  1.
         11    1    3    3    0    0  0.56714316413E+01  0.12643184160E+03  0.31427729821E+03  0.33880288647E+03  0.00000000000E+00 0. -1.
<mgrwt>
<rscale>  0 0.17674213E+03</rscale>
<asrwt>0</asrwt>
<pdfrwt beam="2">  1        3 0.66143000E-02 0.18238637E+03</pdfrwt>
<pdfrwt beam="1">  1       -3 0.10580228E+00 0.18238637E+03</pdfrwt>
<totfact> 0.27934774E+02</totfact>
</mgrwt>
</event>
<event>
 6    1  0.7550631E-006  0.2362258E+03  0.7546771E-02  0.1202291E+00
          1   -1    0    0  501    0  0.00000000000E+00  0.00000000000E+00  0.11670649776E+04  0.11670649776E+04  0.00000000000E+00 0. -1.
         -1   -1    0    0    0  501 -0.00000000000E+00 -0.00000000000E+00 -0.17055900522E+02  0.17055900522E+02  0.00000000000E+00 0.  1.
          5    1    1    2  502    0 -0.65824113479E+02  0.38471679795E+02  0.81898017004E+03  0.82253479743E+03  0.47000000000E+01 0. -1.
         -5    1    1    2    0  502  0.85443333792E+02 -0.66524972760E+02  0.25432618650E+03  0.27645982426E+03  0.47000000000E+01 0.  1.
        -11    1    1    2    0    0 -0.15314329300E+02  0.98394173799E+01  0.37309766507E+02  0.41513389323E+02  0.00000000000E+00 0. -1.
         11    1    1    2    0    0 -0.43048910132E+01  0.18213875584E+02  0.39392954046E+02  0.43612867126E+02  0.00000000000E+00 0.  1.
<mgrwt>
<rscale>  0 0.14853007E+03</rscale>
<asrwt>0</asrwt>
<pdfrwt beam="1">  1        1 0.17954839E+00 0.23622583E+03</pdfrwt>
<pdfrwt beam="2">  1       -1 0.26239856E-02 0.23622583E+03</pdfrwt>
<totfact> 0.55304512E+03</totfact>
</mgrwt>
</event>
<event>
 8    1  0.7550631E-006  0.2342870E+03  0.7546771E-02  0.1126871E+00
         -1   -1    0    0    0  501 -0.00000000000E+00  0.00000000000E+00  0.25710670144E+03  0.25710670144E+03  0.00000000000E+00 0.  1.
          1   -1    0    0  501    0  0.00000000000E+00 -0.00000000000E+00 -0.20394342133E+03  0.20394342133E+03  0.00000000000E+00 0. -1.
         23    2    1    2    0    0 -0.19241308910E+03 -0.47372077653E+02  0.66590937563E+02  0.22637869363E+03  0.86867999672E+02 0.  0.
         23    2    1    2    0    0  0.19241308910E+03  0.47372077653E+02 -0.13427657456E+02  0.23467142914E+03  0.12499386815E+03 0.  0.
          5    1    4    4  502    0  0.77601241491E+02  0.82341766002E+02  0.39310543091E+01  0.11331223366E+03  0.47000000000E+01 0. -1.
         -5    1    4    4    0  502  0.11481184761E+03 -0.34969688349E+02 -0.17358711765E+02  0.12135919548E+03  0.47000000000E+01 0. -1.
        -11    1    3    3    0    0 -0.50980235509E+02 -0.40369311404E+02 -0.93465002787E+01  0.65696444221E+02  0.00000000000E+00 0. -1.
         11    1    3    3    0    0 -0.14143285359E+03 -0.70027662485E+01  0.75937437842E+02  0.16068224941E+03  0.00000000000E+00 0.  1.
<mgrwt>
<rscale>  0 0.22967136E+03</rscale>
<asrwt>0</asrwt>
<pdfrwt beam="2">  1        1 0.31375911E-01 0.23428696E+03</pdfrwt>
<pdfrwt beam="1">  1       -1 0.39554877E-01 0.23428696E+03</pdfrwt>
<totfact> 0.90127003E+02</totfact>
</mgrwt>
</event>
<event>
 8    1  0.7550631E-006  0.1606441E+03  0.7546771E-02  0.1195975E+00
         -1   -1    0    0    0  501 -0.00000000000E+00  0.00000000000E+00  0.60216656101E+02  0.60216656101E+02  0.00000000000E+00 0.  1.
          1   -1    0    0  501    0  0.00000000000E+00 -0.00000000000E+00 -0.49896071587E+03  0.49896071587E+03  0.00000000000E+00 0. -1.
         23    2    1    2    0    0  0.33874470610E+02 -0.95034845171E+02 -0.59370368845E+02  0.14719325288E+03  0.89229543550E+02 0.  0.
         23    2    1    2    0    0 -0.33874470610E+02  0.95034845171E+02 -0.37937369092E+03  0.41198411908E+03  0.12500966146E+03 0.  0.
          5    1    4    4  502    0 -0.59934441472E+02  0.34081750738E+02 -0.30283514967E+03  0.31062021970E+03  0.47000000000E+01 0.  1.
         -5    1    4    4    0  502  0.26059970861E+02  0.60953094432E+02 -0.76538541251E+02  0.10136389939E+03  0.47000000000E+01 0.  1.
        -11    1    3    3    0    0  0.14203882578E+02 -0.68316200198E+02  0.98145708182E+01  0.70464028342E+02  0.00000000000E+00 0.  1.
         11    1    3    3    0    0  0.19670588032E+02 -0.26718644972E+02 -0.69184939663E+02  0.76729224543E+02  0.00000000000E+00 0. -1.
<mgrwt>
<rscale>  0 0.15372030E+03</rscale>
<asrwt>0</asrwt>
<pdfrwt beam="2">  1        1 0.76763185E-01 0.16064407E+03</pdfrwt>
<pdfrwt beam="1">  1       -1 0.92641012E-02 0.16064407E+03</pdfrwt>
<totfact> 0.30463176E+03</totfact>
</mgrwt>
</event>
<event>
 8    1  0.7550631E-006  0.1634204E+03  0.7546771E-02  0.1191697E+00
         -2   -1    0    0    0  501 -0.00000000000E+00  0.00000000000E+00  0.31758267638E+02  0.31758267638E+02  0.00000000000E+00 0.  1.
          2   -1    0    0  501    0  0.00000000000E+00 -0.00000000000E+00 -0.97704072803E+03  0.97704072803E+03  0.00000000000E+00 0. -1.
         23    2    1    2    0    0  0.45708538983E+02 -0.96612219824E+02 -0.19166693877E+03  0.23766828943E+03  0.91251349723E+02 0.  0.
         23    2    1    2    0    0 -0.45708538983E+02  0.96612219824E+02 -0.75361552163E+03  0.77113070625E+03  0.12362451263E+03 0.  0.
          5    1    4    4  502    0  0.26170438696E+02 -0.10879967164E+02 -0.75522739249E+02  0.80802473296E+02  0.47000000000E+01 0.  1.
         -5    1    4    4    0  502 -0.71878977679E+02  0.10749218699E+03 -0.67809278238E+03  0.69032823295E+03  0.47000000000E+01 0.  1.
        -11    1    3    3    0    0 -0.22765380460E+02 -0.46162895738E+02 -0.46213443747E+02  0.69173389922E+02  0.00000000000E+00 0.  1.
         11    1    3    3    0    0  0.68473919443E+02 -0.50449324086E+02 -0.14545349502E+03  0.16849489950E+03  0.00000000000E+00 0. -1.
<mgrwt>
<rscale>  0 0.15737129E+03</rscale>
<asrwt>0</asrwt>
<pdfrwt beam="2">  1        2 0.15031394E+00 0.16342035E+03</pdfrwt>
<pdfrwt beam="1">  1       -2 0.48858880E-02 0.16342035E+03</pdfrwt>
<totfact> 0.54009274E+03</totfact>
</mgrwt>
</event>
<event>
 8    1  0.7550631E-006  0.1638070E+03  0.7546771E-02  0.1191724E+00
          2   -1    0    0  501    0  0.00000000000E+00  0.00000000000E+00  0.11486950272E+04  0.11486950272E+04  0.00000000000E+00 0. -1.
         -2   -1    0    0    0  501 -0.00000000000E+00 -0.00000000000E+00 -0.20018465396E+02  0.20018465396E+02  0.00000000000E+00 0.  1.
         23    2    1    2    0    0 -0.10122515793E+03 -0.31008095445E+02  0.52523607349E+03  0.54343501800E+03  0.90778033246E+02 0.  0.
         23    2    1    2    0    0  0.10122515793E+03  0.31008095445E+02  0.60344048829E+03  0.62527847457E+03  0.12499885306E+03 0.  0.
          5    1    4    4  502    0  0.98557461212E+02 -0.25892872358E+01  0.56657451606E+03  0.57510785929E+03  0.47000000000E+01 0. -1.
         -5    1    4    4    0  502  0.26676967149E+01  0.33597382681E+02  0.36865972234E+02  0.50170615280E+02  0.47000000000E+01 0. -1.
        -11    1    3    3    0    0 -0.26574738672E+02 -0.53718092114E+02  0.18952191211E+03  0.19877224486E+03  0.00000000000E+00 0.  1.
         11    1    3    3    0    0 -0.74650419255E+02  0.22709996669E+02  0.33571416137E+03  0.34466277314E+03  0.00000000000E+00 0. -1.
<mgrwt>
<rscale>  0 0.15734781E+03</rscale>
<asrwt>0</asrwt>
<pdfrwt beam="1">  1        2 0.17672226E+00 0.16380704E+03</pdfrwt>
<pdfrwt beam="2">  1       -2 0.30797648E-02 0.16380704E+03</pdfrwt>
<totfact> 0.85265701E+03</totfact>
</mgrwt>
</event>
<event>
 8    1  0.7550631E-006  0.1399317E+03  0.7546771E-02  0.1219384E+00
          4   -1    0    0  501    0  0.00000000000E+00  0.00000000000E+00  0.11016297291E+03  0.11016297291E+03  0.00000000000E+00 0. -1.
         -4   -1    0    0    0  501 -0.00000000000E+00 -0.00000000000E+00 -0.22180978287E+03  0.22180978287E+03  0.00000000000E+00 0.  1.
         23    2    1    2    0    0  0.31596714039E+01  0.82202058864E+02 -0.14270050085E+03  0.18863675561E+03  0.91941452121E+02 0.  0.
         23    2    1    2    0    0 -0.31596714039E+01 -0.82202058864E+02  0.31053690893E+02  0.14333600017E+03  0.11319768205E+03 0.  0.
          5    1    4    4  502    0 -0.45854020341E+02 -0.65098758227E+02  0.49145441732E+02  0.93689935143E+02  0.47000000000E+01 0. -1.
         -5    1    4    4    0  502  0.42694348937E+02 -0.17103300637E+02 -0.18091750838E+02  0.49646065023E+02  0.47000000000E+01 0.  1.
        -11    1    3    3    0    0 -0.16598841204E+00 -0.20480873648E+02 -0.27333344854E+02  0.34155606837E+02  0.00000000000E+00 0.  1.
         11    1    3    3    0    0  0.33256598159E+01  0.10268293251E+03 -0.11536715600E+03  0.15448114877E+03  0.00000000000E+00 0. -1.
<mgrwt>
<rscale>  0 0.13559394E+03</rscale>
<asrwt>0</asrwt>
<pdfrwt beam="1">  1        4 0.16948150E-01 0.13993169E+03</pdfrwt>
<pdfrwt beam="2">  1       -4 0.34124582E-01 0.13993169E+03</pdfrwt>
<totfact> 0.42122861E+02</totfact>
</mgrwt>
</event>
<event>
 8    1  0.7550631E-006  0.1231550E+03  0.7546771E-02  0.1245759E+00
         -1   -1    0    0    0  501 -0.00000000000E+00  0.00000000000E+00  0.41195042181E+03  0.41195042181E+03  0.00000000000E+00 0.  1.
          1   -1    0    0  501    0  0.00000000000E+00 -0.00000000000E+00 -0.38080138250E+02  0.38080138250E+02  0.00000000000E+00 0. -1.
         23    2    1    2    0    0  0.17927524989E+02 -0.48182935220E+02  0.26696274079E+03  0.28694659914E+03  0.91794631599E+02 0.  0.
         23    2    1    2    0    0 -0.17927524989E+02  0.48182935220E+02  0.10690754277E+03  0.16308396092E+03  0.11191141233E+03 0.  0.
          5    1    4    4  502    0 -0.51695978556E+02  0.41231809156E+02  0.10970233033E+03  0.12817654842E+03  0.47000000000E+01 0. -1.
         -5    1    4    4    0  502  0.33768453567E+02  0.69511260645E+01 -0.27947875582E+01  0.34907412499E+02  0.47000000000E+01 0.  1.
        -11    1    3    3    0    0  0.34150930176E+01 -0.53070494919E+02  0.26636466598E+03  0.27162156684E+03  0.00000000000E+00 0.  1.
         11    1    3    3    0    0  0.14512431972E+02  0.48875596984E+01  0.59807481123E+00  0.15325032301E+02  0.00000000000E+00 0. -1.
<mgrwt>
<rscale>  0 0.11840057E+03</rscale>
<asrwt>0</asrwt>
<pdfrwt beam="2">  1        1 0.58584831E-02 0.12315501E+03</pdfrwt>
<pdfrwt beam="1">  1       -1 0.63376985E-01 0.12315501E+03</pdfrwt>
<totfact> 0.33357456E+03</totfact>
</mgrwt>
</event>
<event>
 8    1  0.7550631E-006  0.1242162E+03  0.7546771E-02  0.1249357E+00
          1   -1    0    0  501    0  0.00000000000E+00  0.00000000000E+00  0.57397215563E+03  0.57397215563E+03  0.00000000000E+00 0. -1.
         -1   -1    0    0    0  501 -0.00000000000E+00 -0.00000000000E+00 -0.10304937109E+03  0.10304937109E+03  0.00000000000E+00 0.  1.
         23    2    1    2    0    0  0.30899620901E+01 -0.35891259338E+02 -0.72348855922E+02  0.11973009180E+03  0.88335766072E+02 0.  0.
         23    2    1    2    0    0 -0.30899620901E+01  0.35891259338E+02  0.54327164046E+03  0.55729143492E+03  0.11887782696E+03 0.  0.
          5    1    4    4  502    0 -0.51550039385E+02  0.19294549665E+02  0.42145019756E+03  0.42505534373E+03  0.47000000000E+01 0. -1.
         -5    1    4    4    0  502  0.48460077295E+02  0.16596709673E+02  0.12182144290E+03  0.13223609119E+03  0.47000000000E+01 0.  1.
        -11    1    3    3    0    0  0.54907897965E+00 -0.59613086128E+02 -0.74908564647E+02  0.95735649488E+02  0.00000000000E+00 0.  1.
         11    1    3    3    0    0  0.25408831104E+01  0.23721826791E+02  0.25597087247E+01  0.23994442315E+02  0.00000000000E+00 0. -1.
<mgrwt>
<rscale>  0 0.11628387E+03</rscale>
<asrwt>0</asrwt>
<pdfrwt beam="1">  1        1 0.88303407E-01 0.12421622E+03</pdfrwt>
<pdfrwt beam="2">  1       -1 0.15853750E-01 0.12421622E+03</pdfrwt>
<totfact> 0.10955001E+03</totfact>
</mgrwt>
</event>
<event>
 8    1  0.7550631E-006  0.1322866E+03  0.7546771E-02  0.1236101E+00
          2   -1    0    0  501    0  0.00000000000E+00  0.00000000000E+00  0.69121015409E+03  0.69121015409E+03  0.00000000000E+00 0. -1.
         -2   -1    0    0    0  501 -0.00000000000E+00 -0.00000000000E+00 -0.21936796783E+02  0.21936796783E+02  0.00000000000E+00 0.  1.
         23    2    1    2    0    0 -0.42167091268E+02 -0.98154474791E+01  0.19352927113E+03  0.21935327770E+03  0.93743666772E+02 0.  0.
         23    2    1    2    0    0  0.42167091268E+02  0.98154474791E+01  0.47574408617E+03  0.49379367317E+03  0.12500139813E+03 0.  0.
          5    1    4    4  502    0 -0.29054837810E+02  0.26122200754E+02  0.60694239665E+02  0.72335563182E+02  0.47000000000E+01 0. -1.
         -5    1    4    4    0  502  0.71221929078E+02 -0.16306753275E+02  0.41504984651E+03  0.42145810998E+03  0.47000000000E+01 0. -1.
        -11    1    3    3    0    0  0.14803196491E+02  0.66058838110E+01 -0.75082025456E+00  0.16227632555E+02  0.00000000000E+00 0.  1.
         11    1    3    3    0    0 -0.56970287759E+02 -0.16421331290E+02  0.19428009138E+03  0.20312564515E+03  0.00000000000E+00 0. -1.
<mgrwt>
<rscale>  0 0.12434212E+03</rscale>
<asrwt>0</asrwt>
<pdfrwt beam="1">  1        2 0.10634001E+00 0.13228664E+03</pdfrwt>
<pdfrwt beam="2">  1       -2 0.33748923E-02 0.13228664E+03</pdfrwt>
<totfact> 0.14360872E+04</totfact>
</mgrwt>
</event>
<event>
 8    1  0.7550631E-006  0.1325409E+03  0.7546771E-02  0.1238641E+00
          2   -1    0    0  501    0  0.00000000000E+00  0.00000000000E+00  0.44550693171E+03  0.44550693171E+03  0.00000000000E+00 0. -1.
         -2   -1    0    0    0  501 -0.00000000000E+00 -0.00000000000E+00 -0.31628801655E+02  0.31628801655E+02  0.00000000000E+00 0.  1.
         23    2    1    2    0    0  0.29509127276E+02 -0.30208576932E+02  0.11893152926E+03  0.15377744177E+03  0.87860379208E+02 0.  0.
         23    2    1    2    0    0 -0.29509127276E+02  0.30208576932E+02  0.29494660079E+03  0.32335829159E+03  0.12563335825E+03 0.  0.
          5    1    4    4  502    0 -0.26185051513E+02 -0.14896565964E+02  0.26956320267E+03  0.27128209457E+03  0.47000000000E+01 0. -1.
         -5    1    4    4    0  502 -0.33240757628E+01  0.45105142896E+02  0.25383398122E+02  0.52076197015E+02  0.47000000000E+01 0.  1.
        -11    1    3    3    0    0 -0.10777212397E+02 -0.49841074477E+02  0.77328353920E+02  0.92628048301E+02  0.00000000000E+00 0.  1.
         11    1    3    3    0    0  0.40286339673E+02  0.19632497545E+02  0.41603175337E+02  0.61149393474E+02  0.00000000000E+00 0. -1.
<mgrwt>
<rscale>  0 0.12274218E+03</rscale>
<asrwt>0</asrwt>
<pdfrwt beam="1">  1        2 0.68539523E-01 0.13254089E+03</pdfrwt>
<pdfrwt beam="2">  1       -2 0.48659698E-02 0.13254089E+03</pdfrwt>
<totfact> 0.13648204E+04</totfact>
</mgrwt>
</event>
<event>
 8    1  0.7550631E-006  0.1598868E+03  0.7546771E-02  0.1196602E+00
          1   -1    0    0  501    0  0.00000000000E+00  0.00000000000E+00  0.66578513321E+02  0.66578513321E+02  0.00000000000E+00 0. -1.
         -1   -1    0    0    0  501 -0.00000000000E+00 -0.00000000000E+00 -0.34031946865E+03  0.34031946865E+03  0.00000000000E+00 0.  1.
         23    2    1    2    0    0  0.68367598415E+02  0.72594868493E+02 -0.16731398477E+03  0.21482899425E+03  0.90627721085E+02 0.  0.
         23    2    1    2    0    0 -0.68367598415E+02 -0.72594868493E+02 -0.10642697056E+03  0.19206898772E+03  0.12497860831E+03 0.  0.
          5    1    4    4  502    0 -0.26323270711E+02 -0.10303807164E+03 -0.82705335090E+02  0.13480363956E+03  0.47000000000E+01 0.  1.
         -5    1    4    4    0  502 -0.42044327704E+02  0.30443203143E+02 -0.23721635474E+02  0.57265348155E+02  0.47000000000E+01 0.  1.
        -11    1    3    3    0    0  0.55632104062E+02  0.73722837942E+02 -0.17641946655E+03  0.19913265933E+03  0.00000000000E+00 0.  1.
         11    1    3    3    0    0  0.12735494353E+02 -0.11279694493E+01  0.91054817800E+01  0.15696334920E+02  0.00000000000E+00 0. -1.
<mgrwt>
<rscale>  0 0.15319394E+03</rscale>
<asrwt>0</asrwt>
<pdfrwt beam="1">  1        1 0.10242848E-01 0.15988682E+03</pdfrwt>
<pdfrwt beam="2">  1       -1 0.52356842E-01 0.15988682E+03</pdfrwt>
<totfact> 0.22869384E+03</totfact>
</mgrwt>
</event>
<event>
 8    1  0.7550631E-006  0.1679131E+03  0.7546771E-02  0.1188336E+00
         -2   -1    0    0    0  501 -0.00000000000E+00  0.00000000000E+00  0.20067476477E+02  0.20067476477E+02  0.00000000000E+00 0.  1.
          2   -1    0    0  501    0  0.00000000000E+00 -0.00000000000E+00 -0.11826179962E+04  0.11826179962E+04  0.00000000000E+00 0. -1.
         23    2    1    2    0    0  0.56052067659E+02  0.97103407908E+02 -0.48891362665E+03  0.50843660687E+03  0.83068301806E+02 0.  0.
         23    2    1    2    0    0 -0.56052067659E+02 -0.97103407908E+02 -0.67363689307E+03  0.69424886580E+03  0.12499567132E+03 0.  0.
          5    1    4    4  502    0 -0.37292469398E+02  0.23760606904E+02 -0.14723107456E+03  0.15379978553E+03  0.47000000000E+01 0. -1.
         -5    1    4    4    0  502 -0.18759598261E+02 -0.12086401481E+03 -0.52640581851E+03  0.54044908027E+03  0.47000000000E+01 0. -1.
        -11    1    3    3    0    0  0.19968915729E+02 -0.12710376247E+02 -0.95824038195E+02  0.98704394814E+02  0.00000000000E+00 0. -1.
         11    1    3    3    0    0  0.36083151930E+02  0.10981378416E+03 -0.39308958846E+03  0.40973221206E+03  0.00000000000E+00 0.  1.
<mgrwt>
<rscale>  0 0.16032002E+03</rscale>
<asrwt>0</asrwt>
<pdfrwt beam="2">  1        2 0.18194122E+00 0.16791314E+03</pdfrwt>
<pdfrwt beam="1">  1       -2 0.30873042E-02 0.16791314E+03</pdfrwt>
<totfact> 0.81377839E+03</totfact>
</mgrwt>
</event>
<event>
 8    1  0.7550631E-006  0.1318201E+03  0.7546771E-02  0.1240639E+00
         -4   -1    0    0    0  501 -0.00000000000E+00  0.00000000000E+00  0.87642223657E+02  0.87642223657E+02  0.00000000000E+00 0.  1.
          4   -1    0    0  501    0  0.00000000000E+00 -0.00000000000E+00 -0.21237079768E+03  0.21237079768E+03  0.00000000000E+00 0. -1.
         23    2    1    2    0    0  0.39893854126E+02  0.12650616156E+02  0.27114176246E+02  0.98934027162E+02  0.85447091763E+02 0.  0.
         23    2    1    2    0    0 -0.39893854126E+02 -0.12650616156E+02 -0.15184275027E+03  0.20107899418E+03  0.12499993361E+03 0.  0.
          5    1    4    4  502    0 -0.29370385045E+02  0.20993805443E+02  0.80439717717E+01  0.37284780628E+02  0.47000000000E+01 0. -1.
         -5    1    4    4    0  502 -0.10523469082E+02 -0.33644421599E+02 -0.15988672204E+03  0.16379421355E+03  0.47000000000E+01 0. -1.
        -11    1    3    3    0    0  0.59164575427E+02 -0.71299419104E+01 -0.89623537909E+00  0.59599381666E+02  0.00000000000E+00 0. -1.
         11    1    3    3    0    0 -0.19270721301E+02  0.19780558066E+02  0.28010411625E+02  0.39334645496E+02  0.00000000000E+00 0.  1.
<mgrwt>
<rscale>  0 0.12150213E+03</rscale>
<asrwt>0</asrwt>
<pdfrwt beam="2">  1        4 0.32672430E-01 0.13182011E+03</pdfrwt>
<pdfrwt beam="1">  1       -4 0.13483419E-01 0.13182011E+03</pdfrwt>
<totfact> 0.67498250E+02</totfact>
</mgrwt>
</event>
<event>
 8    1  0.7550631E-006  0.1957923E+03  0.7546771E-02  0.1157009E+00
         -2   -1    0    0    0  501 -0.00000000000E+00  0.00000000000E+00  0.64645559738E+02  0.64645559738E+02  0.00000000000E+00 0.  1.
          2   -1    0    0  501    0  0.00000000000E+00 -0.00000000000E+00 -0.56985566118E+03  0.56985566118E+03  0.00000000000E+00 0. -1.
         23    2    1    2    0    0  0.11860262877E+03 -0.92968466696E+02 -0.17605461302E+03  0.25151561387E+03  0.97750487989E+02 0.  0.
         23    2    1    2    0    0 -0.11860262877E+03  0.92968466696E+02 -0.32915548843E+03  0.38298560706E+03  0.12499968119E+03 0.  0.
          5    1    4    4  502    0 -0.14474235689E+03  0.78399349136E+02 -0.26431924181E+03  0.31142183516E+03  0.47000000000E+01 0. -1.
         -5    1    4    4    0  502  0.26139728116E+02  0.14569117559E+02 -0.64836246620E+02  0.71563771897E+02  0.47000000000E+01 0. -1.
        -11    1    3    3    0    0  0.11223109100E+03 -0.33342084449E+02 -0.13574773283E+03  0.17926226416E+03  0.00000000000E+00 0. -1.
         11    1    3    3    0    0  0.63715377695E+01 -0.59626382246E+02 -0.40306880188E+02  0.72253349706E+02  0.00000000000E+00 0.  1.
<mgrwt>
<rscale>  0 0.19161876E+03</rscale>
<asrwt>0</asrwt>
<pdfrwt beam="2">  1        2 0.87670102E-01 0.19579234E+03</pdfrwt>
<pdfrwt beam="1">  1       -2 0.99454707E-02 0.19579234E+03</pdfrwt>
<totfact> 0.35373801E+03</totfact>
</mgrwt>
</event>
<event>
 8    1  0.7550631E-006  0.1596832E+03  0.7546771E-02  0.1196279E+00
         -2   -1    0    0    0  501 -0.00000000000E+00  0.00000000000E+00  0.33912797387E+02  0.33912797387E+02  0.00000000000E+00 0. -1.
          2   -1    0    0  501    0  0.00000000000E+00 -0.00000000000E+00 -0.64586310763E+03  0.64586310763E+03  0.00000000000E+00 0.  1.
         23    2    1    2    0    0  0.51650733149E+02  0.84906953756E+02 -0.28983897325E+03  0.32025616397E+03  0.93168616579E+02 0.  0.
         23    2    1    2    0    0 -0.51650733149E+02 -0.84906953756E+02 -0.32211133700E+03  0.35951974105E+03  0.12498696633E+03 0.  0.
          5    1    4    4  502    0 -0.41644492083E+02 -0.11746778903E+03 -0.26442634574E+03  0.29236334843E+03  0.47000000000E+01 0. -1.
         -5    1    4    4    0  502 -0.10006241066E+02  0.32560835275E+02 -0.57684991253E+02  0.67156392622E+02  0.47000000000E+01 0. -1.
        -11    1    3    3    0    0  0.94912756967E+01  0.62270839009E+02 -0.65511684708E+02  0.90881915354E+02  0.00000000000E+00 0. -1.
         11    1    3    3    0    0  0.42159457452E+02  0.22636114748E+02 -0.22432728854E+03  0.22937424861E+03  0.00000000000E+00 0.  1.
<mgrwt>
<rscale>  0 0.15346489E+03</rscale>
<asrwt>0</asrwt>
<pdfrwt beam="2">  1        2 0.99363560E-01 0.15968322E+03</pdfrwt>
<pdfrwt beam="1">  1       -2 0.52173532E-02 0.15968322E+03</pdfrwt>
<totfact> 0.82180512E+03</totfact>
</mgrwt>
</event>
<event>
 8    1  0.7550631E-006  0.1347914E+03  0.7546771E-02  0.1233483E+00
         -1   -1    0    0    0  501 -0.00000000000E+00  0.00000000000E+00  0.60506660950E+02  0.60506660950E+02  0.00000000000E+00 0.  1.
          1   -1    0    0  501    0  0.00000000000E+00 -0.00000000000E+00 -0.23473934892E+03  0.23473934892E+03  0.00000000000E+00 0. -1.
         23    2    1    2    0    0 -0.49238852224E+02  0.10957141449E+02 -0.65336982523E+02  0.12196299901E+03  0.89786014084E+02 0.  0.
         23    2    1    2    0    0  0.49238852224E+02 -0.10957141449E+02 -0.10889570545E+03  0.17328301086E+03  0.12499681465E+03 0.  0.
          5    1    4    4  502    0 -0.72288971064E+01 -0.30779185684E+02 -0.10864808379E+03  0.11325242309E+03  0.47000000000E+01 0.  1.
         -5    1    4    4    0  502  0.56467749330E+02  0.19822044235E+02 -0.24762166241E+00  0.60030587775E+02  0.47000000000E+01 0.  1.
        -11    1    3    3    0    0 -0.43513078042E+02  0.22644655647E+02  0.60273502386E+01  0.49421628271E+02  0.00000000000E+00 0.  1.
         11    1    3    3    0    0 -0.57257741824E+01 -0.11687514198E+02 -0.71364332761E+02  0.72541370738E+02  0.00000000000E+00 0. -1.
<mgrwt>
<rscale>  0 0.12602042E+03</rscale>
<asrwt>0</asrwt>
<pdfrwt beam="2">  1        1 0.36113745E-01 0.13479142E+03</pdfrwt>
<pdfrwt beam="1">  1       -1 0.93087172E-02 0.13479142E+03</pdfrwt>
<totfact> 0.77282049E+03</totfact>
</mgrwt>
</event>
<event>
 8    1  0.7550631E-006  0.1537730E+03  0.7546771E-02  0.1204583E+00
         -1   -1    0    0    0  501 -0.00000000000E+00  0.00000000000E+00  0.92962674875E+02  0.92962674875E+02  0.00000000000E+00 0.  1.
          1   -1    0    0  501    0  0.00000000000E+00 -0.00000000000E+00 -0.35523434795E+03  0.35523434795E+03  0.00000000000E+00 0. -1.
         23    2    1    2    0    0 -0.35831064828E+02  0.82077308845E+02  0.17862919233E+02  0.12863245620E+03  0.90590700790E+02 0.  0.
         23    2    1    2    0    0  0.35831064828E+02 -0.82077308845E+02 -0.28013459231E+03  0.31956456663E+03  0.12500229039E+03 0.  0.
          5    1    4    4  502    0  0.59274902822E+02 -0.38050654423E+01 -0.18349145609E+03  0.19292277493E+03  0.47000000000E+01 0. -1.
         -5    1    4    4    0  502 -0.23443837994E+02 -0.78272243403E+02 -0.96643136217E+02  0.12664179170E+03  0.47000000000E+01 0. -1.
        -11    1    3    3    0    0 -0.29272197929E+02  0.38803932918E+02 -0.35078001272E+02  0.59942246828E+02  0.00000000000E+00 0. -1.
         11    1    3    3    0    0 -0.65588668990E+01  0.43273375927E+02  0.52940920505E+02  0.68690209368E+02  0.00000000000E+00 0.  1.
<mgrwt>
<rscale>  0 0.14670351E+03</rscale>
<asrwt>0</asrwt>
<pdfrwt beam="2">  1        1 0.54651439E-01 0.15377296E+03</pdfrwt>
<pdfrwt beam="1">  1       -1 0.14301950E-01 0.15377296E+03</pdfrwt>
<totfact> 0.23996593E+03</totfact>
</mgrwt>
</event>
<event>
 8    1  0.7550631E-006  0.1585570E+03  0.7546771E-02  0.1198228E+00
          1   -1    0    0  501    0  0.00000000000E+00  0.00000000000E+00  0.12636572512E+04  0.12636572512E+04  0.00000000000E+00 0. -1.
         -1   -1    0    0    0  501 -0.00000000000E+00 -0.00000000000E+00 -0.18010322385E+02  0.18010322385E+02  0.00000000000E+00 0.  1.
         23    2    1    2    0    0 -0.79846119117E+02 -0.56017771956E+02  0.41097992149E+03  0.43207393730E+03  0.90939528874E+02 0.  0.
         23    2    1    2    0    0  0.79846119117E+02  0.56017771956E+02  0.83466700734E+03  0.84959363630E+03  0.12500776052E+03 0.  0.
          5    1    4    4  502    0  0.10700599499E+03  0.67517129507E+02  0.72294620276E+03  0.73394969025E+03  0.47000000000E+01 0. -1.
         -5    1    4    4    0  502 -0.27159875870E+02 -0.11499357551E+02  0.11172080458E+03  0.11564394605E+03  0.47000000000E+01 0. -1.
        -11    1    3    3    0    0 -0.50577985566E+02 -0.71628530465E+02  0.36495519520E+03  0.37534127604E+03  0.00000000000E+00 0. -1.
         11    1    3    3    0    0 -0.29268133551E+02  0.15610758508E+02  0.46024726290E+02  0.56732661253E+02  0.00000000000E+00 0.  1.
<mgrwt>
<rscale>  0 0.15184167E+03</rscale>
<asrwt>0</asrwt>
<pdfrwt beam="1">  1        1 0.19440874E+00 0.15855704E+03</pdfrwt>
<pdfrwt beam="2">  1       -1 0.27708198E-02 0.15855704E+03</pdfrwt>
<totfact> 0.43309304E+03</totfact>
</mgrwt>
</event>
<event>
 8    1  0.7550631E-006  0.1411706E+03  0.7546771E-02  0.1222150E+00
         -1   -1    0    0    0  501 -0.00000000000E+00  0.00000000000E+00  0.11334589440E+03  0.11334589440E+03  0.00000000000E+00 0.  1.
          1   -1    0    0  501    0  0.00000000000E+00 -0.00000000000E+00 -0.14291713374E+03  0.14291713374E+03  0.00000000000E+00 0. -1.
         23    2    1    2    0    0  0.41753892046E+02  0.50607900593E+02 -0.13205589293E+02  0.11414693323E+03  0.92469387770E+02 0.  0.
         23    2    1    2    0    0 -0.41753892046E+02 -0.50607900593E+02 -0.16365650046E+02  0.14211609490E+03  0.12499841129E+03 0.  0.
          5    1    4    4  502    0  0.37940945243E+02 -0.60336673043E+01  0.20179680651E+02  0.43648940173E+02  0.47000000000E+01 0. -1.
         -5    1    4    4    0  502 -0.79694837290E+02 -0.44574233288E+02 -0.36545330697E+02  0.98467154725E+02  0.47000000000E+01 0. -1.
        -11    1    3    3    0    0  0.64236043293E+02  0.31614262009E+02  0.15259400695E+02  0.73202323255E+02  0.00000000000E+00 0.  1.
         11    1    3    3    0    0 -0.22482151246E+02  0.18993638583E+02 -0.28464989988E+02  0.40944609979E+02  0.00000000000E+00 0. -1.
<mgrwt>
<rscale>  0 0.13364197E+03</rscale>
<asrwt>0</asrwt>
<pdfrwt beam="2">  1        1 0.21987251E-01 0.14117064E+03</pdfrwt>
<pdfrwt beam="1">  1       -1 0.17437830E-01 0.14117064E+03</pdfrwt>
<totfact> 0.54423991E+03</totfact>
</mgrwt>
</event>
<event>
 8    1  0.7550631E-006  0.1745669E+03  0.7546771E-02  0.1180201E+00
          3   -1    0    0  501    0  0.00000000000E+00  0.00000000000E+00  0.15256915002E+03  0.15256915002E+03  0.00000000000E+00 0. -1.
         -3   -1    0    0    0  501 -0.00000000000E+00 -0.00000000000E+00 -0.18252581025E+03  0.18252581025E+03  0.00000000000E+00 0.  1.
         23    2    1    2    0    0  0.12153256018E+03 -0.88216526411E+01 -0.55011680262E+02  0.15873914628E+03  0.85579476840E+02 0.  0.
         23    2    1    2    0    0 -0.12153256018E+03  0.88216526411E+01  0.25055020042E+02  0.17635581399E+03  0.12500253741E+03 0.  0.
          5    1    4    4  502    0 -0.19384646487E+02  0.13874981733E+02 -0.45801196859E+02  0.51847075822E+02  0.47000000000E+01 0. -1.
         -5    1    4    4    0  502 -0.10214791369E+03 -0.50533290923E+01  0.70856216900E+02  0.12450873817E+03  0.47000000000E+01 0. -1.
        -11    1    3    3    0    0  0.20301268687E+02 -0.30667782492E+02  0.78296211839E+01  0.37602624392E+02  0.00000000000E+00 0. -1.
         11    1    3    3    0    0  0.10123129150E+03  0.21846129851E+02 -0.62841301446E+02  0.12113652189E+03  0.00000000000E+00 0.  1.
<mgrwt>
<rscale>  0 0.16776320E+03</rscale>
<asrwt>0</asrwt>
<pdfrwt beam="1">  1        3 0.23472177E-01 0.17456695E+03</pdfrwt>
<pdfrwt beam="2">  1       -3 0.28080894E-01 0.17456695E+03</pdfrwt>
<totfact> 0.49078468E+02</totfact>
</mgrwt>
</event>
<event>
 8    1  0.7550631E-006  0.1289218E+03  0.7546771E-02  0.1244720E+00
          1   -1    0    0  501    0  0.00000000000E+00  0.00000000000E+00  0.12496796009E+04  0.12496796009E+04  0.00000000000E+00 0. -1.
         -1   -1    0    0    0  501 -0.00000000000E+00 -0.00000000000E+00 -0.14789259633E+02  0.14789259633E+02  0.00000000000E+00 0.  1.
         23    2    1    2    0    0 -0.17688147389E+01  0.31499035186E+02  0.19182308848E+03  0.21346452466E+03  0.88179862160E+02 0.  0.
         23    2    1    2    0    0  0.17688147389E+01 -0.31499035186E+02  0.10430672528E+04  0.10510043359E+04  0.12500200906E+03 0.  0.
          5    1    4    4  502    0 -0.18650864904E+02  0.40569157626E+02  0.22077213823E+03  0.22529123003E+03  0.47000000000E+01 0.  1.
         -5    1    4    4    0  502  0.20419679643E+02 -0.72068192811E+02  0.82229511460E+03  0.82571310589E+03  0.47000000000E+01 0.  1.
        -11    1    3    3    0    0  0.40116040446E+02  0.85107774732E+01  0.12320639773E+03  0.12985201760E+03  0.00000000000E+00 0. -1.
         11    1    3    3    0    0 -0.41884855185E+02  0.22988257713E+02  0.68616690753E+02  0.83612507058E+02  0.00000000000E+00 0.  1.
<mgrwt>
<rscale>  0 0.11902162E+03</rscale>
<asrwt>0</asrwt>
<pdfrwt beam="1">  1        1 0.19225832E+00 0.12892176E+03</pdfrwt>
<pdfrwt beam="2">  1       -1 0.22752717E-02 0.12892176E+03</pdfrwt>
<totfact> 0.58510980E+03</totfact>
</mgrwt>
</event>
<event>
 8    1  0.7550631E-006  0.1664783E+03  0.7546771E-02  0.1188409E+00
          1   -1    0    0  501    0  0.00000000000E+00  0.00000000000E+00  0.16995450943E+03  0.16995450943E+03  0.00000000000E+00 0. -1.
         -1   -1    0    0    0  501 -0.00000000000E+00 -0.00000000000E+00 -0.17080835981E+03  0.17080835981E+03  0.00000000000E+00 0.  1.
         23    2    1    2    0    0  0.38083920978E+02  0.10314764356E+03 -0.71599887866E+02  0.15987610089E+03  0.91345510478E+02 0.  0.
         23    2    1    2    0    0 -0.38083920978E+02 -0.10314764356E+03  0.70746037490E+02  0.18088676836E+03  0.12500079895E+03 0.  0.
          5    1    4    4  502    0 -0.39702459849E+02 -0.39458760087E+02 -0.28398720700E+02  0.62943279253E+02  0.47000000000E+01 0. -1.
         -5    1    4    4    0  502  0.16185388709E+01 -0.63688883468E+02  0.99144758190E+02  0.11794348910E+03  0.47000000000E+01 0. -1.
        -11    1    3    3    0    0 -0.49759918203E+01  0.47552471430E+02 -0.75590646980E+02  0.89442405740E+02  0.00000000000E+00 0.  1.
         11    1    3    3    0    0  0.43059912799E+02  0.55595172126E+02  0.39907591133E+01  0.70433695148E+02  0.00000000000E+00 0. -1.
<mgrwt>
<rscale>  0 0.16025512E+03</rscale>
<asrwt>0</asrwt>
<pdfrwt beam="1">  1        1 0.26146847E-01 0.16647829E+03</pdfrwt>
<pdfrwt beam="2">  1       -1 0.26278209E-01 0.16647829E+03</pdfrwt>
<totfact> 0.22672301E+03</totfact>
</mgrwt>
</event>
<event>
 8    1  0.7550631E-006  0.1333110E+03  0.7546771E-02  0.1235304E+00
         -2   -1    0    0    0  501 -0.00000000000E+00  0.00000000000E+00  0.13962035704E+02  0.13962035704E+02  0.00000000000E+00 0.  1.
          2   -1    0    0  501    0  0.00000000000E+00 -0.00000000000E+00 -0.10134369112E+04  0.10134369112E+04  0.00000000000E+00 0. -1.
         23    2    1    2    0    0  0.43850114794E+02 -0.14912200589E+02 -0.36912686674E+03  0.38310831036E+03  0.91499330180E+02 0.  0.
         23    2    1    2    0    0 -0.43850114794E+02  0.14912200589E+02 -0.63034800876E+03  0.64429063655E+03  0.12500642344E+03 0.  0.
          5    1    4    4  502    0 -0.64879382644E+01  0.10269079365E+02 -0.22507461424E+00  0.13026434374E+02  0.47000000000E+01 0.  1.
         -5    1    4    4    0  502 -0.37362176530E+02  0.46431212243E+01 -0.63012293414E+03  0.63126420217E+03  0.47000000000E+01 0.  1.
        -11    1    3    3    0    0  0.11831231763E+02 -0.51707569321E+02 -0.21504769052E+03  0.22149302465E+03  0.00000000000E+00 0. -1.
         11    1    3    3    0    0  0.32018883031E+02  0.36795368732E+02 -0.15407917621E+03  0.16161528570E+03  0.00000000000E+00 0.  1.
<mgrwt>
<rscale>  0 0.12484973E+03</rscale>
<asrwt>0</asrwt>
<pdfrwt beam="2">  1        2 0.15591336E+00 0.13331096E+03</pdfrwt>
<pdfrwt beam="1">  1       -2 0.21480056E-02 0.13331096E+03</pdfrwt>
<totfact> 0.17118474E+04</totfact>
</mgrwt>
</event>
<event>
 8    1  0.7550631E-006  0.1274091E+03  0.7546771E-02  0.1246390E+00
         -2   -1    0    0    0  501 -0.00000000000E+00  0.00000000000E+00  0.20805351757E+02  0.20805351757E+02  0.00000000000E+00 0.  1.
          2   -1    0    0  501    0  0.00000000000E+00 -0.00000000000E+00 -0.59689029713E+03  0.59689029713E+03  0.00000000000E+00 0. -1.
         23    2    1    2    0    0 -0.90618223971E+01  0.23272464001E+02 -0.20791203007E+03  0.22810050288E+03  0.90436181695E+02 0.  0.
         23    2    1    2    0    0  0.90618223971E+01 -0.23272464001E+02 -0.36817291531E+03  0.38959514601E+03  0.12493741643E+03 0.  0.
          5    1    4    4  502    0 -0.57813489495E+02 -0.11796166617E+02 -0.18229891337E+03  0.19166776706E+03  0.47000000000E+01 0. -1.
         -5    1    4    4    0  502  0.66875311892E+02 -0.11476297384E+02 -0.18587400194E+03  0.19792737895E+03  0.47000000000E+01 0. -1.
        -11    1    3    3    0    0  0.38188217106E+02  0.25188315584E+02 -0.87538015255E+02  0.98770923265E+02  0.00000000000E+00 0. -1.
         11    1    3    3    0    0 -0.47250039504E+02 -0.19158515823E+01 -0.12037401481E+03  0.12932957961E+03  0.00000000000E+00 0.  1.
<mgrwt>
<rscale>  0 0.11802545E+03</rscale>
<asrwt>0</asrwt>
<pdfrwt beam="2">  1        2 0.91829270E-01 0.12740911E+03</pdfrwt>
<pdfrwt beam="1">  1       -2 0.32008236E-02 0.12740911E+03</pdfrwt>
<totfact> 0.18341462E+04</totfact>
</mgrwt>
</event>
<event>
 8    1  0.7550631E-006  0.1314806E+03  0.7546771E-02  0.1238454E+00
          1   -1    0    0  501    0  0.00000000000E+00  0.00000000000E+00  0.13466179877E+03  0.13466179877E+03  0.00000000000E+00 0. -1.
         -1   -1    0    0    0  501 -0.00000000000E+00 -0.00000000000E+00 -0.10111365845E+03  0.10111365845E+03  0.00000000000E+00 0.  1.
         23    2    1    2    0    0 -0.71113369467E+01  0.40088048081E+02  0.65355825444E+00  0.10024240954E+03  0.91599622383E+02 0.  0.
         23    2    1    2    0    0  0.71113369467E+01 -0.40088048081E+02  0.32894582070E+02  0.13553304768E+03  0.12501812177E+03 0.  0.
          5    1    4    4  502    0  0.21059813870E+02  0.14107010567E+02 -0.37484728416E+02  0.45494157557E+02  0.47000000000E+01 0.  1.
         -5    1    4    4    0  502 -0.13948476923E+02 -0.54195058648E+02  0.70379310486E+02  0.90038890124E+02  0.47000000000E+01 0.  1.
        -11    1    3    3    0    0  0.42527414930E+01  0.66634712512E+02 -0.13440676882E+02  0.68109636006E+02  0.00000000000E+00 0.  1.
         11    1    3    3    0    0 -0.11364078440E+02 -0.26546664431E+02  0.14094235136E+02  0.32132773539E+02  0.00000000000E+00 0. -1.
<mgrwt>
<rscale>  0 0.12285897E+03</rscale>
<asrwt>0</asrwt>
<pdfrwt beam="1">  1        1 0.20717200E-01 0.13148062E+03</pdfrwt>
<pdfrwt beam="2">  1       -1 0.15555947E-01 0.13148062E+03</pdfrwt>
<totfact> 0.69943630E+03</totfact>
</mgrwt>
</event>
<event>
 7    1  0.7550631E-006  0.1395044E+03  0.7546771E-02  0.1232393E+00
          1   -1    0    0  501    0  0.00000000000E+00  0.00000000000E+00  0.20660246446E+03  0.20660246446E+03  0.00000000000E+00 0. -1.
         -1   -1    0    0    0  501 -0.00000000000E+00 -0.00000000000E+00 -0.67113736149E+02  0.67113736149E+02  0.00000000000E+00 0.  1.
         23    2    1    2    0    0  0.23589164454E+02 -0.32288818199E+01  0.44237968045E+02  0.10479553512E+03  0.91968646873E+02 0.  0.
          5    1    1    2  502    0  0.18232911931E+02  0.17304934963E+02  0.11681518570E+03  0.11958167695E+03  0.47000000000E+01 0. -1.
         -5    1    1    2    0  502 -0.41822076385E+02 -0.14076053143E+02 -0.21564425437E+02  0.49338988535E+02  0.47000000000E+01 0.  1.
        -11    1    3    3    0    0  0.11819320137E+02 -0.45514461633E+02  0.76278048788E+01  0.47638702265E+02  0.00000000000E+00 0.  1.
         11    1    3    3    0    0  0.11769844317E+02  0.42285579813E+02  0.36610163166E+02  0.57156832858E+02  0.00000000000E+00 0. -1.
<mgrwt>
<rscale>  0 0.12672798E+03</rscale>
<asrwt>0</asrwt>
<pdfrwt beam="1">  1        1 0.31784994E-01 0.13950442E+03</pdfrwt>
<pdfrwt beam="2">  1       -1 0.10325190E-01 0.13950442E+03</pdfrwt>
<totfact> 0.77485240E+03</totfact>
</mgrwt>
</event>
<event>
 8    1  0.7550631E-006  0.1577577E+03  0.7546771E-02  0.1199141E+00
          2   -1    0    0  501    0  0.00000000000E+00  0.00000000000E+00  0.96755114850E+02  0.96755114850E+02  0.00000000000E+00 0. -1.
         -2   -1    0    0    0  501 -0.00000000000E+00 -0.00000000000E+00 -0.22176170207E+03  0.22176170207E+03  0.00000000000E+00 0.  1.
         23    2    1    2    0    0  0.95999242394E+02  0.69811359423E+01 -0.77789051845E+02  0.15384445036E+03  0.91391397404E+02 0.  0.
         23    2    1    2    0    0 -0.95999242394E+02 -0.69811359423E+01 -0.47217535373E+02  0.16467236656E+03  0.12499160717E+03 0.  0.
          5    1    4    4  502    0 -0.60382552194E+01  0.40414437125E+02 -0.47561693380E+02  0.62880775531E+02  0.47000000000E+01 0.  1.
         -5    1    4    4    0  502 -0.89960987175E+02 -0.47395573067E+02  0.34415800663E+00  0.10179159103E+03  0.47000000000E+01 0.  1.
        -11    1    3    3    0    0  0.79666720392E+02  0.44402952875E+02 -0.60841901686E+02  0.10963642443E+03  0.00000000000E+00 0.  1.
         11    1    3    3    0    0  0.16332522002E+02 -0.37421816932E+02 -0.16947150159E+02  0.44208025923E+02  0.00000000000E+00 0. -1.
<mgrwt>
<rscale>  0 0.15108953E+03</rscale>
<asrwt>0</asrwt>
<pdfrwt beam="1">  1        2 0.14885402E-01 0.15775770E+03</pdfrwt>
<pdfrwt beam="2">  1       -2 0.34117185E-01 0.15775770E+03</pdfrwt>
<totfact> 0.30734022E+03</totfact>
</mgrwt>
</event>
<event>
 8    1  0.7550631E-006  0.1681086E+03  0.7546771E-02  0.1186670E+00
         -2   -1    0    0    0  501 -0.00000000000E+00  0.00000000000E+00  0.66817515093E+03  0.66817515093E+03  0.00000000000E+00 0.  1.
          2   -1    0    0  501    0  0.00000000000E+00 -0.00000000000E+00 -0.60608790359E+02  0.60608790359E+02  0.00000000000E+00 0. -1.
         23    2    1    2    0    0  0.71237873726E+02 -0.86956840528E+02  0.51917669112E+03  0.53885434764E+03  0.90461287907E+02 0.  0.
         23    2    1    2    0    0 -0.71237873726E+02  0.86956840528E+02  0.88389669455E+02  0.18992959364E+03  0.12499676039E+03 0.  0.
          5    1    4    4  502    0 -0.96994302872E+02  0.97236074764E+02  0.85032840375E+02  0.16160267005E+03  0.47000000000E+01 0. -1.
         -5    1    4    4    0  502  0.25756429146E+02 -0.10279234237E+02  0.33568290802E+01  0.28326923594E+02  0.47000000000E+01 0. -1.
        -11    1    3    3    0    0  0.27175150421E+02 -0.70320444101E+02  0.44243706519E+03  0.44881400414E+03  0.00000000000E+00 0.  1.
         11    1    3    3    0    0  0.44062723305E+02 -0.16636396426E+02  0.76739625929E+02  0.90040343507E+02  0.00000000000E+00 0. -1.
<mgrwt>
<rscale>  0 0.16180857E+03</rscale>
<asrwt>0</asrwt>
<pdfrwt beam="2">  1        2 0.93244298E-02 0.16810865E+03</pdfrwt>
<pdfrwt beam="1">  1       -2 0.10279617E+00 0.16810865E+03</pdfrwt>
<totfact> 0.55664381E+02</totfact>
</mgrwt>
</event>
<event>
 8    1  0.7550631E-006  0.1449810E+03  0.7546771E-02  0.1217084E+00
         -3   -1    0    0    0  501 -0.00000000000E+00  0.00000000000E+00  0.25027958821E+03  0.25027958821E+03  0.00000000000E+00 0.  1.
          3   -1    0    0  501    0  0.00000000000E+00 -0.00000000000E+00 -0.69939842378E+02  0.69939842378E+02  0.00000000000E+00 0. -1.
         23    2    1    2    0    0  0.13910372550E+01  0.73433154693E+02  0.10523214679E+03  0.15693859914E+03  0.90341330464E+02 0.  0.
         23    2    1    2    0    0 -0.13910372550E+01 -0.73433154693E+02  0.75107599045E+02  0.16328083145E+03  0.12500046116E+03 0.  0.
          5    1    4    4  502    0  0.30454763768E+02  0.25606532567E+02  0.28608977375E+02  0.49231602987E+02  0.47000000000E+01 0.  1.
         -5    1    4    4    0  502 -0.31845801023E+02 -0.99039687260E+02  0.46498621671E+02  0.11404922846E+03  0.47000000000E+01 0.  1.
        -11    1    3    3    0    0 -0.20429256048E+02  0.81793018367E+02  0.52643030797E+02  0.99391856044E+02  0.00000000000E+00 0. -1.
         11    1    3    3    0    0  0.21820293303E+02 -0.83598636743E+01  0.52589115989E+02  0.57546743097E+02  0.00000000000E+00 0.  1.
<mgrwt>
<rscale>  0 0.13724589E+03</rscale>
<asrwt>0</asrwt>
<pdfrwt beam="2">  1        3 0.10759976E-01 0.14498096E+03</pdfrwt>
<pdfrwt beam="1">  1       -3 0.38504552E-01 0.14498096E+03</pdfrwt>
<totfact> 0.10167705E+03</totfact>
</mgrwt>
</event>
<event>
 7    1  0.7550631E-006  0.1367551E+03  0.7546771E-02  0.1231012E+00
          1   -1    0    0  501    0  0.00000000000E+00  0.00000000000E+00  0.73466743392E+03  0.73466743392E+03  0.00000000000E+00 0. -1.
         -1   -1    0    0    0  501 -0.00000000000E+00 -0.00000000000E+00 -0.25007626580E+02  0.25007626580E+02  0.00000000000E+00 0.  1.
         23    2    1    2    0    0 -0.33506920875E+02 -0.32020532824E+02  0.14255892435E+03  0.17631806645E+03  0.92827718788E+02 0.  0.
          5    1    1    2  502    0  0.67856773885E+02  0.24559197298E+02  0.51666224471E+03  0.52169882216E+03  0.47000000000E+01 0. -1.
         -5    1    1    2    0  502 -0.34349853010E+02  0.74613355265E+01  0.50438638276E+02  0.61658171890E+02  0.47000000000E+01 0.  1.
        -11    1    3    3    0    0 -0.65926022806E+02 -0.17352511841E+02  0.93540446524E+02  0.11574612428E+03  0.00000000000E+00 0.  1.
         11    1    3    3    0    0  0.32419101930E+02 -0.14668020983E+02  0.49018477830E+02  0.60571942170E+02  0.00000000000E+00 0. -1.
<mgrwt>
<rscale>  0 0.12763200E+03</rscale>
<asrwt>0</asrwt>
<pdfrwt beam="1">  1        1 0.11302574E+00 0.13675515E+03</pdfrwt>
<pdfrwt beam="2">  1       -1 0.38473277E-02 0.13675515E+03</pdfrwt>
<totfact> 0.66058446E+03</totfact>
</mgrwt>
</event>
<event>
 8    1  0.7550631E-006  0.1294737E+03  0.7546771E-02  0.1241738E+00
         -2   -1    0    0    0  501 -0.00000000000E+00  0.00000000000E+00  0.14807400728E+02  0.14807400728E+02  0.00000000000E+00 0.  1.
          2   -1    0    0  501    0  0.00000000000E+00 -0.00000000000E+00 -0.92190104375E+03  0.92190104375E+03  0.00000000000E+00 0. -1.
         23    2    1    2    0    0 -0.31689068647E+02  0.11592345697E+02 -0.28992061769E+03  0.30610081956E+03  0.92223465712E+02 0.  0.
         23    2    1    2    0    0  0.31689068647E+02 -0.11592345697E+02 -0.61717302534E+03  0.63060762492E+03  0.12499941539E+03 0.  0.
          5    1    4    4  502    0  0.55993034579E+02 -0.24558791390E+02 -0.58409708488E+03  0.58730728645E+03  0.47000000000E+01 0. -1.
         -5    1    4    4    0  502 -0.24303965932E+02  0.12966445692E+02 -0.33075940461E+02  0.43300338466E+02  0.47000000000E+01 0. -1.
        -11    1    3    3    0    0 -0.37747079681E+02 -0.24392523309E+02 -0.24052606143E+03  0.24468882983E+03  0.00000000000E+00 0. -1.
         11    1    3    3    0    0  0.60580110346E+01  0.35984869006E+02 -0.49394556258E+02  0.61411989733E+02  0.00000000000E+00 0.  1.
<mgrwt>
<rscale>  0 0.12082779E+03</rscale>
<asrwt>0</asrwt>
<pdfrwt beam="2">  1        2 0.14183097E+00 0.12947368E+03</pdfrwt>
<pdfrwt beam="1">  1       -2 0.22780611E-02 0.12947368E+03</pdfrwt>
<totfact> 0.17821102E+04</totfact>
</mgrwt>
</event>
<event>
 8    1  0.7550631E-006  0.2091152E+03  0.7546771E-02  0.1145951E+00
          1   -1    0    0  501    0  0.00000000000E+00  0.00000000000E+00  0.34923486879E+02  0.34923486879E+02  0.00000000000E+00 0. -1.
         -1   -1    0    0    0  501 -0.00000000000E+00 -0.00000000000E+00 -0.11916386016E+04  0.11916386016E+04  0.00000000000E+00 0.  1.
         23    2    1    2    0    0 -0.14244206127E+03 -0.88401656296E+02 -0.67011702405E+03  0.69693310942E+03  0.92489672063E+02 0.  0.
         23    2    1    2    0    0  0.14244206127E+03  0.88401656296E+02 -0.48659809070E+03  0.52962897908E+03  0.12499823981E+03 0.  0.
          5    1    4    4  502    0  0.34918175066E+02 -0.31748344851E+02 -0.12447466189E+03  0.13320385806E+03  0.47000000000E+01 0.  1.
         -5    1    4    4    0  502  0.10752388620E+03  0.12015000115E+03 -0.36212342881E+03  0.39642512101E+03  0.47000000000E+01 0.  1.
        -11    1    3    3    0    0 -0.12387038075E+02 -0.44735834496E+02 -0.95742187329E+02  0.10640159790E+03  0.00000000000E+00 0.  1.
         11    1    3    3    0    0 -0.13005502319E+03 -0.43665821799E+02 -0.57437483672E+03  0.59053151153E+03  0.00000000000E+00 0. -1.
<mgrwt>
<rscale>  0 0.20455572E+03</rscale>
<asrwt>0</asrwt>
<pdfrwt beam="1">  1        1 0.53728438E-02 0.20911517E+03</pdfrwt>
<pdfrwt beam="2">  1       -1 0.18332903E+00 0.20911517E+03</pdfrwt>
<totfact> 0.32704573E+02</totfact>
</mgrwt>
</event>
<event>
 8    1  0.7550631E-006  0.1339381E+03  0.7546771E-02  0.1233552E+00
          4   -1    0    0  501    0  0.00000000000E+00  0.00000000000E+00  0.24833062238E+03  0.24833062238E+03  0.00000000000E+00 0.  1.
         -4   -1    0    0    0  501 -0.00000000000E+00 -0.00000000000E+00 -0.60496086367E+02  0.60496086367E+02  0.00000000000E+00 0. -1.
         23    2    1    2    0    0  0.46736662902E+02 -0.11299542748E+02  0.48299171670E+02  0.11541128636E+03  0.93139463762E+02 0.  0.
         23    2    1    2    0    0 -0.46736662902E+02  0.11299542748E+02  0.13953536434E+03  0.19341542239E+03  0.12500964918E+03 0.  0.
          5    1    4    4  502    0 -0.43105840847E+01  0.53192072899E+02  0.15591183593E+02  0.55795633882E+02  0.47000000000E+01 0. -1.
         -5    1    4    4    0  502 -0.42426078818E+02 -0.41892530151E+02  0.12394418075E+03  0.13761978850E+03  0.47000000000E+01 0. -1.
        -11    1    3    3    0    0  0.35108685449E+02 -0.34428921933E+02 -0.11280707103E+02  0.50450221131E+02  0.00000000000E+00 0. -1.
         11    1    3    3    0    0  0.11627977453E+02  0.23129379185E+02  0.59579878773E+02  0.64961065230E+02  0.00000000000E+00 0.  1.
<mgrwt>
<rscale>  0 0.12597597E+03</rscale>
<asrwt>0</asrwt>
<pdfrwt beam="1">  1        4 0.38204711E-01 0.13393807E+03</pdfrwt>
<pdfrwt beam="2">  1       -4 0.93070903E-02 0.13393807E+03</pdfrwt>
<totfact> 0.94013139E+02</totfact>
</mgrwt>
</event>
<event>
 8    1  0.7550631E-006  0.1652133E+03  0.7546771E-02  0.1189819E+00
          1   -1    0    0  501    0  0.00000000000E+00  0.00000000000E+00  0.66630304551E+03  0.66630304551E+03  0.00000000000E+00 0.  1.
         -1   -1    0    0    0  501 -0.00000000000E+00 -0.00000000000E+00 -0.65342267003E+02  0.65342267003E+02  0.00000000000E+00 0. -1.
         23    2    1    2    0    0  0.10761820789E+03  0.94247567128E+01  0.40637270899E+02  0.14747249405E+03  0.91794575038E+02 0.  0.
         23    2    1    2    0    0 -0.10761820789E+03 -0.94247567128E+01  0.56032350761E+03  0.58417281847E+03  0.12499977580E+03 0.  0.
          5    1    4    4  502    0 -0.94741639117E+02  0.19386519310E+02  0.19755851732E+03  0.22000743869E+03  0.47000000000E+01 0.  1.
         -5    1    4    4    0  502 -0.12876568769E+02 -0.28811276023E+02  0.36276499030E+03  0.36416537978E+03  0.47000000000E+01 0.  1.
        -11    1    3    3    0    0  0.63031082110E+02  0.61256364236E+01  0.69680373438E+02  0.94158351600E+02  0.00000000000E+00 0.  1.
         11    1    3    3    0    0  0.44587125776E+02  0.32991202892E+01 -0.29043102539E+02  0.53314142446E+02  0.00000000000E+00 0. -1.
<mgrwt>
<rscale>  0 0.15901005E+03</rscale>
<asrwt>0</asrwt>
<pdfrwt beam="1">  1        1 0.10250816E+00 0.16521334E+03</pdfrwt>
<pdfrwt beam="2">  1       -1 0.10052657E-01 0.16521334E+03</pdfrwt>
<totfact> 0.18162890E+03</totfact>
</mgrwt>
</event>
<event>
 8    1  0.7550631E-006  0.1390715E+03  0.7546771E-02  0.1226303E+00
          2   -1    0    0  501    0  0.00000000000E+00  0.00000000000E+00  0.22414492972E+02  0.22414492972E+02  0.00000000000E+00 0. -1.
         -2   -1    0    0    0  501 -0.00000000000E+00 -0.00000000000E+00 -0.68613986334E+03  0.68613986334E+03  0.00000000000E+00 0.  1.
         23    2    1    2    0    0  0.10384068354E+02 -0.60069123982E+02 -0.27714070217E+03  0.29771546199E+03  0.90063305388E+02 0.  0.
         23    2    1    2    0    0 -0.10384068354E+02  0.60069123982E+02 -0.38658466820E+03  0.41083889433E+03  0.12499905148E+03 0.  0.
          5    1    4    4  502    0  0.53332095065E+02  0.28259320430E+02 -0.11413932722E+03  0.12920053240E+03  0.47000000000E+01 0. -1.
         -5    1    4    4    0  502 -0.63716163419E+02  0.31809803552E+02 -0.27244534098E+03  0.28163836192E+03  0.47000000000E+01 0. -1.
        -11    1    3    3    0    0 -0.12248631536E+02 -0.78521779263E+02 -0.19746895190E+03  0.21286071916E+03  0.00000000000E+00 0. -1.
         11    1    3    3    0    0  0.22632699890E+02  0.18452655281E+02 -0.79671750266E+02  0.84854742835E+02  0.00000000000E+00 0.  1.
<mgrwt>
<rscale>  0 0.13077973E+03</rscale>
<asrwt>0</asrwt>
<pdfrwt beam="1">  1        2 0.34483842E-02 0.13907153E+03</pdfrwt>
<pdfrwt beam="2">  1       -2 0.10555996E+00 0.13907153E+03</pdfrwt>
<totfact> 0.18813478E+03</totfact>
</mgrwt>
</event>
<event>
 8    1  0.7550631E-006  0.1328752E+03  0.7546771E-02  0.1237373E+00
         -2   -1    0    0    0  501 -0.00000000000E+00  0.00000000000E+00  0.10928076521E+03  0.10928076521E+03  0.00000000000E+00 0.  1.
          2   -1    0    0  501    0  0.00000000000E+00 -0.00000000000E+00 -0.12340459364E+03  0.12340459364E+03  0.00000000000E+00 0. -1.
         23    2    1    2    0    0 -0.96664361556E+01 -0.44021156637E+02 -0.26450484695E+01  0.99315281570E+02  0.88460311171E+02 0.  0.
         23    2    1    2    0    0  0.96664361556E+01  0.44021156637E+02 -0.11478779957E+02  0.13337007728E+03  0.12499805161E+03 0.  0.
          5    1    4    4  502    0  0.62116936003E+01 -0.27392159978E+02  0.37124813368E+02  0.46789500246E+02  0.47000000000E+01 0.  1.
         -5    1    4    4    0  502  0.34547425554E+01  0.71413316615E+02 -0.48603593325E+02  0.86580577038E+02  0.47000000000E+01 0.  1.
        -11    1    3    3    0    0  0.10525993781E+02  0.11135491987E+02  0.28850526572E+02  0.32667240629E+02  0.00000000000E+00 0.  1.
         11    1    3    3    0    0 -0.20192429937E+02 -0.55156648623E+02 -0.31495575041E+02  0.66648040941E+02  0.00000000000E+00 0. -1.
<mgrwt>
<rscale>  0 0.12353739E+03</rscale>
<asrwt>0</asrwt>
<pdfrwt beam="2">  1        2 0.18985322E-01 0.13287519E+03</pdfrwt>
<pdfrwt beam="1">  1       -2 0.16812425E-01 0.13287519E+03</pdfrwt>
<totfact> 0.78682582E+03</totfact>
</mgrwt>
</event>
<event>
 8    1  0.7550631E-006  0.1253074E+03  0.7546771E-02  0.1251463E+00
         -1   -1    0    0    0  501 -0.00000000000E+00  0.00000000000E+00  0.10032588576E+03  0.10032588576E+03  0.00000000000E+00 0.  1.
          1   -1    0    0  501    0  0.00000000000E+00 -0.00000000000E+00 -0.12020215051E+03  0.12020215051E+03  0.00000000000E+00 0. -1.
         23    2    1    2    0    0  0.75960453463E+01  0.40857995362E+01  0.15236927957E+02  0.90393940533E+02  0.88682054829E+02 0.  0.
         23    2    1    2    0    0 -0.75960453463E+01 -0.40857995362E+01 -0.35113192709E+02  0.13013409574E+03  0.12501021122E+03 0.  0.
          5    1    4    4  502    0 -0.19853194671E+02 -0.59554979668E+02 -0.37148951630E+02  0.73096371655E+02  0.47000000000E+01 0. -1.
         -5    1    4    4    0  502  0.12257149325E+02  0.55469180131E+02  0.20357589206E+01  0.57037724082E+02  0.47000000000E+01 0. -1.
        -11    1    3    3    0    0  0.10834521845E+02  0.27030443004E+02  0.44429508944E+02  0.53122622089E+02  0.00000000000E+00 0.  1.
         11    1    3    3    0    0 -0.32384764989E+01 -0.22944643467E+02 -0.29192580987E+02  0.37271318444E+02  0.00000000000E+00 0. -1.
<mgrwt>
<rscale>  0 0.11506748E+03</rscale>
<asrwt>0</asrwt>
<pdfrwt beam="2">  1        1 0.18492638E-01 0.12530741E+03</pdfrwt>
<pdfrwt beam="1">  1       -1 0.15434752E-01 0.12530741E+03</pdfrwt>
<totfact> 0.81502483E+03</totfact>
</mgrwt>
</event>
<event>
 7    1  0.7550631E-006  0.2348258E+03  0.7546771E-02  0.1124124E+00
          2   -1    0    0  501    0  0.00000000000E+00  0.00000000000E+00  0.19329536151E+04  0.19329536151E+04  0.00000000000E+00 0. -1.
         -2   -1    0    0    0  501 -0.00000000000E+00 -0.00000000000E+00 -0.29821765403E+02  0.29821765403E+02  0.00000000000E+00 0.  1.
         23    2    1    2    0    0 -0.12265205738E+03 -0.14910619561E+03  0.11885002184E+04  0.12105510073E+04  0.12499914912E+03 0.  0.
          5    1    3    3  502    0 -0.45592024798E+02 -0.14006490046E+03  0.88876585024E+03  0.90090156822E+03  0.47000000000E+01 0. -1.
         -5    1    3    3    0  502 -0.77060032578E+02 -0.90412951494E+01  0.29973436817E+03  0.30964943904E+03  0.47000000000E+01 0. -1.
        -11    1    1    2    0    0 -0.25347387664E+02  0.30678654077E+02  0.19699409301E+03  0.20097348720E+03  0.00000000000E+00 0.  1.
         11    1    1    2    0    0  0.14799944504E+03  0.11842754153E+03  0.51763753832E+03  0.55125088608E+03  0.00000000000E+00 0. -1.
<mgrwt>
<rscale>  0 0.23361045E+03</rscale>
<asrwt>0</asrwt>
<pdfrwt beam="1">  1        2 0.29737738E+00 0.23482576E+03</pdfrwt>
<pdfrwt beam="2">  1       -2 0.45879654E-02 0.23482576E+03</pdfrwt>
<totfact> 0.18028047E+03</totfact>
</mgrwt>
</event>
<event>
 8    1  0.7550631E-006  0.1780013E+03  0.7546771E-02  0.1176148E+00
         -2   -1    0    0    0  501 -0.00000000000E+00  0.00000000000E+00  0.90095501080E+02  0.90095501080E+02  0.00000000000E+00 0. -1.
          2   -1    0    0  501    0  0.00000000000E+00 -0.00000000000E+00 -0.60068803503E+03  0.60068803503E+03  0.00000000000E+00 0.  1.
         23    2    1    2    0    0  0.10096399951E+03 -0.76595333380E+02 -0.41219195033E+01  0.15394377438E+03  0.87299032973E+02 0.  0.
         23    2    1    2    0    0 -0.10096399951E+03  0.76595333380E+02 -0.50647061444E+03  0.53683976173E+03  0.12499548866E+03 0.  0.
          5    1    4    4  502    0  0.27188186933E+02  0.30736036172E+02 -0.10151386937E+03  0.10959496842E+03  0.47000000000E+01 0.  1.
         -5    1    4    4    0  502 -0.12815218644E+03  0.45859297208E+02 -0.40495674508E+03  0.42724479331E+03  0.47000000000E+01 0.  1.
        -11    1    3    3    0    0  0.74807047502E+02 -0.12890756960E+02 -0.28217458464E+02  0.80984510452E+02  0.00000000000E+00 0.  1.
         11    1    3    3    0    0  0.26156952004E+02 -0.63704576420E+02  0.24095538961E+02  0.72959263927E+02  0.00000000000E+00 0. -1.
<mgrwt>
<rscale>  0 0.17164015E+03</rscale>
<asrwt>0</asrwt>
<pdfrwt beam="2">  1        2 0.92413548E-01 0.17800125E+03</pdfrwt>
<pdfrwt beam="1">  1       -2 0.13860846E-01 0.17800125E+03</pdfrwt>
<totfact> 0.19488248E+03</totfact>
</mgrwt>
</event>
<event>
 7    1  0.7550631E-006  0.2403612E+03  0.7546771E-02  0.1141284E+00
          1   -1    0    0  501    0  0.00000000000E+00  0.00000000000E+00  0.14895760957E+04  0.14895760957E+04  0.00000000000E+00 0. -1.
         -1   -1    0    0    0  501 -0.00000000000E+00 -0.00000000000E+00 -0.36262699295E+02  0.36262699295E+02  0.00000000000E+00 0.  1.
         23    2    1    2    0    0 -0.10716688463E+03 -0.98805192547E+01  0.17311965411E+03  0.22327612539E+03  0.91101304641E+02 0.  0.
          5    1    1    2  502    0  0.17139562267E+03 -0.10524570883E+02  0.97055550844E+03  0.98564055874E+03  0.47000000000E+01 0. -1.
         -5    1    1    2    0  502 -0.64228738041E+02  0.20405090138E+02  0.30963823383E+03  0.31692211084E+03  0.47000000000E+01 0.  1.
        -11    1    3    3    0    0 -0.12141575195E+03 -0.11860956746E+02  0.13213085025E+03  0.17983611624E+03  0.00000000000E+00 0.  1.
         11    1    3    3    0    0  0.14248867324E+02  0.19804374917E+01  0.40988803863E+02  0.43440009148E+02  0.00000000000E+00 0. -1.
<mgrwt>
<rscale>  0 0.21035616E+03</rscale>
<asrwt>0</asrwt>
<pdfrwt beam="1">  1        1 0.22916551E+00 0.24036117E+03</pdfrwt>
<pdfrwt beam="2">  1       -1 0.55788780E-02 0.24036117E+03</pdfrwt>
<totfact> 0.10871528E+03</totfact>
</mgrwt>
</event>
<event>
 8    1  0.7550631E-006  0.1620799E+03  0.7546771E-02  0.1193647E+00
          2   -1    0    0  501    0  0.00000000000E+00  0.00000000000E+00  0.10932973108E+03  0.10932973108E+03  0.00000000000E+00 0.  1.
         -2   -1    0    0    0  501 -0.00000000000E+00 -0.00000000000E+00 -0.22445882697E+03  0.22445882697E+03  0.00000000000E+00 0. -1.
         23    2    1    2    0    0 -0.39475256515E+02 -0.95335341076E+02 -0.10115994906E+03  0.17110779857E+03  0.91637439414E+02 0.  0.
         23    2    1    2    0    0  0.39475256515E+02  0.95335341076E+02 -0.13969146826E+02  0.16268075948E+03  0.12499107691E+03 0.  0.
          5    1    4    4  502    0 -0.23815076317E+02  0.33296430496E+02  0.41128200571E+02  0.58218803028E+02  0.47000000000E+01 0.  1.
         -5    1    4    4    0  502  0.63290332833E+02  0.62038910580E+02 -0.55097347397E+02  0.10446195645E+03  0.47000000000E+01 0.  1.
        -11    1    3    3    0    0 -0.19162498671E+02 -0.17002151108E+02 -0.84749356574E+02  0.88536590952E+02  0.00000000000E+00 0. -1.
         11    1    3    3    0    0 -0.20312757844E+02 -0.78333189968E+02 -0.16410592488E+02  0.82571207619E+02  0.00000000000E+00 0.  1.
<mgrwt>
<rscale>  0 0.15569268E+03</rscale>
<asrwt>0</asrwt>
<pdfrwt beam="1">  1        2 0.16819959E-01 0.16207990E+03</pdfrwt>
<pdfrwt beam="2">  1       -2 0.34532127E-01 0.16207990E+03</pdfrwt>
<totfact> 0.26091739E+03</totfact>
</mgrwt>
</event>
<event>
 8    1  0.7550631E-006  0.2457245E+03  0.7546771E-02  0.1118888E+00
          2   -1    0    0  501    0  0.00000000000E+00  0.00000000000E+00  0.14774476581E+04  0.14774476581E+04  0.00000000000E+00 0. -1.
         -2   -1    0    0    0  501 -0.00000000000E+00 -0.00000000000E+00 -0.45622531125E+02  0.45622531125E+02  0.00000000000E+00 0.  1.
         23    2    1    2    0    0  0.19691325114E+03 -0.77339492429E+02  0.38529138835E+03  0.44807558245E+03  0.86983033325E+02 0.  0.
         23    2    1    2    0    0 -0.19691325114E+03  0.77339492429E+02  0.10465337386E+04  0.10749946067E+04  0.12499725177E+03 0.  0.
          5    1    4    4  502    0  0.10612826595E+02 -0.29597415154E+01  0.12634213655E+02  0.17409925699E+02  0.47000000000E+01 0. -1.
         -5    1    4    4    0  502 -0.20752607774E+03  0.80299233944E+02  0.10338995249E+04  0.10575846810E+04  0.47000000000E+01 0. -1.
        -11    1    3    3    0    0  0.76689803486E+01 -0.33188924348E+02  0.49026922017E+02  0.59698886433E+02  0.00000000000E+00 0.  1.
         11    1    3    3    0    0  0.18924427079E+03 -0.44150568081E+02  0.33626446634E+03  0.38837669602E+03  0.00000000000E+00 0. -1.
<mgrwt>
<rscale>  0 0.24136383E+03</rscale>
<asrwt>0</asrwt>
<pdfrwt beam="1">  1        2 0.22729960E+00 0.24572452E+03</pdfrwt>
<pdfrwt beam="2">  1       -2 0.70188521E-02 0.24572452E+03</pdfrwt>
<totfact> 0.16307527E+03</totfact>
</mgrwt>
</event>
<event>
 8    1  0.7550631E-006  0.1413009E+03  0.7546771E-02  0.1222318E+00
         -2   -1    0    0    0  501 -0.00000000000E+00  0.00000000000E+00  0.47474246046E+03  0.47474246046E+03  0.00000000000E+00 0. -1.
          2   -1    0    0  501    0  0.00000000000E+00 -0.00000000000E+00 -0.34079256361E+02  0.34079256361E+02  0.00000000000E+00 0.  1.
         23    2    1    2    0    0  0.60188348125E+02 -0.26729443023E+02  0.18103662651E+03  0.21323430610E+03  0.91419411424E+02 0.  0.
         23    2    1    2    0    0 -0.60188348125E+02  0.26729443023E+02  0.25962657759E+03  0.29558741072E+03  0.12501542790E+03 0.  0.
          5    1    4    4  502    0  0.25106251885E+02  0.41002202130E+02  0.53933718057E+02  0.72404698788E+02  0.47000000000E+01 0. -1.
         -5    1    4    4    0  502 -0.85294600009E+02 -0.14272759108E+02  0.20569285953E+03  0.22318271193E+03  0.47000000000E+01 0. -1.
        -11    1    3    3    0    0  0.22846334331E+02  0.11769518305E+02  0.14805932652E+03  0.15027322024E+03  0.00000000000E+00 0. -1.
         11    1    3    3    0    0  0.37342013793E+02 -0.38498961328E+02  0.32977299994E+02  0.62961085857E+02  0.00000000000E+00 0.  1.
<mgrwt>
<rscale>  0 0.13352458E+03</rscale>
<asrwt>0</asrwt>
<pdfrwt beam="2">  1        2 0.52429628E-02 0.14130095E+03</pdfrwt>
<pdfrwt beam="1">  1       -2 0.73037297E-01 0.14130095E+03</pdfrwt>
<totfact> 0.24683103E+03</totfact>
</mgrwt>
</event>
<event>
 8    1  0.7550631E-006  0.2177602E+03  0.7546771E-02  0.1139018E+00
         -2   -1    0    0    0  501 -0.00000000000E+00  0.00000000000E+00  0.92586726787E+02  0.92586726787E+02  0.00000000000E+00 0.  1.
          2   -1    0    0  501    0  0.00000000000E+00 -0.00000000000E+00 -0.50259779605E+03  0.50259779605E+03  0.00000000000E+00 0. -1.
         23    2    1    2    0    0  0.63000770670E+02 -0.16680929717E+03 -0.27049494344E+03  0.33656460876E+03  0.91179946899E+02 0.  0.
         23    2    1    2    0    0 -0.63000770670E+02  0.16680929717E+03 -0.13951612581E+03  0.25861991407E+03  0.12500028745E+03 0.  0.
          5    1    4    4  502    0  0.36735140276E+02  0.66864606984E+02 -0.51653379411E+02  0.92252413534E+02  0.47000000000E+01 0. -1.
         -5    1    4    4    0  502 -0.99735910946E+02  0.99944690186E+02 -0.87862746404E+02  0.16636750053E+03  0.47000000000E+01 0. -1.
        -11    1    3    3    0    0  0.60004818331E+02 -0.71870590944E+02 -0.19095836869E+03  0.21267594748E+03  0.00000000000E+00 0. -1.
         11    1    3    3    0    0  0.29959523391E+01 -0.94938706225E+02 -0.79536574755E+02  0.12388866128E+03  0.00000000000E+00 0.  1.
<mgrwt>
<rscale>  0 0.21324953E+03</rscale>
<asrwt>0</asrwt>
<pdfrwt beam="2">  1        2 0.77322739E-01 0.21776021E+03</pdfrwt>
<pdfrwt beam="1">  1       -2 0.14244112E-01 0.21776021E+03</pdfrwt>
<totfact> 0.22914786E+03</totfact>
</mgrwt>
</event>
<event>
 8    1  0.7550631E-006  0.1339073E+03  0.7546771E-02  0.1234724E+00
         -2   -1    0    0    0  501 -0.00000000000E+00  0.00000000000E+00  0.15793709951E+02  0.15793709951E+02  0.00000000000E+00 0. -1.
          2   -1    0    0  501    0  0.00000000000E+00 -0.00000000000E+00 -0.98586327331E+03  0.98586327331E+03  0.00000000000E+00 0.  1.
         23    2    1    2    0    0  0.29059838441E+01  0.47981225468E+02 -0.26727917629E+03  0.28622321233E+03  0.90415299906E+02 0.  0.
         23    2    1    2    0    0 -0.29059838441E+01 -0.47981225468E+02 -0.70279038707E+03  0.71543377094E+03  0.12498203750E+03 0.  0.
          5    1    4    4  502    0  0.53379930120E+02 -0.33948504783E+02 -0.51336704863E+03  0.51727143217E+03  0.47000000000E+01 0.  1.
         -5    1    4    4    0  502 -0.56285913964E+02 -0.14032720685E+02 -0.18942333844E+03  0.19816233877E+03  0.47000000000E+01 0.  1.
        -11    1    3    3    0    0 -0.34373483903E+02  0.52944971499E+02 -0.19129809924E+03  0.20144396039E+03  0.00000000000E+00 0.  1.
         11    1    3    3    0    0  0.37279467748E+02 -0.49637460309E+01 -0.75981077048E+02  0.84779251940E+02  0.00000000000E+00 0. -1.
<mgrwt>
<rscale>  0 0.12522097E+03</rscale>
<asrwt>0</asrwt>
<pdfrwt beam="2">  1        2 0.15167130E+00 0.13390725E+03</pdfrwt>
<pdfrwt beam="1">  1       -2 0.24298010E-02 0.13390725E+03</pdfrwt>
<totfact> 0.14862035E+04</totfact>
</mgrwt>
</event>
<event>
 8    1  0.7550631E-006  0.1338758E+03  0.7546771E-02  0.1232442E+00
          1   -1    0    0  501    0  0.00000000000E+00  0.00000000000E+00  0.42825125090E+03  0.42825125090E+03  0.00000000000E+00 0. -1.
         -1   -1    0    0    0  501 -0.00000000000E+00 -0.00000000000E+00 -0.34415955694E+02  0.34415955694E+02  0.00000000000E+00 0.  1.
         23    2    1    2    0    0 -0.95132834564E+00  0.47924195675E+02  0.20146044432E+03  0.22829396387E+03  0.96094691630E+02 0.  0.
         23    2    1    2    0    0  0.95132834564E+00 -0.47924195675E+02  0.19237485089E+03  0.23437324273E+03  0.12500040037E+03 0.  0.
          5    1    4    4  502    0  0.61615084783E+02 -0.19509796343E+02  0.11430314307E+03  0.13139387102E+03  0.47000000000E+01 0. -1.
         -5    1    4    4    0  502 -0.60663756437E+02 -0.28414399331E+02  0.78071707821E+02  0.10297937170E+03  0.47000000000E+01 0. -1.
        -11    1    3    3    0    0  0.30441473676E+02  0.43046843781E+02  0.18529188703E+03  0.19264682058E+03  0.00000000000E+00 0. -1.
         11    1    3    3    0    0 -0.31392802021E+02  0.48773518932E+01  0.16168557282E+02  0.35647143291E+02  0.00000000000E+00 0.  1.
<mgrwt>
<rscale>  0 0.12669627E+03</rscale>
<asrwt>0</asrwt>
<pdfrwt beam="1">  1        1 0.65884804E-01 0.13387581E+03</pdfrwt>
<pdfrwt beam="2">  1       -1 0.52947627E-02 0.13387581E+03</pdfrwt>
<totfact> 0.85192173E+03</totfact>
</mgrwt>
</event>
<event>
 8    1  0.7550631E-006  0.1404804E+03  0.7546771E-02  0.1223545E+00
          2   -1    0    0  501    0  0.00000000000E+00  0.00000000000E+00  0.27967790074E+03  0.27967790074E+03  0.00000000000E+00 0. -1.
         -2   -1    0    0    0  501 -0.00000000000E+00 -0.00000000000E+00 -0.63211394240E+02  0.63211394240E+02  0.00000000000E+00 0.  1.
         23    2    1    2    0    0  0.62661811707E+02 -0.13720158739E+02  0.43162880867E+02  0.11979986051E+03  0.91510802050E+02 0.  0.
         23    2    1    2    0    0 -0.62661811707E+02  0.13720158739E+02  0.17330362563E+03  0.22308943447E+03  0.12498001325E+03 0.  0.
          5    1    4    4  502    0 -0.31504473491E+02 -0.77087235696E+01  0.18122866734E+03  0.18416806491E+03  0.47000000000E+01 0.  1.
         -5    1    4    4    0  502 -0.31157338216E+02  0.21428882309E+02 -0.79250417066E+01  0.38921369552E+02  0.47000000000E+01 0.  1.
        -11    1    3    3    0    0  0.57988698074E+02  0.39437996748E+01 -0.14002377835E+02  0.59785527055E+02  0.00000000000E+00 0.  1.
         11    1    3    3    0    0  0.46731136331E+01 -0.17663958414E+02  0.57165258702E+02  0.60014333458E+02  0.00000000000E+00 0. -1.
<mgrwt>
<rscale>  0 0.13267152E+03</rscale>
<asrwt>0</asrwt>
<pdfrwt beam="1">  1        2 0.43027369E-01 0.14048042E+03</pdfrwt>
<pdfrwt beam="2">  1       -2 0.97248300E-02 0.14048042E+03</pdfrwt>
<totfact> 0.77980012E+03</totfact>
</mgrwt>
</event>
<event>
 8    1  0.7550631E-006  0.1287806E+03  0.7546771E-02  0.1242006E+00
         -1   -1    0    0    0  501 -0.00000000000E+00  0.00000000000E+00  0.15709672368E+03  0.15709672368E+03  0.00000000000E+00 0.  1.
          1   -1    0    0  501    0  0.00000000000E+00 -0.00000000000E+00 -0.83172067679E+02  0.83172067679E+02  0.00000000000E+00 0. -1.
         23    2    1    2    0    0 -0.63865475425E+01 -0.30316585664E+02  0.23747498182E+02  0.10205809566E+03  0.94297549622E+02 0.  0.
         23    2    1    2    0    0  0.63865475425E+01  0.30316585664E+02  0.50177157822E+02  0.13821069570E+03  0.12499826352E+03 0.  0.
          5    1    4    4  502    0 -0.29511559456E+02  0.33024388904E+02 -0.27586561232E+02  0.52389414623E+02  0.47000000000E+01 0. -1.
         -5    1    4    4    0  502  0.35898106998E+02 -0.27078032398E+01  0.77763719054E+02  0.85821281076E+02  0.47000000000E+01 0. -1.
        -11    1    3    3    0    0 -0.33275494912E+02  0.17457847326E+02  0.28308797239E+02  0.47047029619E+02  0.00000000000E+00 0.  1.
         11    1    3    3    0    0  0.26888947370E+02 -0.47774432991E+02 -0.45612990561E+01  0.55011066044E+02  0.00000000000E+00 0. -1.
<mgrwt>
<rscale>  0 0.12066407E+03</rscale>
<asrwt>0</asrwt>
<pdfrwt beam="2">  1        1 0.12795703E-01 0.12878062E+03</pdfrwt>
<pdfrwt beam="1">  1       -1 0.24168727E-01 0.12878062E+03</pdfrwt>
<totfact> 0.64123944E+03</totfact>
</mgrwt>
</event>
<event>
 7    1  0.7550631E-006  0.3236153E+03  0.7546771E-02  0.1111792E+00
         -2   -1    0    0    0  501 -0.00000000000E+00  0.00000000000E+00  0.25264668702E+02  0.25264668702E+02  0.00000000000E+00 0.  1.
          2   -1    0    0  501    0  0.00000000000E+00 -0.00000000000E+00 -0.21917600103E+04  0.21917600103E+04  0.00000000000E+00 0. -1.
         23    2    1    2    0    0 -0.59328506893E+02  0.48235378110E+02 -0.30615723851E+03  0.32874907863E+03  0.92180141973E+02 0.  0.
          5    1    1    2  502    0  0.54725084457E+02  0.51337394746E+00 -0.18292716565E+04  0.18300961673E+04  0.47000000000E+01 0. -1.
         -5    1    1    2    0  502  0.46034224365E+01 -0.48748752057E+02 -0.31066446586E+02  0.58179433039E+02  0.47000000000E+01 0.  1.
        -11    1    3    3    0    0 -0.53291559984E+02 -0.14520605517E+02 -0.16896903766E+03  0.17776775309E+03  0.00000000000E+00 0. -1.
         11    1    3    3    0    0 -0.60369469089E+01  0.62755983627E+02 -0.13718820085E+03  0.15098132554E+03  0.00000000000E+00 0.  1.
<mgrwt>
<rscale>  0 0.25240879E+03</rscale>
<asrwt>0</asrwt>
<pdfrwt beam="2">  1        2 0.33719392E+00 0.32361534E+03</pdfrwt>
<pdfrwt beam="1">  1       -2 0.38868713E-02 0.32361534E+03</pdfrwt>
<totfact> 0.16797875E+03</totfact>
</mgrwt>
</event>
<event>
 8    1  0.7550631E-006  0.1343959E+03  0.7546771E-02  0.1233586E+00
         -2   -1    0    0    0  501 -0.00000000000E+00  0.00000000000E+00  0.12928018823E+02  0.12928018823E+02  0.00000000000E+00 0.  1.
          2   -1    0    0  501    0  0.00000000000E+00 -0.00000000000E+00 -0.22241755996E+04  0.22241755996E+04  0.00000000000E+00 0. -1.
         23    2    1    2    0    0 -0.49332731581E+02  0.21433563393E+01 -0.24198095865E+03  0.26325628602E+03  0.91163454301E+02 0.  0.
         23    2    1    2    0    0  0.49332731581E+02 -0.21433563393E+01 -0.19692666221E+04  0.19738473324E+04  0.12499580079E+03 0.  0.
          5    1    4    4  502    0 -0.19712237698E+02 -0.20127994396E+02 -0.12609937788E+03  0.12929366410E+03  0.47000000000E+01 0.  1.
         -5    1    4    4    0  502  0.69044969280E+02  0.17984638057E+02 -0.18431672442E+04  0.18445536683E+04  0.47000000000E+01 0.  1.
        -11    1    3    3    0    0  0.44437604374E+01  0.38088787683E+02 -0.76247780790E+02  0.85347682039E+02  0.00000000000E+00 0.  1.
         11    1    3    3    0    0 -0.53776492019E+02 -0.35945431343E+02 -0.16573317786E+03  0.17790860398E+03  0.00000000000E+00 0. -1.
<mgrwt>
<rscale>  0 0.12595372E+03</rscale>
<asrwt>0</asrwt>
<pdfrwt beam="2">  1        2 0.34218077E+00 0.13439592E+03</pdfrwt>
<pdfrwt beam="1">  1       -2 0.19889265E-02 0.13439592E+03</pdfrwt>
<totfact> 0.44009861E+03</totfact>
</mgrwt>
</event>
<event>
 8    1  0.7550631E-006  0.1410623E+03  0.7546771E-02  0.1222922E+00
         -3   -1    0    0    0  501 -0.00000000000E+00  0.00000000000E+00  0.32812381277E+02  0.32812381277E+02  0.00000000000E+00 0.  1.
          3   -1    0    0  501    0  0.00000000000E+00 -0.00000000000E+00 -0.48774416077E+03  0.48774416077E+03  0.00000000000E+00 0. -1.
         23    2    1    2    0    0 -0.18669015340E+02 -0.62649642295E+02 -0.20952140567E+03  0.23749327791E+03  0.90721154127E+02 0.  0.
         23    2    1    2    0    0  0.18669015340E+02  0.62649642295E+02 -0.24541037383E+03  0.28306326414E+03  0.12500020044E+03 0.  0.
          5    1    4    4  502    0  0.52326405360E+02  0.50751999735E+01 -0.18693182713E+03  0.19424059397E+03  0.47000000000E+01 0. -1.
         -5    1    4    4    0  502 -0.33657390020E+02  0.57574442321E+02 -0.58478546698E+02  0.88822670166E+02  0.47000000000E+01 0. -1.
        -11    1    3    3    0    0 -0.18779992175E+02 -0.56087657668E+01  0.75833125054E+00  0.19614316858E+02  0.00000000000E+00 0.  1.
         11    1    3    3    0    0  0.11097683501E+00 -0.57040876528E+02 -0.21027973692E+03  0.21787896105E+03  0.00000000000E+00 0. -1.
<mgrwt>
<rscale>  0 0.13310321E+03</rscale>
<asrwt>0</asrwt>
<pdfrwt beam="2">  1        3 0.75037559E-01 0.14106226E+03</pdfrwt>
<pdfrwt beam="1">  1       -3 0.50480589E-02 0.14106226E+03</pdfrwt>
<totfact> 0.89490055E+02</totfact>
</mgrwt>
</event>
<event>
 8    1  0.7550631E-006  0.1416515E+03  0.7546771E-02  0.1222207E+00
         -1   -1    0    0    0  501 -0.00000000000E+00  0.00000000000E+00  0.13007309752E+03  0.13007309752E+03  0.00000000000E+00 0.  1.
          1   -1    0    0  501    0  0.00000000000E+00 -0.00000000000E+00 -0.12375488834E+03  0.12375488834E+03  0.00000000000E+00 0. -1.
         23    2    1    2    0    0  0.16416743961E+02 -0.64599764023E+02  0.22566386209E+01  0.11211824024E+03  0.90126402252E+02 0.  0.
         23    2    1    2    0    0 -0.16416743961E+02  0.64599764023E+02  0.40615705581E+01  0.14170974562E+03  0.12499006622E+03 0.  0.
          5    1    4    4  502    0  0.95574062474E+01  0.84691107547E+01  0.57960396450E+02  0.59536269683E+02  0.47000000000E+01 0.  1.
         -5    1    4    4    0  502 -0.25974150209E+02  0.56130653268E+02 -0.53898825892E+02  0.82173475939E+02  0.47000000000E+01 0.  1.
        -11    1    3    3    0    0 -0.12776214350E+02  0.43992823797E+01  0.29460572871E+02  0.32411582690E+02  0.00000000000E+00 0.  1.
         11    1    3    3    0    0  0.29192958311E+02 -0.68999046403E+02 -0.27203934250E+02  0.79706657552E+02  0.00000000000E+00 0. -1.
<mgrwt>
<rscale>  0 0.13360202E+03</rscale>
<asrwt>0</asrwt>
<pdfrwt beam="2">  1        1 0.19039214E-01 0.14165153E+03</pdfrwt>
<pdfrwt beam="1">  1       -1 0.20011246E-01 0.14165153E+03</pdfrwt>
<totfact> 0.52462907E+03</totfact>
</mgrwt>
</event>
<event>
 8    1  0.7550631E-006  0.1288972E+03  0.7546771E-02  0.1239563E+00
          1   -1    0    0  501    0  0.00000000000E+00  0.00000000000E+00  0.21794431134E+03  0.21794431134E+03  0.00000000000E+00 0. -1.
         -1   -1    0    0    0  501 -0.00000000000E+00 -0.00000000000E+00 -0.79893492270E+02  0.79893492270E+02  0.00000000000E+00 0.  1.
         23    2    1    2    0    0 -0.10542320338E+02  0.29613957882E+02 -0.64328734720E+01  0.10421442167E+03  0.99152089257E+02 0.  0.
         23    2    1    2    0    0  0.10542320338E+02 -0.29613957882E+02  0.14448369254E+03  0.19362338193E+03  0.12500539829E+03 0.  0.
          5    1    4    4  502    0 -0.38894137012E+02 -0.29244296933E+00  0.12302359380E+01  0.39197485854E+02  0.47000000000E+01 0.  1.
         -5    1    4    4    0  502  0.49436457350E+02 -0.29321514913E+02  0.14325345660E+03  0.15442589608E+03  0.47000000000E+01 0.  1.
        -11    1    3    3    0    0 -0.44661060850E+02  0.37702237082E+02  0.18368320654E+02  0.61265522449E+02  0.00000000000E+00 0.  1.
         11    1    3    3    0    0  0.34118740512E+02 -0.80882791998E+01 -0.24801194126E+02  0.42948899225E+02  0.00000000000E+00 0. -1.
<mgrwt>
<rscale>  0 0.12216793E+03</rscale>
<asrwt>0</asrwt>
<pdfrwt beam="1">  1        1 0.33529894E-01 0.12889716E+03</pdfrwt>
<pdfrwt beam="2">  1       -1 0.12291307E-01 0.12889716E+03</pdfrwt>
<totfact> 0.55187663E+03</totfact>
</mgrwt>
</event>
<event>
 8    1  0.7550631E-006  0.1294142E+03  0.7546771E-02  0.1241870E+00
          2   -1    0    0  501    0  0.00000000000E+00  0.00000000000E+00  0.39411255365E+03  0.39411255365E+03  0.00000000000E+00 0. -1.
         -2   -1    0    0    0  501 -0.00000000000E+00 -0.00000000000E+00 -0.36081048695E+02  0.36081048695E+02  0.00000000000E+00 0.  1.
         23    2    1    2    0    0  0.12977159374E+02 -0.30874922895E+02  0.92545592323E+02  0.13484496549E+03  0.92178145625E+02 0.  0.
         23    2    1    2    0    0 -0.12977159374E+02  0.30874922895E+02  0.26548591263E+03  0.29534863685E+03  0.12500551970E+03 0.  0.
          5    1    4    4  502    0  0.17372131656E+02 -0.43653624159E+02  0.76629728221E+02  0.90009083473E+02  0.47000000000E+01 0. -1.
         -5    1    4    4    0  502 -0.30349291029E+02  0.74528547054E+02  0.18885618441E+03  0.20533955338E+03  0.47000000000E+01 0. -1.
        -11    1    3    3    0    0 -0.96031249348E+00  0.30932931448E+02  0.14102501426E+02  0.34009542698E+02  0.00000000000E+00 0.  1.
         11    1    3    3    0    0  0.13937471867E+02 -0.61807854343E+02  0.78443090898E+02  0.10083542279E+03  0.00000000000E+00 0. -1.
<mgrwt>
<rscale>  0 0.12074659E+03</rscale>
<asrwt>0</asrwt>
<pdfrwt beam="1">  1        2 0.60632698E-01 0.12941425E+03</pdfrwt>
<pdfrwt beam="2">  1       -2 0.55509308E-02 0.12941425E+03</pdfrwt>
<totfact> 0.12745046E+04</totfact>
</mgrwt>
</event>
<event>
 8    1  0.7550631E-006  0.1273530E+03  0.7546771E-02  0.1246171E+00
         -1   -1    0    0    0  501 -0.00000000000E+00  0.00000000000E+00  0.99872153401E+02  0.99872153401E+02  0.00000000000E+00 0.  1.
          1   -1    0    0  501    0  0.00000000000E+00 -0.00000000000E+00 -0.12831734613E+03  0.12831734613E+03  0.00000000000E+00 0. -1.
         23    2    1    2    0    0  0.18085856983E+02 -0.16311580448E+02  0.10675352161E+02  0.94963342349E+02  0.91164178090E+02 0.  0.
         23    2    1    2    0    0 -0.18085856983E+02  0.16311580448E+02 -0.39120544886E+02  0.13322615718E+03  0.12500250416E+03 0.  0.
          5    1    4    4  502    0  0.37141746016E+02  0.14366207700E+02 -0.61501275848E+02  0.73419303672E+02  0.47000000000E+01 0. -1.
         -5    1    4    4    0  502 -0.55227602999E+02  0.19453727479E+01  0.22380730961E+02  0.59806853508E+02  0.47000000000E+01 0. -1.
        -11    1    3    3    0    0  0.45340927200E+02 -0.33973472011E+02  0.21693299785E+02  0.60667913558E+02  0.00000000000E+00 0.  1.
         11    1    3    3    0    0 -0.27255070217E+02  0.17661891563E+02 -0.11017947625E+02  0.34295428791E+02  0.00000000000E+00 0. -1.
<mgrwt>
<rscale>  0 0.11815593E+03</rscale>
<asrwt>0</asrwt>
<pdfrwt beam="2">  1        1 0.19741130E-01 0.12735302E+03</pdfrwt>
<pdfrwt beam="1">  1       -1 0.15364947E-01 0.12735302E+03</pdfrwt>
<totfact> 0.75632917E+03</totfact>
</mgrwt>
</event>
<event>
 8    1  0.7550631E-006  0.1646622E+03  0.7546771E-02  0.1190451E+00
         -1   -1    0    0    0  501 -0.00000000000E+00  0.00000000000E+00  0.14052750100E+03  0.14052750100E+03  0.00000000000E+00 0.  1.
          1   -1    0    0  501    0  0.00000000000E+00 -0.00000000000E+00 -0.16643486904E+03  0.16643486904E+03  0.00000000000E+00 0. -1.
         23    2    1    2    0    0 -0.40611232124E+02 -0.99201545117E+02 -0.11882625722E+02  0.14170398696E+03  0.91916290175E+02 0.  0.
         23    2    1    2    0    0  0.40611232124E+02  0.99201545117E+02 -0.14024742318E+02  0.16525838308E+03  0.12499368406E+03 0.  0.
          5    1    4    4  502    0  0.67267261064E+02  0.77021856600E+02  0.32171015679E+02  0.10730477648E+03  0.47000000000E+01 0. -1.
         -5    1    4    4    0  502 -0.26656028940E+02  0.22179688516E+02 -0.46195757998E+02  0.57953606605E+02  0.47000000000E+01 0. -1.
        -11    1    3    3    0    0  0.27356875966E+02 -0.48078954731E+02 -0.12239994620E+02  0.56655114676E+02  0.00000000000E+00 0.  1.
         11    1    3    3    0    0 -0.67968108090E+02 -0.51122590386E+02  0.35736889829E+00  0.85048872289E+02  0.00000000000E+00 0. -1.
<mgrwt>
<rscale>  0 0.15845570E+03</rscale>
<asrwt>0</asrwt>
<pdfrwt beam="2">  1        1 0.25605365E-01 0.16466220E+03</pdfrwt>
<pdfrwt beam="1">  1       -1 0.21619615E-01 0.16466220E+03</pdfrwt>
<totfact> 0.32059368E+03</totfact>
</mgrwt>
</event>
<event>
 8    1  0.7550631E-006  0.1344802E+03  0.7546771E-02  0.1234011E+00
         -1   -1    0    0    0  501 -0.00000000000E+00  0.00000000000E+00  0.63387794281E+02  0.63387794281E+02  0.00000000000E+00 0.  1.
          1   -1    0    0  501    0  0.00000000000E+00 -0.00000000000E+00 -0.25250875488E+03  0.25250875488E+03  0.00000000000E+00 0. -1.
         23    2    1    2    0    0  0.47029261100E+02  0.14836692244E+02 -0.28619503405E+02  0.10650303003E+03  0.89955214381E+02 0.  0.
         23    2    1    2    0    0 -0.47029261100E+02 -0.14836692244E+02 -0.16050145719E+03  0.20939351913E+03  0.12511214672E+03 0.  0.
          5    1    4    4  502    0 -0.72710539799E+01  0.49982153600E+02 -0.31912560857E+02  0.59929837685E+02  0.47000000000E+01 0. -1.
         -5    1    4    4    0  502 -0.39758207120E+02 -0.64818845844E+02 -0.12858889634E+03  0.14946368145E+03  0.47000000000E+01 0. -1.
        -11    1    3    3    0    0  0.53690187149E+02 -0.56428312657E+01 -0.51831392069E+02  0.74839634851E+02  0.00000000000E+00 0. -1.
         11    1    3    3    0    0 -0.66609260484E+01  0.20479523510E+02  0.23211888664E+02  0.31663395181E+02  0.00000000000E+00 0.  1.
<mgrwt>
<rscale>  0 0.12567980E+03</rscale>
<asrwt>0</asrwt>
<pdfrwt beam="2">  1        1 0.38847501E-01 0.13448021E+03</pdfrwt>
<pdfrwt beam="1">  1       -1 0.97519683E-02 0.13448021E+03</pdfrwt>
<totfact> 0.65776284E+03</totfact>
</mgrwt>
</event>
<event>
 8    1  0.7550631E-006  0.1507108E+03  0.7546771E-02  0.1208634E+00
          1   -1    0    0  501    0  0.00000000000E+00  0.00000000000E+00  0.13233077198E+03  0.13233077198E+03  0.00000000000E+00 0. -1.
         -1   -1    0    0    0  501 -0.00000000000E+00 -0.00000000000E+00 -0.17057571300E+03  0.17057571300E+03  0.00000000000E+00 0.  1.
         23    2    1    2    0    0  0.62969317679E+02 -0.55882231436E+02 -0.78655825324E+02  0.14687191937E+03  0.91086020243E+02 0.  0.
         23    2    1    2    0    0 -0.62969317679E+02  0.55882231436E+02  0.40410884305E+02  0.15603456560E+03  0.12500314929E+03 0.  0.
          5    1    4    4  502    0 -0.99357982485E+02  0.53327347448E+02  0.22327392660E+02  0.11504962900E+03  0.47000000000E+01 0.  1.
         -5    1    4    4    0  502  0.36388664806E+02  0.25548839882E+01  0.18083491645E+02  0.40984936606E+02  0.47000000000E+01 0.  1.
        -11    1    3    3    0    0  0.30163504907E+02  0.22391395311E+01 -0.74030676206E+02  0.79971193524E+02  0.00000000000E+00 0.  1.
         11    1    3    3    0    0  0.32805812772E+02 -0.58121370967E+02 -0.46251491177E+01  0.66900725849E+02  0.00000000000E+00 0. -1.
<mgrwt>
<rscale>  0 0.14354701E+03</rscale>
<asrwt>0</asrwt>
<pdfrwt beam="1">  1        1 0.20358580E-01 0.15071080E+03</pdfrwt>
<pdfrwt beam="2">  1       -1 0.26242417E-01 0.15071080E+03</pdfrwt>
<totfact> 0.31063565E+03</totfact>
</mgrwt>
</event>
<event>
 8    1  0.7550631E-006  0.1409896E+03  0.7546771E-02  0.1222381E+00
         -1   -1    0    0    0  501 -0.00000000000E+00  0.00000000000E+00  0.11179392479E+02  0.11179392479E+02  0.00000000000E+00 0.  1.
          1   -1    0    0  501    0  0.00000000000E+00 -0.00000000000E+00 -0.14593120103E+04  0.14593120103E+04  0.00000000000E+00 0. -1.
         23    2    1    2    0    0  0.12604742872E+02  0.63985456223E+02 -0.57523283433E+03  0.58627869875E+03  0.92611450528E+02 0.  0.
         23    2    1    2    0    0 -0.12604742872E+02 -0.63985456223E+02 -0.87289978351E+03  0.88421270405E+03  0.12500022316E+03 0.  0.
          5    1    4    4  502    0 -0.61325879707E+01 -0.10176794912E+03 -0.60628725100E+03  0.61481757037E+03  0.47000000000E+01 0.  1.
         -5    1    4    4    0  502 -0.64721549017E+01  0.37782492901E+02 -0.26661253251E+03  0.26939513368E+03  0.47000000000E+01 0.  1.
        -11    1    3    3    0    0  0.52369489338E+02  0.32967272956E+02 -0.27865168183E+03  0.28544029899E+03  0.00000000000E+00 0.  1.
         11    1    3    3    0    0 -0.39764746466E+02  0.31018183267E+02 -0.29658115250E+03  0.30083839976E+03  0.00000000000E+00 0. -1.
<mgrwt>
<rscale>  0 0.13348064E+03</rscale>
<asrwt>0</asrwt>
<pdfrwt beam="2">  1        1 0.22450949E+00 0.14098962E+03</pdfrwt>
<pdfrwt beam="1">  1       -1 0.17199069E-02 0.14098962E+03</pdfrwt>
<totfact> 0.63851061E+03</totfact>
</mgrwt>
</event>
<event>
 7    1  0.7550631E-006  0.6343149E+03  0.7546771E-02  0.9836664E-01
         -2   -1    0    0    0  501 -0.00000000000E+00  0.00000000000E+00  0.33139358146E+03  0.33139358146E+03  0.00000000000E+00 0.  1.
          2   -1    0    0  501    0  0.00000000000E+00 -0.00000000000E+00 -0.30353292166E+03  0.30353292166E+03  0.00000000000E+00 0. -1.
         23    2    1    2    0    0  0.62725565662E+02  0.27729017035E+02  0.21292813230E+03  0.24091985764E+03  0.89446035714E+02 0.  0.
          5    1    1    2  502    0 -0.32325972033E+02 -0.18376355849E+02 -0.28581056070E+03  0.28825756803E+03  0.47000000000E+01 0. -1.
         -5    1    1    2    0  502 -0.30399593630E+02 -0.93526611864E+01  0.10074308819E+03  0.10574907745E+03  0.47000000000E+01 0.  1.
        -11    1    3    3    0    0  0.84820283655E+02  0.13962113102E+02  0.17420369054E+03  0.19425845392E+03  0.00000000000E+00 0.  1.
         11    1    3    3    0    0 -0.22094717993E+02  0.13766903933E+02  0.38724441765E+02  0.46661403720E+02  0.00000000000E+00 0. -1.
<mgrwt>
<rscale>  0 0.63431494E+03</rscale>
<asrwt>0</asrwt>
<pdfrwt beam="2">  1        2 0.46697373E-01 0.63431494E+03</pdfrwt>
<pdfrwt beam="1">  1       -2 0.50983628E-01 0.63431494E+03</pdfrwt>
<totfact> 0.39773872E+02</totfact>
</mgrwt>
</event>
<event>
 8    1  0.7550631E-006  0.1378740E+03  0.7546771E-02  0.1229167E+00
          1   -1    0    0  501    0  0.00000000000E+00  0.00000000000E+00  0.21299412018E+03  0.21299412018E+03  0.00000000000E+00 0. -1.
         -1   -1    0    0    0  501 -0.00000000000E+00 -0.00000000000E+00 -0.70027221149E+02  0.70027221149E+02  0.00000000000E+00 0.  1.
         23    2    1    2    0    0 -0.56904783079E+02  0.12043641325E+02  0.48062184462E+02  0.11564113219E+03  0.87633864712E+02 0.  0.
         23    2    1    2    0    0  0.56904783079E+02 -0.12043641325E+02  0.94904714567E+02  0.16738020914E+03  0.12500410366E+03 0.  0.
          5    1    4    4  502    0  0.17023426202E+01 -0.52638104814E+02  0.81887717438E+02  0.97474900954E+02  0.47000000000E+01 0.  1.
         -5    1    4    4    0  502  0.55202440459E+02  0.40594463489E+02  0.13016997129E+02  0.69905308188E+02  0.47000000000E+01 0.  1.
        -11    1    3    3    0    0 -0.34155153115E+02 -0.28001243309E+02 -0.60548966082E+01  0.44579209102E+02  0.00000000000E+00 0.  1.
         11    1    3    3    0    0 -0.22749629964E+02  0.40044884634E+02  0.54117081071E+02  0.71061923084E+02  0.00000000000E+00 0. -1.
<mgrwt>
<rscale>  0 0.12885323E+03</rscale>
<asrwt>0</asrwt>
<pdfrwt beam="1">  1        1 0.32768326E-01 0.13787396E+03</pdfrwt>
<pdfrwt beam="2">  1       -1 0.10773419E-01 0.13787396E+03</pdfrwt>
<totfact> 0.69851175E+03</totfact>
</mgrwt>
</event>
<event>
 8    1  0.7550631E-006  0.1346980E+03  0.7546771E-02  0.1232694E+00
         -1   -1    0    0    0  501 -0.00000000000E+00  0.00000000000E+00  0.28468629410E+03  0.28468629410E+03  0.00000000000E+00 0.  1.
          1   -1    0    0  501    0  0.00000000000E+00 -0.00000000000E+00 -0.53298026028E+02  0.53298026028E+02  0.00000000000E+00 0. -1.
         23    2    1    2    0    0 -0.49923130146E+02 -0.48836872502E+01  0.14114569315E+03  0.17585079529E+03  0.92115287449E+02 0.  0.
         23    2    1    2    0    0  0.49923130146E+02  0.48836872502E+01  0.90242574919E+02  0.16213352484E+03  0.12500955254E+03 0.  0.
          5    1    4    4  502    0  0.85551367153E+02  0.22956600487E+02  0.38764589908E+02  0.96803023498E+02  0.47000000000E+01 0.  1.
         -5    1    4    4    0  502 -0.35628237007E+02 -0.18072913237E+02  0.51477985012E+02  0.65330501345E+02  0.47000000000E+01 0.  1.
        -11    1    3    3    0    0 -0.24914235231E+02  0.29479543132E+02  0.12820771027E+02  0.40671055434E+02  0.00000000000E+00 0. -1.
         11    1    3    3    0    0 -0.25008894915E+02 -0.34363230382E+02  0.12832492213E+03  0.13517973985E+03  0.00000000000E+00 0.  1.
<mgrwt>
<rscale>  0 0.12653244E+03</rscale>
<asrwt>0</asrwt>
<pdfrwt beam="2">  1        1 0.81996965E-02 0.13469802E+03</pdfrwt>
<pdfrwt beam="1">  1       -1 0.43797890E-01 0.13469802E+03</pdfrwt>
<totfact> 0.42164549E+03</totfact>
</mgrwt>
</event>
<event>
 8    1  0.7550631E-006  0.2324870E+03  0.7546771E-02  0.1127755E+00
          3   -1    0    0  501    0  0.00000000000E+00  0.00000000000E+00  0.65847389020E+03  0.65847389020E+03  0.00000000000E+00 0. -1.
         -3   -1    0    0    0  501 -0.00000000000E+00 -0.00000000000E+00 -0.10174931102E+03  0.10174931102E+03  0.00000000000E+00 0.  1.
         23    2    1    2    0    0  0.55766572721E+01 -0.19594334294E+03  0.82044333910E+02  0.23166709915E+03  0.92268517668E+02 0.  0.
         23    2    1    2    0    0 -0.55766572721E+01  0.19594334294E+03  0.47468024527E+03  0.52855610207E+03  0.12500130016E+03 0.  0.
          5    1    4    4  502    0 -0.11148004028E+02  0.95248948071E+02  0.37342012100E+03  0.38556622890E+03  0.47000000000E+01 0.  1.
         -5    1    4    4    0  502  0.55713467558E+01  0.10069439487E+03  0.10126012427E+03  0.14298987317E+03  0.47000000000E+01 0.  1.
        -11    1    3    3    0    0 -0.21887479260E+02 -0.18063802489E+03  0.54712078095E+02  0.19000676113E+03  0.00000000000E+00 0.  1.
         11    1    3    3    0    0  0.27464136533E+02 -0.15305318048E+02  0.27332255815E+02  0.41660338020E+02  0.00000000000E+00 0. -1.
<mgrwt>
<rscale>  0 0.22842311E+03</rscale>
<asrwt>0</asrwt>
<pdfrwt beam="1">  1        3 0.10130367E+00 0.23248703E+03</pdfrwt>
<pdfrwt beam="2">  1       -3 0.15653741E-01 0.23248703E+03</pdfrwt>
<totfact> 0.75033743E+01</totfact>
</mgrwt>
</event>
<event>
 8    1  0.7550631E-006  0.1269454E+03  0.7546771E-02  0.1245751E+00
          1   -1    0    0  501    0  0.00000000000E+00  0.00000000000E+00  0.19298533620E+03  0.19298533620E+03  0.00000000000E+00 0.  1.
         -1   -1    0    0    0  501 -0.00000000000E+00 -0.00000000000E+00 -0.66540180951E+02  0.66540180951E+02  0.00000000000E+00 0. -1.
         23    2    1    2    0    0 -0.12059179823E+02  0.18599706046E+02  0.31884864802E+02  0.10123217057E+03  0.93487618811E+02 0.  0.
         23    2    1    2    0    0  0.12059179823E+02 -0.18599706046E+02  0.94560290452E+02  0.15829334659E+03  0.12499504855E+03 0.  0.
          5    1    4    4  502    0 -0.28375204260E+02 -0.61315677490E+02  0.45947376205E+02  0.81841407019E+02  0.47000000000E+01 0. -1.
         -5    1    4    4    0  502  0.40434384083E+02  0.42715971444E+02  0.48612914247E+02  0.76451939571E+02  0.47000000000E+01 0. -1.
        -11    1    3    3    0    0  0.15630690555E+02  0.39019925798E+02  0.47518226583E+02  0.63441744571E+02  0.00000000000E+00 0. -1.
         11    1    3    3    0    0 -0.27689870378E+02 -0.20420219753E+02 -0.15633361781E+02  0.37790425995E+02  0.00000000000E+00 0.  1.
<mgrwt>
<rscale>  0 0.11840516E+03</rscale>
<asrwt>0</asrwt>
<pdfrwt beam="1">  1        1 0.29690051E-01 0.12694540E+03</pdfrwt>
<pdfrwt beam="2">  1       -1 0.10236951E-01 0.12694540E+03</pdfrwt>
<totfact> 0.84858157E+03</totfact>
</mgrwt>
</event>
<event>
 8    1  0.7550631E-006  0.1751850E+03  0.7546771E-02  0.1178858E+00
         -2   -1    0    0    0  501 -0.00000000000E+00  0.00000000000E+00  0.23391127845E+03  0.23391127845E+03  0.00000000000E+00 0.  1.
          2   -1    0    0  501    0  0.00000000000E+00 -0.00000000000E+00 -0.11708295207E+03  0.11708295207E+03  0.00000000000E+00 0. -1.
         23    2    1    2    0    0 -0.45488020454E+02 -0.11497785601E+03  0.27394831914E+02  0.15430127780E+03  0.88143860456E+02 0.  0.
         23    2    1    2    0    0  0.45488020454E+02  0.11497785601E+03  0.89433494469E+02  0.19669295273E+03  0.12409955818E+03 0.  0.
          5    1    4    4  502    0  0.46713021243E+02 -0.11682296972E+02  0.22590992962E+02  0.53394993952E+02  0.47000000000E+01 0.  1.
         -5    1    4    4    0  502 -0.12250007890E+01  0.12666015299E+03  0.66842501506E+02  0.14329795878E+03  0.47000000000E+01 0.  1.
        -11    1    3    3    0    0 -0.13773333903E+02  0.66681599346E+01  0.24097555196E+02  0.28545774646E+02  0.00000000000E+00 0.  1.
         11    1    3    3    0    0 -0.31714686550E+02 -0.12164601595E+03  0.32972767175E+01  0.12575550315E+03  0.00000000000E+00 0. -1.
<mgrwt>
<rscale>  0 0.16903485E+03</rscale>
<asrwt>0</asrwt>
<pdfrwt beam="2">  1        2 0.18012762E-01 0.17518495E+03</pdfrwt>
<pdfrwt beam="1">  1       -2 0.35986350E-01 0.17518495E+03</pdfrwt>
<totfact> 0.22403124E+03</totfact>
</mgrwt>
</event>
<event>
 8    1  0.7550631E-006  0.1332335E+03  0.7546771E-02  0.1235319E+00
          1   -1    0    0  501    0  0.00000000000E+00  0.00000000000E+00  0.59205234455E+03  0.59205234455E+03  0.00000000000E+00 0. -1.
         -1   -1    0    0    0  501 -0.00000000000E+00 -0.00000000000E+00 -0.23754287134E+02  0.23754287134E+02  0.00000000000E+00 0.  1.
         23    2    1    2    0    0 -0.21130739638E+02 -0.41022776198E+02  0.21650749852E+03  0.23963146298E+03  0.91751647444E+02 0.  0.
         23    2    1    2    0    0  0.21130739638E+02  0.41022776198E+02  0.35179055890E+03  0.37617516871E+03  0.12498713493E+03 0.  0.
          5    1    4    4  502    0  0.29732228287E+01 -0.24375243881E+02  0.26364298367E+03  0.26482580201E+03  0.47000000000E+01 0. -1.
         -5    1    4    4    0  502  0.18157516810E+02  0.65398020080E+02  0.88147575224E+02  0.11134936670E+03  0.47000000000E+01 0. -1.
        -11    1    3    3    0    0 -0.36955785366E+02  0.71046539676E+01  0.35742569470E+02  0.51901227850E+02  0.00000000000E+00 0.  1.
         11    1    3    3    0    0  0.15825045728E+02 -0.48127430166E+02  0.18076492905E+03  0.18773023513E+03  0.00000000000E+00 0. -1.
<mgrwt>
<rscale>  0 0.12484035E+03</rscale>
<asrwt>0</asrwt>
<pdfrwt beam="1">  1        1 0.91084965E-01 0.13323348E+03</pdfrwt>
<pdfrwt beam="2">  1       -1 0.36545061E-02 0.13323348E+03</pdfrwt>
<totfact> 0.96245558E+03</totfact>
</mgrwt>
</event>
<event>
 8    1  0.7550631E-006  0.1432647E+03  0.7546771E-02  0.1219877E+00
          3   -1    0    0  501    0  0.00000000000E+00  0.00000000000E+00  0.95416970495E+02  0.95416970495E+02  0.00000000000E+00 0. -1.
         -3   -1    0    0    0  501 -0.00000000000E+00 -0.00000000000E+00 -0.20805000164E+03  0.20805000164E+03  0.00000000000E+00 0.  1.
         23    2    1    2    0    0 -0.39578456488E+02  0.57739227635E+02 -0.11278518178E+03  0.16020218531E+03  0.89688183858E+02 0.  0.
         23    2    1    2    0    0  0.39578456488E+02 -0.57739227635E+02  0.15215063030E+00  0.14326478683E+03  0.12499801346E+03 0.  0.
          5    1    4    4  502    0  0.11323441114E+02 -0.90588814609E+02  0.22704442204E+02  0.94192013179E+02  0.47000000000E+01 0.  1.
         -5    1    4    4    0  502  0.28255015374E+02  0.32849586974E+02 -0.22552291574E+02  0.49072773647E+02  0.47000000000E+01 0.  1.
        -11    1    3    3    0    0 -0.10326738878E+02 -0.20554930518E+02 -0.51984762796E+02  0.56846831639E+02  0.00000000000E+00 0.  1.
         11    1    3    3    0    0 -0.29251717610E+02  0.78294158153E+02 -0.60800418980E+02  0.10335535367E+03  0.00000000000E+00 0. -1.
<mgrwt>
<rscale>  0 0.13524275E+03</rscale>
<asrwt>0</asrwt>
<pdfrwt beam="1">  1        3 0.14679534E-01 0.14326471E+03</pdfrwt>
<pdfrwt beam="2">  1       -3 0.32007692E-01 0.14326471E+03</pdfrwt>
<totfact> 0.85289379E+02</totfact>
</mgrwt>
</event>
<event>
 8    1  0.7550631E-006  0.1619760E+03  0.7546771E-02  0.1194232E+00
          1   -1    0    0  501    0  0.00000000000E+00  0.00000000000E+00  0.51847386627E+03  0.51847386627E+03  0.00000000000E+00 0. -1.
         -1   -1    0    0    0  501 -0.00000000000E+00 -0.00000000000E+00 -0.43853877440E+02  0.43853877440E+02  0.00000000000E+00 0.  1.
         23    2    1    2    0    0 -0.31272678589E+02 -0.98147666868E+02  0.17744024766E+03  0.22387240682E+03  0.89570464478E+02 0.  0.
         23    2    1    2    0    0  0.31272678589E+02  0.98147666868E+02  0.29717974117E+03  0.33845533689E+03  0.12500108628E+03 0.  0.
          5    1    4    4  502    0  0.33053663953E+02  0.12317876700E+03  0.27991166526E+03  0.30763319666E+03  0.47000000000E+01 0. -1.
         -5    1    4    4    0  502 -0.17809853646E+01 -0.25031100132E+02  0.17268075910E+02  0.30822140229E+02  0.47000000000E+01 0. -1.
        -11    1    3    3    0    0  0.12427053814E+02 -0.15705531946E+02  0.10181488989E+03  0.10376592506E+03  0.00000000000E+00 0. -1.
         11    1    3    3    0    0 -0.43699732403E+02 -0.82442134922E+02  0.75625357774E+02  0.12010648176E+03  0.00000000000E+00 0.  1.
<mgrwt>
<rscale>  0 0.15519427E+03</rscale>
<asrwt>0</asrwt>
<pdfrwt beam="1">  1        1 0.79765206E-01 0.16197598E+03</pdfrwt>
<pdfrwt beam="2">  1       -1 0.67467508E-02 0.16197598E+03</pdfrwt>
<totfact> 0.46832151E+03</totfact>
</mgrwt>
</event>
<event>
 8    1  0.7550631E-006  0.1258919E+03  0.7546771E-02  0.1248666E+00
          4   -1    0    0  501    0  0.00000000000E+00  0.00000000000E+00  0.57363742137E+02  0.57363742137E+02  0.00000000000E+00 0. -1.
         -4   -1    0    0    0  501 -0.00000000000E+00 -0.00000000000E+00 -0.23828313751E+03  0.23828313751E+03  0.00000000000E+00 0.  1.
         23    2    1    2    0    0 -0.93022817306E+01 -0.11787314105E+02 -0.13012784765E+03  0.15989505440E+03  0.91693502871E+02 0.  0.
         23    2    1    2    0    0  0.93022817306E+01  0.11787314105E+02 -0.50791547729E+02  0.13575182525E+03  0.12499321389E+03 0.  0.
          5    1    4    4  502    0 -0.42104514974E+02  0.46141800469E+02 -0.16009234187E+02  0.64654787224E+02  0.47000000000E+01 0.  1.
         -5    1    4    4    0  502  0.51406796705E+02 -0.34354486364E+02 -0.34782313542E+02  0.71097038026E+02  0.47000000000E+01 0.  1.
        -11    1    3    3    0    0 -0.21909380219E+02  0.31456547584E+02 -0.96035485603E+02  0.10340381919E+03  0.00000000000E+00 0.  1.
         11    1    3    3    0    0  0.12607098488E+02 -0.43243861688E+02 -0.34092362044E+02  0.56491235211E+02  0.00000000000E+00 0. -1.
<mgrwt>
<rscale>  0 0.11668626E+03</rscale>
<asrwt>0</asrwt>
<pdfrwt beam="1">  1        4 0.88251910E-02 0.12589192E+03</pdfrwt>
<pdfrwt beam="2">  1       -4 0.36658945E-01 0.12589192E+03</pdfrwt>
<totfact> 0.10986725E+03</totfact>
</mgrwt>
</event>
<event>
 8    1  0.7550631E-006  0.1439706E+03  0.7546771E-02  0.1218853E+00
          3   -1    0    0  501    0  0.00000000000E+00  0.00000000000E+00  0.28681996100E+03  0.28681996100E+03  0.00000000000E+00 0. -1.
         -3   -1    0    0    0  501 -0.00000000000E+00 -0.00000000000E+00 -0.73566486811E+02  0.73566486811E+02  0.00000000000E+00 0.  1.
         23    2    1    2    0    0 -0.77947155521E+01  0.71008575189E+02  0.15227885486E+02  0.11555658640E+03  0.89545858772E+02 0.  0.
         23    2    1    2    0    0  0.77947155521E+01 -0.71008575189E+02  0.19802558870E+03  0.24482986141E+03  0.12499820765E+03 0.  0.
          5    1    4    4  502    0 -0.43998931612E+02 -0.69612368400E+02  0.16123832610E+03  0.18111232874E+03  0.47000000000E+01 0. -1.
         -5    1    4    4    0  502  0.51793647164E+02 -0.13962067895E+01  0.36787262601E+02  0.63717532671E+02  0.47000000000E+01 0. -1.
        -11    1    3    3    0    0  0.54003480187E+01  0.87544799754E+02 -0.28083983356E+01  0.87756155476E+02  0.00000000000E+00 0. -1.
         11    1    3    3    0    0 -0.13195063571E+02 -0.16536224565E+02  0.18036283822E+02  0.27800430925E+02  0.00000000000E+00 0.  1.
<mgrwt>
<rscale>  0 0.13597309E+03</rscale>
<asrwt>0</asrwt>
<pdfrwt beam="1">  1        3 0.44126147E-01 0.14397058E+03</pdfrwt>
<pdfrwt beam="2">  1       -3 0.11317921E-01 0.14397058E+03</pdfrwt>
<totfact> 0.71718327E+02</totfact>
</mgrwt>
</event>
<event>
 8    1  0.7550631E-006  0.1265500E+03  0.7546771E-02  0.1248011E+00
          1   -1    0    0  501    0  0.00000000000E+00  0.00000000000E+00  0.54959224062E+02  0.54959224062E+02  0.00000000000E+00 0. -1.
         -1   -1    0    0    0  501 -0.00000000000E+00 -0.00000000000E+00 -0.22883233129E+03  0.22883233129E+03  0.00000000000E+00 0.  1.
         23    2    1    2    0    0 -0.83880505342E+01  0.17822632924E+02 -0.10372891357E+03  0.13910188247E+03  0.90562909410E+02 0.  0.
         23    2    1    2    0    0  0.83880505342E+01 -0.17822632924E+02 -0.70144193652E+02  0.14468967287E+03  0.12500755136E+03 0.  0.
          5    1    4    4  502    0 -0.13700111683E+02  0.32859890096E+02  0.18282375752E+02  0.40296410515E+02  0.47000000000E+01 0.  1.
         -5    1    4    4    0  502  0.22088162218E+02 -0.50682523019E+02 -0.88426569404E+02  0.10439326236E+03  0.47000000000E+01 0.  1.
        -11    1    3    3    0    0  0.40391213017E+02 -0.14511705901E+00 -0.39799588796E+02  0.56705188618E+02  0.00000000000E+00 0.  1.
         11    1    3    3    0    0 -0.48779263551E+02  0.17967749983E+02 -0.63929324776E+02  0.82396693855E+02  0.00000000000E+00 0. -1.
<mgrwt>
<rscale>  0 0.11706941E+03</rscale>
<asrwt>0</asrwt>
<pdfrwt beam="1">  1        1 0.84552652E-02 0.12654996E+03</pdfrwt>
<pdfrwt beam="2">  1       -1 0.35204974E-01 0.12654996E+03</pdfrwt>
<totfact> 0.59006143E+03</totfact>
</mgrwt>
</event>
<event>
 8    1  0.7550631E-006  0.2349006E+03  0.7546771E-02  0.1126229E+00
         -1   -1    0    0    0  501 -0.00000000000E+00  0.00000000000E+00  0.22775981339E+03  0.22775981339E+03  0.00000000000E+00 0.  1.
          1   -1    0    0  501    0  0.00000000000E+00 -0.00000000000E+00 -0.22593355840E+03  0.22593355840E+03  0.00000000000E+00 0. -1.
         23    2    1    2    0    0 -0.19715717906E+03 -0.26130316351E+02 -0.11557660924E+02  0.21841179093E+03  0.89534262725E+02 0.  0.
         23    2    1    2    0    0  0.19715717906E+03  0.26130316351E+02  0.13383915919E+02  0.23528158086E+03  0.12499818558E+03 0.  0.
          5    1    4    4  502    0 -0.14938619105E+02  0.84033661057E+01  0.13624721460E+02  0.22394238936E+02  0.47000000000E+01 0.  1.
         -5    1    4    4    0  502  0.21209579817E+03  0.17726950245E+02 -0.24080554088E+00  0.21288734193E+03  0.47000000000E+01 0.  1.
        -11    1    3    3    0    0 -0.14449140358E+03  0.17359203419E+02  0.12335360077E+02  0.14605228091E+03  0.00000000000E+00 0. -1.
         11    1    3    3    0    0 -0.52665775485E+02 -0.43489519770E+02 -0.23893021001E+02  0.72359510016E+02  0.00000000000E+00 0.  1.
<mgrwt>
<rscale>  0 0.23058438E+03</rscale>
<asrwt>0</asrwt>
<pdfrwt beam="2">  1        1 0.34759009E-01 0.23490060E+03</pdfrwt>
<pdfrwt beam="1">  1       -1 0.35039971E-01 0.23490060E+03</pdfrwt>
<totfact> 0.97998996E+02</totfact>
</mgrwt>
</event>
<event>
 8    1  0.7550631E-006  0.1253835E+03  0.7546771E-02  0.1249427E+00
         -2   -1    0    0    0  501 -0.00000000000E+00  0.00000000000E+00  0.27844084363E+02  0.27844084363E+02  0.00000000000E+00 0. -1.
          2   -1    0    0  501    0  0.00000000000E+00 -0.00000000000E+00 -0.77257033992E+03  0.77257033992E+03  0.00000000000E+00 0.  1.
         23    2    1    2    0    0 -0.15073886106E+01  0.97133775666E+01 -0.75376710968E+02  0.11942263053E+03  0.92105885814E+02 0.  0.
         23    2    1    2    0    0  0.15073886106E+01 -0.97133775666E+01 -0.66934954459E+03  0.68099179375E+03  0.12499755356E+03 0.  0.
          5    1    4    4  502    0  0.18927642387E+02  0.19402390491E+02 -0.62169925849E+03  0.62230761397E+03  0.47000000000E+01 0. -1.
         -5    1    4    4    0  502 -0.17420253776E+02 -0.29115768058E+02 -0.47650286097E+02  0.58684179779E+02  0.47000000000E+01 0. -1.
        -11    1    3    3    0    0 -0.45525200009E+02  0.11233415292E+02 -0.50188100684E+02  0.68684633691E+02  0.00000000000E+00 0.  1.
         11    1    3    3    0    0  0.44017811398E+02 -0.15200377252E+01 -0.25188610284E+02  0.50737996837E+02  0.00000000000E+00 0. -1.
<mgrwt>
<rscale>  0 0.11624300E+03</rscale>
<asrwt>0</asrwt>
<pdfrwt beam="2">  1        2 0.11885697E+00 0.12538345E+03</pdfrwt>
<pdfrwt beam="1">  1       -2 0.42837056E-02 0.12538345E+03</pdfrwt>
<totfact> 0.87937705E+03</totfact>
</mgrwt>
</event>
<event>
 8    1  0.7550631E-006  0.2589975E+03  0.7546771E-02  0.1109992E+00
          1   -1    0    0  501    0  0.00000000000E+00  0.00000000000E+00  0.17458876831E+04  0.17458876831E+04  0.00000000000E+00 0. -1.
         -1   -1    0    0    0  501 -0.00000000000E+00 -0.00000000000E+00 -0.50682644353E+02  0.50682644353E+02  0.00000000000E+00 0.  1.
         23    2    1    2    0    0 -0.21839116709E+03  0.61310189112E+02  0.35202499894E+03  0.42864768775E+03  0.91452715573E+02 0.  0.
         23    2    1    2    0    0  0.21839116709E+03 -0.61310189112E+02  0.13431800398E+04  0.13679226397E+04  0.12500435080E+03 0.  0.
          5    1    4    4  502    0  0.19973322800E+03 -0.54716779085E+01  0.10229116665E+04  0.10422541289E+04  0.47000000000E+01 0. -1.
         -5    1    4    4    0  502  0.18657939093E+02 -0.55838511203E+02  0.32026837330E+03  0.32566851085E+03  0.47000000000E+01 0. -1.
        -11    1    3    3    0    0 -0.13138250066E+03  0.38813355645E+02  0.28604268581E+03  0.31715651682E+03  0.00000000000E+00 0. -1.
         11    1    3    3    0    0 -0.87008666433E+02  0.22496833467E+02  0.65982313133E+02  0.11149117094E+03  0.00000000000E+00 0.  1.
<mgrwt>
<rscale>  0 0.25531424E+03</rscale>
<asrwt>0</asrwt>
<pdfrwt beam="1">  1        1 0.26859806E+00 0.25899755E+03</pdfrwt>
<pdfrwt beam="2">  1       -1 0.77973312E-02 0.25899755E+03</pdfrwt>
<totfact> 0.44327670E+02</totfact>
</mgrwt>
</event>
<event>
 8    1  0.7550631E-006  0.1484768E+03  0.7546771E-02  0.1213109E+00
         -1   -1    0    0    0  501 -0.00000000000E+00  0.00000000000E+00  0.87436353120E+02  0.87436353120E+02  0.00000000000E+00 0.  1.
          1   -1    0    0  501    0  0.00000000000E+00 -0.00000000000E+00 -0.29594536785E+03  0.29594536785E+03  0.00000000000E+00 0. -1.
         23    2    1    2    0    0  0.79435129990E+02  0.10498047323E+02  0.10943181444E+02  0.11842014343E+03  0.86506810579E+02 0.  0.
         23    2    1    2    0    0 -0.79435129990E+02 -0.10498047323E+02 -0.21945219618E+03  0.26496157754E+03  0.12500088916E+03 0.  0.
          5    1    4    4  502    0 -0.75363251526E+02  0.23604881970E+01 -0.41031626370E+02  0.85970203836E+02  0.47000000000E+01 0.  1.
         -5    1    4    4    0  502 -0.40718784641E+01 -0.12858535520E+02 -0.17842056981E+03  0.17899137370E+03  0.47000000000E+01 0.  1.
        -11    1    3    3    0    0  0.13561733734E+02 -0.14260297108E+02  0.38185909463E+02  0.42958589095E+02  0.00000000000E+00 0.  1.
         11    1    3    3    0    0  0.65873396256E+02  0.24758344431E+02 -0.27242728019E+02  0.75461554338E+02  0.00000000000E+00 0. -1.
<mgrwt>
<rscale>  0 0.14016347E+03</rscale>
<asrwt>0</asrwt>
<pdfrwt beam="2">  1        1 0.45530057E-01 0.14847684E+03</pdfrwt>
<pdfrwt beam="1">  1       -1 0.13451747E-01 0.14847684E+03</pdfrwt>
<totfact> 0.33110844E+03</totfact>
</mgrwt>
</event>
<event>
 8    1  0.7550631E-006  0.1251368E+03  0.7546771E-02  0.1251715E+00
          2   -1    0    0  501    0  0.00000000000E+00  0.00000000000E+00  0.68416438457E+03  0.68416438457E+03  0.00000000000E+00 0. -1.
         -2   -1    0    0    0  501 -0.00000000000E+00 -0.00000000000E+00 -0.19586129722E+02  0.19586129722E+02  0.00000000000E+00 0.  1.
         23    2    1    2    0    0  0.55321586732E+01 -0.25296126619E+01  0.15227234716E+03  0.17638293694E+03  0.88809171904E+02 0.  0.
         23    2    1    2    0    0 -0.55321586732E+01  0.25296126619E+01  0.51230590770E+03  0.52736757736E+03  0.12498885898E+03 0.  0.
          5    1    4    4  502    0 -0.15567148237E+02  0.97807344008E+01  0.51370118488E+03  0.51405155016E+03  0.47000000000E+01 0. -1.
         -5    1    4    4    0  502  0.10034989564E+02 -0.72511217389E+01 -0.13952771858E+01  0.13316027202E+02  0.47000000000E+01 0. -1.
        -11    1    3    3    0    0  0.20425096741E+02  0.39420805441E+02  0.71781026822E+02  0.84402015913E+02  0.00000000000E+00 0.  1.
         11    1    3    3    0    0 -0.14892938068E+02 -0.41950418103E+02  0.80491320335E+02  0.91980921025E+02  0.00000000000E+00 0. -1.
<mgrwt>
<rscale>  0 0.11492310E+03</rscale>
<asrwt>0</asrwt>
<pdfrwt beam="1">  1        2 0.10525604E+00 0.12513680E+03</pdfrwt>
<pdfrwt beam="2">  1       -2 0.30132513E-02 0.12513680E+03</pdfrwt>
<totfact> 0.17098659E+04</totfact>
</mgrwt>
</event>
<event>
 8    1  0.7550631E-006  0.1745103E+03  0.7546771E-02  0.1179367E+00
         -4   -1    0    0    0  501 -0.00000000000E+00  0.00000000000E+00  0.66349936423E+03  0.66349936423E+03  0.00000000000E+00 0. -1.
          4   -1    0    0  501    0  0.00000000000E+00 -0.00000000000E+00 -0.40464189418E+02  0.40464189418E+02  0.00000000000E+00 0.  1.
         23    2    1    2    0    0  0.90192290476E+02  0.81775229324E+02  0.32167531823E+03  0.35572282736E+03  0.90784812361E+02 0.  0.
         23    2    1    2    0    0 -0.90192290476E+02 -0.81775229324E+02  0.30135985659E+03  0.34824072629E+03  0.12502800843E+03 0.  0.
          5    1    4    4  502    0 -0.38120886078E+02 -0.10513115961E+03  0.23695813334E+03  0.26206298791E+03  0.47000000000E+01 0.  1.
         -5    1    4    4    0  502 -0.52071404399E+02  0.23355930283E+02  0.64401723245E+02  0.86177738381E+02  0.47000000000E+01 0.  1.
        -11    1    3    3    0    0 -0.18373089473E+02  0.13590463325E+02  0.63100393618E+02  0.67111331271E+02  0.00000000000E+00 0.  1.
         11    1    3    3    0    0  0.10856537995E+03  0.68184765998E+02  0.25857492461E+03  0.28861149609E+03  0.00000000000E+00 0. -1.
<mgrwt>
<rscale>  0 0.16855124E+03</rscale>
<asrwt>0</asrwt>
<pdfrwt beam="2">  1        4 0.62252604E-02 0.17451029E+03</pdfrwt>
<pdfrwt beam="1">  1       -4 0.10207682E+00 0.17451029E+03</pdfrwt>
<totfact> 0.23738798E+02</totfact>
</mgrwt>
</event>
<event>
 8    1  0.7550631E-006  0.1450880E+03  0.7546771E-02  0.1216488E+00
         -2   -1    0    0    0  501 -0.00000000000E+00  0.00000000000E+00  0.26778971249E+02  0.26778971249E+02  0.00000000000E+00 0.  1.
          2   -1    0    0  501    0  0.00000000000E+00 -0.00000000000E+00 -0.94826130188E+03  0.94826130188E+03  0.00000000000E+00 0. -1.
         23    2    1    2    0    0 -0.10241765735E+02 -0.72946879853E+02 -0.15309003813E+03  0.19307016138E+03  0.91724513607E+02 0.  0.
         23    2    1    2    0    0  0.10241765735E+02  0.72946879853E+02 -0.76839229250E+03  0.78197011174E+03  0.12499759775E+03 0.  0.
          5    1    4    4  502    0  0.19387034646E+02  0.56104277338E+02 -0.75668733893E+03  0.75902659107E+03  0.47000000000E+01 0.  1.
         -5    1    4    4    0  502 -0.91452689113E+01  0.16842602515E+02 -0.11704953564E+02  0.22943520673E+02  0.47000000000E+01 0.  1.
        -11    1    3    3    0    0  0.46288295071E+01 -0.94658612965E+01  0.11762901288E+02  0.15792227183E+02  0.00000000000E+00 0.  1.
         11    1    3    3    0    0 -0.14870595242E+02 -0.63481018557E+02 -0.16485293942E+03  0.17727793420E+03  0.00000000000E+00 0. -1.
<mgrwt>
<rscale>  0 0.13767779E+03</rscale>
<asrwt>0</asrwt>
<pdfrwt beam="2">  1        2 0.14588635E+00 0.14508804E+03</pdfrwt>
<pdfrwt beam="1">  1       -2 0.41198419E-02 0.14508804E+03</pdfrwt>
<totfact> 0.72261720E+03</totfact>
</mgrwt>
</event>
<event>
 8    1  0.7550631E-006  0.1321862E+03  0.7546771E-02  0.1237768E+00
         -4   -1    0    0    0  501 -0.00000000000E+00  0.00000000000E+00  0.28175313490E+02  0.28175313490E+02  0.00000000000E+00 0. -1.
          4   -1    0    0  501    0  0.00000000000E+00 -0.00000000000E+00 -0.48913278820E+03  0.48913278820E+03  0.00000000000E+00 0.  1.
         23    2    1    2    0    0 -0.34256841973E+02  0.25950698473E+02 -0.16144368939E+03  0.18992193256E+03  0.90328874942E+02 0.  0.
         23    2    1    2    0    0  0.34256841973E+02 -0.25950698473E+02 -0.29951378532E+03  0.32738616913E+03  0.12500490459E+03 0.  0.
          5    1    4    4  502    0  0.34125916463E+02 -0.57613197499E+02 -0.28398124557E+03  0.29180695080E+03  0.47000000000E+01 0. -1.
         -5    1    4    4    0  502  0.13092551001E+00  0.31662499025E+02 -0.15532539745E+02  0.35579218330E+02  0.47000000000E+01 0. -1.
        -11    1    3    3    0    0 -0.46456467889E+02 -0.21037287311E+02 -0.73327477326E+02  0.89317914200E+02  0.00000000000E+00 0. -1.
         11    1    3    3    0    0  0.12199625915E+02  0.46987985784E+02 -0.88116212068E+02  0.10060401836E+03  0.00000000000E+00 0.  1.
<mgrwt>
<rscale>  0 0.12328882E+03</rscale>
<asrwt>0</asrwt>
<pdfrwt beam="2">  1        4 0.75251199E-01 0.13218622E+03</pdfrwt>
<pdfrwt beam="1">  1       -4 0.43346635E-02 0.13218622E+03</pdfrwt>
<totfact> 0.80581527E+02</totfact>
</mgrwt>
</event>
<event>
 8    1  0.7550631E-006  0.1285766E+03  0.7546771E-02  0.1237642E+00
         -1   -1    0    0    0  501 -0.00000000000E+00  0.00000000000E+00  0.36615876939E+02  0.36615876939E+02  0.00000000000E+00 0.  1.
          1   -1    0    0  501    0  0.00000000000E+00 -0.00000000000E+00 -0.38537340485E+03  0.38537340485E+03  0.00000000000E+00 0. -1.
         23    2    1    2    0    0 -0.20848603342E+01  0.58963154543E+02 -0.15678993997E+03  0.19094056537E+03  0.91619943193E+02 0.  0.
         23    2    1    2    0    0  0.20848603342E+01 -0.58963154543E+02 -0.19196758794E+03  0.23104871642E+03  0.11424077339E+03 0.  0.
          5    1    4    4  502    0 -0.30753344237E+02 -0.78681525515E+02 -0.15976929487E+03  0.18078956890E+03  0.47000000000E+01 0. -1.
         -5    1    4    4    0  502  0.32838204571E+02  0.19718370972E+02 -0.32198293072E+02  0.50259147526E+02  0.47000000000E+01 0.  1.
        -11    1    3    3    0    0  0.40753318861E+02  0.42631595348E+02 -0.61573696861E+02  0.85261984877E+02  0.00000000000E+00 0.  1.
         11    1    3    3    0    0 -0.42838179196E+02  0.16331559195E+02 -0.95216243111E+02  0.10567858049E+03  0.00000000000E+00 0. -1.
<mgrwt>
<rscale>  0 0.12336778E+03</rscale>
<asrwt>0</asrwt>
<pdfrwt beam="2">  1        1 0.59288215E-01 0.12857665E+03</pdfrwt>
<pdfrwt beam="1">  1       -1 0.56332119E-02 0.12857665E+03</pdfrwt>
<totfact> 0.88525766E+03</totfact>
</mgrwt>
</event>
<event>
 8    1  0.7550631E-006  0.1748044E+03  0.7546771E-02  0.1176121E+00
         -2   -1    0    0    0  501 -0.00000000000E+00  0.00000000000E+00  0.10805467008E+03  0.10805467008E+03  0.00000000000E+00 0.  1.
          2   -1    0    0  501    0  0.00000000000E+00 -0.00000000000E+00 -0.26831877433E+03  0.26831877433E+03  0.00000000000E+00 0. -1.
         23    2    1    2    0    0 -0.84634538470E+02 -0.88156377475E+02 -0.51738037110E+02  0.17061998169E+03  0.10723712825E+03 0.  0.
         23    2    1    2    0    0  0.84634538470E+02  0.88156377475E+02 -0.10852606714E+03  0.20575346272E+03  0.12498811216E+03 0.  0.
          5    1    4    4  502    0  0.34452380300E+02 -0.15381737952E+02  0.11199570349E+02  0.39636911418E+02  0.47000000000E+01 0. -1.
         -5    1    4    4    0  502  0.50182158170E+02  0.10353811543E+03 -0.11972563749E+03  0.16611655130E+03  0.47000000000E+01 0. -1.
        -11    1    3    3    0    0 -0.10041877662E+02  0.48322387343E+01  0.26010426021E+02  0.28297210110E+02  0.00000000000E+00 0.  1.
         11    1    3    3    0    0 -0.74592660808E+02 -0.92988616210E+02 -0.77748463131E+02  0.14232277158E+03  0.00000000000E+00 0. -1.
<mgrwt>
<rscale>  0 0.17166643E+03</rscale>
<asrwt>0</asrwt>
<pdfrwt beam="2">  1        2 0.41279811E-01 0.17480441E+03</pdfrwt>
<pdfrwt beam="1">  1       -2 0.16623796E-01 0.17480441E+03</pdfrwt>
<totfact> 0.34752053E+03</totfact>
</mgrwt>
</event>
<event>
 8    1  0.7550631E-006  0.1529304E+03  0.7546771E-02  0.1206250E+00
          2   -1    0    0  501    0  0.00000000000E+00  0.00000000000E+00  0.21261788846E+03  0.21261788846E+03  0.00000000000E+00 0. -1.
         -2   -1    0    0    0  501 -0.00000000000E+00 -0.00000000000E+00 -0.91471353630E+02  0.91471353630E+02  0.00000000000E+00 0.  1.
         23    2    1    2    0    0 -0.87241674372E+02 -0.12336901774E+02  0.67591627115E+02  0.14205270615E+03  0.88583488163E+02 0.  0.
         23    2    1    2    0    0  0.87241674372E+02  0.12336901774E+02  0.53554907720E+02  0.16203653595E+03  0.12499760777E+03 0.  0.
          5    1    4    4  502    0  0.10231730355E+03 -0.27819394361E+02  0.21521080493E+02  0.10829587349E+03  0.47000000000E+01 0.  1.
         -5    1    4    4    0  502 -0.15075629183E+02  0.40156296135E+02  0.32033827227E+02  0.53740662458E+02  0.47000000000E+01 0.  1.
        -11    1    3    3    0    0 -0.54189081619E+02 -0.31972816953E+02 -0.15543552500E+01  0.62937537375E+02  0.00000000000E+00 0.  1.
         11    1    3    3    0    0 -0.33052592753E+02  0.19635915179E+02  0.69145982365E+02  0.79115168772E+02  0.00000000000E+00 0. -1.
<mgrwt>
<rscale>  0 0.14539416E+03</rscale>
<asrwt>0</asrwt>
<pdfrwt beam="1">  1        2 0.32710444E-01 0.15293041E+03</pdfrwt>
<pdfrwt beam="2">  1       -2 0.14072516E-01 0.15293041E+03</pdfrwt>
<totfact> 0.58275221E+03</totfact>
</mgrwt>
</event>
<event>
 8    1  0.7550631E-006  0.2197998E+03  0.7546771E-02  0.1137425E+00
          1   -1    0    0  501    0  0.00000000000E+00  0.00000000000E+00  0.99382761710E+03  0.99382761710E+03  0.00000000000E+00 0. -1.
         -1   -1    0    0    0  501 -0.00000000000E+00 -0.00000000000E+00 -0.48035928154E+02  0.48035928154E+02  0.00000000000E+00 0.  1.
         23    2    1    2    0    0  0.14030182512E+03  0.11407686698E+03  0.32044155224E+03  0.37901004338E+03  0.90926843487E+02 0.  0.
         23    2    1    2    0    0 -0.14030182512E+03 -0.11407686698E+03  0.62535013670E+03  0.66285350187E+03  0.12495534307E+03 0.  0.
          5    1    4    4  502    0 -0.30672524959E+02 -0.52252043687E+02  0.66919002801E+02  0.90395369310E+02  0.47000000000E+01 0. -1.
         -5    1    4    4    0  502 -0.10962930016E+03 -0.61824823292E+02  0.55843113390E+03  0.57245813256E+03  0.47000000000E+01 0. -1.
        -11    1    3    3    0    0  0.20018346872E+02  0.71311492439E+02  0.10305367623E+03  0.12690990249E+03  0.00000000000E+00 0.  1.
         11    1    3    3    0    0  0.12028347825E+03  0.42765374541E+02  0.21738787602E+03  0.25210014089E+03  0.00000000000E+00 0. -1.
<mgrwt>
<rscale>  0 0.21531449E+03</rscale>
<asrwt>0</asrwt>
<pdfrwt beam="1">  1        1 0.15289654E+00 0.21979984E+03</pdfrwt>
<pdfrwt beam="2">  1       -1 0.73901435E-02 0.21979984E+03</pdfrwt>
<totfact> 0.15711958E+03</totfact>
</mgrwt>
</event>
<event>
 8    1  0.7550631E-006  0.2225059E+03  0.7546771E-02  0.1135907E+00
         -2   -1    0    0    0  501 -0.00000000000E+00  0.00000000000E+00  0.41727295548E+02  0.41727295548E+02  0.00000000000E+00 0.  1.
          2   -1    0    0  501    0  0.00000000000E+00 -0.00000000000E+00 -0.11838146307E+04  0.11838146307E+04  0.00000000000E+00 0. -1.
         23    2    1    2    0    0  0.11253002143E+03 -0.14567116634E+03 -0.36671394280E+03  0.41887423804E+03  0.84222425894E+02 0.  0.
         23    2    1    2    0    0 -0.11253002143E+03  0.14567116634E+03 -0.77537339236E+03  0.80666768822E+03  0.12500306878E+03 0.  0.
          5    1    4    4  502    0 -0.82428033923E+02  0.11413818122E+03 -0.73038839356E+03  0.74384890981E+03  0.47000000000E+01 0.  1.
         -5    1    4    4    0  502 -0.30101987508E+02  0.31532985122E+02 -0.44984998805E+02  0.62818778404E+02  0.47000000000E+01 0.  1.
        -11    1    3    3    0    0  0.54885879909E+02 -0.13090554895E+03 -0.27642462686E+03  0.31073991841E+03  0.00000000000E+00 0. -1.
         11    1    3    3    0    0  0.57644141521E+02 -0.14765617390E+02 -0.90289315940E+02  0.10813431963E+03  0.00000000000E+00 0.  1.
<mgrwt>
<rscale>  0 0.21730663E+03</rscale>
<asrwt>0</asrwt>
<pdfrwt beam="2">  1        2 0.18212535E+00 0.22250587E+03</pdfrwt>
<pdfrwt beam="1">  1       -2 0.64195833E-02 0.22250587E+03</pdfrwt>
<totfact> 0.27144922E+03</totfact>
</mgrwt>
</event>
<event>
 8    1  0.7550631E-006  0.1306011E+03  0.7546771E-02  0.1239875E+00
          1   -1    0    0  501    0  0.00000000000E+00  0.00000000000E+00  0.16194463004E+03  0.16194463004E+03  0.00000000000E+00 0. -1.
         -1   -1    0    0    0  501 -0.00000000000E+00 -0.00000000000E+00 -0.12580954893E+03  0.12580954893E+03  0.00000000000E+00 0.  1.
         23    2    1    2    0    0 -0.25804517790E+02  0.27149059958E+02 -0.68263410633E+02  0.12055462194E+03  0.92035748727E+02 0.  0.
         23    2    1    2    0    0  0.25804517790E+02 -0.27149059958E+02  0.10439849174E+03  0.16719955704E+03  0.12511475613E+03 0.  0.
          5    1    4    4  502    0  0.68267809190E+02 -0.18149342320E+02  0.22318580645E+02  0.74230057526E+02  0.47000000000E+01 0.  1.
         -5    1    4    4    0  502 -0.42463291400E+02 -0.89997176375E+01  0.82079911093E+02  0.92969499510E+02  0.47000000000E+01 0.  1.
        -11    1    3    3    0    0 -0.40945431299E+02 -0.13668668375E+02 -0.63467242616E+02  0.76755792776E+02  0.00000000000E+00 0. -1.
         11    1    3    3    0    0  0.15140913508E+02  0.40817728332E+02 -0.47961680162E+01  0.43798829159E+02  0.00000000000E+00 0.  1.
<mgrwt>
<rscale>  0 0.12197453E+03</rscale>
<asrwt>0</asrwt>
<pdfrwt beam="1">  1        1 0.24914558E-01 0.13060110E+03</pdfrwt>
<pdfrwt beam="2">  1       -1 0.19355315E-01 0.13060110E+03</pdfrwt>
<totfact> 0.39196029E+03</totfact>
</mgrwt>
</event>
<event>
 7    1  0.7550631E-006  0.1562023E+03  0.7546771E-02  0.1212781E+00
         -2   -1    0    0    0  501 -0.00000000000E+00  0.00000000000E+00  0.32773718867E+02  0.32773718867E+02  0.00000000000E+00 0.  1.
          2   -1    0    0  501    0  0.00000000000E+00 -0.00000000000E+00 -0.66777744900E+03  0.66777744900E+03  0.00000000000E+00 0. -1.
         23    2    1    2    0    0 -0.51089633155E+02 -0.65185466864E+01 -0.98538708827E+02  0.14180805620E+03  0.88017075609E+02 0.  0.
          5    1    1    2  502    0  0.15011935161E+02 -0.34295368822E+02 -0.47493034874E+03  0.47642675898E+03  0.47000000000E+01 0. -1.
         -5    1    1    2    0  502  0.36077697994E+02  0.40813915508E+02 -0.61534672567E+02  0.82316352686E+02  0.47000000000E+01 0.  1.
        -11    1    3    3    0    0  0.16450907648E+02 -0.24710707050E+02 -0.44154885640E+02  0.53206252746E+02  0.00000000000E+00 0. -1.
         11    1    3    3    0    0 -0.67540540804E+02  0.18192160364E+02 -0.54383823187E+02  0.88601803454E+02  0.00000000000E+00 0.  1.
<mgrwt>
<rscale>  0 0.14040831E+03</rscale>
<asrwt>0</asrwt>
<pdfrwt beam="2">  1        2 0.10273500E+00 0.15620226E+03</pdfrwt>
<pdfrwt beam="1">  1       -2 0.50421103E-02 0.15620226E+03</pdfrwt>
<totfact> 0.83104871E+03</totfact>
</mgrwt>
</event>
<event>
 8    1  0.7550631E-006  0.1254926E+03  0.7546771E-02  0.1249178E+00
          2   -1    0    0  501    0  0.00000000000E+00  0.00000000000E+00  0.21148445458E+02  0.21148445458E+02  0.00000000000E+00 0. -1.
         -2   -1    0    0    0  501 -0.00000000000E+00 -0.00000000000E+00 -0.56622336447E+03  0.56622336447E+03  0.00000000000E+00 0.  1.
         23    2    1    2    0    0  0.10688831704E+02  0.32489112084E+01 -0.25193750356E+03  0.26850201357E+03  0.92173852279E+02 0.  0.
         23    2    1    2    0    0 -0.10688831704E+02 -0.32489112084E+01 -0.29313741545E+03  0.31886979636E+03  0.12499438445E+03 0.  0.
          5    1    4    4  502    0  0.10122080697E+02  0.15894541625E+02 -0.28929812384E+03  0.28994928423E+03  0.47000000000E+01 0. -1.
         -5    1    4    4    0  502 -0.20810912401E+02 -0.19143452833E+02 -0.38392916111E+01  0.28920512122E+02  0.47000000000E+01 0. -1.
        -11    1    3    3    0    0  0.36633921934E+02  0.35447814691E+02 -0.15307810383E+03  0.16134279554E+03  0.00000000000E+00 0. -1.
         11    1    3    3    0    0 -0.25945090230E+02 -0.32198903482E+02 -0.98859399735E+02  0.10715921803E+03  0.00000000000E+00 0.  1.
<mgrwt>
<rscale>  0 0.11638776E+03</rscale>
<asrwt>0</asrwt>
<pdfrwt beam="1">  1        2 0.32536073E-02 0.12549264E+03</pdfrwt>
<pdfrwt beam="2">  1       -2 0.87111278E-01 0.12549264E+03</pdfrwt>
<totfact> 0.31268749E+03</totfact>
</mgrwt>
</event>
<event>
 7    1  0.7550631E-006  0.2427640E+03  0.7546771E-02  0.1117965E+00
          2   -1    0    0  501    0  0.00000000000E+00  0.00000000000E+00  0.26873137198E+03  0.26873137198E+03  0.00000000000E+00 0. -1.
         -2   -1    0    0    0  501 -0.00000000000E+00 -0.00000000000E+00 -0.54826447124E+02  0.54826447124E+02  0.00000000000E+00 0.  1.
         23    2    1    2    0    0 -0.22817914923E+02  0.25498903100E+02  0.73132127297E+02  0.12172668969E+03  0.91094608179E+02 0.  0.
          5    1    1    2  502    0  0.81485214917E+02 -0.16064148249E+02  0.97547882139E+02  0.12820131208E+03  0.47000000000E+01 0. -1.
         -5    1    1    2    0  502 -0.58667299995E+02 -0.94347548510E+01  0.43224915424E+02  0.73629817338E+02  0.47000000000E+01 0.  1.
        -11    1    3    3    0    0 -0.30672680493E+02 -0.11058393704E+02 -0.69567432452E+01  0.33339131310E+02  0.00000000000E+00 0.  1.
         11    1    3    3    0    0  0.78547655704E+01  0.36557296803E+02  0.80088870542E+02  0.88387558381E+02  0.00000000000E+00 0. -1.
<mgrwt>
<rscale>  0 0.24276397E+03</rscale>
<asrwt>0</asrwt>
<pdfrwt beam="1">  1        2 0.41343287E-01 0.24276397E+03</pdfrwt>
<pdfrwt beam="2">  1       -2 0.84348382E-02 0.24276397E+03</pdfrwt>
<totfact> 0.10547491E+04</totfact>
</mgrwt>
</event>
<event>
 8    1  0.7550631E-006  0.1320608E+03  0.7546771E-02  0.1234625E+00
         -2   -1    0    0    0  501 -0.00000000000E+00  0.00000000000E+00  0.26365583808E+02  0.26365583808E+02  0.00000000000E+00 0.  1.
          2   -1    0    0  501    0  0.00000000000E+00 -0.00000000000E+00 -0.56117587599E+03  0.56117587599E+03  0.00000000000E+00 0. -1.
         23    2    1    2    0    0  0.91142088038E+01  0.46766050229E+02 -0.18596925294E+03  0.21453994896E+03  0.95774184440E+02 0.  0.
         23    2    1    2    0    0 -0.91142088038E+01 -0.46766050229E+02 -0.34884103924E+03  0.37300151083E+03  0.12316624607E+03 0.  0.
          5    1    4    4  502    0 -0.66612457761E+01 -0.55488968502E+02 -0.35609135868E+03  0.36048098917E+03  0.47000000000E+01 0. -1.
         -5    1    4    4    0  502 -0.24529630277E+01  0.87229182724E+01  0.72503194445E+01  0.12520521668E+02  0.47000000000E+01 0.  1.
        -11    1    3    3    0    0 -0.43408749642E+02  0.19476001627E+02 -0.76329414187E+02  0.89943391391E+02  0.00000000000E+00 0.  1.
         11    1    3    3    0    0  0.52522958445E+02  0.27290048602E+02 -0.10963983875E+03  0.12459655757E+03  0.00000000000E+00 0. -1.
<mgrwt>
<rscale>  0 0.12528444E+03</rscale>
<asrwt>0</asrwt>
<pdfrwt beam="2">  1        2 0.86334756E-01 0.13206081E+03</pdfrwt>
<pdfrwt beam="1">  1       -2 0.40562434E-02 0.13206081E+03</pdfrwt>
<totfact> 0.13894434E+04</totfact>
</mgrwt>
</event>
<event>
 8    1  0.7550631E-006  0.1695736E+03  0.7546771E-02  0.1185187E+00
         -1   -1    0    0    0  501 -0.00000000000E+00  0.00000000000E+00  0.51165734779E+02  0.51165734779E+02  0.00000000000E+00 0.  1.
          1   -1    0    0  501    0  0.00000000000E+00 -0.00000000000E+00 -0.68646248222E+03  0.68646248222E+03  0.00000000000E+00 0. -1.
         23    2    1    2    0    0 -0.10897828069E+03 -0.35409518732E+02 -0.10070134038E+03  0.17678291241E+03  0.89338337171E+02 0.  0.
         23    2    1    2    0    0  0.10897828069E+03  0.35409518732E+02 -0.53459540706E+03  0.56084530459E+03  0.12500042698E+03 0.  0.
          5    1    4    4  502    0  0.23493625308E+02  0.43082070567E+02 -0.56060836732E+02  0.74652010352E+02  0.47000000000E+01 0.  1.
         -5    1    4    4    0  502  0.85484655380E+02 -0.76725518351E+01 -0.47853457033E+03  0.48619329423E+03  0.47000000000E+01 0.  1.
        -11    1    3    3    0    0 -0.57478409052E+02 -0.51025394060E+02 -0.19375760506E+02  0.79263979470E+02  0.00000000000E+00 0. -1.
         11    1    3    3    0    0 -0.51499871636E+02  0.15615875329E+02 -0.81325579871E+02  0.97518932942E+02  0.00000000000E+00 0.  1.
<mgrwt>
<rscale>  0 0.16314862E+03</rscale>
<asrwt>0</asrwt>
<pdfrwt beam="2">  1        1 0.10560961E+00 0.16957360E+03</pdfrwt>
<pdfrwt beam="1">  1       -1 0.78716517E-02 0.16957360E+03</pdfrwt>
<totfact> 0.25290099E+03</totfact>
</mgrwt>
</event>
<event>
 8    1  0.7550631E-006  0.1710394E+03  0.7546771E-02  0.1183020E+00
          2   -1    0    0  501    0  0.00000000000E+00  0.00000000000E+00  0.28594012816E+03  0.28594012816E+03  0.00000000000E+00 0.  1.
         -2   -1    0    0    0  501 -0.00000000000E+00 -0.00000000000E+00 -0.98737600762E+02  0.98737600762E+02  0.00000000000E+00 0. -1.
         23    2    1    2    0    0 -0.36506931068E+02  0.11088963514E+03  0.28435992022E+02  0.15130826678E+03  0.91958244623E+02 0.  0.
         23    2    1    2    0    0  0.36506931068E+02 -0.11088963514E+03  0.15876653538E+03  0.23336946215E+03  0.12500090364E+03 0.  0.
          5    1    4    4  502    0  0.27984555251E+02 -0.31487859102E+02  0.14641286175E+03  0.15242518391E+03  0.47000000000E+01 0. -1.
         -5    1    4    4    0  502  0.85223758167E+01 -0.79401776041E+02  0.12353673628E+02  0.80944278242E+02  0.47000000000E+01 0. -1.
        -11    1    3    3    0    0 -0.66958869672E+02  0.85901483468E+02  0.16575084663E+02  0.11016936290E+03  0.00000000000E+00 0.  1.
         11    1    3    3    0    0  0.30451938604E+02  0.24988151675E+02  0.11860907359E+02  0.41138903878E+02  0.00000000000E+00 0. -1.
<mgrwt>
<rscale>  0 0.16513375E+03</rscale>
<asrwt>0</asrwt>
<pdfrwt beam="1">  1        2 0.43990789E-01 0.17103945E+03</pdfrwt>
<pdfrwt beam="2">  1       -2 0.15190400E-01 0.17103945E+03</pdfrwt>
<totfact> 0.37652271E+03</totfact>
</mgrwt>
</event>
<event>
 8    1  0.7550631E-006  0.2385750E+03  0.7546771E-02  0.1122542E+00
          2   -1    0    0  501    0  0.00000000000E+00  0.00000000000E+00  0.12424244376E+03  0.12424244376E+03  0.00000000000E+00 0. -1.
         -2   -1    0    0    0  501 -0.00000000000E+00 -0.00000000000E+00 -0.61684669625E+03  0.61684669625E+03  0.00000000000E+00 0.  1.
         23    2    1    2    0    0  0.74340888234E+01  0.20307081156E+03 -0.44171909113E+03  0.49714786193E+03  0.10366880423E+03 0.  0.
         23    2    1    2    0    0 -0.74340888234E+01 -0.20307081156E+03 -0.50885161366E+02  0.24394127807E+03  0.12500010926E+03 0.  0.
          5    1    4    4  502    0  0.10295568830E+02 -0.18571466227E+03 -0.82457724360E+02  0.20351240952E+03  0.47000000000E+01 0. -1.
         -5    1    4    4    0  502 -0.17729657654E+02 -0.17356149294E+02  0.31572562994E+02  0.40428868558E+02  0.47000000000E+01 0. -1.
        -11    1    3    3    0    0  0.11424271085E+02  0.54785303067E+02 -0.24188152007E+03  0.24827124915E+03  0.00000000000E+00 0.  1.
         11    1    3    3    0    0 -0.39901822615E+01  0.14828550850E+03 -0.19983757106E+03  0.24887661279E+03  0.00000000000E+00 0. -1.
<mgrwt>
<rscale>  0 0.23591804E+03</rscale>
<asrwt>0</asrwt>
<pdfrwt beam="1">  1        2 0.19114222E-01 0.23857504E+03</pdfrwt>
<pdfrwt beam="2">  1       -2 0.94899492E-01 0.23857504E+03</pdfrwt>
<totfact> 0.28431330E+02</totfact>
</mgrwt>
</event>
<event>
 8    1  0.7550631E-006  0.1297341E+03  0.7546771E-02  0.1240961E+00
          1   -1    0    0  501    0  0.00000000000E+00  0.00000000000E+00  0.54824982913E+03  0.54824982913E+03  0.00000000000E+00 0. -1.
         -1   -1    0    0    0  501 -0.00000000000E+00 -0.00000000000E+00 -0.25369827390E+02  0.25369827390E+02  0.00000000000E+00 0.  1.
         23    2    1    2    0    0 -0.18774558553E+01 -0.34674815864E+02  0.15989576568E+03  0.18814786839E+03  0.92882166219E+02 0.  0.
         23    2    1    2    0    0  0.18774558553E+01  0.34674815864E+02  0.36298423606E+03  0.38547178813E+03  0.12500030448E+03 0.  0.
          5    1    4    4  502    0  0.14186268070E+02  0.20453232030E+02  0.36509286474E+03  0.36597059279E+03  0.47000000000E+01 0.  1.
         -5    1    4    4    0  502 -0.12308812215E+02  0.14221583833E+02 -0.21086286783E+01  0.19501195342E+02  0.47000000000E+01 0.  1.
        -11    1    3    3    0    0 -0.26270703028E+02 -0.73634593390E+01  0.34816270094E+01  0.27504401424E+02  0.00000000000E+00 0.  1.
         11    1    3    3    0    0  0.24393247173E+02 -0.27311356525E+02  0.15641413867E+03  0.16064346697E+03  0.00000000000E+00 0. -1.
<mgrwt>
<rscale>  0 0.12130431E+03</rscale>
<asrwt>0</asrwt>
<pdfrwt beam="1">  1        1 0.84346119E-01 0.12973413E+03</pdfrwt>
<pdfrwt beam="2">  1       -1 0.39030508E-02 0.12973413E+03</pdfrwt>
<totfact> 0.96719909E+03</totfact>
</mgrwt>
</event>
<event>
 8    1  0.7550631E-006  0.1453366E+03  0.7546771E-02  0.1216136E+00
         -1   -1    0    0    0  501 -0.00000000000E+00  0.00000000000E+00  0.34970286224E+02  0.34970286224E+02  0.00000000000E+00 0.  1.
          1   -1    0    0  501    0  0.00000000000E+00 -0.00000000000E+00 -0.54293738256E+03  0.54293738256E+03  0.00000000000E+00 0. -1.
         23    2    1    2    0    0 -0.19557913455E+02  0.71518494608E+02 -0.14478158126E+03  0.18672172871E+03  0.91683644390E+02 0.  0.
         23    2    1    2    0    0  0.19557913455E+02 -0.71518494608E+02 -0.36318551508E+03  0.39118594008E+03  0.12500125721E+03 0.  0.
          5    1    4    4  502    0 -0.18361998931E+02  0.17758672736E+02 -0.15619117816E+02  0.30308089736E+02  0.47000000000E+01 0. -1.
         -5    1    4    4    0  502  0.37919912385E+02 -0.89277167345E+02 -0.34756639726E+03  0.36087785034E+03  0.47000000000E+01 0. -1.
        -11    1    3    3    0    0  0.35282325967E+02  0.13477206040E+02 -0.52753891994E+02  0.64880279969E+02  0.00000000000E+00 0.  1.
         11    1    3    3    0    0 -0.54840239422E+02  0.58041288568E+02 -0.92027689269E+02  0.12184144874E+03  0.00000000000E+00 0. -1.
<mgrwt>
<rscale>  0 0.13793387E+03</rscale>
<asrwt>0</asrwt>
<pdfrwt beam="2">  1        1 0.83528827E-01 0.14533658E+03</pdfrwt>
<pdfrwt beam="1">  1       -1 0.53800441E-02 0.14533658E+03</pdfrwt>
<totfact> 0.61451013E+03</totfact>
</mgrwt>
</event>
<event>
 8    1  0.7550631E-006  0.1499804E+03  0.7546771E-02  0.1209930E+00
          1   -1    0    0  501    0  0.00000000000E+00  0.00000000000E+00  0.72697610844E+03  0.72697610844E+03  0.00000000000E+00 0. -1.
         -1   -1    0    0    0  501 -0.00000000000E+00 -0.00000000000E+00 -0.34540079675E+02  0.34540079675E+02  0.00000000000E+00 0.  1.
         23    2    1    2    0    0  0.14518287120E+02  0.81601586108E+02  0.12646388521E+03  0.17600907644E+03  0.90091515760E+02 0.  0.
         23    2    1    2    0    0 -0.14518287120E+02 -0.81601586108E+02  0.56597214356E+03  0.58550711167E+03  0.12499804406E+03 0.  0.
          5    1    4    4  502    0  0.48170074710E+02 -0.22012406186E+02  0.12075547814E+03  0.13194270584E+03  0.47000000000E+01 0. -1.
         -5    1    4    4    0  502 -0.62688361829E+02 -0.59589179923E+02  0.44521666541E+03  0.45356440583E+03  0.47000000000E+01 0. -1.
        -11    1    3    3    0    0 -0.26982729488E+02  0.42406494120E+02  0.10237930472E+03  0.11405218310E+03  0.00000000000E+00 0. -1.
         11    1    3    3    0    0  0.41501016607E+02  0.39195091988E+02  0.24084580482E+02  0.61956893340E+02  0.00000000000E+00 0.  1.
<mgrwt>
<rscale>  0 0.14255643E+03</rscale>
<asrwt>0</asrwt>
<pdfrwt beam="1">  1        1 0.11184247E+00 0.14998037E+03</pdfrwt>
<pdfrwt beam="2">  1       -1 0.53138589E-02 0.14998037E+03</pdfrwt>
<totfact> 0.41818437E+03</totfact>
</mgrwt>
</event>
<event>
 8    1  0.7550631E-006  0.1185591E+03  0.7546771E-02  0.1258803E+00
         -1   -1    0    0    0  501 -0.00000000000E+00  0.00000000000E+00  0.40878210193E+03  0.40878210193E+03  0.00000000000E+00 0.  1.
          1   -1    0    0  501    0  0.00000000000E+00 -0.00000000000E+00 -0.45022438856E+02  0.45022438856E+02  0.00000000000E+00 0. -1.
         23    2    1    2    0    0  0.12831088357E+02 -0.95178021092E+00  0.31101267136E+03  0.32404131466E+03  0.90046372194E+02 0.  0.
         23    2    1    2    0    0 -0.12831088357E+02  0.95178021092E+00  0.52746991711E+02  0.12976322612E+03  0.11785884356E+03 0.  0.
          5    1    4    4  502    0  0.29033620875E+02 -0.22021560833E+02 -0.20593559355E+02  0.42119888052E+02  0.47000000000E+01 0. -1.
         -5    1    4    4    0  502 -0.41864709232E+02  0.22973341044E+02  0.73340551066E+02  0.87643338072E+02  0.47000000000E+01 0.  1.
        -11    1    3    3    0    0  0.51293768892E+02 -0.11754603206E+01  0.20304111018E+03  0.20942331498E+03  0.00000000000E+00 0. -1.
         11    1    3    3    0    0 -0.38462680535E+02  0.22368010967E+00  0.10797156118E+03  0.11461799968E+03  0.00000000000E+00 0.  1.
<mgrwt>
<rscale>  0 0.11095957E+03</rscale>
<asrwt>0</asrwt>
<pdfrwt beam="2">  1        1 0.69265293E-02 0.11855906E+03</pdfrwt>
<pdfrwt beam="1">  1       -1 0.62889552E-01 0.11855906E+03</pdfrwt>
<totfact> 0.26945033E+03</totfact>
</mgrwt>
</event>
<event>
 8    1  0.7550631E-006  0.1499737E+03  0.7546771E-02  0.1209874E+00
         -3   -1    0    0    0  501 -0.00000000000E+00  0.00000000000E+00  0.21057366811E+03  0.21057366811E+03  0.00000000000E+00 0.  1.
          3   -1    0    0  501    0  0.00000000000E+00 -0.00000000000E+00 -0.89036817305E+02  0.89036817305E+02  0.00000000000E+00 0. -1.
         23    2    1    2    0    0 -0.72210034432E+02  0.40629792632E+02  0.69218170067E+02  0.14077293046E+03  0.90337111759E+02 0.  0.
         23    2    1    2    0    0  0.72210034432E+02 -0.40629792632E+02  0.52318680741E+02  0.15883755496E+03  0.12500822128E+03 0.  0.
          5    1    4    4  502    0 -0.29309826073E+02 -0.11877376883E+02 -0.13154292032E+02  0.34572581404E+02  0.47000000000E+01 0.  1.
         -5    1    4    4    0  502  0.10151986051E+03 -0.28752415749E+02  0.65472972774E+02  0.12426497355E+03  0.47000000000E+01 0.  1.
        -11    1    3    3    0    0 -0.87064371574E+02  0.10939144101E+02  0.39554370637E+02  0.96251846256E+02  0.00000000000E+00 0. -1.
         11    1    3    3    0    0  0.14854337142E+02  0.29690648532E+02  0.29663799430E+02  0.44521084205E+02  0.00000000000E+00 0.  1.
<mgrwt>
<rscale>  0 0.14259896E+03</rscale>
<asrwt>0</asrwt>
<pdfrwt beam="2">  1        3 0.13697972E-01 0.14997375E+03</pdfrwt>
<pdfrwt beam="1">  1       -3 0.32395949E-01 0.14997375E+03</pdfrwt>
<totfact> 0.94477910E+02</totfact>
</mgrwt>
</event>
<event>
 8    1  0.7550631E-006  0.1557588E+03  0.7546771E-02  0.1201789E+00
          2   -1    0    0  501    0  0.00000000000E+00  0.00000000000E+00  0.49574661655E+03  0.49574661655E+03  0.00000000000E+00 0.  1.
         -2   -1    0    0    0  501 -0.00000000000E+00 -0.00000000000E+00 -0.53467407005E+02  0.53467407005E+02  0.00000000000E+00 0. -1.
         23    2    1    2    0    0 -0.65925728352E+02 -0.65501905375E+02  0.74968033989E+02  0.15024247876E+03  0.91191529420E+02 0.  0.
         23    2    1    2    0    0  0.65925728352E+02  0.65501905375E+02  0.36731117555E+03  0.39897154479E+03  0.12499637034E+03 0.  0.
          5    1    4    4  502    0  0.76198111631E+02  0.51588379161E+02  0.36959291633E+03  0.38090487905E+03  0.47000000000E+01 0.  1.
         -5    1    4    4    0  502 -0.10272383280E+02  0.13913526215E+02 -0.22817407797E+01  0.18066665740E+02  0.47000000000E+01 0.  1.
        -11    1    3    3    0    0  0.13380003496E+02 -0.37390377656E+01  0.42339562644E+02  0.44560559488E+02  0.00000000000E+00 0.  1.
         11    1    3    3    0    0 -0.79305731848E+02 -0.61762867610E+02  0.32628471345E+02  0.10568191927E+03  0.00000000000E+00 0. -1.
<mgrwt>
<rscale>  0 0.14893402E+03</rscale>
<asrwt>0</asrwt>
<pdfrwt beam="1">  1        2 0.76268707E-01 0.15575877E+03</pdfrwt>
<pdfrwt beam="2">  1       -2 0.82257553E-02 0.15575877E+03</pdfrwt>
<totfact> 0.55149274E+03</totfact>
</mgrwt>
</event>
<event>
 8    1  0.7550631E-006  0.1525724E+03  0.7546771E-02  0.1205620E+00
          1   -1    0    0  501    0  0.00000000000E+00  0.00000000000E+00  0.46671533615E+03  0.46671533615E+03  0.00000000000E+00 0. -1.
         -1   -1    0    0    0  501 -0.00000000000E+00 -0.00000000000E+00 -0.52899711979E+02  0.52899711979E+02  0.00000000000E+00 0.  1.
         23    2    1    2    0    0  0.34114219386E+02 -0.80536456105E+02  0.74810799965E+02  0.14785892837E+03  0.92820828382E+02 0.  0.
         23    2    1    2    0    0 -0.34114219386E+02  0.80536456105E+02  0.33900482420E+03  0.37175611976E+03  0.12501376330E+03 0.  0.
          5    1    4    4  502    0 -0.37811399391E+02  0.31881716757E+02  0.28235705456E+02  0.57144473485E+02  0.47000000000E+01 0. -1.
         -5    1    4    4    0  502  0.36971800048E+01  0.48654739348E+02  0.31076911875E+03  0.31461164627E+03  0.47000000000E+01 0. -1.
        -11    1    3    3    0    0  0.66244638703E+02 -0.48516550291E+02  0.50430295624E+02  0.96360897286E+02  0.00000000000E+00 0.  1.
         11    1    3    3    0    0 -0.32130419317E+02 -0.32019905813E+02  0.24380504342E+02  0.51498031086E+02  0.00000000000E+00 0. -1.
<mgrwt>
<rscale>  0 0.14588673E+03</rscale>
<asrwt>0</asrwt>
<pdfrwt beam="1">  1        1 0.71802357E-01 0.15257241E+03</pdfrwt>
<pdfrwt beam="2">  1       -1 0.81384175E-02 0.15257241E+03</pdfrwt>
<totfact> 0.40379280E+03</totfact>
</mgrwt>
</event>
<event>
 8    1  0.7550631E-006  0.1401035E+03  0.7546771E-02  0.1224040E+00
         -1   -1    0    0    0  501 -0.00000000000E+00  0.00000000000E+00  0.28499436277E+02  0.28499436277E+02  0.00000000000E+00 0.  1.
          1   -1    0    0  501    0  0.00000000000E+00 -0.00000000000E+00 -0.61873828932E+03  0.61873828932E+03  0.00000000000E+00 0. -1.
         23    2    1    2    0    0  0.59732885179E+02  0.20983740990E+02 -0.16199397912E+03  0.19665736866E+03  0.91780915335E+02 0.  0.
         23    2    1    2    0    0 -0.59732885179E+02 -0.20983740990E+02 -0.42824487393E+03  0.45058035694E+03  0.12498260302E+03 0.  0.
          5    1    4    4  502    0 -0.80961018810E+02 -0.29391804651E+02 -0.41479092475E+03  0.42366515788E+03  0.47000000000E+01 0. -1.
         -5    1    4    4    0  502  0.21228133630E+02  0.84080636601E+01 -0.13453949177E+02  0.26915199059E+02  0.47000000000E+01 0. -1.
        -11    1    3    3    0    0  0.70869333587E+02  0.45203487612E+02 -0.13237728932E+03  0.15681060061E+03  0.00000000000E+00 0. -1.
         11    1    3    3    0    0 -0.11136448407E+02 -0.24219746622E+02 -0.29616689794E+02  0.39846768048E+02  0.00000000000E+00 0.  1.
<mgrwt>
<rscale>  0 0.13232888E+03</rscale>
<asrwt>0</asrwt>
<pdfrwt beam="2">  1        1 0.95190498E-01 0.14010348E+03</pdfrwt>
<pdfrwt beam="1">  1       -1 0.43845290E-02 0.14010348E+03</pdfrwt>
<totfact> 0.69571002E+03</totfact>
</mgrwt>
</event>
<event>
 8    1  0.7550631E-006  0.1577127E+03  0.7546771E-02  0.1199200E+00
          2   -1    0    0  501    0  0.00000000000E+00  0.00000000000E+00  0.91476090192E+03  0.91476090192E+03  0.00000000000E+00 0. -1.
         -2   -1    0    0    0  501 -0.00000000000E+00 -0.00000000000E+00 -0.23517253552E+02  0.23517253552E+02  0.00000000000E+00 0.  1.
         23    2    1    2    0    0 -0.39781415675E+02  0.87575002447E+02  0.34171434326E+03  0.36656516098E+03  0.91374957025E+02 0.  0.
         23    2    1    2    0    0  0.39781415675E+02 -0.87575002447E+02  0.54952930511E+03  0.57171299449E+03  0.12498539437E+03 0.  0.
          5    1    4    4  502    0  0.27350816497E+02 -0.11563917185E+03  0.49378396419E+03  0.50790272545E+03  0.47000000000E+01 0.  1.
         -5    1    4    4    0  502  0.12430599178E+02  0.28064169405E+02  0.55745340917E+02  0.63810269034E+02  0.47000000000E+01 0.  1.
        -11    1    3    3    0    0  0.13937232202E+02  0.33020034486E+02  0.33764490929E+02  0.49240328660E+02  0.00000000000E+00 0.  1.
         11    1    3    3    0    0 -0.53718647877E+02  0.54554967961E+02  0.30794985233E+03  0.31732483232E+03  0.00000000000E+00 0. -1.
<mgrwt>
<rscale>  0 0.15104040E+03</rscale>
<asrwt>0</asrwt>
<pdfrwt beam="1">  1        2 0.14073242E+00 0.15771268E+03</pdfrwt>
<pdfrwt beam="2">  1       -2 0.36180397E-02 0.15771268E+03</pdfrwt>
<totfact> 0.92357486E+03</totfact>
</mgrwt>
</event>
<event>
 8    1  0.7550631E-006  0.1284706E+03  0.7546771E-02  0.1245334E+00
         -2   -1    0    0    0  501 -0.00000000000E+00  0.00000000000E+00  0.37322915836E+03  0.37322915836E+03  0.00000000000E+00 0.  1.
          2   -1    0    0  501    0  0.00000000000E+00 -0.00000000000E+00 -0.36240023157E+02  0.36240023157E+02  0.00000000000E+00 0. -1.
         23    2    1    2    0    0 -0.55820261567E+01 -0.28839611727E+02  0.20485291638E+03  0.22517413875E+03  0.88745665765E+02 0.  0.
         23    2    1    2    0    0  0.55820261567E+01  0.28839611727E+02  0.13213621883E+03  0.18429504277E+03  0.12506718292E+03 0.  0.
          5    1    4    4  502    0  0.69658237078E+01 -0.47315900505E+02  0.29468727870E+02  0.56372094717E+02  0.47000000000E+01 0.  1.
         -5    1    4    4    0  502 -0.13837975510E+01  0.76155512231E+02  0.10266749096E+03  0.12792294805E+03  0.47000000000E+01 0.  1.
        -11    1    3    3    0    0 -0.36975566614E+02 -0.43126444032E+02  0.10282325203E+03  0.11747214078E+03  0.00000000000E+00 0. -1.
         11    1    3    3    0    0  0.31393540457E+02  0.14286832305E+02  0.10202966434E+03  0.10770199796E+03  0.00000000000E+00 0.  1.
<mgrwt>
<rscale>  0 0.11865428E+03</rscale>
<asrwt>0</asrwt>
<pdfrwt beam="2">  1        2 0.55753884E-02 0.12847055E+03</pdfrwt>
<pdfrwt beam="1">  1       -2 0.57419868E-01 0.12847055E+03</pdfrwt>
<totfact> 0.37420014E+03</totfact>
</mgrwt>
</event>
<event>
 8    1  0.7550631E-006  0.2126633E+03  0.7546771E-02  0.1143255E+00
         -2   -1    0    0    0  501 -0.00000000000E+00  0.00000000000E+00  0.22795188808E+03  0.22795188808E+03  0.00000000000E+00 0.  1.
          2   -1    0    0  501    0  0.00000000000E+00 -0.00000000000E+00 -0.18162402838E+03  0.18162402838E+03  0.00000000000E+00 0. -1.
         23    2    1    2    0    0 -0.17103945104E+03  0.18656214517E+02  0.26922093508E+02  0.19602904459E+03  0.90000216957E+02 0.  0.
         23    2    1    2    0    0  0.17103945104E+03 -0.18656214517E+02  0.19405766188E+02  0.21354687187E+03  0.12499253807E+03 0.  0.
          5    1    4    4  502    0  0.74475468152E+02  0.42493102601E+02  0.44073477443E+02  0.96523678644E+02  0.47000000000E+01 0. -1.
         -5    1    4    4    0  502  0.96563982885E+02 -0.61149317118E+02 -0.24667711255E+02  0.11702319323E+03  0.47000000000E+01 0. -1.
        -11    1    3    3    0    0 -0.13688985143E+03  0.32866531783E+02 -0.13273823983E+02  0.14140450749E+03  0.00000000000E+00 0. -1.
         11    1    3    3    0    0 -0.34149599608E+02 -0.14210317266E+02  0.40195917490E+02  0.54624537097E+02  0.00000000000E+00 0.  1.
<mgrwt>
<rscale>  0 0.20788149E+03</rscale>
<asrwt>0</asrwt>
<pdfrwt beam="2">  1        2 0.27942158E-01 0.21266331E+03</pdfrwt>
<pdfrwt beam="1">  1       -2 0.35069521E-01 0.21266331E+03</pdfrwt>
<totfact> 0.14423093E+03</totfact>
</mgrwt>
</event>
<event>
 8    1  0.7550631E-006  0.1331439E+03  0.7546771E-02  0.1235624E+00
         -2   -1    0    0    0  501 -0.00000000000E+00  0.00000000000E+00  0.25715535460E+02  0.25715535460E+02  0.00000000000E+00 0.  1.
          2   -1    0    0  501    0  0.00000000000E+00 -0.00000000000E+00 -0.55017083831E+03  0.55017083831E+03  0.00000000000E+00 0. -1.
         23    2    1    2    0    0 -0.28625859439E+02  0.35801398613E+02 -0.18745880507E+03  0.21354131281E+03  0.91421598702E+02 0.  0.
         23    2    1    2    0    0  0.28625859439E+02 -0.35801398613E+02 -0.33699649778E+03  0.36234506096E+03  0.12500449476E+03 0.  0.
          5    1    4    4  502    0 -0.15666972411E+01 -0.59903104504E+02 -0.68879550119E+02  0.91418372847E+02  0.47000000000E+01 0. -1.
         -5    1    4    4    0  502  0.30192556680E+02  0.24101705890E+02 -0.26811694766E+03  0.27092668811E+03  0.47000000000E+01 0. -1.
        -11    1    3    3    0    0 -0.12121683258E+02  0.61817965319E+02 -0.16115669030E+03  0.17303142740E+03  0.00000000000E+00 0. -1.
         11    1    3    3    0    0 -0.16504176181E+02 -0.26016566706E+02 -0.26302114770E+02  0.40509885410E+02  0.00000000000E+00 0.  1.
<mgrwt>
<rscale>  0 0.12464583E+03</rscale>
<asrwt>0</asrwt>
<pdfrwt beam="2">  1        2 0.84641666E-01 0.13314392E+03</pdfrwt>
<pdfrwt beam="1">  1       -2 0.39562363E-02 0.13314392E+03</pdfrwt>
<totfact> 0.14751215E+04</totfact>
</mgrwt>
</event>
<event>
 7    1  0.7550631E-006  0.1436494E+03  0.7546771E-02  0.1239944E+00
          2   -1    0    0  501    0  0.00000000000E+00  0.00000000000E+00  0.50006256275E+03  0.50006256275E+03  0.00000000000E+00 0. -1.
         -2   -1    0    0    0  501 -0.00000000000E+00 -0.00000000000E+00 -0.36945271506E+02  0.36945271506E+02  0.00000000000E+00 0.  1.
         23    2    1    2    0    0  0.33052973519E+02  0.62591447145E+02  0.43365763178E+03  0.45683046913E+03  0.12499979044E+03 0.  0.
          5    1    3    3  502    0  0.44699730033E+01  0.89560822084E+02  0.37810293517E+03  0.38861940391E+03  0.47000000000E+01 0.  1.
         -5    1    3    3    0  502  0.28583000516E+02 -0.26969374939E+02  0.55554696612E+02  0.68211065222E+02  0.47000000000E+01 0.  1.
        -11    1    1    2    0    0 -0.28639399290E+02 -0.29253316305E+02  0.15931897669E+02  0.43929455606E+02  0.00000000000E+00 0. -1.
         11    1    1    2    0    0 -0.44135742294E+01 -0.33338130840E+02  0.13527761796E+02  0.36247909521E+02  0.00000000000E+00 0.  1.
<mgrwt>
<rscale>  0 0.12193190E+03</rscale>
<asrwt>0</asrwt>
<pdfrwt beam="1">  1        2 0.76932697E-01 0.14364935E+03</pdfrwt>
<pdfrwt beam="2">  1       -2 0.56838883E-02 0.14364935E+03</pdfrwt>
<totfact> 0.95786262E+03</totfact>
</mgrwt>
</event>
<event>
 8    1  0.7550631E-006  0.1479560E+03  0.7546771E-02  0.1213021E+00
         -4   -1    0    0    0  501 -0.00000000000E+00  0.00000000000E+00  0.50617790815E+02  0.50617790815E+02  0.00000000000E+00 0.  1.
          4   -1    0    0  501    0  0.00000000000E+00 -0.00000000000E+00 -0.35852678246E+03  0.35852678246E+03  0.00000000000E+00 0. -1.
         23    2    1    2    0    0 -0.47630260127E+01 -0.79024312242E+02 -0.11248788791E+03  0.16403155337E+03  0.89360490339E+02 0.  0.
         23    2    1    2    0    0  0.47630260127E+01  0.79024312242E+02 -0.19542110374E+03  0.24511301990E+03  0.12499382544E+03 0.  0.
          5    1    4    4  502    0  0.96515364205E+01 -0.26930005375E+02 -0.93680833474E+02  0.98064090803E+02  0.47000000000E+01 0.  1.
         -5    1    4    4    0  502 -0.48885104077E+01  0.10595431762E+03 -0.10174027026E+03  0.14704892910E+03  0.47000000000E+01 0.  1.
        -11    1    3    3    0    0  0.37845503426E+02 -0.56128275230E+02 -0.46143245543E+02  0.81925969747E+02  0.00000000000E+00 0.  1.
         11    1    3    3    0    0 -0.42608529439E+02 -0.22896037012E+02 -0.66344642365E+02  0.82105583625E+02  0.00000000000E+00 0. -1.
<mgrwt>
<rscale>  0 0.14022876E+03</rscale>
<asrwt>0</asrwt>
<pdfrwt beam="2">  1        4 0.55157967E-01 0.14795602E+03</pdfrwt>
<pdfrwt beam="1">  1       -4 0.77873523E-02 0.14795602E+03</pdfrwt>
<totfact> 0.61636795E+02</totfact>
</mgrwt>
</event>
<event>
 8    1  0.7550631E-006  0.1271786E+03  0.7546771E-02  0.1246234E+00
         -1   -1    0    0    0  501 -0.00000000000E+00  0.00000000000E+00  0.64412175698E+02  0.64412175698E+02  0.00000000000E+00 0.  1.
          1   -1    0    0  501    0  0.00000000000E+00 -0.00000000000E+00 -0.21143805423E+03  0.21143805423E+03  0.00000000000E+00 0. -1.
         23    2    1    2    0    0  0.10237514946E+02  0.21087898147E+02 -0.21258230724E+02  0.96987459550E+02  0.91679598472E+02 0.  0.
         23    2    1    2    0    0 -0.10237514946E+02 -0.21087898147E+02 -0.12576764781E+03  0.17886277037E+03  0.12499953292E+03 0.  0.
          5    1    4    4  502    0  0.12417867484E+02 -0.66173871481E+02 -0.37839119191E+02  0.77376182646E+02  0.47000000000E+01 0. -1.
         -5    1    4    4    0  502 -0.22655382430E+02  0.45085973334E+02 -0.87928528615E+02  0.10148658773E+03  0.47000000000E+01 0. -1.
        -11    1    3    3    0    0  0.15622029207E+02  0.55020106578E+02 -0.12071938839E+01  0.57207667681E+02  0.00000000000E+00 0. -1.
         11    1    3    3    0    0 -0.53845142605E+01 -0.33932208431E+02 -0.20051036840E+02  0.39779791870E+02  0.00000000000E+00 0.  1.
<mgrwt>
<rscale>  0 0.11811813E+03</rscale>
<asrwt>0</asrwt>
<pdfrwt beam="2">  1        1 0.32528932E-01 0.12717857E+03</pdfrwt>
<pdfrwt beam="1">  1       -1 0.99095652E-02 0.12717857E+03</pdfrwt>
<totfact> 0.79634790E+03</totfact>
</mgrwt>
</event>
<event>
 8    1  0.7550631E-006  0.1369637E+03  0.7546771E-02  0.1229953E+00
         -2   -1    0    0    0  501 -0.00000000000E+00  0.00000000000E+00  0.17317763679E+03  0.17317763679E+03  0.00000000000E+00 0.  1.
          2   -1    0    0  501    0  0.00000000000E+00 -0.00000000000E+00 -0.92442866612E+02  0.92442866612E+02  0.00000000000E+00 0. -1.
         23    2    1    2    0    0 -0.51806589377E+02  0.20424425647E+02  0.73181656873E+02  0.12844868607E+03  0.89679597375E+02 0.  0.
         23    2    1    2    0    0  0.51806589377E+02 -0.20424425647E+02  0.75531133051E+01  0.13717181733E+03  0.12513184280E+03 0.  0.
          5    1    4    4  502    0  0.41183593242E+02  0.22316187863E+02  0.54911990439E+02  0.72329228443E+02  0.47000000000E+01 0.  1.
         -5    1    4    4    0  502  0.10622996135E+02 -0.42740613510E+02 -0.47358877134E+02  0.64842588887E+02  0.47000000000E+01 0.  1.
        -11    1    3    3    0    0  0.12058768496E+00  0.47104681168E+02  0.35133636294E+02  0.58764257237E+02  0.00000000000E+00 0.  1.
         11    1    3    3    0    0 -0.51927177062E+02 -0.26680255521E+02  0.38048020579E+02  0.69684428837E+02  0.00000000000E+00 0. -1.
<mgrwt>
<rscale>  0 0.12833109E+03</rscale>
<asrwt>0</asrwt>
<pdfrwt beam="2">  1        2 0.14221980E-01 0.13696371E+03</pdfrwt>
<pdfrwt beam="1">  1       -2 0.26642713E-01 0.13696371E+03</pdfrwt>
<totfact> 0.50222590E+03</totfact>
</mgrwt>
</event>
<event>
 8    1  0.7550631E-006  0.1762453E+03  0.7546771E-02  0.1177419E+00
          2   -1    0    0  501    0  0.00000000000E+00  0.00000000000E+00  0.11593977459E+04  0.11593977459E+04  0.00000000000E+00 0. -1.
         -2   -1    0    0    0  501 -0.00000000000E+00 -0.00000000000E+00 -0.23891443037E+02  0.23891443037E+02  0.00000000000E+00 0.  1.
         23    2    1    2    0    0 -0.17670337248E+02 -0.12297525214E+03  0.45689048525E+03  0.48216022440E+03  0.91073668079E+02 0.  0.
         23    2    1    2    0    0  0.17670337248E+02  0.12297525214E+03  0.67861581764E+03  0.70112896457E+03  0.12500897389E+03 0.  0.
          5    1    4    4  502    0 -0.36741147517E+02  0.98603149271E+02  0.30309425625E+03  0.32087491510E+03  0.47000000000E+01 0.  1.
         -5    1    4    4    0  502  0.54411484765E+02  0.24372102870E+02  0.37552156139E+03  0.38025404947E+03  0.47000000000E+01 0.  1.
        -11    1    3    3    0    0  0.20911836910E+02 -0.80993087713E+02  0.16772617830E+03  0.18742800236E+03  0.00000000000E+00 0.  1.
         11    1    3    3    0    0 -0.38582174157E+02 -0.41982164428E+02  0.28916430695E+03  0.29473222204E+03  0.00000000000E+00 0. -1.
<mgrwt>
<rscale>  0 0.17041167E+03</rscale>
<asrwt>0</asrwt>
<pdfrwt beam="1">  1        2 0.17836884E+00 0.17624528E+03</pdfrwt>
<pdfrwt beam="2">  1       -2 0.36756075E-02 0.17624528E+03</pdfrwt>
<totfact> 0.64853734E+03</totfact>
</mgrwt>
</event>
<event>
 8    1  0.7550631E-006  0.2046642E+03  0.7546771E-02  0.1149801E+00
         -1   -1    0    0    0  501 -0.00000000000E+00  0.00000000000E+00  0.16719035237E+03  0.16719035237E+03  0.00000000000E+00 0.  1.
          1   -1    0    0  501    0  0.00000000000E+00 -0.00000000000E+00 -0.24150824244E+03  0.24150824244E+03  0.00000000000E+00 0. -1.
         23    2    1    2    0    0 -0.72302407056E+02 -0.14503840841E+03  0.11621901256E+02  0.18672315982E+03  0.92014628415E+02 0.  0.
         23    2    1    2    0    0  0.72302407056E+02  0.14503840841E+03 -0.85939791323E+02  0.22197543499E+03  0.12499467200E+03 0.  0.
          5    1    4    4  502    0  0.10380986915E+03  0.98800702721E+02 -0.38495744268E+02  0.14846575402E+03  0.47000000000E+01 0. -1.
         -5    1    4    4    0  502 -0.31507462095E+02  0.46237705692E+02 -0.47444047055E+02  0.73509680970E+02  0.47000000000E+01 0. -1.
        -11    1    3    3    0    0 -0.22664706032E+02  0.65298914167E+01 -0.10294007351E+02  0.25735092166E+02  0.00000000000E+00 0. -1.
         11    1    3    3    0    0 -0.49637701024E+02 -0.15156829983E+03  0.21915908606E+02  0.16098806765E+03  0.00000000000E+00 0.  1.
<mgrwt>
<rscale>  0 0.19992647E+03</rscale>
<asrwt>0</asrwt>
<pdfrwt beam="2">  1        1 0.37155114E-01 0.20466423E+03</pdfrwt>
<pdfrwt beam="1">  1       -1 0.25721593E-01 0.20466423E+03</pdfrwt>
<totfact> 0.15212207E+03</totfact>
</mgrwt>
</event>
<event>
 8    1  0.7550631E-006  0.1381496E+03  0.7546771E-02  0.1225111E+00
          2   -1    0    0  501    0  0.00000000000E+00  0.00000000000E+00  0.72042014572E+03  0.72042014572E+03  0.00000000000E+00 0. -1.
         -2   -1    0    0    0  501 -0.00000000000E+00 -0.00000000000E+00 -0.25094641821E+02  0.25094641821E+02  0.00000000000E+00 0.  1.
         23    2    1    2    0    0 -0.27374242553E+02  0.52062217685E+02  0.18808319554E+03  0.21979616458E+03  0.97340853987E+02 0.  0.
         23    2    1    2    0    0  0.27374242553E+02 -0.52062217685E+02  0.50724230836E+03  0.52571862296E+03  0.12500194987E+03 0.  0.
          5    1    4    4  502    0 -0.23587531189E+02 -0.59671911950E+02  0.41498768627E+03  0.41994520888E+03  0.47000000000E+01 0.  1.
         -5    1    4    4    0  502  0.50961773742E+02  0.76096942655E+01  0.92254622095E+02  0.10577341409E+03  0.47000000000E+01 0.  1.
        -11    1    3    3    0    0 -0.76363813806E+01  0.64094821789E+02  0.18565102892E+03  0.19655219419E+03  0.00000000000E+00 0. -1.
         11    1    3    3    0    0 -0.19737861172E+02 -0.12032604104E+02  0.24321666179E+01  0.23243970393E+02  0.00000000000E+00 0.  1.
<mgrwt>
<rscale>  0 0.13159315E+03</rscale>
<asrwt>0</asrwt>
<pdfrwt beam="1">  1        2 0.11083385E+00 0.13814960E+03</pdfrwt>
<pdfrwt beam="2">  1       -2 0.38607147E-02 0.13814960E+03</pdfrwt>
<totfact> 0.11237089E+04</totfact>
</mgrwt>
</event>
<event>
 8    1  0.7550631E-006  0.2300716E+03  0.7546771E-02  0.1128833E+00
         -1   -1    0    0    0  501 -0.00000000000E+00  0.00000000000E+00  0.62767890990E+03  0.62767890990E+03  0.00000000000E+00 0.  1.
          1   -1    0    0  501    0  0.00000000000E+00 -0.00000000000E+00 -0.14919863416E+03  0.14919863416E+03  0.00000000000E+00 0. -1.
         23    2    1    2    0    0  0.15265094854E+03 -0.11834287122E+03  0.50046450556E+03  0.54575801060E+03  0.10039789608E+03 0.  0.
         23    2    1    2    0    0 -0.15265094854E+03  0.11834287122E+03 -0.21984229821E+02  0.23111953346E+03  0.12500234048E+03 0.  0.
          5    1    4    4  502    0 -0.34473406366E+02  0.39855589011E+02  0.49269790850E+02  0.72294439705E+02  0.47000000000E+01 0.  1.
         -5    1    4    4    0  502 -0.11817754218E+03  0.78487282214E+02 -0.71254020671E+02  0.15882509376E+03  0.47000000000E+01 0.  1.
        -11    1    3    3    0    0  0.15673762217E+03 -0.93489968371E+02  0.36626269606E+03  0.40921317051E+03  0.00000000000E+00 0. -1.
         11    1    3    3    0    0 -0.40866736223E+01 -0.24852902853E+02  0.13420180950E+03  0.13654484009E+03  0.00000000000E+00 0.  1.
<mgrwt>
<rscale>  0 0.22691057E+03</rscale>
<asrwt>0</asrwt>
<pdfrwt beam="2">  1        1 0.22953636E-01 0.23007158E+03</pdfrwt>
<pdfrwt beam="1">  1       -1 0.96565985E-01 0.23007158E+03</pdfrwt>
<totfact> 0.23461086E+02</totfact>
</mgrwt>
</event>
<event>
 8    1  0.7550631E-006  0.1250560E+03  0.7546771E-02  0.1265091E+00
         -2   -1    0    0    0  501 -0.00000000000E+00  0.00000000000E+00  0.46093842945E+02  0.46093842945E+02  0.00000000000E+00 0.  1.
          2   -1    0    0  501    0  0.00000000000E+00 -0.00000000000E+00 -0.21015403546E+03  0.21015403546E+03  0.00000000000E+00 0. -1.
         23    2    1    2    0    0 -0.34636004690E+01 -0.21356783499E+01 -0.36607095667E+02  0.77688949826E+02  0.68402747180E+02 0.  0.
         23    2    1    2    0    0  0.34636004690E+01  0.21356783499E+01 -0.12745309685E+03  0.17855892858E+03  0.12498976530E+03 0.  0.
          5    1    4    4  502    0 -0.14769462128E+02  0.58973256182E+02 -0.41313167074E+02  0.73653579207E+02  0.47000000000E+01 0. -1.
         -5    1    4    4    0  502  0.18233062597E+02 -0.56837577832E+02 -0.86139929773E+02  0.10490534937E+03  0.47000000000E+01 0. -1.
        -11    1    3    3    0    0  0.35145414994E+01  0.98262621481E+01  0.18297743184E+02  0.21064539762E+02  0.00000000000E+00 0.  1.
         11    1    3    3    0    0 -0.69781419683E+01 -0.11961940498E+02 -0.54904838851E+02  0.56624410064E+02  0.00000000000E+00 0. -1.
<mgrwt>
<rscale>  0 0.10759411E+03</rscale>
<asrwt>0</asrwt>
<pdfrwt beam="2">  1        2 0.32331391E-01 0.12505598E+03</pdfrwt>
<pdfrwt beam="1">  1       -2 0.70913603E-02 0.12505598E+03</pdfrwt>
<totfact> 0.17084854E+04</totfact>
</mgrwt>
</event>
<event>
 8    1  0.7550631E-006  0.1266492E+03  0.7546771E-02  0.1247510E+00
          2   -1    0    0  501    0  0.00000000000E+00  0.00000000000E+00  0.49668635359E+03  0.49668635359E+03  0.00000000000E+00 0. -1.
         -2   -1    0    0    0  501 -0.00000000000E+00 -0.00000000000E+00 -0.29080452183E+02  0.29080452183E+02  0.00000000000E+00 0.  1.
         23    2    1    2    0    0  0.34490434498E+00  0.20413338826E+02  0.99424290209E+02  0.13641129985E+03  0.91137423065E+02 0.  0.
         23    2    1    2    0    0 -0.34490434498E+00 -0.20413338826E+02  0.36818161119E+03  0.38935550592E+03  0.12499275101E+03 0.  0.
          5    1    4    4  502    0  0.30080472595E+02 -0.48983060898E+02  0.82839143585E+02  0.10093853970E+03  0.47000000000E+01 0.  1.
         -5    1    4    4    0  502 -0.30425376940E+02  0.28569722072E+02  0.28534246761E+03  0.28841696622E+03  0.47000000000E+01 0.  1.
        -11    1    3    3    0    0  0.34506038769E+02 -0.81505954685E+01  0.80623964689E+02  0.88075664063E+02  0.00000000000E+00 0. -1.
         11    1    3    3    0    0 -0.34161134424E+02  0.28563934295E+02  0.18800325520E+02  0.48335635790E+02  0.00000000000E+00 0.  1.
<mgrwt>
<rscale>  0 0.11736378E+03</rscale>
<asrwt>0</asrwt>
<pdfrwt beam="1">  1        2 0.76413279E-01 0.12664917E+03</pdfrwt>
<pdfrwt beam="2">  1       -2 0.44739161E-02 0.12664917E+03</pdfrwt>
<totfact> 0.13699884E+04</totfact>
</mgrwt>
</event>
<event>
 8    1  0.7550631E-006  0.1278195E+03  0.7546771E-02  0.1246216E+00
         -2   -1    0    0    0  501 -0.00000000000E+00  0.00000000000E+00  0.21395429596E+03  0.21395429596E+03  0.00000000000E+00 0.  1.
          2   -1    0    0  501    0  0.00000000000E+00 -0.00000000000E+00 -0.65588431034E+02  0.65588431034E+02  0.00000000000E+00 0. -1.
         23    2    1    2    0    0 -0.17249789876E+02 -0.20366401599E+02  0.11381532971E+03  0.14713594242E+03  0.89346016749E+02 0.  0.
         23    2    1    2    0    0  0.17249789876E+02  0.20366401599E+02  0.34550535212E+02  0.13240678457E+03  0.12500188620E+03 0.  0.
          5    1    4    4  502    0  0.35290507999E+01  0.24250355714E+02 -0.44998201137E+02  0.51453494122E+02  0.47000000000E+01 0. -1.
         -5    1    4    4    0  502  0.13720739076E+02 -0.38839541147E+01  0.79548736349E+02  0.80953290452E+02  0.47000000000E+01 0. -1.
        -11    1    3    3    0    0  0.10942350426E+02  0.20974091656E+02  0.95020010772E+00  0.23675946314E+02  0.00000000000E+00 0. -1.
         11    1    3    3    0    0 -0.28192140302E+02 -0.41340493255E+02  0.11286512960E+03  0.12345999610E+03  0.00000000000E+00 0.  1.
<mgrwt>
<rscale>  0 0.11812908E+03</rscale>
<asrwt>0</asrwt>
<pdfrwt beam="2">  1        2 0.10090528E-01 0.12781947E+03</pdfrwt>
<pdfrwt beam="1">  1       -2 0.32916045E-01 0.12781947E+03</pdfrwt>
<totfact> 0.51658509E+03</totfact>
</mgrwt>
</event>
<event>
 8    1  0.7550631E-006  0.1442134E+03  0.7546771E-02  0.1216515E+00
          1   -1    0    0  501    0  0.00000000000E+00  0.00000000000E+00  0.44686063243E+03  0.44686063243E+03  0.00000000000E+00 0. -1.
         -1   -1    0    0    0  501 -0.00000000000E+00 -0.00000000000E+00 -0.40824331856E+02  0.40824331856E+02  0.00000000000E+00 0.  1.
         23    2    1    2    0    0  0.56464647085E+02 -0.44535856923E+02  0.13334709039E+03  0.17920984333E+03  0.95723677901E+02 0.  0.
         23    2    1    2    0    0 -0.56464647085E+02  0.44535856923E+02  0.27268921019E+03  0.30847512095E+03  0.12500318385E+03 0.  0.
          5    1    4    4  502    0 -0.78691056497E+01 -0.39679069089E+02  0.12606545575E+03  0.13247996257E+03  0.47000000000E+01 0.  1.
         -5    1    4    4    0  502 -0.48595541435E+02  0.84214926012E+02  0.14662375443E+03  0.17599515838E+03  0.47000000000E+01 0.  1.
        -11    1    3    3    0    0  0.57154789768E+02 -0.70200090229E+02  0.11987693874E+03  0.15021718645E+03  0.00000000000E+00 0. -1.
         11    1    3    3    0    0 -0.69014268301E+00  0.25664233306E+02  0.13470151645E+02  0.28992656888E+02  0.00000000000E+00 0.  1.
<mgrwt>
<rscale>  0 0.13765842E+03</rscale>
<asrwt>0</asrwt>
<pdfrwt beam="1">  1        1 0.68747786E-01 0.14421337E+03</pdfrwt>
<pdfrwt beam="2">  1       -1 0.62806667E-02 0.14421337E+03</pdfrwt>
<totfact> 0.62874990E+03</totfact>
</mgrwt>
</event>
<event>
 8    1  0.7550631E-006  0.1553369E+03  0.7546771E-02  0.1202285E+00
          1   -1    0    0  501    0  0.00000000000E+00  0.00000000000E+00  0.41082726919E+03  0.41082726919E+03  0.00000000000E+00 0. -1.
         -1   -1    0    0    0  501 -0.00000000000E+00 -0.00000000000E+00 -0.52319660255E+02  0.52319660255E+02  0.00000000000E+00 0.  1.
         23    2    1    2    0    0  0.91442524498E+02  0.12335580122E+02  0.11053288904E+03  0.17053626351E+03  0.91384877244E+02 0.  0.
         23    2    1    2    0    0 -0.91442524498E+02 -0.12335580122E+02  0.24797471990E+03  0.29261066594E+03  0.12496254754E+03 0.  0.
          5    1    4    4  502    0  0.17990562271E+02  0.23036340278E+02  0.10481959968E+03  0.10892002470E+03  0.47000000000E+01 0.  1.
         -5    1    4    4    0  502 -0.10943308677E+03 -0.35371920400E+02  0.14315512022E+03  0.18369064124E+03  0.47000000000E+01 0.  1.
        -11    1    3    3    0    0  0.10818582781E+03  0.14086306397E+02  0.78687961528E+02  0.13451539933E+03  0.00000000000E+00 0.  1.
         11    1    3    3    0    0 -0.16743303312E+02 -0.17507262742E+01  0.31844927509E+02  0.36020864181E+02  0.00000000000E+00 0. -1.
<mgrwt>
<rscale>  0 0.14853524E+03</rscale>
<asrwt>0</asrwt>
<pdfrwt beam="1">  1        1 0.63204193E-01 0.15533686E+03</pdfrwt>
<pdfrwt beam="2">  1       -1 0.80491788E-02 0.15533686E+03</pdfrwt>
<totfact> 0.48389655E+03</totfact>
</mgrwt>
</event>
<event>
 8    1  0.7550631E-006  0.1259646E+03  0.7546771E-02  0.1248502E+00
          1   -1    0    0  501    0  0.00000000000E+00  0.00000000000E+00  0.18439343232E+03  0.18439343232E+03  0.00000000000E+00 0. -1.
         -1   -1    0    0    0  501 -0.00000000000E+00 -0.00000000000E+00 -0.98593982409E+02  0.98593982409E+02  0.00000000000E+00 0.  1.
         23    2    1    2    0    0 -0.26923229952E+01 -0.15350501162E+02 -0.43279048328E+02  0.10263124854E+03  0.91745357727E+02 0.  0.
         23    2    1    2    0    0  0.26923229952E+01  0.15350501162E+02  0.12907849824E+03  0.18035616618E+03  0.12499680589E+03 0.  0.
          5    1    4    4  502    0  0.17986153444E+02 -0.34869960118E+02  0.12067846263E+03  0.12698345237E+03  0.47000000000E+01 0. -1.
         -5    1    4    4    0  502 -0.15293830449E+02  0.50220461281E+02  0.84000356079E+01  0.53372713808E+02  0.47000000000E+01 0. -1.
        -11    1    3    3    0    0  0.11165792685E+02  0.20203952291E+02 -0.57458563044E+02  0.61922217996E+02  0.00000000000E+00 0.  1.
         11    1    3    3    0    0 -0.13858115680E+02 -0.35554453454E+02  0.14179514716E+02  0.40709030548E+02  0.00000000000E+00 0. -1.
<mgrwt>
<rscale>  0 0.11678224E+03</rscale>
<asrwt>0</asrwt>
<pdfrwt beam="1">  1        1 0.28368220E-01 0.12596463E+03</pdfrwt>
<pdfrwt beam="2">  1       -1 0.15168305E-01 0.12596463E+03</pdfrwt>
<totfact> 0.48900200E+03</totfact>
</mgrwt>
</event>
<event>
 7    1  0.7550631E-006  0.1251968E+03  0.7546771E-02  0.1300088E+00
         -1   -1    0    0    0  501 -0.00000000000E+00  0.00000000000E+00  0.18356467958E+02  0.18356467958E+02  0.00000000000E+00 0.  1.
          1   -1    0    0  501    0  0.00000000000E+00 -0.00000000000E+00 -0.40104029226E+03  0.40104029226E+03  0.00000000000E+00 0. -1.
         23    2    1    2    0    0  0.61883238392E+01  0.36464148306E+01 -0.34866311636E+03  0.37045945977E+03  0.12499060337E+03 0.  0.
          5    1    3    3  502    0 -0.40583456037E+02  0.42269739999E+02 -0.22623183347E+03  0.23374490433E+03  0.47000000000E+01 0. -1.
         -5    1    3    3    0  502  0.46771779876E+02 -0.38623325168E+02 -0.12243128289E+03  0.13671455544E+03  0.47000000000E+01 0. -1.
        -11    1    1    2    0    0  0.89037722304E+01  0.50769885537E+01 -0.29058197958E+02  0.30812851885E+02  0.00000000000E+00 0. -1.
         11    1    1    2    0    0 -0.15092096070E+02 -0.87234033843E+01 -0.49625099823E+01  0.18124448563E+02  0.00000000000E+00 0.  1.
<mgrwt>
<rscale>  0 0.91150899E+02</rscale>
<asrwt>0</asrwt>
<pdfrwt beam="2">  1        1 0.61698510E-01 0.12519682E+03</pdfrwt>
<pdfrwt beam="1">  1       -1 0.28240719E-02 0.12519682E+03</pdfrwt>
<totfact> 0.23121657E+04</totfact>
</mgrwt>
</event>
<event>
 8    1  0.7550631E-006  0.1601233E+03  0.7546771E-02  0.1196250E+00
         -2   -1    0    0    0  501 -0.00000000000E+00  0.00000000000E+00  0.22340334237E+02  0.22340334237E+02  0.00000000000E+00 0.  1.
          2   -1    0    0  501    0  0.00000000000E+00 -0.00000000000E+00 -0.11168415617E+04  0.11168415617E+04  0.00000000000E+00 0. -1.
         23    2    1    2    0    0  0.74857306098E+02  0.66413820239E+02 -0.30518719986E+03  0.33379000005E+03  0.90896234137E+02 0.  0.
         23    2    1    2    0    0 -0.74857306098E+02 -0.66413820239E+02 -0.78931402760E+03  0.80539189589E+03  0.12500023998E+03 0.  0.
          5    1    4    4  502    0 -0.72833843375E+02 -0.20873876158E+02 -0.19410054757E+03  0.20841688995E+03  0.47000000000E+01 0. -1.
         -5    1    4    4    0  502 -0.20234627225E+01 -0.45539944080E+02 -0.59521348003E+03  0.59697500594E+03  0.47000000000E+01 0. -1.
        -11    1    3    3    0    0  0.37112641752E+02  0.80718741216E+02 -0.15904844526E+03  0.18217922851E+03  0.00000000000E+00 0.  1.
         11    1    3    3    0    0  0.37744664345E+02 -0.14304920978E+02 -0.14613875459E+03  0.15161077153E+03  0.00000000000E+00 0. -1.
<mgrwt>
<rscale>  0 0.15348914E+03</rscale>
<asrwt>0</asrwt>
<pdfrwt beam="2">  1        2 0.17182183E+00 0.16012330E+03</pdfrwt>
<pdfrwt beam="1">  1       -2 0.34369735E-02 0.16012330E+03</pdfrwt>
<totfact> 0.75501807E+03</totfact>
</mgrwt>
</event>
<event>
 8    1  0.7550631E-006  0.3447531E+03  0.7546771E-02  0.1065922E+00
         -3   -1    0    0    0  501 -0.00000000000E+00  0.00000000000E+00  0.35407065879E+03  0.35407065879E+03  0.00000000000E+00 0.  1.
          3   -1    0    0  501    0  0.00000000000E+00 -0.00000000000E+00 -0.51508649022E+03  0.51508649022E+03  0.00000000000E+00 0. -1.
         23    2    1    2    0    0 -0.32066125901E+03  0.20157463141E+02  0.18399679076E+03  0.38141909496E+03  0.91628274229E+02 0.  0.
         23    2    1    2    0    0  0.32066125901E+03 -0.20157463141E+02 -0.34501262219E+03  0.48773805405E+03  0.12499893419E+03 0.  0.
          5    1    4    4  502    0  0.26567735404E+03  0.33334018787E+02 -0.26321595448E+03  0.37550012243E+03  0.47000000000E+01 0. -1.
         -5    1    4    4    0  502  0.54983904972E+02 -0.53491481928E+02 -0.81796667711E+02  0.11223793162E+03  0.47000000000E+01 0. -1.
        -11    1    3    3    0    0 -0.19771744109E+03  0.46568147856E+02  0.14566434937E+03  0.24995775959E+03  0.00000000000E+00 0.  1.
         11    1    3    3    0    0 -0.12294381792E+03 -0.26410684715E+02  0.38332441395E+02  0.13146133536E+03  0.00000000000E+00 0. -1.
<mgrwt>
<rscale>  0 0.34205950E+03</rscale>
<asrwt>0</asrwt>
<pdfrwt beam="2">  1        3 0.79244075E-01 0.34475310E+03</pdfrwt>
<pdfrwt beam="1">  1       -3 0.54472410E-01 0.34475310E+03</pdfrwt>
<totfact> 0.12769924E+01</totfact>
</mgrwt>
</event>
<event>
 8    1  0.7550631E-006  0.1442077E+03  0.7546771E-02  0.1218858E+00
         -1   -1    0    0    0  501 -0.00000000000E+00  0.00000000000E+00  0.61650972069E+02  0.61650972069E+02  0.00000000000E+00 0.  1.
          1   -1    0    0  501    0  0.00000000000E+00 -0.00000000000E+00 -0.21890836215E+04  0.21890836215E+04  0.00000000000E+00 0. -1.
         23    2    1    2    0    0 -0.21938758677E+02 -0.68445184473E+02  0.43735172666E+01  0.11405647110E+03  0.88451673449E+02 0.  0.
         23    2    1    2    0    0  0.21938758677E+02  0.68445184473E+02 -0.21318061667E+04  0.21366781225E+04  0.12501925559E+03 0.  0.
          5    1    4    4  502    0 -0.24899774779E+02  0.54810890790E+02 -0.43575285861E+03  0.43991689706E+03  0.47000000000E+01 0. -1.
         -5    1    4    4    0  502  0.46838533457E+02  0.13634293682E+02 -0.16960533081E+04  0.16967612254E+04  0.47000000000E+01 0. -1.
        -11    1    3    3    0    0  0.23294228585E+01  0.16816268393E+02  0.17569714542E+02  0.24431699953E+02  0.00000000000E+00 0.  1.
         11    1    3    3    0    0 -0.24268181536E+02 -0.85261452866E+02 -0.13196197275E+02  0.89624771143E+02  0.00000000000E+00 0. -1.
<mgrwt>
<rscale>  0 0.13596950E+03</rscale>
<asrwt>0</asrwt>
<pdfrwt beam="2">  1        1 0.33678212E+00 0.14420772E+03</pdfrwt>
<pdfrwt beam="1">  1       -1 0.94847642E-02 0.14420772E+03</pdfrwt>
<totfact> 0.17571365E+02</totfact>
</mgrwt>
</event>
<event>
 8    1  0.7550631E-006  0.1284335E+03  0.7546771E-02  0.1244527E+00
         -2   -1    0    0    0  501 -0.00000000000E+00  0.00000000000E+00  0.31310480577E+02  0.31310480577E+02  0.00000000000E+00 0.  1.
          2   -1    0    0  501    0  0.00000000000E+00 -0.00000000000E+00 -0.44046006794E+03  0.44046006794E+03  0.00000000000E+00 0. -1.
         23    2    1    2    0    0 -0.28456013578E+02 -0.77329776417E+01 -0.10525435773E+03  0.14185015949E+03  0.90407103014E+02 0.  0.
         23    2    1    2    0    0  0.28456013578E+02  0.77329776417E+01 -0.30389522963E+03  0.32992038902E+03  0.12500243537E+03 0.  0.
          5    1    4    4  502    0  0.50014896430E+02  0.40215394693E+02 -0.80297191146E+02  0.10290042148E+03  0.47000000000E+01 0.  1.
         -5    1    4    4    0  502 -0.21558882852E+02 -0.32482417051E+02 -0.22359803849E+03  0.22701996754E+03  0.47000000000E+01 0.  1.
        -11    1    3    3    0    0 -0.25184782191E+02  0.15578892077E+02 -0.11319660070E+03  0.11700617736E+03  0.00000000000E+00 0. -1.
         11    1    3    3    0    0 -0.32712313872E+01 -0.23311869719E+02  0.79422429688E+01  0.24843982127E+02  0.00000000000E+00 0.  1.
<mgrwt>
<rscale>  0 0.11913726E+03</rscale>
<asrwt>0</asrwt>
<pdfrwt beam="2">  1        2 0.67763081E-01 0.12843346E+03</pdfrwt>
<pdfrwt beam="1">  1       -2 0.48169975E-02 0.12843346E+03</pdfrwt>
<totfact> 0.13992012E+04</totfact>
</mgrwt>
</event>
<event>
 8    1  0.7550631E-006  0.1355968E+03  0.7546771E-02  0.1231274E+00
         -1   -1    0    0    0  501 -0.00000000000E+00  0.00000000000E+00  0.11017750152E+02  0.11017750152E+02  0.00000000000E+00 0.  1.
          1   -1    0    0  501    0  0.00000000000E+00 -0.00000000000E+00 -0.13611445211E+04  0.13611445211E+04  0.00000000000E+00 0. -1.
         23    2    1    2    0    0  0.14755778248E+02  0.50423088635E+02 -0.48019832151E+03  0.49172942865E+03  0.91908553237E+02 0.  0.
         23    2    1    2    0    0 -0.14755778248E+02 -0.50423088635E+02 -0.86992844943E+03  0.88043284260E+03  0.12500504924E+03 0.  0.
          5    1    4    4  502    0 -0.38485848302E+02  0.79888763736E+01 -0.94839682275E+02  0.10276983020E+03  0.47000000000E+01 0.  1.
         -5    1    4    4    0  502  0.23730070054E+02 -0.58411965008E+02 -0.77508876716E+03  0.77766301240E+03  0.47000000000E+01 0.  1.
        -11    1    3    3    0    0 -0.37890417276E+02  0.32593677539E+02 -0.20891575205E+03  0.21481113331E+03  0.00000000000E+00 0.  1.
         11    1    3    3    0    0  0.52646195524E+02  0.17829411096E+02 -0.27128256946E+03  0.27691829535E+03  0.00000000000E+00 0. -1.
<mgrwt>
<rscale>  0 0.12746036E+03</rscale>
<asrwt>0</asrwt>
<pdfrwt beam="2">  1        1 0.20940672E+00 0.13559677E+03</pdfrwt>
<pdfrwt beam="1">  1       -1 0.16950395E-02 0.13559677E+03</pdfrwt>
<totfact> 0.75512465E+03</totfact>
</mgrwt>
</event>
<event>
 8    1  0.7550631E-006  0.1359584E+03  0.7546771E-02  0.1230713E+00
          2   -1    0    0  501    0  0.00000000000E+00  0.00000000000E+00  0.28279314628E+02  0.28279314628E+02  0.00000000000E+00 0. -1.
         -2   -1    0    0    0  501 -0.00000000000E+00 -0.00000000000E+00 -0.60462359581E+03  0.60462359581E+03  0.00000000000E+00 0.  1.
         23    2    1    2    0    0 -0.48721651811E+02 -0.22083256143E+02 -0.37644372182E+03  0.39114905070E+03  0.91794523876E+02 0.  0.
         23    2    1    2    0    0  0.48721651811E+02  0.22083256143E+02 -0.19990055937E+03  0.24175385974E+03  0.12499290182E+03 0.  0.
          5    1    4    4  502    0 -0.75592877792E+01 -0.41921705783E+01  0.15038316750E+02  0.17971034933E+02  0.47000000000E+01 0.  1.
         -5    1    4    4    0  502  0.56280939591E+02  0.26275426721E+02 -0.21493887612E+03  0.22378282480E+03  0.47000000000E+01 0.  1.
        -11    1    3    3    0    0 -0.11348480177E+02 -0.54788876485E+02 -0.22050632971E+03  0.22749428659E+03  0.00000000000E+00 0. -1.
         11    1    3    3    0    0 -0.37373171635E+02  0.32705620342E+02 -0.15593739211E+03  0.16365476412E+03  0.00000000000E+00 0.  1.
<mgrwt>
<rscale>  0 0.12782927E+03</rscale>
<asrwt>0</asrwt>
<pdfrwt beam="1">  1        2 0.43506641E-02 0.13595843E+03</pdfrwt>
<pdfrwt beam="2">  1       -2 0.93019008E-01 0.13595843E+03</pdfrwt>
<totfact> 0.18457342E+03</totfact>
</mgrwt>
</event>
<event>
 8    1  0.7550631E-006  0.1726239E+03  0.7546771E-02  0.1181658E+00
          4   -1    0    0  501    0  0.00000000000E+00  0.00000000000E+00  0.20531902383E+03  0.20531902383E+03  0.00000000000E+00 0.  1.
         -4   -1    0    0    0  501 -0.00000000000E+00 -0.00000000000E+00 -0.12665376580E+03  0.12665376580E+03  0.00000000000E+00 0. -1.
         23    2    1    2    0    0 -0.17307264472E+02 -0.11779280299E+03  0.24379014150E+02  0.15101419718E+03  0.89645220612E+02 0.  0.
         23    2    1    2    0    0  0.17307264472E+02  0.11779280299E+03  0.54286243876E+02  0.18095859245E+03  0.12499732024E+03 0.  0.
          5    1    4    4  502    0 -0.25454333876E+02  0.31585133343E+02 -0.31798752154E+02  0.51757071014E+02  0.47000000000E+01 0. -1.
         -5    1    4    4    0  502  0.42761598348E+02  0.86207669648E+02  0.86084996030E+02  0.12920152143E+03  0.47000000000E+01 0. -1.
        -11    1    3    3    0    0  0.13228550013E+02 -0.73736747439E+02 -0.24145784262E+02  0.78709093223E+02  0.00000000000E+00 0. -1.
         11    1    3    3    0    0 -0.30535814485E+02 -0.44056055553E+02  0.48524798413E+02  0.72305103956E+02  0.00000000000E+00 0.  1.
<mgrwt>
<rscale>  0 0.16639743E+03</rscale>
<asrwt>0</asrwt>
<pdfrwt beam="1">  1        4 0.31587542E-01 0.17262391E+03</pdfrwt>
<pdfrwt beam="2">  1       -4 0.19485195E-01 0.17262391E+03</pdfrwt>
<totfact> 0.39550439E+02</totfact>
</mgrwt>
</event>
<event>
 8    1  0.7550631E-006  0.1354693E+03  0.7546771E-02  0.1231634E+00
          3   -1    0    0  501    0  0.00000000000E+00  0.00000000000E+00  0.11621631633E+03  0.11621631633E+03  0.00000000000E+00 0. -1.
         -3   -1    0    0    0  501 -0.00000000000E+00 -0.00000000000E+00 -0.15977163593E+03  0.15977163593E+03  0.00000000000E+00 0.  1.
         23    2    1    2    0    0  0.12097015605E+02 -0.50806204340E+02 -0.83833271830E+02  0.13465766922E+03  0.91526292550E+02 0.  0.
         23    2    1    2    0    0 -0.12097015605E+02  0.50806204340E+02  0.40277952226E+02  0.14133028304E+03  0.12499730910E+03 0.  0.
          5    1    4    4  502    0 -0.49044487966E+00 -0.44854917403E+01 -0.41397833771E+02  0.41907407618E+02  0.47000000000E+01 0. -1.
         -5    1    4    4    0  502 -0.11606570726E+02  0.55291696081E+02  0.81675785997E+02  0.99422875425E+02  0.47000000000E+01 0. -1.
        -11    1    3    3    0    0 -0.15071980672E+02 -0.19170084011E+01 -0.76797052458E+02  0.78285546487E+02  0.00000000000E+00 0.  1.
         11    1    3    3    0    0  0.27168996278E+02 -0.48889195939E+02 -0.70362193723E+01  0.56372122733E+02  0.00000000000E+00 0. -1.
<mgrwt>
<rscale>  0 0.12722396E+03</rscale>
<asrwt>0</asrwt>
<pdfrwt beam="1">  1        3 0.17879433E-01 0.13546932E+03</pdfrwt>
<pdfrwt beam="2">  1       -3 0.24580252E-01 0.13546932E+03</pdfrwt>
<totfact> 0.97705532E+02</totfact>
</mgrwt>
</event>
<event>
 8    1  0.7550631E-006  0.1467284E+03  0.7546771E-02  0.1214510E+00
          1   -1    0    0  501    0  0.00000000000E+00  0.00000000000E+00  0.16698708333E+03  0.16698708333E+03  0.00000000000E+00 0. -1.
         -1   -1    0    0    0  501 -0.00000000000E+00 -0.00000000000E+00 -0.14488003101E+03  0.14488003101E+03  0.00000000000E+00 0.  1.
         23    2    1    2    0    0  0.74751368708E+02  0.17799308125E+02 -0.70867462315E+02  0.13816198015E+03  0.90343528000E+02 0.  0.
         23    2    1    2    0    0 -0.74751368708E+02 -0.17799308125E+02  0.92974514640E+02  0.17370513418E+03  0.12499852310E+03 0.  0.
          5    1    4    4  502    0  0.17938310719E+01 -0.31709070750E+02  0.90168751053E+02  0.95714035879E+02  0.47000000000E+01 0.  1.
         -5    1    4    4    0  502 -0.76545199780E+02  0.13909762625E+02  0.28057635871E+01  0.77991098306E+02  0.47000000000E+01 0.  1.
        -11    1    3    3    0    0  0.77208901524E+01 -0.25978052802E+02 -0.47626182733E+02  0.54797122679E+02  0.00000000000E+00 0.  1.
         11    1    3    3    0    0  0.67030478556E+02  0.43777360927E+02 -0.23241279581E+02  0.83364857474E+02  0.00000000000E+00 0. -1.
<mgrwt>
<rscale>  0 0.13912621E+03</rscale>
<asrwt>0</asrwt>
<pdfrwt beam="1">  1        1 0.25690320E-01 0.14672837E+03</pdfrwt>
<pdfrwt beam="2">  1       -1 0.22289236E-01 0.14672837E+03</pdfrwt>
<totfact> 0.30218487E+03</totfact>
</mgrwt>
</event>
<event>
 8    1  0.7550631E-006  0.1757645E+03  0.7546771E-02  0.1178023E+00
         -2   -1    0    0    0  501 -0.00000000000E+00  0.00000000000E+00  0.11146618913E+03  0.11146618913E+03  0.00000000000E+00 0.  1.
          2   -1    0    0  501    0  0.00000000000E+00 -0.00000000000E+00 -0.24556949894E+03  0.24556949894E+03  0.00000000000E+00 0. -1.
         23    2    1    2    0    0  0.57596544400E+02 -0.10932502376E+03 -0.43348473941E+02  0.15922368038E+03  0.90574651270E+02 0.  0.
         23    2    1    2    0    0 -0.57596544400E+02  0.10932502376E+03 -0.90754835868E+02  0.19781200770E+03  0.12499530956E+03 0.  0.
          5    1    4    4  502    0  0.57655918875E+01  0.71695109575E+02 -0.10013017861E+03  0.12337574095E+03  0.47000000000E+01 0.  1.
         -5    1    4    4    0  502 -0.63362136288E+02  0.37629914184E+02  0.93753427410E+01  0.74436266751E+02  0.47000000000E+01 0.  1.
        -11    1    3    3    0    0  0.39087994922E+02 -0.57865245825E+02  0.22743009519E+02  0.73440469112E+02  0.00000000000E+00 0.  1.
         11    1    3    3    0    0  0.18508549478E+02 -0.51459777934E+02 -0.66091483460E+02  0.85783211264E+02  0.00000000000E+00 0. -1.
<mgrwt>
<rscale>  0 0.16983203E+03</rscale>
<asrwt>0</asrwt>
<pdfrwt beam="2">  1        2 0.37779922E-01 0.17576447E+03</pdfrwt>
<pdfrwt beam="1">  1       -2 0.17148645E-01 0.17576447E+03</pdfrwt>
<totfact> 0.36296295E+03</totfact>
</mgrwt>
</event>
<event>
 8    1  0.7550631E-006  0.1318217E+03  0.7546771E-02  0.1234481E+00
          2   -1    0    0  501    0  0.00000000000E+00  0.00000000000E+00  0.63782614765E+03  0.63782614765E+03  0.00000000000E+00 0.  1.
         -2   -1    0    0    0  501 -0.00000000000E+00 -0.00000000000E+00 -0.29141098340E+02  0.29141098340E+02  0.00000000000E+00 0. -1.
         23    2    1    2    0    0 -0.49452250385E+00  0.41853054869E+02  0.12248962801E+03  0.16321833970E+03  0.99421298981E+02 0.  0.
         23    2    1    2    0    0  0.49452250385E+00 -0.41853054869E+02  0.48619542130E+03  0.50374890629E+03  0.12500020054E+03 0.  0.
          5    1    4    4  502    0 -0.61377628791E+02 -0.29503236501E+02  0.23554596394E+03  0.24523793632E+03  0.47000000000E+01 0. -1.
         -5    1    4    4    0  502  0.61872151295E+02 -0.12349818368E+02  0.25064945736E+03  0.25851096997E+03  0.47000000000E+01 0. -1.
        -11    1    3    3    0    0 -0.45642113931E+02  0.25428938927E+02  0.93498402710E+02  0.10710641815E+03  0.00000000000E+00 0.  1.
         11    1    3    3    0    0  0.45147591427E+02  0.16424115942E+02  0.28991225296E+02  0.56111921553E+02  0.00000000000E+00 0. -1.
<mgrwt>
<rscale>  0 0.12537709E+03</rscale>
<asrwt>0</asrwt>
<pdfrwt beam="1">  1        2 0.98127089E-01 0.13182175E+03</pdfrwt>
<pdfrwt beam="2">  1       -2 0.44832464E-02 0.13182175E+03</pdfrwt>
<totfact> 0.10348443E+04</totfact>
</mgrwt>
</event>
<event>
 8    1  0.7550631E-006  0.1524777E+03  0.7546771E-02  0.1206831E+00
          1   -1    0    0  501    0  0.00000000000E+00  0.00000000000E+00  0.97096820173E+02  0.97096820173E+02  0.00000000000E+00 0. -1.
         -1   -1    0    0    0  501 -0.00000000000E+00 -0.00000000000E+00 -0.20142135148E+03  0.20142135148E+03  0.00000000000E+00 0.  1.
         23    2    1    2    0    0 -0.11955199663E+02  0.86495197149E+02 -0.67671058904E+02  0.14169682049E+03  0.88737088053E+02 0.  0.
         23    2    1    2    0    0  0.11955199663E+02 -0.86495197149E+02 -0.36653472398E+02  0.15682135115E+03  0.12500045284E+03 0.  0.
          5    1    4    4  502    0  0.43214001608E+02 -0.59089240346E+02  0.29075037750E+02  0.78907769452E+02  0.47000000000E+01 0. -1.
         -5    1    4    4    0  502 -0.31258801945E+02 -0.27405956803E+02 -0.65728510148E+02  0.77913581702E+02  0.47000000000E+01 0. -1.
        -11    1    3    3    0    0 -0.46195495254E+02  0.44598533822E+02 -0.58406806645E+02  0.86800968101E+02  0.00000000000E+00 0.  1.
         11    1    3    3    0    0  0.34240295591E+02  0.41896663327E+02 -0.92642522588E+01  0.54895852393E+02  0.00000000000E+00 0. -1.
<mgrwt>
<rscale>  0 0.14494106E+03</rscale>
<asrwt>0</asrwt>
<pdfrwt beam="1">  1        1 0.14937973E-01 0.15247773E+03</pdfrwt>
<pdfrwt beam="2">  1       -1 0.30987900E-01 0.15247773E+03</pdfrwt>
<totfact> 0.35045514E+03</totfact>
</mgrwt>
</event>
<event>
 8    1  0.7550631E-006  0.1862820E+03  0.7546771E-02  0.1167083E+00
          2   -1    0    0  501    0  0.00000000000E+00  0.00000000000E+00  0.12642879711E+03  0.12642879711E+03  0.00000000000E+00 0.  1.
         -2   -1    0    0    0  501 -0.00000000000E+00 -0.00000000000E+00 -0.25171505513E+03  0.25171505513E+03  0.00000000000E+00 0. -1.
         23    2    1    2    0    0  0.11105226980E+02 -0.13765511457E+03 -0.91685015614E+02  0.18885564584E+03  0.90487878989E+02 0.  0.
         23    2    1    2    0    0 -0.11105226980E+02  0.13765511457E+03 -0.33601242404E+02  0.18928820640E+03  0.12501489895E+03 0.  0.
          5    1    4    4  502    0 -0.11390626524E+02 -0.29928220316E+01  0.31704888647E+02  0.34146644351E+02  0.47000000000E+01 0.  1.
         -5    1    4    4    0  502  0.28539954420E+00  0.14064793660E+03 -0.65306131051E+02  0.15514156205E+03  0.47000000000E+01 0.  1.
        -11    1    3    3    0    0  0.22192081892E+02 -0.42427784057E+02  0.10201217449E+02  0.48955798391E+02  0.00000000000E+00 0.  1.
         11    1    3    3    0    0 -0.11086854913E+02 -0.95227330512E+02 -0.10188623306E+03  0.13989984745E+03  0.00000000000E+00 0. -1.
<mgrwt>
<rscale>  0 0.18074634E+03</rscale>
<asrwt>0</asrwt>
<pdfrwt beam="1">  1        2 0.19450584E-01 0.18628199E+03</pdfrwt>
<pdfrwt beam="2">  1       -2 0.38725393E-01 0.18628199E+03</pdfrwt>
<totfact> 0.17914233E+03</totfact>
</mgrwt>
</event>
<event>
 7    1  0.7550631E-006  0.1383214E+03  0.7546771E-02  0.1230545E+00
         -1   -1    0    0    0  501 -0.00000000000E+00  0.00000000000E+00  0.15234893231E+03  0.15234893231E+03  0.00000000000E+00 0.  1.
          1   -1    0    0  501    0  0.00000000000E+00 -0.00000000000E+00 -0.10626591204E+03  0.10626591204E+03  0.00000000000E+00 0. -1.
         23    2    1    2    0    0  0.45297531778E+02 -0.12555880995E+01  0.63032215598E+02  0.11925886677E+03  0.90532724544E+02 0.  0.
          5    1    1    2  502    0 -0.50993672715E+02 -0.48599179182E+02 -0.42957761721E+02  0.82641963712E+02  0.47000000000E+01 0. -1.
         -5    1    1    2    0  502  0.56961409372E+01  0.49854767282E+02  0.26008566395E+02  0.56714013861E+02  0.47000000000E+01 0.  1.
        -11    1    3    3    0    0 -0.14931676999E+02 -0.27478135812E+02  0.37382781799E+02  0.48738847962E+02  0.00000000000E+00 0. -1.
         11    1    3    3    0    0  0.60229208776E+02  0.26222547713E+02  0.25649433800E+02  0.70520018807E+02  0.00000000000E+00 0.  1.
<mgrwt>
<rscale>  0 0.12793976E+03</rscale>
<asrwt>0</asrwt>
<pdfrwt beam="2">  1        1 0.16348602E-01 0.13832141E+03</pdfrwt>
<pdfrwt beam="1">  1       -1 0.23438297E-01 0.13832141E+03</pdfrwt>
<totfact> 0.49305472E+03</totfact>
</mgrwt>
</event>
<event>
 7    1  0.7550631E-006  0.1415418E+03  0.7546771E-02  0.1225266E+00
         -1   -1    0    0    0  501 -0.00000000000E+00  0.00000000000E+00  0.34913966357E+02  0.34913966357E+02  0.00000000000E+00 0.  1.
          1   -1    0    0  501    0  0.00000000000E+00 -0.00000000000E+00 -0.43748405644E+03  0.43748405644E+03  0.00000000000E+00 0. -1.
         23    2    1    2    0    0 -0.47358976422E+02 -0.25832357248E+02 -0.18193289515E+03  0.21026284275E+03  0.90557723990E+02 0.  0.
          5    1    1    2  502    0 -0.41560688612E+02  0.27443423678E+02 -0.10380233252E+03  0.11522780297E+03  0.47000000000E+01 0.  1.
         -5    1    1    2    0  502  0.88919665035E+02 -0.16110664300E+01 -0.11683486242E+03  0.14690737708E+03  0.47000000000E+01 0.  1.
        -11    1    3    3    0    0  0.10974943643E+02 -0.42492440679E+02 -0.63410695833E+02  0.77116621094E+02  0.00000000000E+00 0. -1.
         11    1    3    3    0    0 -0.58333920065E+02  0.16660083431E+02 -0.11852219932E+03  0.13314622166E+03  0.00000000000E+00 0.  1.
<mgrwt>
<rscale>  0 0.13148679E+03</rscale>
<asrwt>0</asrwt>
<pdfrwt beam="2">  1        1 0.67305242E-01 0.14154180E+03</pdfrwt>
<pdfrwt beam="1">  1       -1 0.53713792E-02 0.14154180E+03</pdfrwt>
<totfact> 0.81458316E+03</totfact>
</mgrwt>
</event>
<event>
 8    1  0.7550631E-006  0.1568097E+03  0.7546771E-02  0.1200416E+00
         -1   -1    0    0    0  501 -0.00000000000E+00  0.00000000000E+00  0.95370763971E+03  0.95370763971E+03  0.00000000000E+00 0.  1.
          1   -1    0    0  501    0  0.00000000000E+00 -0.00000000000E+00 -0.22377743094E+02  0.22377743094E+02  0.00000000000E+00 0. -1.
         23    2    1    2    0    0 -0.48387201814E+02  0.81373455478E+02  0.50506917537E+03  0.52189655168E+03  0.91204047001E+02 0.  0.
         23    2    1    2    0    0  0.48387201814E+02 -0.81373455478E+02  0.42626072124E+03  0.45418883112E+03  0.12500532503E+03 0.  0.
          5    1    4    4  502    0 -0.20310237052E+02 -0.76116848296E+02  0.30076590153E+03  0.31094774134E+03  0.47000000000E+01 0. -1.
         -5    1    4    4    0  502  0.68697438867E+02 -0.52566071818E+01  0.12549481972E+03  0.14324108978E+03  0.47000000000E+01 0. -1.
        -11    1    3    3    0    0  0.61234502794E+00  0.79561452283E+02  0.36257245897E+03  0.37119966010E+03  0.00000000000E+00 0. -1.
         11    1    3    3    0    0 -0.48999546842E+02  0.18120031951E+01  0.14249671640E+03  0.15069689158E+03  0.00000000000E+00 0.  1.
<mgrwt>
<rscale>  0 0.15004665E+03</rscale>
<asrwt>0</asrwt>
<pdfrwt beam="2">  1        1 0.34427304E-02 0.15680973E+03</pdfrwt>
<pdfrwt beam="1">  1       -1 0.14672422E+00 0.15680973E+03</pdfrwt>
<totfact> 0.11076074E+03</totfact>
</mgrwt>
</event>
<event>
 8    1  0.7550631E-006  0.1316842E+03  0.7546771E-02  0.1238655E+00
          1   -1    0    0  501    0  0.00000000000E+00  0.00000000000E+00  0.56362322167E+02  0.56362322167E+02  0.00000000000E+00 0. -1.
         -1   -1    0    0    0  501 -0.00000000000E+00 -0.00000000000E+00 -0.23863078098E+03  0.23863078098E+03  0.00000000000E+00 0.  1.
         23    2    1    2    0    0 -0.25253423654E+02 -0.32850790820E+02 -0.91290845842E+02  0.13493794412E+03  0.90317885083E+02 0.  0.
         23    2    1    2    0    0  0.25253423654E+02  0.32850790820E+02 -0.90977612970E+02  0.16005515902E+03  0.12499527193E+03 0.  0.
          5    1    4    4  502    0  0.38330240322E+01  0.86457758611E+01 -0.11750445917E+03  0.11797808880E+03  0.47000000000E+01 0.  1.
         -5    1    4    4    0  502  0.21420399621E+02  0.24205014959E+02  0.26526846197E+02  0.42077070219E+02  0.47000000000E+01 0.  1.
        -11    1    3    3    0    0 -0.18910585272E+02 -0.58793950255E+02 -0.31231118916E+02  0.69207814665E+02  0.00000000000E+00 0. -1.
         11    1    3    3    0    0 -0.63428383816E+01  0.25943159435E+02 -0.60059726926E+02  0.65730129458E+02  0.00000000000E+00 0.  1.
<mgrwt>
<rscale>  0 0.12273351E+03</rscale>
<asrwt>0</asrwt>
<pdfrwt beam="1">  1        1 0.86711264E-02 0.13168420E+03</pdfrwt>
<pdfrwt beam="2">  1       -1 0.36712428E-01 0.13168420E+03</pdfrwt>
<totfact> 0.53235438E+03</totfact>
</mgrwt>
</event>
<event>
 8    1  0.7550631E-006  0.1400308E+03  0.7546771E-02  0.1225310E+00
          2   -1    0    0  501    0  0.00000000000E+00  0.00000000000E+00  0.27927885467E+02  0.27927885467E+02  0.00000000000E+00 0. -1.
         -2   -1    0    0    0  501 -0.00000000000E+00 -0.00000000000E+00 -0.62072034323E+03  0.62072034323E+03  0.00000000000E+00 0.  1.
         23    2    1    2    0    0 -0.34761776091E+02  0.52670750306E+02 -0.36866436571E+03  0.38437182051E+03  0.88575915710E+02 0.  0.
         23    2    1    2    0    0  0.34761776091E+02 -0.52670750306E+02 -0.22412809205E+03  0.26427640819E+03  0.12500411698E+03 0.  0.
          5    1    4    4  502    0 -0.86018826933E+01  0.36583749750E+02 -0.87545131641E+02  0.95386598669E+02  0.47000000000E+01 0.  1.
         -5    1    4    4    0  502  0.43363658784E+02 -0.89254500056E+02 -0.13658296041E+03  0.16888980952E+03  0.47000000000E+01 0.  1.
        -11    1    3    3    0    0  0.24806755641E+02 -0.54956352380E+01 -0.79653008018E+02  0.83607289266E+02  0.00000000000E+00 0.  1.
         11    1    3    3    0    0 -0.59568531732E+02  0.58166385544E+02 -0.28901135769E+03  0.30076453125E+03  0.00000000000E+00 0. -1.
<mgrwt>
<rscale>  0 0.13145673E+03</rscale>
<asrwt>0</asrwt>
<pdfrwt beam="1">  1        2 0.42965980E-02 0.14003078E+03</pdfrwt>
<pdfrwt beam="2">  1       -2 0.95495432E-01 0.14003078E+03</pdfrwt>
<totfact> 0.17709796E+03</totfact>
</mgrwt>
</event>
<event>
 8    1  0.7550631E-006  0.1325927E+03  0.7546771E-02  0.1238105E+00
         -1   -1    0    0    0  501 -0.00000000000E+00  0.00000000000E+00  0.34995194700E+02  0.34995194700E+02  0.00000000000E+00 0.  1.
          1   -1    0    0  501    0  0.00000000000E+00 -0.00000000000E+00 -0.38665587518E+03  0.38665587518E+03  0.00000000000E+00 0. -1.
         23    2    1    2    0    0 -0.44208365286E+02  0.53217177926E+00 -0.12563903987E+03  0.15960792906E+03  0.87948052345E+02 0.  0.
         23    2    1    2    0    0  0.44208365286E+02 -0.53217177926E+00 -0.22602164061E+03  0.26204314082E+03  0.12500465135E+03 0.  0.
          5    1    4    4  502    0  0.57921013854E+02 -0.20410212540E+02 -0.37896944517E+02  0.72316588868E+02  0.47000000000E+01 0. -1.
         -5    1    4    4    0  502 -0.13712648567E+02  0.19878040761E+02 -0.18812469610E+03  0.18972655195E+03  0.47000000000E+01 0. -1.
        -11    1    3    3    0    0  0.16400511999E+02  0.16633092973E+02 -0.76355640198E+02  0.79848734278E+02  0.00000000000E+00 0. -1.
         11    1    3    3    0    0 -0.60608877286E+02 -0.16100921193E+02 -0.49283399672E+02  0.79759194782E+02  0.00000000000E+00 0.  1.
<mgrwt>
<rscale>  0 0.12307718E+03</rscale>
<asrwt>0</asrwt>
<pdfrwt beam="2">  1        1 0.59485518E-01 0.13259271E+03</pdfrwt>
<pdfrwt beam="1">  1       -1 0.53838762E-02 0.13259271E+03</pdfrwt>
<totfact> 0.94491822E+03</totfact>
</mgrwt>
</event>
<event>
 8    1  0.7550631E-006  0.2585248E+03  0.7546771E-02  0.1110408E+00
          1   -1    0    0  501    0  0.00000000000E+00  0.00000000000E+00  0.74262387632E+03  0.74262387632E+03  0.00000000000E+00 0. -1.
         -1   -1    0    0    0  501 -0.00000000000E+00 -0.00000000000E+00 -0.15140426575E+03  0.15140426575E+03  0.00000000000E+00 0.  1.
         23    2    1    2    0    0  0.17327548900E+03  0.14555536355E+03 -0.58436201895E+01  0.24339799055E+03  0.89429720786E+02 0.  0.
         23    2    1    2    0    0 -0.17327548900E+03 -0.14555536355E+03  0.59706323077E+03  0.65063015153E+03  0.12499733436E+03 0.  0.
          5    1    4    4  502    0 -0.11001835601E+02 -0.39917232713E+02  0.29849858069E+02  0.51259436992E+02  0.47000000000E+01 0. -1.
         -5    1    4    4    0  502 -0.16227365340E+03 -0.10563813083E+03  0.56721337270E+03  0.59937071453E+03  0.47000000000E+01 0. -1.
        -11    1    3    3    0    0  0.46561174630E+02  0.93673504604E+02  0.12093202811E+02  0.10530391257E+03  0.00000000000E+00 0.  1.
         11    1    3    3    0    0  0.12671431437E+03  0.51881858942E+02 -0.17936823000E+02  0.13809407798E+03  0.00000000000E+00 0. -1.
<mgrwt>
<rscale>  0 0.25463884E+03</rscale>
<asrwt>0</asrwt>
<pdfrwt beam="1">  1        1 0.11424983E+00 0.25852484E+03</pdfrwt>
<pdfrwt beam="2">  1       -1 0.23292964E-01 0.25852484E+03</pdfrwt>
<totfact> 0.40768711E+02</totfact>
</mgrwt>
</event>
<event>
 8    1  0.7550631E-006  0.1529232E+03  0.7546771E-02  0.1207605E+00
         -2   -1    0    0    0  501 -0.00000000000E+00  0.00000000000E+00  0.44956764451E+02  0.44956764451E+02  0.00000000000E+00 0.  1.
          2   -1    0    0  501    0  0.00000000000E+00 -0.00000000000E+00 -0.51804676249E+03  0.51804676249E+03  0.00000000000E+00 0. -1.
         23    2    1    2    0    0 -0.84597309734E+02  0.24564606349E+02 -0.91775143596E+02  0.15216713852E+03  0.83498720734E+02 0.  0.
         23    2    1    2    0    0  0.84597309734E+02 -0.24564606349E+02 -0.38131485445E+03  0.41083638842E+03  0.12500158052E+03 0.  0.
          5    1    4    4  502    0  0.40272327069E+02 -0.56873827282E+02 -0.87751405090E+02  0.11215565814E+03  0.47000000000E+01 0. -1.
         -5    1    4    4    0  502  0.44324982666E+02  0.32309220932E+02 -0.29356344936E+03  0.29868073029E+03  0.47000000000E+01 0. -1.
        -11    1    3    3    0    0 -0.73186997048E+01  0.89274422990E+01 -0.69196918142E+02  0.70153232796E+02  0.00000000000E+00 0. -1.
         11    1    3    3    0    0 -0.77278610029E+02  0.15637164050E+02 -0.22578225454E+02  0.82013905725E+02  0.00000000000E+00 0.  1.
<mgrwt>
<rscale>  0 0.14434058E+03</rscale>
<asrwt>0</asrwt>
<pdfrwt beam="2">  1        2 0.79699504E-01 0.15292325E+03</pdfrwt>
<pdfrwt beam="1">  1       -2 0.69164252E-02 0.15292325E+03</pdfrwt>
<totfact> 0.68572837E+03</totfact>
</mgrwt>
</event>
<event>
 8    1  0.7550631E-006  0.1419258E+03  0.7546771E-02  0.1221354E+00
         -3   -1    0    0    0  501 -0.00000000000E+00  0.00000000000E+00  0.47192114268E+03  0.47192114268E+03  0.00000000000E+00 0.  1.
          3   -1    0    0  501    0  0.00000000000E+00 -0.00000000000E+00 -0.34623969378E+02  0.34623969378E+02  0.00000000000E+00 0. -1.
         23    2    1    2    0    0  0.65704077775E+02  0.14172264926E+02  0.20598663199E+03  0.23516439440E+03  0.91399786137E+02 0.  0.
         23    2    1    2    0    0 -0.65704077775E+02 -0.14172264926E+02  0.23131054131E+03  0.27138071766E+03  0.12500019386E+03 0.  0.
          5    1    4    4  502    0 -0.78581237954E+02  0.40160813643E+01  0.61308235649E+02  0.99859549500E+02  0.47000000000E+01 0. -1.
         -5    1    4    4    0  502  0.12877160179E+02 -0.18188346290E+02  0.17000230567E+03  0.17152116816E+03  0.47000000000E+01 0. -1.
        -11    1    3    3    0    0  0.95341018027E-01  0.35610584324E+02  0.31580362064E+02  0.47596660323E+02  0.00000000000E+00 0. -1.
         11    1    3    3    0    0  0.65608736757E+02 -0.21438319399E+02  0.17440626992E+03  0.18756773408E+03  0.00000000000E+00 0.  1.
<mgrwt>
<rscale>  0 0.13419949E+03</rscale>
<asrwt>0</asrwt>
<pdfrwt beam="2">  1        3 0.53267649E-02 0.14192578E+03</pdfrwt>
<pdfrwt beam="1">  1       -3 0.72603248E-01 0.14192578E+03</pdfrwt>
<totfact> 0.88161594E+02</totfact>
</mgrwt>
</event>
<event>
 8    1  0.7550631E-006  0.1459155E+03  0.7546771E-02  0.1214453E+00
          2   -1    0    0  501    0  0.00000000000E+00  0.00000000000E+00  0.16429196475E+03  0.16429196475E+03  0.00000000000E+00 0.  1.
         -2   -1    0    0    0  501 -0.00000000000E+00 -0.00000000000E+00 -0.16791290300E+03  0.16791290300E+03  0.00000000000E+00 0. -1.
         23    2    1    2    0    0  0.54077982567E+02 -0.52350533250E+02 -0.10046895752E+03  0.15707385956E+03  0.94409636172E+02 0.  0.
         23    2    1    2    0    0 -0.54077982567E+02  0.52350533250E+02  0.96848019258E+02  0.17513100819E+03  0.12500529855E+03 0.  0.
          5    1    4    4  502    0  0.37311430346E+02  0.29213413715E+02  0.14255608343E+02  0.49707934423E+02  0.47000000000E+01 0. -1.
         -5    1    4    4    0  502 -0.91389412913E+02  0.23137119535E+02  0.82592410915E+02  0.12542307377E+03  0.47000000000E+01 0. -1.
        -11    1    3    3    0    0  0.45967575386E+01 -0.52325052982E+02 -0.93308580329E+02  0.10707722686E+03  0.00000000000E+00 0. -1.
         11    1    3    3    0    0  0.49481225028E+02 -0.25480268477E-01 -0.71603771875E+01  0.49996632697E+02  0.00000000000E+00 0.  1.
<mgrwt>
<rscale>  0 0.13916787E+03</rscale>
<asrwt>0</asrwt>
<pdfrwt beam="1">  1        2 0.25275687E-01 0.14591549E+03</pdfrwt>
<pdfrwt beam="2">  1       -2 0.25832754E-01 0.14591549E+03</pdfrwt>
<totfact> 0.27628293E+03</totfact>
</mgrwt>
</event>
<event>
 8    1  0.7550631E-006  0.1286802E+03  0.7546771E-02  0.1243547E+00
         -2   -1    0    0    0  501 -0.00000000000E+00  0.00000000000E+00  0.86637907431E+02  0.86637907431E+02  0.00000000000E+00 0.  1.
          2   -1    0    0  501    0  0.00000000000E+00 -0.00000000000E+00 -0.24481232121E+03  0.24481232121E+03  0.00000000000E+00 0. -1.
         23    2    1    2    0    0  0.18657547279E+02  0.24127707846E+02  0.32195818822E+02  0.10166898597E+03  0.91486401191E+02 0.  0.
         23    2    1    2    0    0 -0.18657547279E+02 -0.24127707846E+02 -0.19037023260E+03  0.22978124267E+03  0.12501337395E+03 0.  0.
          5    1    4    4  502    0 -0.39308232773E+02 -0.62979329721E+02 -0.72480442480E+02  0.10386066473E+03  0.47000000000E+01 0. -1.
         -5    1    4    4    0  502  0.20650685495E+02  0.38851621875E+02 -0.11788979012E+03  0.12592057794E+03  0.47000000000E+01 0. -1.
        -11    1    3    3    0    0  0.29768717358E+02  0.18985887921E+02 -0.24945349856E+02  0.43230902752E+02  0.00000000000E+00 0. -1.
         11    1    3    3    0    0 -0.11111170080E+02  0.51418199251E+01  0.57141168678E+02  0.58438083222E+02  0.00000000000E+00 0.  1.
<mgrwt>
<rscale>  0 0.11972759E+03</rscale>
<asrwt>0</asrwt>
<pdfrwt beam="2">  1        2 0.37663434E-01 0.12868020E+03</pdfrwt>
<pdfrwt beam="1">  1       -2 0.13328909E-01 0.12868020E+03</pdfrwt>
<totfact> 0.54122251E+03</totfact>
</mgrwt>
</event>
<event>
 8    1  0.7550631E-006  0.1252916E+03  0.7546771E-02  0.1249476E+00
          2   -1    0    0  501    0  0.00000000000E+00  0.00000000000E+00  0.77220619328E+03  0.77220619328E+03  0.00000000000E+00 0. -1.
         -2   -1    0    0    0  501 -0.00000000000E+00 -0.00000000000E+00 -0.16244410504E+02  0.16244410504E+02  0.00000000000E+00 0.  1.
         23    2    1    2    0    0  0.56962900184E+01  0.62454884464E+01  0.23508389078E+03  0.25271582002E+03  0.92354729916E+02 0.  0.
         23    2    1    2    0    0 -0.56962900184E+01 -0.62454884464E+01  0.52087789199E+03  0.53573478376E+03  0.12500610513E+03 0.  0.
          5    1    4    4  502    0 -0.87073793654E+01  0.52721560117E+02  0.13381677759E+03  0.14416796219E+03  0.47000000000E+01 0. -1.
         -5    1    4    4    0  502  0.30110893470E+01 -0.58967048564E+02  0.38706111440E+03  0.39156682157E+03  0.47000000000E+01 0. -1.
        -11    1    3    3    0    0  0.41174034466E+01  0.43511253061E+02  0.18601156781E+03  0.19107717162E+03  0.00000000000E+00 0. -1.
         11    1    3    3    0    0  0.15788865718E+01 -0.37265764615E+02  0.49072322967E+02  0.61638648399E+02  0.00000000000E+00 0.  1.
<mgrwt>
<rscale>  0 0.11621417E+03</rscale>
<asrwt>0</asrwt>
<pdfrwt beam="1">  1        2 0.11880092E+00 0.12529158E+03</pdfrwt>
<pdfrwt beam="2">  1       -2 0.24991407E-02 0.12529158E+03</pdfrwt>
<totfact> 0.19445843E+04</totfact>
</mgrwt>
</event>
<event>
 8    1  0.7550631E-006  0.1436468E+03  0.7546771E-02  0.1228232E+00
         -1   -1    0    0    0  501 -0.00000000000E+00  0.00000000000E+00  0.16267800968E+02  0.16267800968E+02  0.00000000000E+00 0.  1.
          1   -1    0    0  501    0  0.00000000000E+00 -0.00000000000E+00 -0.88903572496E+03  0.88903572496E+03  0.00000000000E+00 0. -1.
         23    2    1    2    0    0  0.68082998761E+02  0.19344488231E+02 -0.29072304461E+03  0.30579484513E+03  0.63095916609E+02 0.  0.
         23    2    1    2    0    0 -0.68082998761E+02 -0.19344488231E+02 -0.58204487938E+03  0.59950868080E+03  0.12499965119E+03 0.  0.
          5    1    4    4  502    0  0.21361029985E+02  0.28457683168E+02 -0.86147265483E+02  0.93325102108E+02  0.47000000000E+01 0. -1.
         -5    1    4    4    0  502 -0.89444028747E+02 -0.47802171400E+02 -0.49589761390E+03  0.50618357869E+03  0.47000000000E+01 0. -1.
        -11    1    3    3    0    0  0.61569372175E+02  0.37537339658E+02 -0.18976102258E+03  0.20300020973E+03  0.00000000000E+00 0. -1.
         11    1    3    3    0    0  0.65136265867E+01 -0.18192851427E+02 -0.10096202203E+03  0.10279463540E+03  0.00000000000E+00 0.  1.
<mgrwt>
<rscale>  0 0.12947790E+03</rscale>
<asrwt>0</asrwt>
<pdfrwt beam="2">  1        1 0.13677474E+00 0.14364685E+03</pdfrwt>
<pdfrwt beam="1">  1       -1 0.25027384E-02 0.14364685E+03</pdfrwt>
<totfact> 0.92871246E+03</totfact>
</mgrwt>
</event>
<event>
 8    1  0.7550631E-006  0.1507959E+03  0.7546771E-02  0.1208284E+00
          2   -1    0    0  501    0  0.00000000000E+00  0.00000000000E+00  0.36521704859E+03  0.36521704859E+03  0.00000000000E+00 0. -1.
         -2   -1    0    0    0  501 -0.00000000000E+00 -0.00000000000E+00 -0.53652687080E+02  0.53652687080E+02  0.00000000000E+00 0.  1.
         23    2    1    2    0    0 -0.64195942954E+02 -0.54712072082E+02  0.10465549868E+03  0.16284107270E+03  0.91923400886E+02 0.  0.
         23    2    1    2    0    0  0.64195942954E+02  0.54712072082E+02  0.20690886283E+03  0.25602866297E+03  0.12499947529E+03 0.  0.
          5    1    4    4  502    0 -0.85993497887E+00 -0.14186118297E+02  0.13790115058E+03  0.13871122078E+03  0.47000000000E+01 0.  1.
         -5    1    4    4    0  502  0.65055877933E+02  0.68898190379E+02  0.69007712253E+02  0.11731744219E+03  0.47000000000E+01 0.  1.
        -11    1    3    3    0    0 -0.40122130889E+02 -0.78194087268E+02  0.91097094207E+02  0.12658112515E+03  0.00000000000E+00 0. -1.
         11    1    3    3    0    0 -0.24073812065E+02  0.23482015186E+02  0.13558404473E+02  0.36259947551E+02  0.00000000000E+00 0.  1.
<mgrwt>
<rscale>  0 0.14381653E+03</rscale>
<asrwt>0</asrwt>
<pdfrwt beam="1">  1        2 0.56187237E-01 0.15079588E+03</pdfrwt>
<pdfrwt beam="2">  1       -2 0.82542598E-02 0.15079588E+03</pdfrwt>
<totfact> 0.76187850E+03</totfact>
</mgrwt>
</event>
<event>
 8    1  0.7550631E-006  0.1310666E+03  0.7546771E-02  0.1239333E+00
          1   -1    0    0  501    0  0.00000000000E+00  0.00000000000E+00  0.69248524223E+02  0.69248524223E+02  0.00000000000E+00 0. -1.
         -1   -1    0    0    0  501 -0.00000000000E+00 -0.00000000000E+00 -0.25553529005E+03  0.25553529005E+03  0.00000000000E+00 0.  1.
         23    2    1    2    0    0 -0.32846028963E+02  0.21791744389E+02 -0.16409425330E+03  0.19185164316E+03  0.91249039858E+02 0.  0.
         23    2    1    2    0    0  0.32846028963E+02 -0.21791744389E+02 -0.22192512533E+02  0.13293217112E+03  0.12499885105E+03 0.  0.
          5    1    4    4  502    0 -0.34777369280E+02 -0.60793437274E+01 -0.47077764516E+02  0.59032446553E+02  0.47000000000E+01 0.  1.
         -5    1    4    4    0  502  0.67623398243E+02 -0.15712400662E+02  0.24885251983E+02  0.73899724565E+02  0.47000000000E+01 0.  1.
        -11    1    3    3    0    0  0.19222841219E+02 -0.54824466590E+01 -0.11054270538E+03  0.11233550000E+03  0.00000000000E+00 0.  1.
         11    1    3    3    0    0 -0.52068870182E+02  0.27274191048E+02 -0.53551547914E+02  0.79516143162E+02  0.00000000000E+00 0. -1.
<mgrwt>
<rscale>  0 0.12231067E+03</rscale>
<asrwt>0</asrwt>
<pdfrwt beam="1">  1        1 0.10653619E-01 0.13106660E+03</pdfrwt>
<pdfrwt beam="2">  1       -1 0.39313121E-01 0.13106660E+03</pdfrwt>
<totfact> 0.35956318E+03</totfact>
</mgrwt>
</event>
<event>
 8    1  0.7550631E-006  0.1347015E+03  0.7546771E-02  0.1233730E+00
         -3   -1    0    0    0  501 -0.00000000000E+00  0.00000000000E+00  0.65427180455E+02  0.65427180455E+02  0.00000000000E+00 0.  1.
          3   -1    0    0  501    0  0.00000000000E+00 -0.00000000000E+00 -0.21615009749E+03  0.21615009749E+03  0.00000000000E+00 0. -1.
         23    2    1    2    0    0  0.49435036071E+02 -0.88639725207E+01 -0.56465049705E+02  0.11717215978E+03  0.89546749737E+02 0.  0.
         23    2    1    2    0    0 -0.49435036071E+02  0.88639725207E+01 -0.94257867332E+02  0.16440511817E+03  0.12498841757E+03 0.  0.
          5    1    4    4  502    0 -0.45787252049E+02  0.60369541218E+02 -0.80739369065E+02  0.11082368733E+03  0.47000000000E+01 0.  1.
         -5    1    4    4    0  502 -0.36477840219E+01 -0.51505568698E+02 -0.13518498267E+02  0.53581430837E+02  0.47000000000E+01 0.  1.
        -11    1    3    3    0    0 -0.20091347838E+01 -0.35774315244E+02  0.50155987703E+00  0.35834198974E+02  0.00000000000E+00 0.  1.
         11    1    3    3    0    0  0.51444170855E+02  0.26910342724E+02 -0.56966609582E+02  0.81337960803E+02  0.00000000000E+00 0. -1.
<mgrwt>
<rscale>  0 0.12586056E+03</rscale>
<asrwt>0</asrwt>
<pdfrwt beam="2">  1        3 0.33253862E-01 0.13470151E+03</pdfrwt>
<pdfrwt beam="1">  1       -3 0.10065720E-01 0.13470151E+03</pdfrwt>
<totfact> 0.14825562E+03</totfact>
</mgrwt>
</event>
<event>
 8    1  0.7550631E-006  0.1360592E+03  0.7546771E-02  0.1231267E+00
         -2   -1    0    0    0  501 -0.00000000000E+00  0.00000000000E+00  0.20032620543E+02  0.20032620543E+02  0.00000000000E+00 0.  1.
          2   -1    0    0  501    0  0.00000000000E+00 -0.00000000000E+00 -0.77333699160E+03  0.77333699160E+03  0.00000000000E+00 0. -1.
         23    2    1    2    0    0  0.47320351686E+02  0.25275563912E+02 -0.23149659354E+03  0.25411507351E+03  0.90031816312E+02 0.  0.
         23    2    1    2    0    0 -0.47320351686E+02 -0.25275563912E+02 -0.52180777752E+03  0.53925453864E+03  0.12503611857E+03 0.  0.
          5    1    4    4  502    0 -0.53597207255E+02  0.76552922710E+01 -0.83410981828E+02  0.99552729821E+02  0.47000000000E+01 0. -1.
         -5    1    4    4    0  502  0.62768555693E+01 -0.32930856183E+02 -0.43839679569E+03  0.43970180881E+03  0.47000000000E+01 0. -1.
        -11    1    3    3    0    0  0.47366476608E+02  0.14361527049E+01 -0.22424451212E+03  0.22919696084E+03  0.00000000000E+00 0. -1.
         11    1    3    3    0    0 -0.46124922814E-01  0.23839411207E+02 -0.72520814217E+01  0.24918112672E+02  0.00000000000E+00 0.  1.
<mgrwt>
<rscale>  0 0.12746471E+03</rscale>
<asrwt>0</asrwt>
<pdfrwt beam="2">  1        2 0.11897492E+00 0.13605918E+03</pdfrwt>
<pdfrwt beam="1">  1       -2 0.30819416E-02 0.13605918E+03</pdfrwt>
<totfact> 0.14369645E+04</totfact>
</mgrwt>
</event>
<event>
 8    1  0.7550631E-006  0.1438586E+03  0.7546771E-02  0.1217925E+00
          2   -1    0    0  501    0  0.00000000000E+00  0.00000000000E+00  0.13468010659E+03  0.13468010659E+03  0.00000000000E+00 0. -1.
         -2   -1    0    0    0  501 -0.00000000000E+00 -0.00000000000E+00 -0.13366475840E+03  0.13366475840E+03  0.00000000000E+00 0.  1.
         23    2    1    2    0    0  0.71158457019E+02 -0.26818576114E+01 -0.30685181099E+02  0.12103489622E+03  0.92936254492E+02 0.  0.
         23    2    1    2    0    0 -0.71158457019E+02  0.26818576114E+01  0.31700529293E+02  0.14730996877E+03  0.12499833989E+03 0.  0.
          5    1    4    4  502    0  0.14075016969E+02  0.62027074981E+00 -0.35609245272E+02  0.38582368866E+02  0.47000000000E+01 0. -1.
         -5    1    4    4    0  502 -0.85233473988E+02  0.20615868615E+01  0.67309774564E+02  0.10872759990E+03  0.47000000000E+01 0. -1.
        -11    1    3    3    0    0 -0.11385663031E+02  0.26827983839E+02 -0.40949911676E+01  0.29430307375E+02  0.00000000000E+00 0.  1.
         11    1    3    3    0    0  0.82544120050E+02 -0.29509841451E+02 -0.26590189931E+02  0.91604588847E+02  0.00000000000E+00 0. -1.
<mgrwt>
<rscale>  0 0.13663852E+03</rscale>
<asrwt>0</asrwt>
<pdfrwt beam="1">  1        2 0.20720017E-01 0.14385862E+03</pdfrwt>
<pdfrwt beam="2">  1       -2 0.20563809E-01 0.14385862E+03</pdfrwt>
<totfact> 0.51115349E+03</totfact>
</mgrwt>
</event>
<event>
 8    1  0.7550631E-006  0.4468724E+03  0.7546771E-02  0.1029285E+00
         -2   -1    0    0    0  501 -0.00000000000E+00  0.00000000000E+00  0.19106114695E+03  0.19106114695E+03  0.00000000000E+00 0.  1.
          2   -1    0    0  501    0  0.00000000000E+00 -0.00000000000E+00 -0.11817826052E+04  0.11817826052E+04  0.00000000000E+00 0. -1.
         23    2    1    2    0    0  0.90902668464E+02  0.41929266627E+03 -0.24214469437E+03  0.50102832662E+03  0.91245251621E+02 0.  0.
         23    2    1    2    0    0 -0.90902668464E+02 -0.41929266627E+03 -0.74857676392E+03  0.87181542556E+03  0.12500131857E+03 0.  0.
          5    1    4    4  502    0 -0.67669489391E+02 -0.26624080064E+03 -0.58636040366E+03  0.64753682266E+03  0.47000000000E+01 0.  1.
         -5    1    4    4    0  502 -0.23233179073E+02 -0.15305186563E+03 -0.16221636026E+03  0.22427860290E+03  0.47000000000E+01 0.  1.
        -11    1    3    3    0    0  0.91778010700E+02  0.21336505676E+03 -0.11723055759E+03  0.26017466120E+03  0.00000000000E+00 0.  1.
         11    1    3    3    0    0 -0.87534223631E+00  0.20592760951E+03 -0.12491413677E+03  0.24085366542E+03  0.00000000000E+00 0. -1.
<mgrwt>
<rscale>  0 0.44479714E+03</rscale>
<asrwt>0</asrwt>
<pdfrwt beam="2">  1        2 0.18181271E+00 0.44687243E+03</pdfrwt>
<pdfrwt beam="1">  1       -2 0.29394023E-01 0.44687243E+03</pdfrwt>
<totfact> 0.21433029E+02</totfact>
</mgrwt>
</event>
<event>
 8    1  0.7550631E-006  0.1389671E+03  0.7546771E-02  0.1225943E+00
          2   -1    0    0  501    0  0.00000000000E+00  0.00000000000E+00  0.83862872956E+03  0.83862872956E+03  0.00000000000E+00 0. -1.
         -2   -1    0    0    0  501 -0.00000000000E+00 -0.00000000000E+00 -0.19549888316E+02  0.19549888316E+02  0.00000000000E+00 0.  1.
         23    2    1    2    0    0 -0.58033924131E+02  0.17862051496E+02  0.26319813233E+03  0.28519065055E+03  0.91506617609E+02 0.  0.
         23    2    1    2    0    0  0.58033924131E+02 -0.17862051496E+02  0.55588070891E+03  0.57298796732E+03  0.12499943569E+03 0.  0.
          5    1    4    4  502    0 -0.18105615869E+02  0.57491754481E+01  0.11328384076E+02  0.22611692332E+02  0.47000000000E+01 0.  1.
         -5    1    4    4    0  502  0.76139540000E+02 -0.23611226945E+02  0.54455232483E+03  0.55037627499E+03  0.47000000000E+01 0.  1.
        -11    1    3    3    0    0 -0.31967367913E+01 -0.31647950515E+02  0.47296155583E+02  0.56997703733E+02  0.00000000000E+00 0.  1.
         11    1    3    3    0    0 -0.54837187340E+02  0.49510002011E+02  0.21590197675E+03  0.22819294682E+03  0.00000000000E+00 0. -1.
<mgrwt>
<rscale>  0 0.13102506E+03</rscale>
<asrwt>0</asrwt>
<pdfrwt beam="1">  1        2 0.12901978E+00 0.13896708E+03</pdfrwt>
<pdfrwt beam="2">  1       -2 0.30076758E-02 0.13896708E+03</pdfrwt>
<totfact> 0.13481127E+04</totfact>
</mgrwt>
</event>
<event>
 8    1  0.7550631E-006  0.1800735E+03  0.7546771E-02  0.1173343E+00
         -2   -1    0    0    0  501 -0.00000000000E+00  0.00000000000E+00  0.84783249836E+02  0.84783249836E+02  0.00000000000E+00 0.  1.
          2   -1    0    0  501    0  0.00000000000E+00 -0.00000000000E+00 -0.56241846412E+03  0.56241846412E+03  0.00000000000E+00 0. -1.
         23    2    1    2    0    0  0.21726302138E+02  0.12778759998E+03 -0.25391417565E+02  0.16042567847E+03  0.91049279589E+02 0.  0.
         23    2    1    2    0    0 -0.21726302138E+02 -0.12778759998E+03 -0.45224379672E+03  0.48677603548E+03  0.12499901655E+03 0.  0.
          5    1    4    4  502    0 -0.56841338733E+02 -0.26726717449E+02 -0.96287101108E+02  0.11505890254E+03  0.47000000000E+01 0.  1.
         -5    1    4    4    0  502  0.35115036595E+02 -0.10106088253E+03 -0.35595669561E+03  0.37171713294E+03  0.47000000000E+01 0.  1.
        -11    1    3    3    0    0 -0.66163228823E+01  0.42341142443E+02 -0.51206376552E+02  0.66773056478E+02  0.00000000000E+00 0. -1.
         11    1    3    3    0    0  0.28342625020E+02  0.85446457537E+02  0.25814958987E+02  0.93652621993E+02  0.00000000000E+00 0.  1.
<mgrwt>
<rscale>  0 0.17439279E+03</rscale>
<asrwt>0</asrwt>
<pdfrwt beam="2">  1        2 0.86525919E-01 0.18007348E+03</pdfrwt>
<pdfrwt beam="1">  1       -2 0.13043577E-01 0.18007348E+03</pdfrwt>
<totfact> 0.23197506E+03</totfact>
</mgrwt>
</event>
<event>
 8    1  0.7550631E-006  0.1299417E+03  0.7546771E-02  0.1235415E+00
         -1   -1    0    0    0  501 -0.00000000000E+00  0.00000000000E+00  0.40498444306E+02  0.40498444306E+02  0.00000000000E+00 0.  1.
          1   -1    0    0  501    0  0.00000000000E+00 -0.00000000000E+00 -0.35743172270E+03  0.35743172270E+03  0.00000000000E+00 0. -1.
         23    2    1    2    0    0  0.30464621042E+02  0.18231850558E+02 -0.13766763248E+03  0.17652324552E+03  0.10463071091E+03 0.  0.
         23    2    1    2    0    0 -0.30464621042E+02 -0.18231850558E+02 -0.17926564591E+03  0.22140692148E+03  0.12499743824E+03 0.  0.
          5    1    4    4  502    0  0.12651669249E+02 -0.56444619796E+02 -0.39619113601E+02  0.70269652065E+02  0.47000000000E+01 0. -1.
         -5    1    4    4    0  502 -0.43116290291E+02  0.38212769239E+02 -0.13964653231E+03  0.15113726942E+03  0.47000000000E+01 0. -1.
        -11    1    3    3    0    0 -0.35313455943E+02 -0.10116497062E+02 -0.63877586736E+02  0.73686700093E+02  0.00000000000E+00 0.  1.
         11    1    3    3    0    0  0.65778076985E+02  0.28348347619E+02 -0.73790045747E+02  0.10283654543E+03  0.00000000000E+00 0. -1.
<mgrwt>
<rscale>  0 0.12477926E+03</rscale>
<asrwt>0</asrwt>
<pdfrwt beam="2">  1        1 0.54989495E-01 0.12994173E+03</pdfrwt>
<pdfrwt beam="1">  1       -1 0.62305300E-02 0.12994173E+03</pdfrwt>
<totfact> 0.83790379E+03</totfact>
</mgrwt>
</event>
<event>
 8    1  0.7550631E-006  0.1776830E+03  0.7546771E-02  0.1175866E+00
          1   -1    0    0  501    0  0.00000000000E+00  0.00000000000E+00  0.23619221135E+03  0.23619221135E+03  0.00000000000E+00 0. -1.
         -1   -1    0    0    0  501 -0.00000000000E+00 -0.00000000000E+00 -0.13664695113E+03  0.13664695113E+03  0.00000000000E+00 0.  1.
         23    2    1    2    0    0  0.74263297041E+02  0.10212963740E+03 -0.22435098139E+02  0.15731550610E+03  0.91100684451E+02 0.  0.
         23    2    1    2    0    0 -0.74263297041E+02 -0.10212963740E+03  0.12198035836E+03  0.21552365639E+03  0.12500295402E+03 0.  0.
          5    1    4    4  502    0 -0.60008655551E+02 -0.11729987959E+03  0.13645064631E+03  0.18973974115E+03  0.47000000000E+01 0.  1.
         -5    1    4    4    0  502 -0.14254641489E+02  0.15170242185E+02 -0.14470287949E+02  0.25783915243E+02  0.47000000000E+01 0.  1.
        -11    1    3    3    0    0  0.53953516182E+02  0.62608169167E+01 -0.23820185614E+02  0.59309198102E+02  0.00000000000E+00 0.  1.
         11    1    3    3    0    0  0.20309780859E+02  0.95868820486E+02  0.13850874749E+01  0.98006307997E+02  0.00000000000E+00 0. -1.
<mgrwt>
<rscale>  0 0.17191420E+03</rscale>
<asrwt>0</asrwt>
<pdfrwt beam="1">  1        1 0.36337263E-01 0.17768297E+03</pdfrwt>
<pdfrwt beam="2">  1       -1 0.21022608E-01 0.17768297E+03</pdfrwt>
<totfact> 0.21707107E+03</totfact>
</mgrwt>
</event>
<event>
 8    1  0.7550631E-006  0.1298989E+03  0.7546771E-02  0.1241915E+00
         -2   -1    0    0    0  501 -0.00000000000E+00  0.00000000000E+00  0.20508986821E+02  0.20508986821E+02  0.00000000000E+00 0.  1.
          2   -1    0    0  501    0  0.00000000000E+00 -0.00000000000E+00 -0.64286021397E+03  0.64286021397E+03  0.00000000000E+00 0. -1.
         23    2    1    2    0    0 -0.15320608502E+02  0.31959134409E+02 -0.21540214912E+03  0.23619091716E+03  0.90177359618E+02 0.  0.
         23    2    1    2    0    0  0.15320608502E+02 -0.31959134409E+02 -0.40694907803E+03  0.42717828363E+03  0.12497050283E+03 0.  0.
          5    1    4    4  502    0  0.25772007747E+02  0.26747652336E+02 -0.37758302460E+02  0.53173420931E+02  0.47000000000E+01 0. -1.
         -5    1    4    4    0  502 -0.10451399245E+02 -0.58706786744E+02 -0.36919077557E+03  0.37400486270E+03  0.47000000000E+01 0. -1.
        -11    1    3    3    0    0  0.33441328499E+02  0.63172157395E+01 -0.40948950763E+02  0.53245152221E+02  0.00000000000E+00 0.  1.
         11    1    3    3    0    0 -0.48761937001E+02  0.25641918669E+02 -0.17445319835E+03  0.18294576494E+03  0.00000000000E+00 0. -1.
<mgrwt>
<rscale>  0 0.12071916E+03</rscale>
<asrwt>0</asrwt>
<pdfrwt beam="2">  1        2 0.98901568E-01 0.12989894E+03</pdfrwt>
<pdfrwt beam="1">  1       -2 0.31552289E-02 0.12989894E+03</pdfrwt>
<totfact> 0.17235057E+04</totfact>
</mgrwt>
</event>
<event>
 8    1  0.7550631E-006  0.1435560E+03  0.7546771E-02  0.1220420E+00
          1   -1    0    0  501    0  0.00000000000E+00  0.00000000000E+00  0.10377693377E+03  0.10377693377E+03  0.00000000000E+00 0. -1.
         -1   -1    0    0    0  501 -0.00000000000E+00 -0.00000000000E+00 -0.17687886823E+03  0.17687886823E+03  0.00000000000E+00 0.  1.
         23    2    1    2    0    0 -0.66614099967E+02  0.23320929689E+02 -0.79133053173E+02  0.13697312004E+03  0.86708081708E+02 0.  0.
         23    2    1    2    0    0  0.66614099967E+02 -0.23320929689E+02  0.60311187065E+01  0.14368268196E+03  0.12500813824E+03 0.  0.
          5    1    4    4  502    0 -0.31446671188E+02 -0.28620546921E+02  0.14080271543E+02  0.45037460869E+02  0.47000000000E+01 0.  1.
         -5    1    4    4    0  502  0.98060771154E+02  0.52996172319E+01 -0.80491528365E+01  0.98645221088E+02  0.47000000000E+01 0.  1.
        -11    1    3    3    0    0 -0.36415988610E+02  0.49788997570E+02 -0.18777711317E+02  0.64480004248E+02  0.00000000000E+00 0.  1.
         11    1    3    3    0    0 -0.30198111356E+02 -0.26468067881E+02 -0.60355341857E+02  0.72493115794E+02  0.00000000000E+00 0. -1.
<mgrwt>
<rscale>  0 0.13485843E+03</rscale>
<asrwt>0</asrwt>
<pdfrwt beam="1">  1        1 0.15965682E-01 0.14355605E+03</pdfrwt>
<pdfrwt beam="2">  1       -1 0.27212134E-01 0.14355605E+03</pdfrwt>
<totfact> 0.39845993E+03</totfact>
</mgrwt>
</event>
<event>
 8    1  0.7550631E-006  0.1349485E+03  0.7546771E-02  0.1232877E+00
         -2   -1    0    0    0  501 -0.00000000000E+00  0.00000000000E+00  0.32994623031E+02  0.32994623031E+02  0.00000000000E+00 0.  1.
          2   -1    0    0  501    0  0.00000000000E+00 -0.00000000000E+00 -0.43342253168E+03  0.43342253168E+03  0.00000000000E+00 0. -1.
         23    2    1    2    0    0  0.11724396466E+02  0.49481967949E+02 -0.16251420558E+03  0.19289562985E+03  0.90619701926E+02 0.  0.
         23    2    1    2    0    0 -0.11724396466E+02 -0.49481967949E+02 -0.23791370307E+03  0.27352152485E+03  0.12500067131E+03 0.  0.
          5    1    4    4  502    0 -0.34013202362E+01 -0.51376489407E+02 -0.25152373623E+03  0.25678277304E+03  0.47000000000E+01 0. -1.
         -5    1    4    4    0  502 -0.83230762296E+01  0.18945214573E+01  0.13610033165E+02  0.16738751812E+02  0.47000000000E+01 0. -1.
        -11    1    3    3    0    0  0.39381843873E+02  0.93885711684E+01 -0.26408805582E+02  0.48337355200E+02  0.00000000000E+00 0.  1.
         11    1    3    3    0    0 -0.27657447407E+02  0.40093396781E+02 -0.13610540000E+03  0.14455827465E+03  0.00000000000E+00 0. -1.
<mgrwt>
<rscale>  0 0.12641343E+03</rscale>
<asrwt>0</asrwt>
<pdfrwt beam="2">  1        2 0.66680383E-01 0.13494849E+03</pdfrwt>
<pdfrwt beam="1">  1       -2 0.50760963E-02 0.13494849E+03</pdfrwt>
<totfact> 0.13213060E+04</totfact>
</mgrwt>
</event>
<event>
 8    1  0.7550631E-006  0.1611798E+03  0.7546771E-02  0.1194246E+00
         -1   -1    0    0    0  501 -0.00000000000E+00  0.00000000000E+00  0.38578896846E+03  0.38578896846E+03  0.00000000000E+00 0.  1.
          1   -1    0    0  501    0  0.00000000000E+00 -0.00000000000E+00 -0.58995821016E+02  0.58995821016E+02  0.00000000000E+00 0. -1.
         23    2    1    2    0    0  0.86721690918E+02  0.53238401651E+02  0.17701840432E+03  0.22475884635E+03  0.93947030078E+02 0.  0.
         23    2    1    2    0    0 -0.86721690918E+02 -0.53238401651E+02  0.14977474313E+03  0.22002594312E+03  0.12499585146E+03 0.  0.
          5    1    4    4  502    0 -0.10287445696E+03 -0.18086012847E+02  0.56297894427E+02  0.11875100283E+03  0.47000000000E+01 0. -1.
         -5    1    4    4    0  502  0.16152766040E+02 -0.35152388804E+02  0.93476848701E+02  0.10127494030E+03  0.47000000000E+01 0. -1.
        -11    1    3    3    0    0  0.22682746904E+02  0.39696800774E+02  0.14471706302E+03  0.15176749101E+03  0.00000000000E+00 0.  1.
         11    1    3    3    0    0  0.64038944014E+02  0.13541600878E+02  0.32301341296E+02  0.72991355340E+02  0.00000000000E+00 0. -1.
<mgrwt>
<rscale>  0 0.15518224E+03</rscale>
<asrwt>0</asrwt>
<pdfrwt beam="2">  1        1 0.90762804E-02 0.16117984E+03</pdfrwt>
<pdfrwt beam="1">  1       -1 0.59352147E-01 0.16117984E+03</pdfrwt>
<totfact> 0.21249233E+03</totfact>
</mgrwt>
</event>
<event>
 8    1  0.7550631E-006  0.1356346E+03  0.7546771E-02  0.1231548E+00
          2   -1    0    0  501    0  0.00000000000E+00  0.00000000000E+00  0.17703542223E+04  0.17703542223E+04  0.00000000000E+00 0. -1.
         -2   -1    0    0    0  501 -0.00000000000E+00 -0.00000000000E+00 -0.98123834381E+01  0.98123834381E+01  0.00000000000E+00 0.  1.
         23    2    1    2    0    0  0.16522375568E+02 -0.49991427345E+02  0.42777810553E+03  0.44051892062E+03  0.91053172121E+02 0.  0.
         23    2    1    2    0    0 -0.16522375568E+02  0.49991427345E+02  0.13327637334E+04  0.13396476851E+04  0.12499847858E+03 0.  0.
          5    1    4    4  502    0 -0.26872490511E+02 -0.37416877440E+02  0.37860658969E+03  0.38142783487E+03  0.47000000000E+01 0.  1.
         -5    1    4    4    0  502  0.10350114943E+02  0.87408304785E+02  0.95415714368E+03  0.95821985027E+03  0.47000000000E+01 0.  1.
        -11    1    3    3    0    0 -0.37720219475E+02 -0.23161460935E+02  0.19994917510E+03  0.20478999207E+03  0.00000000000E+00 0. -1.
         11    1    3    3    0    0  0.54242595043E+02 -0.26829966410E+02  0.22782893043E+03  0.23572892855E+03  0.00000000000E+00 0.  1.
<mgrwt>
<rscale>  0 0.12728028E+03</rscale>
<asrwt>0</asrwt>
<pdfrwt beam="1">  1        2 0.27236193E+00 0.13563462E+03</pdfrwt>
<pdfrwt beam="2">  1       -2 0.15095989E-02 0.13563462E+03</pdfrwt>
<totfact> 0.11208968E+04</totfact>
</mgrwt>
</event>
<event>
 8    1  0.7550631E-006  0.2066889E+03  0.7546771E-02  0.1148073E+00
          2   -1    0    0  501    0  0.00000000000E+00  0.00000000000E+00  0.25090868473E+04  0.25090868473E+04  0.00000000000E+00 0.  1.
         -2   -1    0    0    0  501 -0.00000000000E+00 -0.00000000000E+00 -0.31529322911E+02  0.31529322911E+02  0.00000000000E+00 0. -1.
         23    2    1    2    0    0  0.23930839948E+02 -0.16286448430E+03  0.30714062686E+03  0.36037998790E+03  0.91874075029E+02 0.  0.
         23    2    1    2    0    0 -0.23930839948E+02  0.16286448430E+03  0.21704168976E+04  0.21802361823E+04  0.12499110464E+03 0.  0.
          5    1    4    4  502    0 -0.19260965912E+02  0.55476198013E+02  0.25160077130E+03  0.25840594318E+03  0.47000000000E+01 0.  1.
         -5    1    4    4    0  502 -0.46698740365E+01  0.10738828629E+03  0.19188161263E+04  0.19218302392E+04  0.47000000000E+01 0.  1.
        -11    1    3    3    0    0  0.64836431541E+01 -0.15682378629E+03  0.30332193020E+03  0.34152588616E+03  0.00000000000E+00 0.  1.
         11    1    3    3    0    0  0.17447196794E+02 -0.60406980111E+01  0.38186966655E+01  0.18854101746E+02  0.00000000000E+00 0. -1.
<mgrwt>
<rscale>  0 0.20198776E+03</rscale>
<asrwt>0</asrwt>
<pdfrwt beam="1">  1        2 0.38601320E+00 0.20668890E+03</pdfrwt>
<pdfrwt beam="2">  1       -2 0.48506670E-02 0.20668890E+03</pdfrwt>
<totfact> 0.82328239E+02</totfact>
</mgrwt>
</event>
<event>
 7    1  0.7550631E-006  0.4579467E+03  0.7546771E-02  0.1025378E+00
         -2   -1    0    0    0  501 -0.00000000000E+00  0.00000000000E+00  0.28574578988E+02  0.28574578988E+02  0.00000000000E+00 0.  1.
          2   -1    0    0  501    0  0.00000000000E+00 -0.00000000000E+00 -0.18348057871E+04  0.18348057871E+04  0.00000000000E+00 0. -1.
         23    2    1    2    0    0  0.12863084538E+02 -0.34662883823E+02 -0.79129104548E+02  0.12613523514E+03  0.91003889463E+02 0.  0.
          5    1    1    2  502    0 -0.16208140030E+02  0.22930342198E+02 -0.17234299763E+04  0.17236651292E+04  0.47000000000E+01 0. -1.
         -5    1    1    2    0  502  0.33450554925E+01  0.11732541625E+02 -0.36721272732E+01  0.13580001765E+02  0.47000000000E+01 0.  1.
        -11    1    3    3    0    0 -0.23635324159E+02  0.20055572085E+02 -0.15647328451E+02  0.34723096167E+02  0.00000000000E+00 0. -1.
         11    1    3    3    0    0  0.36498408696E+02 -0.54718455908E+02 -0.63481776098E+02  0.91412138969E+02  0.00000000000E+00 0.  1.
<mgrwt>
<rscale>  0 0.45794673E+03</rscale>
<asrwt>0</asrwt>
<pdfrwt beam="2">  1        2 0.28227785E+00 0.45794673E+03</pdfrwt>
<pdfrwt beam="1">  1       -2 0.43960884E-02 0.45794673E+03</pdfrwt>
<totfact> 0.21438769E+03</totfact>
</mgrwt>
</event>
<event>
 8    1  0.7550631E-006  0.1834756E+03  0.7546771E-02  0.1169796E+00
         -1   -1    0    0    0  501 -0.00000000000E+00  0.00000000000E+00  0.82657457262E+02  0.82657457262E+02  0.00000000000E+00 0.  1.
          1   -1    0    0  501    0  0.00000000000E+00 -0.00000000000E+00 -0.39516533257E+03  0.39516533257E+03  0.00000000000E+00 0. -1.
         23    2    1    2    0    0  0.17097847092E+02  0.13321693437E+03 -0.78188624073E+02  0.18021764645E+03  0.91246102272E+02 0.  0.
         23    2    1    2    0    0 -0.17097847092E+02 -0.13321693437E+03 -0.23431925124E+03  0.29760514338E+03  0.12499688751E+03 0.  0.
          5    1    4    4  502    0  0.47261090882E+02 -0.90470137592E+02 -0.10243601504E+03  0.14468477351E+03  0.47000000000E+01 0.  1.
         -5    1    4    4    0  502 -0.64358937974E+02 -0.42746796782E+02 -0.13188323620E+03  0.15292036987E+03  0.47000000000E+01 0.  1.
        -11    1    3    3    0    0 -0.13391561605E+02  0.59641082433E+01  0.13904590730E+02  0.20205003161E+02  0.00000000000E+00 0.  1.
         11    1    3    3    0    0  0.30489408697E+02  0.12725282613E+03 -0.92093214803E+02  0.16001264329E+03  0.00000000000E+00 0. -1.
<mgrwt>
<rscale>  0 0.17795580E+03</rscale>
<asrwt>0</asrwt>
<pdfrwt beam="2">  1        1 0.60794666E-01 0.18347564E+03</pdfrwt>
<pdfrwt beam="1">  1       -1 0.12716532E-01 0.18347564E+03</pdfrwt>
<totfact> 0.25356085E+03</totfact>
</mgrwt>
</event>
<event>
 8    1  0.7550631E-006  0.1386240E+03  0.7546771E-02  0.1225118E+00
          2   -1    0    0  501    0  0.00000000000E+00  0.00000000000E+00  0.72949310329E+03  0.72949310329E+03  0.00000000000E+00 0. -1.
         -2   -1    0    0    0  501 -0.00000000000E+00 -0.00000000000E+00 -0.22243725893E+02  0.22243725893E+02  0.00000000000E+00 0.  1.
         23    2    1    2    0    0 -0.20300807403E+02 -0.56393477222E+02  0.25537449986E+03  0.27907678801E+03  0.95264743595E+02 0.  0.
         23    2    1    2    0    0  0.20300807403E+02  0.56393477222E+02  0.45187487754E+03  0.47266004118E+03  0.12499705004E+03 0.  0.
          5    1    4    4  502    0  0.45647174440E+02  0.87066824504E+02  0.33048850530E+03  0.34483189905E+03  0.47000000000E+01 0.  1.
         -5    1    4    4    0  502 -0.25346367037E+02 -0.30673347281E+02  0.12138637224E+03  0.12782814213E+03  0.47000000000E+01 0.  1.
        -11    1    3    3    0    0  0.30403436130E+02 -0.43829286837E+02  0.80519324592E+02  0.96585386813E+02  0.00000000000E+00 0.  1.
         11    1    3    3    0    0 -0.50704243533E+02 -0.12564190385E+02  0.17485517527E+03  0.18249140120E+03  0.00000000000E+00 0. -1.
<mgrwt>
<rscale>  0 0.13158794E+03</rscale>
<asrwt>0</asrwt>
<pdfrwt beam="1">  1        2 0.11222969E+00 0.13862399E+03</pdfrwt>
<pdfrwt beam="2">  1       -2 0.34221122E-02 0.13862399E+03</pdfrwt>
<totfact> 0.13236824E+04</totfact>
</mgrwt>
</event>
<event>
 7    1  0.7550631E-006  0.1287172E+03  0.7546771E-02  0.1230673E+00
         -2   -1    0    0    0  501 -0.00000000000E+00  0.00000000000E+00  0.50000483306E+03  0.50000483306E+03  0.00000000000E+00 0.  1.
          2   -1    0    0  501    0  0.00000000000E+00 -0.00000000000E+00 -0.66078294613E+02  0.66078294613E+02  0.00000000000E+00 0. -1.
         23    2    1    2    0    0  0.59886992831E+01 -0.62907430111E+01  0.13071238227E+02  0.12598392751E+03  0.12500261899E+03 0.  0.
          5    1    3    3  502    0  0.28256606375E+02  0.19695123398E+02 -0.45937615230E+02  0.57608056576E+02  0.47000000000E+01 0. -1.
         -5    1    3    3    0  502 -0.22267907092E+02 -0.25985866409E+02  0.59008853457E+02  0.68375870931E+02  0.47000000000E+01 0. -1.
        -11    1    1    2    0    0  0.57876849337E+02  0.23668834738E+02  0.20433263887E+03  0.21368615007E+03  0.00000000000E+00 0. -1.
         11    1    1    2    0    0 -0.63865548620E+02 -0.17378091727E+02  0.21652266136E+03  0.22641305010E+03  0.00000000000E+00 0.  1.
<mgrwt>
<rscale>  0 0.12785530E+03</rscale>
<asrwt>0</asrwt>
<pdfrwt beam="2">  1        2 0.10165892E-01 0.12871722E+03</pdfrwt>
<pdfrwt beam="1">  1       -2 0.76923818E-01 0.12871722E+03</pdfrwt>
<totfact> 0.95076739E+02</totfact>
</mgrwt>
</event>
<event>
 8    1  0.7550631E-006  0.1302374E+03  0.7546771E-02  0.1240568E+00
         -2   -1    0    0    0  501 -0.00000000000E+00  0.00000000000E+00  0.25165497934E+03  0.25165497934E+03  0.00000000000E+00 0.  1.
          2   -1    0    0  501    0  0.00000000000E+00 -0.00000000000E+00 -0.52345388934E+02  0.52345388934E+02  0.00000000000E+00 0. -1.
         23    2    1    2    0    0  0.20682561399E+02  0.30142704736E+02  0.96072793886E+02  0.13780887504E+03  0.91787544467E+02 0.  0.
         23    2    1    2    0    0 -0.20682561399E+02 -0.30142704736E+02  0.10323679652E+03  0.16619149324E+03  0.12500170108E+03 0.  0.
          5    1    4    4  502    0  0.69672181989E+01  0.20788626596E+02 -0.19924017729E+02  0.29996093206E+02  0.47000000000E+01 0.  1.
         -5    1    4    4    0  502 -0.27649779598E+02 -0.50931331331E+02  0.12316081425E+03  0.13619540003E+03  0.47000000000E+01 0.  1.
        -11    1    3    3    0    0  0.26448845760E+02  0.62723370000E+01  0.10738480753E+03  0.11077174975E+03  0.00000000000E+00 0.  1.
         11    1    3    3    0    0 -0.57662843614E+01  0.23870367736E+02 -0.11312013646E+02  0.27037125289E+02  0.00000000000E+00 0. -1.
<mgrwt>
<rscale>  0 0.12154588E+03</rscale>
<asrwt>0</asrwt>
<pdfrwt beam="2">  1        2 0.80531369E-02 0.13023738E+03</pdfrwt>
<pdfrwt beam="1">  1       -2 0.38716150E-01 0.13023738E+03</pdfrwt>
<totfact> 0.50648400E+03</totfact>
</mgrwt>
</event>
<event>
 8    1  0.7550631E-006  0.1273334E+03  0.7546771E-02  0.1245702E+00
          2   -1    0    0  501    0  0.00000000000E+00  0.00000000000E+00  0.56408377248E+03  0.56408377248E+03  0.00000000000E+00 0. -1.
         -2   -1    0    0    0  501 -0.00000000000E+00 -0.00000000000E+00 -0.38720709758E+02  0.38720709758E+02  0.00000000000E+00 0.  1.
         23    2    1    2    0    0 -0.16860433150E+02 -0.17429963523E+02  0.44149702122E+02  0.10502934663E+03  0.92162300432E+02 0.  0.
         23    2    1    2    0    0  0.16860433150E+02  0.17429963523E+02  0.48121336060E+03  0.49777513561E+03  0.12500283748E+03 0.  0.
          5    1    4    4  502    0  0.62638669547E+02  0.18776257993E+02  0.15451058872E+03  0.16784446019E+03  0.47000000000E+01 0.  1.
         -5    1    4    4    0  502 -0.45778236397E+02 -0.13462944697E+01  0.32670277188E+03  0.32993067543E+03  0.47000000000E+01 0.  1.
        -11    1    3    3    0    0 -0.70914431511E+01  0.38109443224E+02  0.15164307304E+02  0.41624205035E+02  0.00000000000E+00 0.  1.
         11    1    3    3    0    0 -0.97689899991E+01 -0.55539406747E+02  0.28985394818E+02  0.63405141591E+02  0.00000000000E+00 0. -1.
<mgrwt>
<rscale>  0 0.11843476E+03</rscale>
<asrwt>0</asrwt>
<pdfrwt beam="1">  1        2 0.86782113E-01 0.12733337E+03</pdfrwt>
<pdfrwt beam="2">  1       -2 0.59570327E-02 0.12733337E+03</pdfrwt>
<totfact> 0.77456374E+03</totfact>
</mgrwt>
</event>
<event>
 8    1  0.7550631E-006  0.1522163E+03  0.7546771E-02  0.1206286E+00
         -2   -1    0    0    0  501 -0.00000000000E+00  0.00000000000E+00  0.38600167987E+02  0.38600167987E+02  0.00000000000E+00 0.  1.
          2   -1    0    0  501    0  0.00000000000E+00 -0.00000000000E+00 -0.59212437207E+03  0.59212437207E+03  0.00000000000E+00 0. -1.
         23    2    1    2    0    0  0.55156698229E+01 -0.86691907277E+02 -0.13359532338E+03  0.18405905822E+03  0.92109267083E+02 0.  0.
         23    2    1    2    0    0 -0.55156698229E+01  0.86691907277E+02 -0.41992888071E+03  0.44666548184E+03  0.12499551358E+03 0.  0.
          5    1    4    4  502    0 -0.59895056951E+02  0.36388504295E+02 -0.27507216945E+03  0.28389844927E+03  0.47000000000E+01 0.  1.
         -5    1    4    4    0  502  0.54379387128E+02  0.50303402982E+02 -0.14485671126E+03  0.16276703257E+03  0.47000000000E+01 0.  1.
        -11    1    3    3    0    0  0.32362634573E+02  0.30606495673E+01 -0.41194430089E+02  0.52475601594E+02  0.00000000000E+00 0.  1.
         11    1    3    3    0    0 -0.26846964750E+02 -0.89752556844E+02 -0.92400893288E+02  0.13158345662E+03  0.00000000000E+00 0. -1.
<mgrwt>
<rscale>  0 0.14536590E+03</rscale>
<asrwt>0</asrwt>
<pdfrwt beam="2">  1        2 0.91096055E-01 0.15221625E+03</pdfrwt>
<pdfrwt beam="1">  1       -2 0.59384876E-02 0.15221625E+03</pdfrwt>
<totfact> 0.74455492E+03</totfact>
</mgrwt>
</event>
<event>
 8    1  0.7550631E-006  0.1933684E+03  0.7546771E-02  0.1160054E+00
         -2   -1    0    0    0  501 -0.00000000000E+00  0.00000000000E+00  0.55381518253E+02  0.55381518253E+02  0.00000000000E+00 0.  1.
          2   -1    0    0  501    0  0.00000000000E+00 -0.00000000000E+00 -0.72526000656E+03  0.72526000656E+03  0.00000000000E+00 0. -1.
         23    2    1    2    0    0 -0.13631593682E+03 -0.56421170044E+02 -0.16321663971E+03  0.23833389963E+03  0.91640565115E+02 0.  0.
         23    2    1    2    0    0  0.13631593682E+03  0.56421170044E+02 -0.50666184859E+03  0.54230762518E+03  0.12500379375E+03 0.  0.
          5    1    4    4  502    0  0.11355243232E+03  0.45798714358E+02 -0.19977343615E+03  0.23435697752E+03  0.47000000000E+01 0.  1.
         -5    1    4    4    0  502  0.22763504498E+02  0.10622455686E+02 -0.30688841244E+03  0.30795064766E+03  0.47000000000E+01 0.  1.
        -11    1    3    3    0    0 -0.90382135554E+02 -0.32736176615E+02 -0.15987007458E+03  0.18654497697E+03  0.00000000000E+00 0. -1.
         11    1    3    3    0    0 -0.45933801262E+02 -0.23684993429E+02 -0.33465651333E+01  0.51788922660E+02  0.00000000000E+00 0.  1.
<mgrwt>
<rscale>  0 0.18824528E+03</rscale>
<asrwt>0</asrwt>
<pdfrwt beam="2">  1        2 0.11157847E+00 0.19336838E+03</pdfrwt>
<pdfrwt beam="1">  1       -2 0.85202332E-02 0.19336838E+03</pdfrwt>
<totfact> 0.33968397E+03</totfact>
</mgrwt>
</event>
<event>
 8    1  0.7550631E-006  0.1307727E+03  0.7546771E-02  0.1239688E+00
          1   -1    0    0  501    0  0.00000000000E+00  0.00000000000E+00  0.12640038952E+04  0.12640038952E+04  0.00000000000E+00 0. -1.
         -1   -1    0    0    0  501 -0.00000000000E+00 -0.00000000000E+00 -0.23256387933E+02  0.23256387933E+02  0.00000000000E+00 0.  1.
         23    2    1    2    0    0  0.18989119076E+00  0.38416045169E+02  0.10706265130E+03  0.14605790733E+03  0.91622444879E+02 0.  0.
         23    2    1    2    0    0 -0.18989119076E+00 -0.38416045169E+02  0.11336848559E+04  0.11412023758E+04  0.12500272517E+03 0.  0.
          5    1    4    4  502    0 -0.13607215467E+01 -0.59561751045E+02  0.10966834724E+04  0.10983106038E+04  0.47000000000E+01 0. -1.
         -5    1    4    4    0  502  0.11708303560E+01  0.21145705876E+02  0.37001383555E+02  0.42891772004E+02  0.47000000000E+01 0. -1.
        -11    1    3    3    0    0 -0.43581724442E+02  0.17444196101E+02  0.72890126060E+02  0.86698541856E+02  0.00000000000E+00 0. -1.
         11    1    3    3    0    0  0.43771615632E+02  0.20971849068E+02  0.34172525239E+02  0.59359365475E+02  0.00000000000E+00 0.  1.
<mgrwt>
<rscale>  0 0.12209006E+03</rscale>
<asrwt>0</asrwt>
<pdfrwt beam="1">  1        1 0.19446208E+00 0.13077274E+03</pdfrwt>
<pdfrwt beam="2">  1       -1 0.35779068E-02 0.13077274E+03</pdfrwt>
<totfact> 0.29660031E+03</totfact>
</mgrwt>
</event>
<event>
 8    1  0.7550631E-006  0.2657694E+03  0.7546771E-02  0.1105858E+00
          2   -1    0    0  501    0  0.00000000000E+00  0.00000000000E+00  0.26223982225E+04  0.26223982225E+04  0.00000000000E+00 0. -1.
         -2   -1    0    0    0  501 -0.00000000000E+00 -0.00000000000E+00 -0.29224949872E+02  0.29224949872E+02  0.00000000000E+00 0.  1.
         23    2    1    2    0    0  0.16769682276E+03 -0.16396943026E+03  0.79344622918E+03  0.83237859739E+03  0.91044013423E+02 0.  0.
         23    2    1    2    0    0 -0.16769682276E+03  0.16396943026E+03  0.17997270435E+04  0.18192445750E+04  0.12500077697E+03 0.  0.
          5    1    4    4  502    0 -0.58621440449E+02  0.52180845567E+02  0.26048464770E+03  0.27209126338E+03  0.47000000000E+01 0.  1.
         -5    1    4    4    0  502 -0.10907538231E+03  0.11178858469E+03  0.15392423958E+04  0.15471533116E+04  0.47000000000E+01 0.  1.
        -11    1    3    3    0    0  0.13078190026E+03 -0.65497955053E+02  0.44687951891E+03  0.47020760518E+03  0.00000000000E+00 0.  1.
         11    1    3    3    0    0  0.36914922497E+02 -0.98471475206E+02  0.34656671027E+03  0.36217099221E+03  0.00000000000E+00 0. -1.
<mgrwt>
<rscale>  0 0.26215120E+03</rscale>
<asrwt>0</asrwt>
<pdfrwt beam="1">  1        2 0.40344569E+00 0.26576944E+03</pdfrwt>
<pdfrwt beam="2">  1       -2 0.44961482E-02 0.26576944E+03</pdfrwt>
<totfact> 0.79082865E+02</totfact>
</mgrwt>
</event>
<event>
 8    1  0.7550631E-006  0.1334240E+03  0.7546771E-02  0.1235086E+00
         -1   -1    0    0    0  501 -0.00000000000E+00  0.00000000000E+00  0.33619457377E+02  0.33619457377E+02  0.00000000000E+00 0.  1.
          1   -1    0    0  501    0  0.00000000000E+00 -0.00000000000E+00 -0.53311959670E+03  0.53311959670E+03  0.00000000000E+00 0. -1.
         23    2    1    2    0    0 -0.46102204516E+02 -0.72065397171E+01 -0.91888150113E+02  0.13784572024E+03  0.91545961038E+02 0.  0.
         23    2    1    2    0    0  0.46102204516E+02  0.72065397171E+01 -0.40761198921E+03  0.42889333383E+03  0.12499844232E+03 0.  0.
          5    1    4    4  502    0  0.17092320767E+02 -0.11039622701E+02 -0.38909938126E+03  0.38965938869E+03  0.47000000000E+01 0. -1.
         -5    1    4    4    0  502  0.29009883749E+02  0.18246162418E+02 -0.18512607945E+02  0.39233945137E+02  0.47000000000E+01 0. -1.
        -11    1    3    3    0    0 -0.68197817873E+02  0.10758106857E+02 -0.83110675461E+02  0.10804658070E+03  0.00000000000E+00 0. -1.
         11    1    3    3    0    0  0.22095613357E+02 -0.17964646574E+02 -0.87774746515E+01  0.29799139542E+02  0.00000000000E+00 0.  1.
<mgrwt>
<rscale>  0 0.12498940E+03</rscale>
<asrwt>0</asrwt>
<pdfrwt beam="2">  1        1 0.82018385E-01 0.13342398E+03</pdfrwt>
<pdfrwt beam="1">  1       -1 0.51722251E-02 0.13342398E+03</pdfrwt>
<totfact> 0.66423811E+03</totfact>
</mgrwt>
</event>
<event>
 8    1  0.7550631E-006  0.1716571E+03  0.7546771E-02  0.1182537E+00
          1   -1    0    0  501    0  0.00000000000E+00  0.00000000000E+00  0.68834072375E+03  0.68834072375E+03  0.00000000000E+00 0. -1.
         -1   -1    0    0    0  501 -0.00000000000E+00 -0.00000000000E+00 -0.42870379282E+02  0.42870379282E+02  0.00000000000E+00 0.  1.
         23    2    1    2    0    0  0.52174292872E+02 -0.10545200108E+03  0.17051319359E+03  0.22618591726E+03  0.90791181348E+02 0.  0.
         23    2    1    2    0    0 -0.52174292872E+02  0.10545200108E+03  0.47495715088E+03  0.50502518578E+03  0.12499544681E+03 0.  0.
          5    1    4    4  502    0 -0.32109057843E+02  0.45851437118E+02  0.49352155945E+02  0.74773465734E+02  0.47000000000E+01 0.  1.
         -5    1    4    4    0  502 -0.20065235028E+02  0.59600563965E+02  0.42560499494E+03  0.43025172004E+03  0.47000000000E+01 0.  1.
        -11    1    3    3    0    0  0.15029384154E+02 -0.67236837612E+02  0.15663203849E+03  0.17111478662E+03  0.00000000000E+00 0. -1.
         11    1    3    3    0    0  0.37144908717E+02 -0.38215163472E+02  0.13881155098E+02  0.55071130637E+02  0.00000000000E+00 0.  1.
<mgrwt>
<rscale>  0 0.16558050E+03</rscale>
<asrwt>0</asrwt>
<pdfrwt beam="1">  1        1 0.10589857E+00 0.17165705E+03</pdfrwt>
<pdfrwt beam="2">  1       -1 0.65954435E-02 0.17165705E+03</pdfrwt>
<totfact> 0.32915573E+03</totfact>
</mgrwt>
</event>
<event>
 8    1  0.7550631E-006  0.2335590E+03  0.7546771E-02  0.1127373E+00
          1   -1    0    0  501    0  0.00000000000E+00  0.00000000000E+00  0.13332552786E+04  0.13332552786E+04  0.00000000000E+00 0. -1.
         -1   -1    0    0    0  501 -0.00000000000E+00 -0.00000000000E+00 -0.37885357634E+02  0.37885357634E+02  0.00000000000E+00 0.  1.
         23    2    1    2    0    0 -0.31367556443E+02  0.19478567965E+03  0.60021760827E+03  0.63780132466E+03  0.87200733141E+02 0.  0.
         23    2    1    2    0    0  0.31367556443E+02 -0.19478567965E+03  0.69515231273E+03  0.73333931161E+03  0.12499769385E+03 0.  0.
          5    1    4    4  502    0  0.33063766161E+02 -0.11779613492E+03  0.21835268389E+03  0.25033802467E+03  0.47000000000E+01 0. -1.
         -5    1    4    4    0  502 -0.16962097180E+01 -0.76989544736E+02  0.47679962884E+03  0.48300128694E+03  0.47000000000E+01 0. -1.
        -11    1    3    3    0    0 -0.18644411542E+02  0.13907707204E+03  0.52447046687E+03  0.54291741238E+03  0.00000000000E+00 0. -1.
         11    1    3    3    0    0 -0.12723144901E+02  0.55708607612E+02  0.75747141407E+02  0.94883912280E+02  0.00000000000E+00 0.  1.
<mgrwt>
<rscale>  0 0.22896196E+03</rscale>
<asrwt>0</asrwt>
<pdfrwt beam="1">  1        1 0.20511616E+00 0.23355900E+03</pdfrwt>
<pdfrwt beam="2">  1       -1 0.58285176E-02 0.23355900E+03</pdfrwt>
<totfact> 0.12953416E+03</totfact>
</mgrwt>
</event>
<event>
 8    1  0.7550631E-006  0.1427830E+03  0.7546771E-02  0.1220291E+00
         -2   -1    0    0    0  501 -0.00000000000E+00  0.00000000000E+00  0.13778785533E+02  0.13778785533E+02  0.00000000000E+00 0.  1.
          2   -1    0    0  501    0  0.00000000000E+00 -0.00000000000E+00 -0.12457117668E+04  0.12457117668E+04  0.00000000000E+00 0. -1.
         23    2    1    2    0    0  0.68051974371E+02  0.11427831187E+02 -0.42415862361E+03  0.43919401958E+03  0.90659706101E+02 0.  0.
         23    2    1    2    0    0 -0.68051974371E+02 -0.11427831187E+02 -0.80777435770E+03  0.82029653279E+03  0.12500128887E+03 0.  0.
          5    1    4    4  502    0 -0.47331391436E+02 -0.62935395097E+02 -0.60067363226E+03  0.60583168212E+03  0.47000000000E+01 0. -1.
         -5    1    4    4    0  502 -0.20720582934E+02  0.51507563910E+02 -0.20710072544E+03  0.21446485067E+03  0.47000000000E+01 0. -1.
        -11    1    3    3    0    0  0.85235506884E+02 -0.70519223037E+01 -0.36484785581E+03  0.37473828085E+03  0.00000000000E+00 0. -1.
         11    1    3    3    0    0 -0.17183532513E+02  0.18479753491E+02 -0.59310767798E+02  0.64455738732E+02  0.00000000000E+00 0.  1.
<mgrwt>
<rscale>  0 0.13494919E+03</rscale>
<asrwt>0</asrwt>
<pdfrwt beam="2">  1        2 0.19164789E+00 0.14278301E+03</pdfrwt>
<pdfrwt beam="1">  1       -2 0.21198140E-02 0.14278301E+03</pdfrwt>
<totfact> 0.12934151E+04</totfact>
</mgrwt>
</event>
<event>
 8    1  0.7550631E-006  0.1262788E+03  0.7546771E-02  0.1248266E+00
         -2   -1    0    0    0  501 -0.00000000000E+00  0.00000000000E+00  0.15828983921E+02  0.15828983921E+02  0.00000000000E+00 0.  1.
          2   -1    0    0  501    0  0.00000000000E+00 -0.00000000000E+00 -0.79590166236E+03  0.79590166236E+03  0.00000000000E+00 0. -1.
         23    2    1    2    0    0  0.58962889970E+01  0.16865695988E+02 -0.24575607502E+03  0.26269460080E+03  0.91066936662E+02 0.  0.
         23    2    1    2    0    0 -0.58962889970E+01 -0.16865695988E+02 -0.53431660342E+03  0.54903604548E+03  0.12500851422E+03 0.  0.
          5    1    4    4  502    0 -0.36381304598E+02  0.37159867155E+02 -0.13225134035E+03  0.14218636389E+03  0.47000000000E+01 0. -1.
         -5    1    4    4    0  502  0.30485015601E+02 -0.54025563142E+02 -0.40206526307E+03  0.40684968160E+03  0.47000000000E+01 0. -1.
        -11    1    3    3    0    0 -0.21581772528E+02  0.47064038500E+02 -0.12882882006E+03  0.13884401861E+03  0.00000000000E+00 0.  1.
         11    1    3    3    0    0  0.27478061525E+02 -0.30198342512E+02 -0.11692725496E+03  0.12385058219E+03  0.00000000000E+00 0. -1.
<mgrwt>
<rscale>  0 0.11691992E+03</rscale>
<asrwt>0</asrwt>
<pdfrwt beam="2">  1        2 0.12244639E+00 0.12627884E+03</pdfrwt>
<pdfrwt beam="1">  1       -2 0.24352287E-02 0.12627884E+03</pdfrwt>
<totfact> 0.19469405E+04</totfact>
</mgrwt>
</event>
<event>
 8    1  0.7550631E-006  0.1512409E+03  0.7546771E-02  0.1207846E+00
         -2   -1    0    0    0  501 -0.00000000000E+00  0.00000000000E+00  0.35211011314E+02  0.35211011314E+02  0.00000000000E+00 0. -1.
          2   -1    0    0  501    0  0.00000000000E+00 -0.00000000000E+00 -0.58435657895E+03  0.58435657895E+03  0.00000000000E+00 0.  1.
         23    2    1    2    0    0 -0.11736295792E+02 -0.84325864074E+02 -0.16632830421E+03  0.20795748309E+03  0.91283174800E+02 0.  0.
         23    2    1    2    0    0  0.11736295792E+02  0.84325864074E+02 -0.38281726342E+03  0.41161010717E+03  0.12500092463E+03 0.  0.
          5    1    4    4  502    0 -0.44331843328E+02  0.64452180248E+00 -0.17543194746E+03  0.18100880070E+03  0.47000000000E+01 0. -1.
         -5    1    4    4    0  502  0.56068139120E+02  0.83681342271E+02 -0.20738531597E+03  0.23060130647E+03  0.47000000000E+01 0. -1.
        -11    1    3    3    0    0 -0.23562437926E+02 -0.45620330404E+02 -0.15866523327E+03  0.16676648128E+03  0.00000000000E+00 0.  1.
         11    1    3    3    0    0  0.11826142134E+02 -0.38705533669E+02 -0.76630709365E+01  0.41191001815E+02  0.00000000000E+00 0. -1.
<mgrwt>
<rscale>  0 0.14415416E+03</rscale>
<asrwt>0</asrwt>
<pdfrwt beam="2">  1        2 0.89901014E-01 0.15124094E+03</pdfrwt>
<pdfrwt beam="1">  1       -2 0.54170785E-02 0.15124094E+03</pdfrwt>
<totfact> 0.86844730E+03</totfact>
</mgrwt>
</event>
<event>
 8    1  0.7550631E-006  0.1594473E+03  0.7546771E-02  0.1196717E+00
         -2   -1    0    0    0  501 -0.00000000000E+00  0.00000000000E+00  0.34994189080E+02  0.34994189080E+02  0.00000000000E+00 0.  1.
          2   -1    0    0  501    0  0.00000000000E+00 -0.00000000000E+00 -0.62537331015E+03  0.62537331015E+03  0.00000000000E+00 0. -1.
         23    2    1    2    0    0  0.98779076042E+02  0.64343640880E+01 -0.24583665903E+03  0.28071905340E+03  0.92567905415E+02 0.  0.
         23    2    1    2    0    0 -0.98779076042E+02 -0.64343640880E+01 -0.34454246204E+03  0.37964844583E+03  0.12499890947E+03 0.  0.
          5    1    4    4  502    0 -0.82573516023E+02  0.49501310290E+02 -0.25621664367E+03  0.27374773746E+03  0.47000000000E+01 0.  1.
         -5    1    4    4    0  502 -0.16205560019E+02 -0.55935674378E+02 -0.88325818367E+02  0.10590070837E+03  0.47000000000E+01 0.  1.
        -11    1    3    3    0    0  0.11479838734E+03  0.14791072357E+02 -0.19497727914E+03  0.22674563929E+03  0.00000000000E+00 0.  1.
         11    1    3    3    0    0 -0.16019311297E+02 -0.83567082691E+01 -0.50859379889E+02  0.53973414105E+02  0.00000000000E+00 0. -1.
<mgrwt>
<rscale>  0 0.15309787E+03</rscale>
<asrwt>0</asrwt>
<pdfrwt beam="2">  1        2 0.96211285E-01 0.15944728E+03</pdfrwt>
<pdfrwt beam="1">  1       -2 0.53837210E-02 0.15944728E+03</pdfrwt>
<totfact> 0.81356389E+03</totfact>
</mgrwt>
</event>
<event>
 8    1  0.7550631E-006  0.1430876E+03  0.7546771E-02  0.1220063E+00
         -1   -1    0    0    0  501 -0.00000000000E+00  0.00000000000E+00  0.59321124394E+03  0.59321124394E+03  0.00000000000E+00 0.  1.
          1   -1    0    0  501    0  0.00000000000E+00 -0.00000000000E+00 -0.28523518069E+02  0.28523518069E+02  0.00000000000E+00 0. -1.
         23    2    1    2    0    0  0.82467839569E+01  0.69146950819E+02  0.30009542896E+03  0.32093059942E+03  0.89943720762E+02 0.  0.
         23    2    1    2    0    0 -0.82467839569E+01 -0.69146950819E+02  0.26459229691E+03  0.30080416259E+03  0.12499900158E+03 0.  0.
          5    1    4    4  502    0  0.48715050186E+01 -0.95697116554E+02  0.24934744179E+03  0.26716643952E+03  0.47000000000E+01 0. -1.
         -5    1    4    4    0  502 -0.13118288975E+02  0.26550165734E+02  0.15244855122E+02  0.33637723078E+02  0.47000000000E+01 0. -1.
        -11    1    3    3    0    0 -0.11156962154E+02  0.19498635041E+02  0.77485671104E+01  0.23763730036E+02  0.00000000000E+00 0. -1.
         11    1    3    3    0    0  0.19403746111E+02  0.49648315779E+02  0.29234686185E+03  0.29716686938E+03  0.00000000000E+00 0.  1.
<mgrwt>
<rscale>  0 0.13511073E+03</rscale>
<asrwt>0</asrwt>
<pdfrwt beam="2">  1        1 0.43882340E-02 0.14308760E+03</pdfrwt>
<pdfrwt beam="1">  1       -1 0.91263259E-01 0.14308760E+03</pdfrwt>
<totfact> 0.23893216E+03</totfact>
</mgrwt>
</event>
<event>
 8    1  0.7550631E-006  0.2135935E+03  0.7546771E-02  0.1141172E+00
          2   -1    0    0  501    0  0.00000000000E+00  0.00000000000E+00  0.13043904532E+04  0.13043904532E+04  0.00000000000E+00 0. -1.
         -2   -1    0    0    0  501 -0.00000000000E+00 -0.00000000000E+00 -0.11812515645E+03  0.11812515645E+03  0.00000000000E+00 0.  1.
         23    2    1    2    0    0  0.10601197756E+03 -0.13696025033E+03 -0.15352847216E+02  0.20206145237E+03  0.10293916195E+03 0.  0.
         23    2    1    2    0    0 -0.10601197756E+03  0.13696025033E+03  0.12016181440E+04  0.12204541573E+04  0.12500214614E+03 0.  0.
          5    1    4    4  502    0 -0.11043080657E+03  0.63716822030E+02  0.54508146711E+03  0.55981308687E+03  0.47000000000E+01 0.  1.
         -5    1    4    4    0  502  0.44188290157E+01  0.73243428300E+02  0.65653667686E+03  0.66064107041E+03  0.47000000000E+01 0.  1.
        -11    1    3    3    0    0  0.10642274254E+03 -0.14812924914E+03  0.82632240833E+00  0.18239725160E+03  0.00000000000E+00 0. -1.
         11    1    3    3    0    0 -0.41076498523E+00  0.11168998815E+02 -0.16179169624E+02  0.19664200775E+02  0.00000000000E+00 0.  1.
<mgrwt>
<rscale>  0 0.21049781E+03</rscale>
<asrwt>0</asrwt>
<pdfrwt beam="1">  1        2 0.20067544E+00 0.21359351E+03</pdfrwt>
<pdfrwt beam="2">  1       -2 0.18173102E-01 0.21359351E+03</pdfrwt>
<totfact> 0.43817975E+02</totfact>
</mgrwt>
</event>
<event>
 8    1  0.7550631E-006  0.1273587E+03  0.7546771E-02  0.1244002E+00
          3   -1    0    0  501    0  0.00000000000E+00  0.00000000000E+00  0.34752651459E+03  0.34752651459E+03  0.00000000000E+00 0. -1.
         -3   -1    0    0    0  501 -0.00000000000E+00 -0.00000000000E+00 -0.44356751113E+02  0.44356751113E+02  0.00000000000E+00 0.  1.
         23    2    1    2    0    0 -0.29958288017E+01 -0.24213854340E+02  0.54818027780E+02  0.11277964053E+03  0.95493169470E+02 0.  0.
         23    2    1    2    0    0  0.29958288017E+01  0.24213854340E+02  0.24835173569E+03  0.27910362517E+03  0.12499985292E+03 0.  0.
          5    1    4    4  502    0 -0.25451547442E+02  0.63217579287E+02  0.19681066622E+03  0.20832851926E+03  0.47000000000E+01 0.  1.
         -5    1    4    4    0  502  0.28447376244E+02 -0.39003724947E+02  0.51541069475E+02  0.70775105917E+02  0.47000000000E+01 0.  1.
        -11    1    3    3    0    0 -0.46457969728E+02 -0.17724563563E+02  0.11420978262E+02  0.51019034186E+02  0.00000000000E+00 0.  1.
         11    1    3    3    0    0  0.43462140927E+02 -0.64892907765E+01  0.43397049518E+02  0.61760606341E+02  0.00000000000E+00 0. -1.
<mgrwt>
<rscale>  0 0.11945315E+03</rscale>
<asrwt>0</asrwt>
<pdfrwt beam="1">  1        3 0.53465616E-01 0.12735874E+03</pdfrwt>
<pdfrwt beam="2">  1       -3 0.68241158E-02 0.12735874E+03</pdfrwt>
<totfact> 0.11006825E+03</totfact>
</mgrwt>
</event>
<event>
 8    1  0.7550631E-006  0.1300474E+03  0.7546771E-02  0.1236678E+00
         -1   -1    0    0    0  501 -0.00000000000E+00  0.00000000000E+00  0.15382682302E+02  0.15382682302E+02  0.00000000000E+00 0.  1.
          1   -1    0    0  501    0  0.00000000000E+00 -0.00000000000E+00 -0.96771775027E+03  0.96771775027E+03  0.00000000000E+00 0. -1.
         23    2    1    2    0    0  0.56036914041E+02  0.14370354892E+02 -0.32047489765E+03  0.33799610782E+03  0.90501746097E+02 0.  0.
         23    2    1    2    0    0 -0.56036914041E+02 -0.14370354892E+02 -0.63186017032E+03  0.64510432475E+03  0.11647176541E+03 0.  0.
          5    1    4    4  502    0  0.20723137401E+02  0.42835185919E+01 -0.39052859235E+03  0.39112973346E+03  0.47000000000E+01 0. -1.
         -5    1    4    4    0  502 -0.76760051442E+02 -0.18653873484E+02 -0.24133157797E+03  0.25397459129E+03  0.47000000000E+01 0.  1.
        -11    1    3    3    0    0  0.67470327894E+02  0.37501926362E+02 -0.27586398800E+03  0.28646043269E+03  0.00000000000E+00 0. -1.
         11    1    3    3    0    0 -0.11433413853E+02 -0.23131571469E+02 -0.44610909654E+02  0.51535675130E+02  0.00000000000E+00 0.  1.
<mgrwt>
<rscale>  0 0.12397632E+03</rscale>
<asrwt>0</asrwt>
<pdfrwt beam="2">  1        1 0.14887969E+00 0.13004736E+03</pdfrwt>
<pdfrwt beam="1">  1       -1 0.23665659E-02 0.13004736E+03</pdfrwt>
<totfact> 0.87308711E+03</totfact>
</mgrwt>
</event>
<event>
 8    1  0.7550631E-006  0.1291021E+03  0.7546771E-02  0.1242876E+00
          2   -1    0    0  501    0  0.00000000000E+00  0.00000000000E+00  0.12639062463E+03  0.12639062463E+03  0.00000000000E+00 0. -1.
         -2   -1    0    0    0  501 -0.00000000000E+00 -0.00000000000E+00 -0.13442120785E+03  0.13442120785E+03  0.00000000000E+00 0.  1.
         23    2    1    2    0    0 -0.24836627280E+02 -0.20676158845E+02 -0.68166450613E+02  0.11839109013E+03  0.91243759427E+02 0.  0.
         23    2    1    2    0    0  0.24836627280E+02  0.20676158845E+02  0.60135867399E+02  0.14242074235E+03  0.12499193455E+03 0.  0.
          5    1    4    4  502    0 -0.29691118556E+02  0.53917130549E+02  0.45629579360E+02  0.76764366735E+02  0.47000000000E+01 0.  1.
         -5    1    4    4    0  502  0.54527745836E+02 -0.33240971704E+02  0.14506288040E+02  0.65656375611E+02  0.47000000000E+01 0.  1.
        -11    1    3    3    0    0 -0.49567026628E+01 -0.19700708040E+02 -0.87986959187E+02  0.90301671001E+02  0.00000000000E+00 0.  1.
         11    1    3    3    0    0 -0.19879924617E+02 -0.97545080485E+00  0.19820508573E+02  0.28089419132E+02  0.00000000000E+00 0. -1.
<mgrwt>
<rscale>  0 0.12013405E+03</rscale>
<asrwt>0</asrwt>
<pdfrwt beam="1">  1        2 0.19444712E-01 0.12910207E+03</pdfrwt>
<pdfrwt beam="2">  1       -2 0.20680186E-01 0.12910207E+03</pdfrwt>
<totfact> 0.54015244E+03</totfact>
</mgrwt>
</event>
<event>
 8    1  0.7550631E-006  0.1334042E+03  0.7546771E-02  0.1235765E+00
         -2   -1    0    0    0  501 -0.00000000000E+00  0.00000000000E+00  0.11371244017E+03  0.11371244017E+03  0.00000000000E+00 0.  1.
          2   -1    0    0  501    0  0.00000000000E+00 -0.00000000000E+00 -0.12119228305E+03  0.12119228305E+03  0.00000000000E+00 0. -1.
         23    2    1    2    0    0  0.26324223379E+02 -0.38413137666E+02 -0.27961121060E+01  0.10141834660E+03  0.90051812325E+02 0.  0.
         23    2    1    2    0    0 -0.26324223379E+02  0.38413137666E+02 -0.46837307690E+01  0.13348637661E+03  0.12501256547E+03 0.  0.
          5    1    4    4  502    0 -0.74843275777E+02  0.68515397681E+01 -0.12542903786E+01  0.75313496603E+02  0.47000000000E+01 0.  1.
         -5    1    4    4    0  502  0.48519052398E+02  0.31561597898E+02 -0.34294403905E+01  0.58172880012E+02  0.47000000000E+01 0.  1.
        -11    1    3    3    0    0  0.20160473704E+02  0.11722072717E+02 -0.34601387513E+02  0.41726582733E+02  0.00000000000E+00 0. -1.
         11    1    3    3    0    0  0.61637496748E+01 -0.50135210383E+02  0.31805275407E+02  0.59691763870E+02  0.00000000000E+00 0.  1.
<mgrwt>
<rscale>  0 0.12455608E+03</rscale>
<asrwt>0</asrwt>
<pdfrwt beam="2">  1        2 0.18644967E-01 0.13340418E+03</pdfrwt>
<pdfrwt beam="1">  1       -2 0.17494222E-01 0.13340418E+03</pdfrwt>
<totfact> 0.75217322E+03</totfact>
</mgrwt>
</event>
<event>
 8    1  0.7550631E-006  0.1558951E+03  0.7546771E-02  0.1201812E+00
         -2   -1    0    0    0  501 -0.00000000000E+00  0.00000000000E+00  0.39068457461E+02  0.39068457461E+02  0.00000000000E+00 0.  1.
          2   -1    0    0  501    0  0.00000000000E+00 -0.00000000000E+00 -0.59072335655E+03  0.59072335655E+03  0.00000000000E+00 0. -1.
         23    2    1    2    0    0  0.76445963558E+02  0.53273372484E+02 -0.14676080631E+03  0.19592258732E+03  0.90359771982E+02 0.  0.
         23    2    1    2    0    0 -0.76445963558E+02 -0.53273372484E+02 -0.40489409278E+03  0.43386922669E+03  0.12498496687E+03 0.  0.
          5    1    4    4  502    0 -0.32175402180E+02  0.28943656820E+02 -0.24340434744E+03  0.24726657301E+03  0.47000000000E+01 0. -1.
         -5    1    4    4    0  502 -0.44270561378E+02 -0.82217029304E+02 -0.16148974534E+03  0.18660265369E+03  0.47000000000E+01 0. -1.
        -11    1    3    3    0    0  0.45745633672E+02 -0.18487920530E+02 -0.75745921410E+02  0.90398621759E+02  0.00000000000E+00 0. -1.
         11    1    3    3    0    0  0.30700329886E+02  0.71761293014E+02 -0.71014884901E+02  0.10552396556E+03  0.00000000000E+00 0.  1.
<mgrwt>
<rscale>  0 0.14891533E+03</rscale>
<asrwt>0</asrwt>
<pdfrwt beam="2">  1        2 0.90880526E-01 0.15589509E+03</pdfrwt>
<pdfrwt beam="1">  1       -2 0.60105313E-02 0.15589509E+03</pdfrwt>
<totfact> 0.73399424E+03</totfact>
</mgrwt>
</event>
<event>
 8    1  0.7550631E-006  0.1333088E+03  0.7546771E-02  0.1234594E+00
         -2   -1    0    0    0  501 -0.00000000000E+00  0.00000000000E+00  0.21129029737E+02  0.21129029737E+02  0.00000000000E+00 0.  1.
          2   -1    0    0  501    0  0.00000000000E+00 -0.00000000000E+00 -0.75990897488E+03  0.75990897488E+03  0.00000000000E+00 0. -1.
         23    2    1    2    0    0 -0.25904873968E+02  0.38402815781E+02 -0.19358373933E+03  0.21978037044E+03  0.93182124569E+02 0.  0.
         23    2    1    2    0    0  0.25904873968E+02 -0.38402815781E+02 -0.54519620581E+03  0.56125763418E+03  0.12500156136E+03 0.  0.
          5    1    4    4  502    0  0.31179192350E+02 -0.74404882319E+02 -0.22703387637E+03  0.24098692821E+03  0.47000000000E+01 0. -1.
         -5    1    4    4    0  502 -0.52743183822E+01  0.36002066537E+02 -0.31816232944E+03  0.32027070597E+03  0.47000000000E+01 0. -1.
        -11    1    3    3    0    0 -0.43745213821E+02  0.32396972928E+01 -0.16590335331E+03  0.17160437643E+03  0.00000000000E+00 0. -1.
         11    1    3    3    0    0  0.17840339853E+02  0.35163118489E+02 -0.27680386024E+02  0.48175994005E+02  0.00000000000E+00 0.  1.
<mgrwt>
<rscale>  0 0.12530440E+03</rscale>
<asrwt>0</asrwt>
<pdfrwt beam="2">  1        2 0.11690905E+00 0.13330877E+03</pdfrwt>
<pdfrwt beam="1">  1       -2 0.32506206E-02 0.13330877E+03</pdfrwt>
<totfact> 0.13554081E+04</totfact>
</mgrwt>
</event>
<event>
 8    1  0.7550631E-006  0.1427288E+03  0.7546771E-02  0.1222624E+00
          1   -1    0    0  501    0  0.00000000000E+00  0.00000000000E+00  0.11057019380E+03  0.11057019380E+03  0.00000000000E+00 0. -1.
         -1   -1    0    0    0  501 -0.00000000000E+00 -0.00000000000E+00 -0.19515300700E+03  0.19515300700E+03  0.00000000000E+00 0.  1.
         23    2    1    2    0    0  0.57788630294E+02  0.37508694229E+02 -0.11669418160E+03  0.15942678418E+03  0.83981781129E+02 0.  0.
         23    2    1    2    0    0 -0.57788630294E+02 -0.37508694229E+02  0.32111368401E+02  0.14629641661E+03  0.12500029440E+03 0.  0.
          5    1    4    4  502    0 -0.35795814442E+02 -0.53905877434E+01 -0.46102973349E+02  0.58804531453E+02  0.47000000000E+01 0.  1.
         -5    1    4    4    0  502 -0.21992815851E+02 -0.32118106486E+02  0.78214341750E+02  0.87491885159E+02  0.47000000000E+01 0.  1.
        -11    1    3    3    0    0  0.79001411256E+02  0.21025576001E+02 -0.88733783165E+02  0.12065231909E+03  0.00000000000E+00 0. -1.
         11    1    3    3    0    0 -0.21212780963E+02  0.16483118228E+02 -0.27960398435E+02  0.38774465094E+02  0.00000000000E+00 0.  1.
<mgrwt>
<rscale>  0 0.13331100E+03</rscale>
<asrwt>0</asrwt>
<pdfrwt beam="1">  1        1 0.17010799E-01 0.14272877E+03</pdfrwt>
<pdfrwt beam="2">  1       -1 0.30023540E-01 0.14272877E+03</pdfrwt>
<totfact> 0.31144147E+03</totfact>
</mgrwt>
</event>
<event>
 8    1  0.7550631E-006  0.1468512E+03  0.7546771E-02  0.1214187E+00
         -1   -1    0    0    0  501 -0.00000000000E+00  0.00000000000E+00  0.20150943070E+02  0.20150943070E+02  0.00000000000E+00 0.  1.
          1   -1    0    0  501    0  0.00000000000E+00 -0.00000000000E+00 -0.92083889612E+03  0.92083889612E+03  0.00000000000E+00 0. -1.
         23    2    1    2    0    0 -0.25012030335E+02 -0.72941556944E+02 -0.30417311821E+03  0.32666482328E+03  0.90788482393E+02 0.  0.
         23    2    1    2    0    0  0.25012030335E+02  0.72941556944E+02 -0.59651483483E+03  0.61432501590E+03  0.12497681625E+03 0.  0.
          5    1    4    4  502    0 -0.48289912345E+01  0.72487675178E+02 -0.14942796474E+03  0.16621849733E+03  0.47000000000E+01 0.  1.
         -5    1    4    4    0  502  0.29841021569E+02  0.45388176560E+00 -0.44708687009E+03  0.44810651857E+03  0.47000000000E+01 0.  1.
        -11    1    3    3    0    0  0.27067247563E+02 -0.20710104704E+01 -0.11326284846E+03  0.11647058777E+03  0.00000000000E+00 0. -1.
         11    1    3    3    0    0 -0.52079277897E+02 -0.70870546473E+02 -0.19091026976E+03  0.21019423551E+03  0.00000000000E+00 0.  1.
<mgrwt>
<rscale>  0 0.13936402E+03</rscale>
<asrwt>0</asrwt>
<pdfrwt beam="2">  1        1 0.14166752E+00 0.14685121E+03</pdfrwt>
<pdfrwt beam="1">  1       -1 0.31001451E-02 0.14685121E+03</pdfrwt>
<totfact> 0.64355189E+03</totfact>
</mgrwt>
</event>
<event>
 8    1  0.7550631E-006  0.1598306E+03  0.7546771E-02  0.1197726E+00
         -3   -1    0    0    0  501 -0.00000000000E+00  0.00000000000E+00  0.24542100414E+03  0.24542100414E+03  0.00000000000E+00 0.  1.
          3   -1    0    0  501    0  0.00000000000E+00 -0.00000000000E+00 -0.93739410714E+02  0.93739410714E+02  0.00000000000E+00 0. -1.
         23    2    1    2    0    0  0.97647658862E+02 -0.19694356534E+02  0.11588718765E+03  0.17537074670E+03  0.86035606438E+02 0.  0.
         23    2    1    2    0    0 -0.97647658862E+02  0.19694356534E+02  0.35794405770E+02  0.16378966815E+03  0.12499153151E+03 0.  0.
          5    1    4    4  502    0 -0.10415171269E+03 -0.15473262161E+02 -0.95686504539E+01  0.10583312416E+03  0.47000000000E+01 0. -1.
         -5    1    4    4    0  502  0.65040538319E+01  0.35167618694E+02  0.45363056224E+02  0.57956543987E+02  0.47000000000E+01 0. -1.
        -11    1    3    3    0    0  0.10885616840E+03 -0.12958090864E+01  0.10492951200E+03  0.15120035386E+03  0.00000000000E+00 0.  1.
         11    1    3    3    0    0 -0.11208509535E+02 -0.18398547447E+02  0.10957675649E+02  0.24170392835E+02  0.00000000000E+00 0. -1.
<mgrwt>
<rscale>  0 0.15225770E+03</rscale>
<asrwt>0</asrwt>
<pdfrwt beam="2">  1        3 0.14421448E-01 0.15983059E+03</pdfrwt>
<pdfrwt beam="1">  1       -3 0.37757077E-01 0.15983059E+03</pdfrwt>
<totfact> 0.65360296E+02</totfact>
</mgrwt>
</event>
<event>
 8    1  0.7550631E-006  0.1497792E+03  0.7546771E-02  0.1209824E+00
          1   -1    0    0  501    0  0.00000000000E+00  0.00000000000E+00  0.62825132444E+03  0.62825132444E+03  0.00000000000E+00 0. -1.
         -1   -1    0    0    0  501 -0.00000000000E+00 -0.00000000000E+00 -0.29834407586E+02  0.29834407586E+02  0.00000000000E+00 0.  1.
         23    2    1    2    0    0  0.82353156697E+02 -0.50488475353E+01  0.29595622885E+03  0.32057086542E+03  0.91477085012E+02 0.  0.
         23    2    1    2    0    0 -0.82353156697E+02  0.50488475353E+01  0.30246068800E+03  0.33751486660E+03  0.12500513634E+03 0.  0.
          5    1    4    4  502    0 -0.47445119903E+02  0.90350020610E+01  0.19427205933E+02  0.52270230487E+02  0.47000000000E+01 0. -1.
         -5    1    4    4    0  502 -0.34908036794E+02 -0.39861545257E+01  0.28303348207E+03  0.28524463612E+03  0.47000000000E+01 0. -1.
        -11    1    3    3    0    0  0.48198272283E+02 -0.37340747126E+02  0.86016033308E+02  0.10543321504E+03  0.00000000000E+00 0.  1.
         11    1    3    3    0    0  0.34154884414E+02  0.32291899591E+02  0.20994019555E+03  0.21513765039E+03  0.00000000000E+00 0. -1.
<mgrwt>
<rscale>  0 0.14263690E+03</rscale>
<asrwt>0</asrwt>
<pdfrwt beam="1">  1        1 0.96654040E-01 0.14977923E+03</pdfrwt>
<pdfrwt beam="2">  1       -1 0.45899093E-02 0.14977923E+03</pdfrwt>
<totfact> 0.63903000E+03</totfact>
</mgrwt>
</event>
<event>
 8    1  0.7550631E-006  0.1828327E+03  0.7546771E-02  0.1170333E+00
         -2   -1    0    0    0  501 -0.00000000000E+00  0.00000000000E+00  0.51997611779E+03  0.51997611779E+03  0.00000000000E+00 0.  1.
          2   -1    0    0  501    0  0.00000000000E+00 -0.00000000000E+00 -0.65286207835E+02  0.65286207835E+02  0.00000000000E+00 0. -1.
         23    2    1    2    0    0 -0.12885055894E+03 -0.34648474110E+02  0.31818652224E+03  0.35709357122E+03  0.92033539388E+02 0.  0.
         23    2    1    2    0    0  0.12885055894E+03  0.34648474110E+02  0.13650338772E+03  0.22816875441E+03  0.12499928934E+03 0.  0.
          5    1    4    4  502    0  0.12428359359E+03  0.47509930054E+02  0.15524296773E+03  0.20451423940E+03  0.47000000000E+01 0.  1.
         -5    1    4    4    0  502  0.45669653517E+01 -0.12861455944E+02 -0.18739580009E+02  0.23654515012E+02  0.47000000000E+01 0.  1.
        -11    1    3    3    0    0 -0.90662429310E+02  0.17354729834E+02  0.14102452607E+03  0.16854904239E+03  0.00000000000E+00 0.  1.
         11    1    3    3    0    0 -0.38188129627E+02 -0.52003203944E+02  0.17716199617E+03  0.18854452883E+03  0.00000000000E+00 0. -1.
<mgrwt>
<rscale>  0 0.17741057E+03</rscale>
<asrwt>0</asrwt>
<pdfrwt beam="2">  1        2 0.10044032E-01 0.18283273E+03</pdfrwt>
<pdfrwt beam="1">  1       -2 0.79996323E-01 0.18283273E+03</pdfrwt>
<totfact> 0.89695575E+02</totfact>
</mgrwt>
</event>
<event>
 8    1  0.7550631E-006  0.1447274E+03  0.7546771E-02  0.1218254E+00
          2   -1    0    0  501    0  0.00000000000E+00  0.00000000000E+00  0.36027580008E+03  0.36027580008E+03  0.00000000000E+00 0. -1.
         -2   -1    0    0    0  501 -0.00000000000E+00 -0.00000000000E+00 -0.46739028367E+02  0.46739028367E+02  0.00000000000E+00 0.  1.
         23    2    1    2    0    0  0.60698540565E+02 -0.40397501768E+02  0.12449354839E+03  0.16893214869E+03  0.87881490044E+02 0.  0.
         23    2    1    2    0    0 -0.60698540565E+02  0.40397501768E+02  0.18904322332E+03  0.23808267976E+03  0.12501900313E+03 0.  0.
          5    1    4    4  502    0  0.21581378857E+02  0.28481238925E+02  0.54028261575E+01  0.36444717238E+02  0.47000000000E+01 0. -1.
         -5    1    4    4    0  502 -0.82279919422E+02  0.11916262843E+02  0.18364039716E+03  0.20163796252E+03  0.47000000000E+01 0. -1.
        -11    1    3    3    0    0  0.76605795165E+02 -0.33364186117E+02  0.61953227956E+02  0.10401836002E+03  0.00000000000E+00 0.  1.
         11    1    3    3    0    0 -0.15907254600E+02 -0.70333156514E+01  0.62540320437E+02  0.64913788661E+02  0.00000000000E+00 0. -1.
<mgrwt>
<rscale>  0 0.13640189E+03</rscale>
<asrwt>0</asrwt>
<pdfrwt beam="1">  1        2 0.55427045E-01 0.14472741E+03</pdfrwt>
<pdfrwt beam="2">  1       -2 0.71906200E-02 0.14472741E+03</pdfrwt>
<totfact> 0.95385300E+03</totfact>
</mgrwt>
</event>
<event>
 8    1  0.7550631E-006  0.1860655E+03  0.7546771E-02  0.1165261E+00
          2   -1    0    0  501    0  0.00000000000E+00  0.00000000000E+00  0.19199100993E+03  0.19199100993E+03  0.00000000000E+00 0. -1.
         -2   -1    0    0    0  501 -0.00000000000E+00 -0.00000000000E+00 -0.17388163357E+03  0.17388163357E+03  0.00000000000E+00 0.  1.
         23    2    1    2    0    0 -0.10847970134E+03  0.85014774110E+02 -0.25796318002E+02  0.17469715227E+03  0.10420310730E+03 0.  0.
         23    2    1    2    0    0  0.10847970134E+03 -0.85014774110E+02  0.43905694363E+02  0.19117549122E+03  0.12500000411E+03 0.  0.
          5    1    4    4  502    0  0.15891373508E+02  0.14218622570E+02 -0.29580129543E+02  0.36766547887E+02  0.47000000000E+01 0.  1.
         -5    1    4    4    0  502  0.92588327831E+02 -0.99233396681E+02  0.73485823905E+02  0.15440894334E+03  0.47000000000E+01 0.  1.
        -11    1    3    3    0    0 -0.60027521255E+02  0.21202451256E+02  0.36340308901E+02  0.73303924167E+02  0.00000000000E+00 0. -1.
         11    1    3    3    0    0 -0.48452180084E+02  0.63812322855E+02 -0.62136626903E+02  0.10139322811E+03  0.00000000000E+00 0.  1.
<mgrwt>
<rscale>  0 0.18265182E+03</rscale>
<asrwt>0</asrwt>
<pdfrwt beam="1">  1        2 0.29537079E-01 0.18606547E+03</pdfrwt>
<pdfrwt beam="2">  1       -2 0.26751020E-01 0.18606547E+03</pdfrwt>
<totfact> 0.22112678E+03</totfact>
</mgrwt>
</event>
<event>
 8    1  0.7550631E-006  0.1946877E+03  0.7546771E-02  0.1158929E+00
         -1   -1    0    0    0  501 -0.00000000000E+00  0.00000000000E+00  0.25963506468E+02  0.25963506468E+02  0.00000000000E+00 0.  1.
          1   -1    0    0  501    0  0.00000000000E+00 -0.00000000000E+00 -0.13224411001E+04  0.13224411001E+04  0.00000000000E+00 0. -1.
         23    2    1    2    0    0  0.11533899178E+03 -0.94743577912E+02 -0.66793801547E+03  0.69040360462E+03  0.90755254256E+02 0.  0.
         23    2    1    2    0    0 -0.11533899178E+03  0.94743577912E+02 -0.62853957812E+03  0.65800100191E+03  0.12499555461E+03 0.  0.
          5    1    4    4  502    0 -0.99167219404E+02  0.11342617722E+03 -0.60519387301E+03  0.62368369307E+03  0.47000000000E+01 0. -1.
         -5    1    4    4    0  502 -0.16171772374E+02 -0.18682599306E+02 -0.23345705114E+02  0.34317308837E+02  0.47000000000E+01 0. -1.
        -11    1    3    3    0    0  0.67759489382E+02 -0.52019260161E+00 -0.30443449082E+03  0.31188455909E+03  0.00000000000E+00 0. -1.
         11    1    3    3    0    0  0.47579502397E+02 -0.94223385310E+02 -0.36350352466E+03  0.37851904552E+03  0.00000000000E+00 0.  1.
<mgrwt>
<rscale>  0 0.18948281E+03</rscale>
<asrwt>0</asrwt>
<pdfrwt beam="2">  1        1 0.20345253E+00 0.19468774E+03</pdfrwt>
<pdfrwt beam="1">  1       -1 0.39943845E-02 0.19468774E+03</pdfrwt>
<totfact> 0.23170575E+03</totfact>
</mgrwt>
</event>
<event>
 8    1  0.7550631E-006  0.1571833E+03  0.7546771E-02  0.1200370E+00
         -1   -1    0    0    0  501 -0.00000000000E+00  0.00000000000E+00  0.27067467332E+02  0.27067467332E+02  0.00000000000E+00 0.  1.
          1   -1    0    0  501    0  0.00000000000E+00 -0.00000000000E+00 -0.96363858987E+03  0.96363858987E+03  0.00000000000E+00 0. -1.
         23    2    1    2    0    0 -0.39883190703E+02 -0.86555340717E+02 -0.20999114969E+03  0.24731851839E+03  0.89373769547E+02 0.  0.
         23    2    1    2    0    0  0.39883190703E+02  0.86555340717E+02 -0.72657997285E+03  0.74338753881E+03  0.12499631999E+03 0.  0.
          5    1    4    4  502    0  0.58236294477E+02  0.32224316430E+02 -0.15283833393E+03  0.16676785926E+03  0.47000000000E+01 0. -1.
         -5    1    4    4    0  502 -0.18353103774E+02  0.54331024287E+02 -0.57374163892E+03  0.57661967955E+03  0.47000000000E+01 0. -1.
        -11    1    3    3    0    0 -0.14287875610E+02 -0.50675879945E+02 -0.19305029071E+03  0.20010148160E+03  0.00000000000E+00 0. -1.
         11    1    3    3    0    0 -0.25595315093E+02 -0.35879460772E+02 -0.16940858986E+02  0.47217036789E+02  0.00000000000E+00 0.  1.
<mgrwt>
<rscale>  0 0.15008401E+03</rscale>
<asrwt>0</asrwt>
<pdfrwt beam="2">  1        1 0.14825210E+00 0.15718326E+03</pdfrwt>
<pdfrwt beam="1">  1       -1 0.41642255E-02 0.15718326E+03</pdfrwt>
<totfact> 0.38843387E+03</totfact>
</mgrwt>
</event>
<event>
 8    1  0.7550631E-006  0.1487623E+03  0.7546771E-02  0.1211332E+00
          1   -1    0    0  501    0  0.00000000000E+00  0.00000000000E+00  0.48547614000E+03  0.48547614000E+03  0.00000000000E+00 0. -1.
         -1   -1    0    0    0  501 -0.00000000000E+00 -0.00000000000E+00 -0.48629227414E+02  0.48629227414E+02  0.00000000000E+00 0.  1.
         23    2    1    2    0    0  0.79856539968E+02 -0.11391774837E+02  0.75320356589E+02  0.14316844611E+03  0.91198729902E+02 0.  0.
         23    2    1    2    0    0 -0.79856539968E+02  0.11391774837E+02  0.36152655599E+03  0.39093692130E+03  0.12499354478E+03 0.  0.
          5    1    4    4  502    0 -0.61863894987E+02  0.18074588256E+02  0.36516952022E+03  0.37084322933E+03  0.47000000000E+01 0. -1.
         -5    1    4    4    0  502 -0.17992644981E+02 -0.66828134199E+01 -0.36429642240E+01  0.20093691969E+02  0.47000000000E+01 0. -1.
        -11    1    3    3    0    0  0.37075791108E+02  0.14289320656E+02 -0.12933227851E+02  0.41785970776E+02  0.00000000000E+00 0.  1.
         11    1    3    3    0    0  0.42780748860E+02 -0.25681095492E+02  0.88253584440E+02  0.10138247534E+03  0.00000000000E+00 0. -1.
<mgrwt>
<rscale>  0 0.14149482E+03</rscale>
<asrwt>0</asrwt>
<pdfrwt beam="1">  1        1 0.74688634E-01 0.14876231E+03</pdfrwt>
<pdfrwt beam="2">  1       -1 0.74814199E-02 0.14876231E+03</pdfrwt>
<totfact> 0.43518730E+03</totfact>
</mgrwt>
</event>
<event>
 8    1  0.7550631E-006  0.2119551E+03  0.7546771E-02  0.1143117E+00
         -1   -1    0    0    0  501 -0.00000000000E+00  0.00000000000E+00  0.46948774820E+02  0.46948774820E+02  0.00000000000E+00 0.  1.
          1   -1    0    0  501    0  0.00000000000E+00 -0.00000000000E+00 -0.21483096223E+04  0.21483096223E+04  0.00000000000E+00 0. -1.
         23    2    1    2    0    0  0.15848154718E+03  0.64713688589E+02 -0.19457815070E+03  0.27673156675E+03  0.97033195455E+02 0.  0.
         23    2    1    2    0    0 -0.15848154718E+03 -0.64713688589E+02 -0.19067826968E+04  0.19185268304E+04  0.12498273411E+03 0.  0.
          5    1    4    4  502    0 -0.85305642287E+02  0.77516369134E+01 -0.13178428820E+04  0.13206320806E+04  0.47000000000E+01 0.  1.
         -5    1    4    4    0  502 -0.73175904888E+02 -0.72465325503E+02 -0.58893981478E+03  0.59789474984E+03  0.47000000000E+01 0.  1.
        -11    1    3    3    0    0  0.10377735404E+03  0.60410695102E+01 -0.15663658388E+03  0.18799269438E+03  0.00000000000E+00 0. -1.
         11    1    3    3    0    0  0.54704193137E+02  0.58672619079E+02 -0.37941566825E+02  0.88738872370E+02  0.00000000000E+00 0.  1.
<mgrwt>
<rscale>  0 0.20805317E+03</rscale>
<asrwt>0</asrwt>
<pdfrwt beam="2">  1        1 0.33050926E+00 0.21195506E+03</pdfrwt>
<pdfrwt beam="1">  1       -1 0.72228866E-02 0.21195506E+03</pdfrwt>
<totfact> 0.27599785E+02</totfact>
</mgrwt>
</event>
<event>
 8    1  0.7550631E-006  0.2041885E+03  0.7546771E-02  0.1150458E+00
          2   -1    0    0  501    0  0.00000000000E+00  0.00000000000E+00  0.51333184162E+03  0.51333184162E+03  0.00000000000E+00 0. -1.
         -2   -1    0    0    0  501 -0.00000000000E+00 -0.00000000000E+00 -0.11496721076E+03  0.11496721076E+03  0.00000000000E+00 0.  1.
         23    2    1    2    0    0  0.98555671517E+01 -0.16116701357E+03  0.46993064774E+01  0.18482938952E+03  0.89821385437E+02 0.  0.
         23    2    1    2    0    0 -0.98555671517E+01  0.16116701357E+03  0.39366532438E+03  0.44346966286E+03  0.12498406214E+03 0.  0.
          5    1    4    4  502    0 -0.93680426002E+01 -0.17898125751E+01 -0.57337943553E+01  0.12080151031E+02  0.47000000000E+01 0. -1.
         -5    1    4    4    0  502 -0.48752455146E+00  0.16295682614E+03  0.39939911874E+03  0.43138951183E+03  0.47000000000E+01 0. -1.
        -11    1    3    3    0    0  0.23898320229E+02 -0.62507242418E+01  0.15063807507E+02  0.28933018507E+02  0.00000000000E+00 0. -1.
         11    1    3    3    0    0 -0.14042753078E+02 -0.15491628933E+03 -0.10364501030E+02  0.15589637101E+03  0.00000000000E+00 0.  1.
<mgrwt>
<rscale>  0 0.19915039E+03</rscale>
<asrwt>0</asrwt>
<pdfrwt beam="1">  1        2 0.78974128E-01 0.20418853E+03</pdfrwt>
<pdfrwt beam="2">  1       -2 0.17687263E-01 0.20418853E+03</pdfrwt>
<totfact> 0.15599192E+03</totfact>
</mgrwt>
</event>
<event>
 6    1  0.7550631E-006  0.2055081E+03  0.7546771E-02  0.1194416E+00
         -2   -1    0    0    0  501 -0.00000000000E+00  0.00000000000E+00  0.85552310240E+02  0.85552310240E+02  0.00000000000E+00 0.  1.
          2   -1    0    0  501    0  0.00000000000E+00 -0.00000000000E+00 -0.22577485407E+03  0.22577485407E+03  0.00000000000E+00 0. -1.
          5    1    1    2  502    0  0.23991299016E+02  0.82070341963E+02 -0.33802938929E+02  0.92064391264E+02  0.47000000000E+01 0. -1.
         -5    1    1    2    0  502 -0.19865941936E+01 -0.11615116299E+03 -0.98208827690E+02  0.15219100846E+03  0.47000000000E+01 0.  1.
        -11    1    1    2    0    0 -0.36198197544E+02  0.32236298777E+02  0.34727586109E+01  0.48595766448E+02  0.00000000000E+00 0. -1.
         11    1    1    2    0    0  0.14193492721E+02  0.18445222450E+01 -0.11683535821E+02  0.18475998138E+02  0.00000000000E+00 0.  1.
<mgrwt>
<rscale>  0 0.15503758E+03</rscale>
<asrwt>0</asrwt>
<pdfrwt beam="2">  1        2 0.34734593E-01 0.20550814E+03</pdfrwt>
<pdfrwt beam="1">  1       -2 0.13161894E-01 0.20550814E+03</pdfrwt>
<totfact> 0.61951244E+03</totfact>
</mgrwt>
</event>
<event>
 7    1  0.7550631E-006  0.1821289E+03  0.7546771E-02  0.1171689E+00
         -2   -1    0    0    0  501 -0.00000000000E+00  0.00000000000E+00  0.76360821008E+02  0.76360821008E+02  0.00000000000E+00 0.  1.
          2   -1    0    0  501    0  0.00000000000E+00 -0.00000000000E+00 -0.22487970539E+04  0.22487970539E+04  0.00000000000E+00 0. -1.
         23    2    1    2    0    0 -0.12633191377E+03  0.28636942830E+02 -0.14595340489E+02  0.15964447880E+03  0.92160233921E+02 0.  0.
          5    1    1    2  502    0  0.12769391042E+03 -0.76853836277E+01 -0.20983556405E+04  0.21022567122E+04  0.47000000000E+01 0. -1.
         -5    1    1    2    0  502 -0.13619966493E+01 -0.20951559202E+02 -0.59485251944E+02  0.63256683969E+02  0.47000000000E+01 0.  1.
        -11    1    3    3    0    0  0.28879044492E+00  0.29971376328E+02  0.79874368100E+01  0.31018799875E+02  0.00000000000E+00 0. -1.
         11    1    3    3    0    0 -0.12662070422E+03 -0.13344334980E+01 -0.22582777299E+02  0.12862567893E+03  0.00000000000E+00 0.  1.
<mgrwt>
<rscale>  0 0.17604230E+03</rscale>
<asrwt>0</asrwt>
<pdfrwt beam="2">  1        2 0.34596878E+00 0.18212894E+03</pdfrwt>
<pdfrwt beam="1">  1       -2 0.11747818E-01 0.18212894E+03</pdfrwt>
<totfact> 0.28875878E+02</totfact>
</mgrwt>
</event>
<event>
 8    1  0.7550631E-006  0.1887363E+03  0.7546771E-02  0.1164574E+00
          1   -1    0    0  501    0  0.00000000000E+00  0.00000000000E+00  0.65779778195E+02  0.65779778195E+02  0.00000000000E+00 0. -1.
         -1   -1    0    0    0  501 -0.00000000000E+00 -0.00000000000E+00 -0.97016105814E+03  0.97016105814E+03  0.00000000000E+00 0.  1.
         23    2    1    2    0    0 -0.11446450315E+03 -0.83034335429E+02 -0.80549458638E+03  0.82286813093E+03  0.91069253219E+02 0.  0.
         23    2    1    2    0    0  0.11446450315E+03  0.83034335429E+02 -0.98886693570E+02  0.21307270540E+03  0.12499830511E+03 0.  0.
          5    1    4    4  502    0  0.56650717410E+02  0.10006615759E+03 -0.25291444776E+02  0.11783160381E+03  0.47000000000E+01 0. -1.
         -5    1    4    4    0  502  0.57813785740E+02 -0.17031822159E+02 -0.73595248794E+02  0.95241101593E+02  0.47000000000E+01 0. -1.
        -11    1    3    3    0    0 -0.60653671750E+02  0.76982016552E+01 -0.24347853592E+03  0.25103770167E+03  0.00000000000E+00 0.  1.
         11    1    3    3    0    0 -0.53810831400E+02 -0.90732537084E+02 -0.56201605046E+03  0.57183042926E+03  0.00000000000E+00 0. -1.
<mgrwt>
<rscale>  0 0.18337772E+03</rscale>
<asrwt>0</asrwt>
<pdfrwt beam="1">  1        1 0.10119965E-01 0.18873632E+03</pdfrwt>
<pdfrwt beam="2">  1       -1 0.14925555E+00 0.18873632E+03</pdfrwt>
<totfact> 0.24343006E+02</totfact>
</mgrwt>
</event>
<event>
 8    1  0.7550631E-006  0.1314796E+03  0.7546771E-02  0.1238179E+00
         -2   -1    0    0    0  501 -0.00000000000E+00  0.00000000000E+00  0.12206714803E+02  0.12206714803E+02  0.00000000000E+00 0. -1.
          2   -1    0    0  501    0  0.00000000000E+00 -0.00000000000E+00 -0.12344263562E+04  0.12344263562E+04  0.00000000000E+00 0.  1.
         23    2    1    2    0    0 -0.33936664161E+01 -0.40636360144E+02 -0.33865785981E+03  0.35334235432E+03  0.92189167526E+02 0.  0.
         23    2    1    2    0    0  0.33936664161E+01  0.40636360144E+02 -0.88356178161E+03  0.89329071671E+03  0.12499620750E+03 0.  0.
          5    1    4    4  502    0  0.15030716769E+02  0.54731591724E+02 -0.86481899270E+03  0.86669224625E+03  0.47000000000E+01 0. -1.
         -5    1    4    4    0  502 -0.11637050353E+02 -0.14095231580E+02 -0.18742788911E+02  0.26598470452E+02  0.47000000000E+01 0. -1.
        -11    1    3    3    0    0 -0.36476074493E+02  0.28911508297E+01 -0.68017781584E+02  0.77235234026E+02  0.00000000000E+00 0. -1.
         11    1    3    3    0    0  0.33082408076E+02 -0.43527510974E+02 -0.27064007823E+03  0.27610712030E+03  0.00000000000E+00 0.  1.
<mgrwt>
<rscale>  0 0.12303096E+03</rscale>
<asrwt>0</asrwt>
<pdfrwt beam="2">  1        2 0.18991172E+00 0.13147959E+03</pdfrwt>
<pdfrwt beam="1">  1       -2 0.18779564E-02 0.13147959E+03</pdfrwt>
<totfact> 0.15568781E+04</totfact>
</mgrwt>
</event>
<event>
 8    1  0.7550631E-006  0.1415738E+03  0.7546771E-02  0.1227196E+00
          2   -1    0    0  501    0  0.00000000000E+00  0.00000000000E+00  0.12364382017E+03  0.12364382017E+03  0.00000000000E+00 0. -1.
         -2   -1    0    0    0  501 -0.00000000000E+00 -0.00000000000E+00 -0.19219243006E+03  0.19219243006E+03  0.00000000000E+00 0.  1.
         23    2    1    2    0    0 -0.62763363163E+02 -0.21918457592E+02 -0.12724341654E+03  0.16257758610E+03  0.76294992693E+02 0.  0.
         23    2    1    2    0    0  0.62763363163E+02  0.21918457592E+02  0.58694806654E+02  0.15325866412E+03  0.12499391690E+03 0.  0.
          5    1    4    4  502    0  0.90052370027E+02  0.27430564186E+02  0.71972805491E+01  0.94529128031E+02  0.47000000000E+01 0. -1.
         -5    1    4    4    0  502 -0.27289006864E+02 -0.55121065938E+01  0.51497526105E+02  0.58729536092E+02  0.47000000000E+01 0. -1.
        -11    1    3    3    0    0  0.37807966197E+01 -0.13087064193E+02 -0.78364907288E+02  0.79540080252E+02  0.00000000000E+00 0.  1.
         11    1    3    3    0    0 -0.66544159783E+02 -0.88313933991E+01 -0.48878509256E+02  0.83037505849E+02  0.00000000000E+00 0. -1.
<mgrwt>
<rscale>  0 0.13017504E+03</rscale>
<asrwt>0</asrwt>
<pdfrwt beam="1">  1        2 0.19022126E-01 0.14157379E+03</pdfrwt>
<pdfrwt beam="2">  1       -2 0.29568066E-01 0.14157379E+03</pdfrwt>
<totfact> 0.29845664E+03</totfact>
</mgrwt>
</event>
<event>
 8    1  0.7550631E-006  0.1536627E+03  0.7546771E-02  0.1204154E+00
          2   -1    0    0  501    0  0.00000000000E+00  0.00000000000E+00  0.48109166832E+02  0.48109166832E+02  0.00000000000E+00 0. -1.
         -2   -1    0    0    0  501 -0.00000000000E+00 -0.00000000000E+00 -0.43080264752E+03  0.43080264752E+03  0.00000000000E+00 0.  1.
         23    2    1    2    0    0 -0.68398717465E+02 -0.57517495357E+02 -0.12910032812E+03  0.18239584767E+03  0.92815428143E+02 0.  0.
         23    2    1    2    0    0  0.68398717465E+02  0.57517495357E+02 -0.25359315257E+03  0.29651596669E+03  0.12500233857E+03 0.  0.
          5    1    4    4  502    0 -0.41898522042E+01  0.77827068312E+02 -0.12480913295E+03  0.14722098048E+03  0.47000000000E+01 0. -1.
         -5    1    4    4    0  502  0.72588569669E+02 -0.20309572956E+02 -0.12878401961E+03  0.14929498621E+03  0.47000000000E+01 0. -1.
        -11    1    3    3    0    0 -0.35349224603E+02 -0.69225371138E+02 -0.12486144474E+03  0.14707855068E+03  0.00000000000E+00 0.  1.
         11    1    3    3    0    0 -0.33049492862E+02  0.11707875781E+02 -0.42388833847E+01  0.35317296982E+02  0.00000000000E+00 0. -1.
<mgrwt>
<rscale>  0 0.14704299E+03</rscale>
<asrwt>0</asrwt>
<pdfrwt beam="1">  1        2 0.74014103E-02 0.15366272E+03</pdfrwt>
<pdfrwt beam="2">  1       -2 0.66277330E-01 0.15366272E+03</pdfrwt>
<totfact> 0.19566056E+03</totfact>
</mgrwt>
</event>
<event>
 8    1  0.7550631E-006  0.1716445E+03  0.7546771E-02  0.1182981E+00
          2   -1    0    0  501    0  0.00000000000E+00  0.00000000000E+00  0.46813680614E+03  0.46813680614E+03  0.00000000000E+00 0. -1.
         -2   -1    0    0    0  501 -0.00000000000E+00 -0.00000000000E+00 -0.69990562783E+02  0.69990562783E+02  0.00000000000E+00 0.  1.
         23    2    1    2    0    0  0.94444725807E+02  0.70128360402E+02  0.60042471898E+02  0.15894929606E+03  0.88441998622E+02 0.  0.
         23    2    1    2    0    0 -0.94444725807E+02 -0.70128360402E+02  0.33810377146E+03  0.37917807287E+03  0.12499622995E+03 0.  0.
          5    1    4    4  502    0 -0.83350417007E+02 -0.61632062774E+02  0.11233424716E+03  0.15292768311E+03  0.47000000000E+01 0. -1.
         -5    1    4    4    0  502 -0.11094308800E+02 -0.84962976273E+01  0.22576952430E+03  0.22625038976E+03  0.47000000000E+01 0. -1.
        -11    1    3    3    0    0  0.17683500878E+02  0.48686099447E+02 -0.10106944709E+02  0.52774925998E+02  0.00000000000E+00 0.  1.
         11    1    3    3    0    0  0.76761224929E+02  0.21442260954E+02  0.70149416606E+02  0.10617437006E+03  0.00000000000E+00 0. -1.
<mgrwt>
<rscale>  0 0.16516928E+03</rscale>
<asrwt>0</asrwt>
<pdfrwt beam="1">  1        2 0.72021045E-01 0.17164455E+03</pdfrwt>
<pdfrwt beam="2">  1       -2 0.10767779E-01 0.17164455E+03</pdfrwt>
<totfact> 0.38648814E+03</totfact>
</mgrwt>
</event>
<event>
 8    1  0.7550631E-006  0.1278871E+03  0.7546771E-02  0.1246881E+00
         -1   -1    0    0    0  501 -0.00000000000E+00  0.00000000000E+00  0.43202106693E+02  0.43202106693E+02  0.00000000000E+00 0.  1.
          1   -1    0    0  501    0  0.00000000000E+00 -0.00000000000E+00 -0.28452730349E+03  0.28452730349E+03  0.00000000000E+00 0. -1.
         23    2    1    2    0    0  0.10444451352E+02  0.24916302385E+02 -0.79623527849E+02  0.12156799102E+03  0.87800692282E+02 0.  0.
         23    2    1    2    0    0 -0.10444451352E+02 -0.24916302385E+02 -0.16170166895E+03  0.20616141916E+03  0.12500076928E+03 0.  0.
          5    1    4    4  502    0 -0.10856337740E+02 -0.31848526840E+02 -0.18150422919E+03  0.18465661089E+03  0.47000000000E+01 0. -1.
         -5    1    4    4    0  502  0.41188638748E+00  0.69322244551E+01  0.19802560247E+02  0.21504808268E+02  0.47000000000E+01 0. -1.
        -11    1    3    3    0    0  0.43127392298E+02  0.36622277411E+02 -0.55785607996E+02  0.79455630566E+02  0.00000000000E+00 0.  1.
         11    1    3    3    0    0 -0.32682940946E+02 -0.11705975026E+02 -0.23837919853E+02  0.42112360455E+02  0.00000000000E+00 0. -1.
<mgrwt>
<rscale>  0 0.11773498E+03</rscale>
<asrwt>0</asrwt>
<pdfrwt beam="2">  1        1 0.43773433E-01 0.12788706E+03</pdfrwt>
<pdfrwt beam="1">  1       -1 0.66464777E-02 0.12788706E+03</pdfrwt>
<totfact> 0.10082697E+04</totfact>
</mgrwt>
</event>
<event>
 8    1  0.7550631E-006  0.1236555E+03  0.7546771E-02  0.1249046E+00
          2   -1    0    0  501    0  0.00000000000E+00  0.00000000000E+00  0.45776206791E+03  0.45776206791E+03  0.00000000000E+00 0. -1.
         -2   -1    0    0    0  501 -0.00000000000E+00 -0.00000000000E+00 -0.16582800406E+03  0.16582800406E+03  0.00000000000E+00 0.  1.
         23    2    1    2    0    0  0.40390476738E+02 -0.22640423882E+02 -0.14213489104E+03  0.17225146267E+03  0.85581889060E+02 0.  0.
         23    2    1    2    0    0 -0.40390476738E+02  0.22640423882E+02  0.43406895489E+03  0.45133860930E+03  0.11465907396E+03 0.  0.
          5    1    4    4  502    0 -0.44604176173E+02  0.66002128615E+02  0.27484201727E+03  0.28619230942E+03  0.47000000000E+01 0. -1.
         -5    1    4    4    0  502  0.42136994346E+01 -0.43361704733E+02  0.15922693762E+03  0.16514629988E+03  0.47000000000E+01 0.  1.
        -11    1    3    3    0    0  0.75445576363E+01  0.10783897834E+02  0.77077234148E+01  0.15251944226E+02  0.00000000000E+00 0. -1.
         11    1    3    3    0    0  0.32845919102E+02 -0.33424321717E+02 -0.14984261446E+03  0.15699951844E+03  0.00000000000E+00 0.  1.
<mgrwt>
<rscale>  0 0.11646454E+03</rscale>
<asrwt>0</asrwt>
<pdfrwt beam="1">  1        2 0.70424933E-01 0.12365550E+03</pdfrwt>
<pdfrwt beam="2">  1       -2 0.25512001E-01 0.12365550E+03</pdfrwt>
<totfact> 0.93730634E+02</totfact>
</mgrwt>
</event>
<event>
 8    1  0.7550631E-006  0.1289373E+03  0.7546771E-02  0.1242787E+00
          2   -1    0    0  501    0  0.00000000000E+00  0.00000000000E+00  0.21070246418E+03  0.21070246418E+03  0.00000000000E+00 0.  1.
         -2   -1    0    0    0  501 -0.00000000000E+00 -0.00000000000E+00 -0.88098670402E+02  0.88098670402E+02  0.00000000000E+00 0. -1.
         23    2    1    2    0    0 -0.31331979290E+02  0.42502371712E+01 -0.27275025175E+02  0.10109304763E+03  0.92065845128E+02 0.  0.
         23    2    1    2    0    0  0.31331979290E+02 -0.42502371712E+01  0.14987881896E+03  0.19770808695E+03  0.12500027933E+03 0.  0.
          5    1    4    4  502    0 -0.13793813225E+02 -0.56212910790E+02  0.85467165687E+02  0.10332902319E+03  0.47000000000E+01 0. -1.
         -5    1    4    4    0  502  0.45125792515E+02  0.51962673619E+02  0.64411653271E+02  0.94379063764E+02  0.47000000000E+01 0. -1.
        -11    1    3    3    0    0 -0.48161034466E+02  0.27042097073E+02  0.80423128230E+01  0.55816118197E+02  0.00000000000E+00 0.  1.
         11    1    3    3    0    0  0.16829055176E+02 -0.22791859902E+02 -0.35317337998E+02  0.45276929436E+02  0.00000000000E+00 0. -1.
<mgrwt>
<rscale>  0 0.12018807E+03</rscale>
<asrwt>0</asrwt>
<pdfrwt beam="1">  1        2 0.32415764E-01 0.12893730E+03</pdfrwt>
<pdfrwt beam="2">  1       -2 0.13553642E-01 0.12893730E+03</pdfrwt>
<totfact> 0.61861541E+03</totfact>
</mgrwt>
</event>
<event>
 8    1  0.7550631E-006  0.1377406E+03  0.7546771E-02  0.1228001E+00
          3   -1    0    0  501    0  0.00000000000E+00  0.00000000000E+00  0.42226691653E+03  0.42226691653E+03  0.00000000000E+00 0. -1.
         -3   -1    0    0    0  501 -0.00000000000E+00 -0.00000000000E+00 -0.46309627935E+02  0.46309627935E+02  0.00000000000E+00 0.  1.
         23    2    1    2    0    0 -0.39326006195E+02 -0.42437205585E+02  0.59312412949E+02  0.12327022862E+03  0.91269577363E+02 0.  0.
         23    2    1    2    0    0  0.39326006195E+02  0.42437205585E+02  0.31664487564E+03  0.34530631585E+03  0.12500009324E+03 0.  0.
          5    1    4    4  502    0 -0.15073943781E+02 -0.84005372804E+01 -0.20437186832E+01  0.18001655306E+02  0.47000000000E+01 0. -1.
         -5    1    4    4    0  502  0.54399949976E+02  0.50837742865E+02  0.31868859433E+03  0.32730466054E+03  0.47000000000E+01 0. -1.
        -11    1    3    3    0    0 -0.37927849613E+02  0.18440964388E+02  0.65132312850E+01  0.42673330378E+02  0.00000000000E+00 0.  1.
         11    1    3    3    0    0 -0.13981565825E+01 -0.60878169973E+02  0.52799181664E+02  0.80596898238E+02  0.00000000000E+00 0. -1.
<mgrwt>
<rscale>  0 0.12963302E+03</rscale>
<asrwt>0</asrwt>
<pdfrwt beam="1">  1        3 0.64964138E-01 0.13774061E+03</pdfrwt>
<pdfrwt beam="2">  1       -3 0.71245584E-02 0.13774061E+03</pdfrwt>
<totfact> 0.69730492E+02</totfact>
</mgrwt>
</event>
<event>
 8    1  0.7550631E-006  0.1775500E+03  0.7546771E-02  0.1175433E+00
          2   -1    0    0  501    0  0.00000000000E+00  0.00000000000E+00  0.56212724701E+03  0.56212724701E+03  0.00000000000E+00 0. -1.
         -2   -1    0    0    0  501 -0.00000000000E+00 -0.00000000000E+00 -0.58142419961E+02  0.58142419961E+02  0.00000000000E+00 0.  1.
         23    2    1    2    0    0  0.42406737214E+02  0.11874458702E+03  0.12289555440E+03  0.19984960407E+03  0.94540671923E+02 0.  0.
         23    2    1    2    0    0 -0.42406737214E+02 -0.11874458702E+03  0.38108927265E+03  0.42042006291E+03  0.12500154902E+03 0.  0.
          5    1    4    4  502    0 -0.13024965703E+02  0.34001312398E+01 -0.44219034300E+01  0.14928290390E+02  0.47000000000E+01 0. -1.
         -5    1    4    4    0  502 -0.29381771511E+02 -0.12214471826E+03  0.38551117608E+03  0.40549177252E+03  0.47000000000E+01 0. -1.
        -11    1    3    3    0    0 -0.26635725696E+02  0.64448716559E+02  0.52599342239E+02  0.87348667725E+02  0.00000000000E+00 0.  1.
         11    1    3    3    0    0  0.69042462911E+02  0.54295870456E+02  0.70296212161E+02  0.11250093634E+03  0.00000000000E+00 0. -1.
<mgrwt>
<rscale>  0 0.17233634E+03</rscale>
<asrwt>0</asrwt>
<pdfrwt beam="1">  1        2 0.86481111E-01 0.17754998E+03</pdfrwt>
<pdfrwt beam="2">  1       -2 0.89449881E-02 0.17754998E+03</pdfrwt>
<totfact> 0.42304057E+03</totfact>
</mgrwt>
</event>
<event>
 8    1  0.7550631E-006  0.2013701E+03  0.7546771E-02  0.1152435E+00
         -1   -1    0    0    0  501 -0.00000000000E+00  0.00000000000E+00  0.28878791537E+02  0.28878791537E+02  0.00000000000E+00 0.  1.
          1   -1    0    0  501    0  0.00000000000E+00 -0.00000000000E+00 -0.19344932382E+04  0.19344932382E+04  0.00000000000E+00 0. -1.
         23    2    1    2    0    0  0.14962036500E+03  0.50360433274E+02 -0.35540866113E+03  0.40014207809E+03  0.94212204046E+02 0.  0.
         23    2    1    2    0    0 -0.14962036500E+03 -0.50360433274E+02 -0.15502057855E+04  0.15632299516E+04  0.12500990902E+03 0.  0.
          5    1    4    4  502    0 -0.16983277722E+03 -0.47740063122E+02 -0.12639181765E+04  0.12761792714E+04  0.47000000000E+01 0.  1.
         -5    1    4    4    0  502  0.20212412214E+02 -0.26203701516E+01 -0.28628760897E+03  0.28705068019E+03  0.47000000000E+01 0.  1.
        -11    1    3    3    0    0  0.93564307789E+02  0.76450359069E+02 -0.25586119262E+03  0.28295562724E+03  0.00000000000E+00 0. -1.
         11    1    3    3    0    0  0.56056057212E+02 -0.26089925796E+02 -0.99547468502E+02  0.11718645085E+03  0.00000000000E+00 0.  1.
<mgrwt>
<rscale>  0 0.19683764E+03</rscale>
<asrwt>0</asrwt>
<pdfrwt beam="2">  1        1 0.29761440E+00 0.20137007E+03</pdfrwt>
<pdfrwt beam="1">  1       -1 0.44428901E-02 0.20137007E+03</pdfrwt>
<totfact> 0.78844567E+02</totfact>
</mgrwt>
</event>
<event>
 8    1  0.7550631E-006  0.1701296E+03  0.7546771E-02  0.1183916E+00
          2   -1    0    0  501    0  0.00000000000E+00  0.00000000000E+00  0.23660123165E+03  0.23660123165E+03  0.00000000000E+00 0. -1.
         -2   -1    0    0    0  501 -0.00000000000E+00 -0.00000000000E+00 -0.11035134262E+03  0.11035134262E+03  0.00000000000E+00 0.  1.
         23    2    1    2    0    0 -0.11068249626E+03  0.32730402946E+02  0.28473346049E+02  0.15072736594E+03  0.92661281854E+02 0.  0.
         23    2    1    2    0    0  0.11068249626E+03 -0.32730402946E+02  0.97776542986E+02  0.19622520832E+03  0.12498874257E+03 0.  0.
          5    1    4    4  502    0  0.67219824394E+02  0.37691438673E+02  0.14176627416E+02  0.78499784112E+02  0.47000000000E+01 0.  1.
         -5    1    4    4    0  502  0.43462671863E+02 -0.70421841618E+02  0.83599915570E+02  0.11772542421E+03  0.47000000000E+01 0.  1.
        -11    1    3    3    0    0 -0.11004601419E+03  0.55153038236E+02  0.33844926944E+02  0.12766151317E+03  0.00000000000E+00 0.  1.
         11    1    3    3    0    0 -0.63648206728E+00 -0.22422635290E+02 -0.53715808951E+01  0.23065852772E+02  0.00000000000E+00 0. -1.
<mgrwt>
<rscale>  0 0.16430859E+03</rscale>
<asrwt>0</asrwt>
<pdfrwt beam="1">  1        2 0.36400189E-01 0.17012960E+03</pdfrwt>
<pdfrwt beam="2">  1       -2 0.16977130E-01 0.17012960E+03</pdfrwt>
<totfact> 0.38357633E+03</totfact>
</mgrwt>
</event>
<event>
 7    1  0.7550631E-006  0.1437586E+03  0.7546771E-02  0.1225582E+00
         -1   -1    0    0    0  501 -0.00000000000E+00  0.00000000000E+00  0.36295733493E+03  0.36295733493E+03  0.00000000000E+00 0.  1.
          1   -1    0    0  501    0  0.00000000000E+00 -0.00000000000E+00 -0.11334081877E+03  0.11334081877E+03  0.00000000000E+00 0. -1.
         23    2    1    2    0    0 -0.16657136558E+02  0.20658098626E+02  0.30597609780E+03  0.32188658097E+03  0.96360683621E+02 0.  0.
          5    1    1    2  502    0 -0.17438507691E+02  0.39569046754E+01 -0.95197077029E+02  0.96975935778E+02  0.47000000000E+01 0. -1.
         -5    1    1    2    0  502  0.34095644249E+02 -0.24615003301E+02  0.38837495391E+02  0.57435636956E+02  0.47000000000E+01 0.  1.
        -11    1    3    3    0    0 -0.53630748049E+02  0.26910741024E+01  0.22181903565E+03  0.22822616764E+03  0.00000000000E+00 0.  1.
         11    1    3    3    0    0  0.36973611491E+02  0.17967024523E+02  0.84157062143E+02  0.93660413332E+02  0.00000000000E+00 0. -1.
<mgrwt>
<rscale>  0 0.13127102E+03</rscale>
<asrwt>0</asrwt>
<pdfrwt beam="2">  1        1 0.17437049E-01 0.14375859E+03</pdfrwt>
<pdfrwt beam="1">  1       -1 0.55839589E-01 0.14375859E+03</pdfrwt>
<totfact> 0.10083194E+03</totfact>
</mgrwt>
</event>
<event>
 8    1  0.7550631E-006  0.1308489E+03  0.7546771E-02  0.1239843E+00
          1   -1    0    0  501    0  0.00000000000E+00  0.00000000000E+00  0.54128120131E+03  0.54128120131E+03  0.00000000000E+00 0. -1.
         -1   -1    0    0    0  501 -0.00000000000E+00 -0.00000000000E+00 -0.24472414806E+02  0.24472414806E+02  0.00000000000E+00 0.  1.
         23    2    1    2    0    0  0.10601235198E+02  0.37202844821E+02  0.20465477632E+03  0.22728417516E+03  0.90983959875E+02 0.  0.
         23    2    1    2    0    0 -0.10601235198E+02 -0.37202844821E+02  0.31215401018E+03  0.33846944096E+03  0.12499999416E+03 0.  0.
          5    1    4    4  502    0 -0.22631819106E+02  0.20237872009E+02  0.12635230886E+02  0.33219117373E+02  0.47000000000E+01 0.  1.
         -5    1    4    4    0  502  0.12030583908E+02 -0.57440716830E+02  0.29951877930E+03  0.30525032359E+03  0.47000000000E+01 0.  1.
        -11    1    3    3    0    0  0.19942214997E+02  0.65496241385E+02  0.13054553177E+03  0.14740958395E+03  0.00000000000E+00 0.  1.
         11    1    3    3    0    0 -0.93409797993E+01 -0.28293396564E+02  0.74109244547E+02  0.79874591204E+02  0.00000000000E+00 0. -1.
<mgrwt>
<rscale>  0 0.12199429E+03</rscale>
<asrwt>0</asrwt>
<pdfrwt beam="1">  1        1 0.83274022E-01 0.13084891E+03</pdfrwt>
<pdfrwt beam="2">  1       -1 0.37649873E-02 0.13084891E+03</pdfrwt>
<totfact> 0.10376636E+04</totfact>
</mgrwt>
</event>
<event>
 8    1  0.7550631E-006  0.1294516E+03  0.7546771E-02  0.1242139E+00
         -2   -1    0    0    0  501 -0.00000000000E+00  0.00000000000E+00  0.23790293566E+02  0.23790293566E+02  0.00000000000E+00 0.  1.
          2   -1    0    0  501    0  0.00000000000E+00 -0.00000000000E+00 -0.54299151560E+03  0.54299151560E+03  0.00000000000E+00 0. -1.
         23    2    1    2    0    0  0.22840104519E+02 -0.24689332269E+02 -0.20641091001E+03  0.22826223013E+03  0.91471025100E+02 0.  0.
         23    2    1    2    0    0 -0.22840104519E+02  0.24689332269E+02 -0.31279031203E+03  0.33851957904E+03  0.12500597021E+03 0.  0.
          5    1    4    4  502    0  0.20042262744E+02  0.64150076932E+02 -0.12723177297E+03  0.14396853378E+03  0.47000000000E+01 0.  1.
         -5    1    4    4    0  502 -0.42882367263E+02 -0.39460744663E+02 -0.18555853906E+03  0.19455104526E+03  0.47000000000E+01 0.  1.
        -11    1    3    3    0    0 -0.54597156188E+01  0.31516125562E+02 -0.95865681098E+02  0.10106088995E+03  0.00000000000E+00 0.  1.
         11    1    3    3    0    0  0.28299820138E+02 -0.56205457830E+02 -0.11054522891E+03  0.12720134018E+03  0.00000000000E+00 0. -1.
<mgrwt>
<rscale>  0 0.12058290E+03</rscale>
<asrwt>0</asrwt>
<pdfrwt beam="2">  1        2 0.83537144E-01 0.12945164E+03</pdfrwt>
<pdfrwt beam="1">  1       -2 0.36600457E-02 0.12945164E+03</pdfrwt>
<totfact> 0.16759622E+04</totfact>
</mgrwt>
</event>
<event>
 8    1  0.7550631E-006  0.1426373E+03  0.7546771E-02  0.1219754E+00
         -1   -1    0    0    0  501 -0.00000000000E+00  0.00000000000E+00  0.15349089472E+02  0.15349089472E+02  0.00000000000E+00 0.  1.
          1   -1    0    0  501    0  0.00000000000E+00 -0.00000000000E+00 -0.11417085701E+04  0.11417085701E+04  0.00000000000E+00 0. -1.
         23    2    1    2    0    0 -0.56743097966E+02  0.38744721485E+02 -0.37992098649E+03  0.39711304682E+03  0.92940213970E+02 0.  0.
         23    2    1    2    0    0  0.56743097966E+02 -0.38744721485E+02 -0.74643849411E+03  0.75994461272E+03  0.12499782519E+03 0.  0.
          5    1    4    4  502    0 -0.30634486008E+02  0.27410646606E+01 -0.36797122260E+03  0.36928430217E+03  0.47000000000E+01 0.  1.
         -5    1    4    4    0  502  0.87377583974E+02 -0.41485786146E+02 -0.37846727151E+03  0.39066031055E+03  0.47000000000E+01 0.  1.
        -11    1    3    3    0    0 -0.29433209900E+02 -0.28188728135E+02 -0.99474995043E+02  0.10749973431E+03  0.00000000000E+00 0.  1.
         11    1    3    3    0    0 -0.27309888066E+02  0.66933449620E+02 -0.28044599145E+03  0.28961331251E+03  0.00000000000E+00 0. -1.
<mgrwt>
<rscale>  0 0.13533052E+03</rscale>
<asrwt>0</asrwt>
<pdfrwt beam="2">  1        1 0.17564740E+00 0.14263726E+03</pdfrwt>
<pdfrwt beam="1">  1       -1 0.23613993E-02 0.14263726E+03</pdfrwt>
<totfact> 0.66016153E+03</totfact>
</mgrwt>
</event>
<event>
 8    1  0.7550631E-006  0.1368586E+03  0.7546771E-02  0.1229599E+00
         -2   -1    0    0    0  501 -0.00000000000E+00  0.00000000000E+00  0.14264695949E+02  0.14264695949E+02  0.00000000000E+00 0.  1.
          2   -1    0    0  501    0  0.00000000000E+00 -0.00000000000E+00 -0.10690326775E+04  0.10690326775E+04  0.00000000000E+00 0. -1.
         23    2    1    2    0    0 -0.37357829413E+02 -0.41347746435E+02 -0.37304043357E+03  0.38796815947E+03  0.90856392924E+02 0.  0.
         23    2    1    2    0    0  0.37357829413E+02  0.41347746435E+02 -0.68172754803E+03  0.69532921402E+03  0.12500009031E+03 0.  0.
          5    1    4    4  502    0  0.48663217250E+02  0.80562294806E+02 -0.51970085427E+03  0.52817559579E+03  0.47000000000E+01 0. -1.
         -5    1    4    4    0  502 -0.11305387837E+02 -0.39214548371E+02 -0.16202669376E+03  0.16715361823E+03  0.47000000000E+01 0. -1.
        -11    1    3    3    0    0 -0.57107270521E+02 -0.48058799555E+00 -0.25911527344E+03  0.26533412189E+03  0.00000000000E+00 0. -1.
         11    1    3    3    0    0  0.19749441108E+02 -0.40867158440E+02 -0.11392516013E+03  0.12263403758E+03  0.00000000000E+00 0.  1.
<mgrwt>
<rscale>  0 0.12856622E+03</rscale>
<asrwt>0</asrwt>
<pdfrwt beam="2">  1        2 0.16446656E+00 0.13685856E+03</pdfrwt>
<pdfrwt beam="1">  1       -2 0.21945688E-02 0.13685856E+03</pdfrwt>
<totfact> 0.15419843E+04</totfact>
</mgrwt>
</event>
<event>
 8    1  0.7550631E-006  0.2074499E+03  0.7546771E-02  0.1147270E+00
         -2   -1    0    0    0  501 -0.00000000000E+00  0.00000000000E+00  0.77857569808E+02  0.77857569808E+02  0.00000000000E+00 0.  1.
          2   -1    0    0  501    0  0.00000000000E+00 -0.00000000000E+00 -0.60719273711E+03  0.60719273711E+03  0.00000000000E+00 0. -1.
         23    2    1    2    0    0 -0.49829566917E+02  0.15788390840E+03 -0.11619045436E+03  0.22274735478E+03  0.93305134413E+02 0.  0.
         23    2    1    2    0    0  0.49829566917E+02 -0.15788390840E+03 -0.41314471294E+03  0.46230295213E+03  0.12500060582E+03 0.  0.
          5    1    4    4  502    0  0.63505891124E+02 -0.12006935582E+03 -0.17935254817E+03  0.22503127549E+03  0.47000000000E+01 0.  1.
         -5    1    4    4    0  502 -0.13676324207E+02 -0.37814552577E+02 -0.23379216477E+03  0.23727167665E+03  0.47000000000E+01 0.  1.
        -11    1    3    3    0    0 -0.62357363406E+02  0.59191766421E+02 -0.29820744941E+02  0.91002103338E+02  0.00000000000E+00 0.  1.
         11    1    3    3    0    0  0.12527796489E+02  0.98692141974E+02 -0.86369709423E+02  0.13174525144E+03  0.00000000000E+00 0. -1.
<mgrwt>
<rscale>  0 0.20295401E+03</rscale>
<asrwt>0</asrwt>
<pdfrwt beam="2">  1        2 0.93414268E-01 0.20744991E+03</pdfrwt>
<pdfrwt beam="1">  1       -2 0.11978088E-01 0.20744991E+03</pdfrwt>
<totfact> 0.24470757E+03</totfact>
</mgrwt>
</event>
<event>
 8    1  0.7550631E-006  0.1482078E+03  0.7546771E-02  0.1208134E+00
         -3   -1    0    0    0  501 -0.00000000000E+00  0.00000000000E+00  0.14433924598E+03  0.14433924598E+03  0.00000000000E+00 0.  1.
          3   -1    0    0  501    0  0.00000000000E+00 -0.00000000000E+00 -0.13971619824E+03  0.13971619824E+03  0.00000000000E+00 0. -1.
         23    2    1    2    0    0 -0.78584280389E+02  0.12847072131E+02  0.25836458189E+02  0.13433721569E+03  0.10506392607E+03 0.  0.
         23    2    1    2    0    0  0.78584280389E+02 -0.12847072131E+02 -0.21213410450E+02  0.14971822853E+03  0.12500001113E+03 0.  0.
          5    1    4    4  502    0 -0.69568908940E+01  0.42222787636E+02 -0.20945560307E+02  0.47874509118E+02  0.47000000000E+01 0.  1.
         -5    1    4    4    0  502  0.85541171283E+02 -0.55069859767E+02 -0.26785014337E+00  0.10184371941E+03  0.47000000000E+01 0.  1.
        -11    1    3    3    0    0 -0.27665408078E+02  0.33430123686E+01  0.64128737645E+02  0.69921709988E+02  0.00000000000E+00 0.  1.
         11    1    3    3    0    0 -0.50918872311E+02  0.95040597620E+01 -0.38292279456E+02  0.64415505705E+02  0.00000000000E+00 0. -1.
<mgrwt>
<rscale>  0 0.14393161E+03</rscale>
<asrwt>0</asrwt>
<pdfrwt beam="2">  1        3 0.21494800E-01 0.14820776E+03</pdfrwt>
<pdfrwt beam="1">  1       -3 0.22206038E-01 0.14820776E+03</pdfrwt>
<totfact> 0.85965072E+02</totfact>
</mgrwt>
</event>
<event>
 8    1  0.7550631E-006  0.1276395E+03  0.7546771E-02  0.1251027E+00
         -2   -1    0    0    0  501 -0.00000000000E+00  0.00000000000E+00  0.37436647780E+03  0.37436647780E+03  0.00000000000E+00 0.  1.
          2   -1    0    0  501    0  0.00000000000E+00 -0.00000000000E+00 -0.34396571065E+02  0.34396571065E+02  0.00000000000E+00 0. -1.
         23    2    1    2    0    0 -0.89620343304E+01  0.24216622650E+02  0.21015232124E+03  0.22670687027E+03  0.81026193491E+02 0.  0.
         23    2    1    2    0    0  0.89620343304E+01 -0.24216622650E+02  0.12981758550E+03  0.18205617860E+03  0.12500033516E+03 0.  0.
          5    1    4    4  502    0 -0.57671804343E+02 -0.53090393272E+01  0.62917223084E+02  0.85643971623E+02  0.47000000000E+01 0.  1.
         -5    1    4    4    0  502  0.66633838673E+02 -0.18907583323E+02  0.66900362412E+02  0.96412206978E+02  0.47000000000E+01 0.  1.
        -11    1    3    3    0    0  0.13413020007E+02  0.45909958060E+02  0.83035449215E+02  0.95825462071E+02  0.00000000000E+00 0.  1.
         11    1    3    3    0    0 -0.22375054337E+02 -0.21693335411E+02  0.12711687203E+03  0.13088140820E+03  0.00000000000E+00 0. -1.
<mgrwt>
<rscale>  0 0.11531777E+03</rscale>
<asrwt>0</asrwt>
<pdfrwt beam="2">  1        2 0.52917804E-02 0.12763952E+03</pdfrwt>
<pdfrwt beam="1">  1       -2 0.57594840E-01 0.12763952E+03</pdfrwt>
<totfact> 0.39771909E+03</totfact>
</mgrwt>
</event>
<event>
 8    1  0.7550631E-006  0.1353294E+03  0.7546771E-02  0.1231612E+00
          3   -1    0    0  501    0  0.00000000000E+00  0.00000000000E+00  0.12992573012E+03  0.12992573012E+03  0.00000000000E+00 0. -1.
         -3   -1    0    0    0  501 -0.00000000000E+00 -0.00000000000E+00 -0.16065457480E+03  0.16065457480E+03  0.00000000000E+00 0.  1.
         23    2    1    2    0    0 -0.11714571648E+02 -0.50525127270E+02 -0.93722442172E+02  0.14130795366E+03  0.92163018217E+02 0.  0.
         23    2    1    2    0    0  0.11714571648E+02  0.50525127270E+02  0.62993597487E+02  0.14927235126E+03  0.12499608734E+03 0.  0.
          5    1    4    4  502    0  0.39488820702E+02  0.70403416661E+02  0.40175812181E+01  0.80958254655E+02  0.47000000000E+01 0. -1.
         -5    1    4    4    0  502 -0.27774249054E+02 -0.19878289391E+02  0.58976016269E+02  0.68314096602E+02  0.47000000000E+01 0. -1.
        -11    1    3    3    0    0 -0.40955675622E+02 -0.14767410157E+02 -0.83245996195E+02  0.93943278902E+02  0.00000000000E+00 0.  1.
         11    1    3    3    0    0  0.29241103974E+02 -0.35757717112E+02 -0.10476445977E+02  0.47364674759E+02  0.00000000000E+00 0. -1.
<mgrwt>
<rscale>  0 0.12723861E+03</rscale>
<asrwt>0</asrwt>
<pdfrwt beam="1">  1        3 0.19988574E-01 0.13532938E+03</pdfrwt>
<pdfrwt beam="2">  1       -3 0.24716088E-01 0.13532938E+03</pdfrwt>
<totfact> 0.79577009E+02</totfact>
</mgrwt>
</event>
<event>
 8    1  0.7550631E-006  0.1520673E+03  0.7546771E-02  0.1207130E+00
          2   -1    0    0  501    0  0.00000000000E+00  0.00000000000E+00  0.83045197560E+03  0.83045197560E+03  0.00000000000E+00 0. -1.
         -2   -1    0    0    0  501 -0.00000000000E+00 -0.00000000000E+00 -0.25439814699E+02  0.25439814699E+02  0.00000000000E+00 0.  1.
         23    2    1    2    0    0  0.15839083618E+02 -0.85145565142E+02  0.23611994221E+03  0.26702608238E+03  0.89719884806E+02 0.  0.
         23    2    1    2    0    0 -0.15839083618E+02  0.85145565142E+02  0.56889221869E+03  0.58886570792E+03  0.12499528648E+03 0.  0.
          5    1    4    4  502    0 -0.29738827239E+02  0.89317827166E+02  0.56541814471E+03  0.57322058621E+03  0.47000000000E+01 0.  1.
         -5    1    4    4    0  502  0.13899743622E+02 -0.41722620244E+01  0.34740739862E+01  0.15645121706E+02  0.47000000000E+01 0.  1.
        -11    1    3    3    0    0 -0.35471653685E+02 -0.53687622976E+02  0.12889856312E+03  0.14406747950E+03  0.00000000000E+00 0.  1.
         11    1    3    3    0    0  0.51310737303E+02 -0.31457942165E+02  0.10722137909E+03  0.12295860288E+03  0.00000000000E+00 0. -1.
<mgrwt>
<rscale>  0 0.14470857E+03</rscale>
<asrwt>0</asrwt>
<pdfrwt beam="1">  1        2 0.12776182E+00 0.15206731E+03</pdfrwt>
<pdfrwt beam="2">  1       -2 0.39138183E-02 0.15206731E+03</pdfrwt>
<totfact> 0.92956527E+03</totfact>
</mgrwt>
</event>
<event>
 6    1  0.7550631E-006  0.1745656E+03  0.7546771E-02  0.1267617E+00
         -2   -1    0    0    0  501 -0.00000000000E+00  0.00000000000E+00  0.96613509421E+01  0.96613509421E+01  0.00000000000E+00 0.  1.
          2   -1    0    0  501    0  0.00000000000E+00 -0.00000000000E+00 -0.12304746291E+04  0.12304746291E+04  0.00000000000E+00 0. -1.
          5    1    1    2  502    0 -0.16504307287E+01  0.32623492563E+02 -0.11082590064E+04  0.11087502566E+04  0.47000000000E+01 0. -1.
         -5    1    1    2    0  502 -0.82089497348E+01 -0.42742836104E+02 -0.71378422534E+02  0.83733542248E+02  0.47000000000E+01 0.  1.
        -11    1    1    2    0    0 -0.26378899630E+01  0.10288315506E+02 -0.12711456079E+02  0.16564691820E+02  0.00000000000E+00 0. -1.
         11    1    1    2    0    0  0.12497270426E+02 -0.16897196531E+00 -0.28464393060E+02  0.31087489315E+02  0.00000000000E+00 0.  1.
<mgrwt>
<rscale>  0 0.10628057E+03</rscale>
<asrwt>0</asrwt>
<pdfrwt beam="2">  1        2 0.18930389E+00 0.17456559E+03</pdfrwt>
<pdfrwt beam="1">  1       -2 0.14863609E-02 0.17456559E+03</pdfrwt>
<totfact> 0.22350393E+04</totfact>
</mgrwt>
</event>
<event>
 8    1  0.7550631E-006  0.1390150E+03  0.7546771E-02  0.1223502E+00
          2   -1    0    0  501    0  0.00000000000E+00  0.00000000000E+00  0.60893497718E+03  0.60893497718E+03  0.00000000000E+00 0. -1.
         -2   -1    0    0    0  501 -0.00000000000E+00 -0.00000000000E+00 -0.28560752832E+02  0.28560752832E+02  0.00000000000E+00 0.  1.
         23    2    1    2    0    0 -0.60576631021E+02  0.56267645969E+01  0.18154339416E+03  0.21513190481E+03  0.98094565596E+02 0.  0.
         23    2    1    2    0    0  0.60576631021E+02 -0.56267645969E+01  0.39883083019E+03  0.42236382520E+03  0.12499592403E+03 0.  0.
          5    1    4    4  502    0  0.66958130910E+01  0.56237527832E+02  0.16584172375E+03  0.17530847323E+03  0.47000000000E+01 0.  1.
         -5    1    4    4    0  502  0.53880817930E+02 -0.61864292429E+02  0.23298910645E+03  0.24705535198E+03  0.47000000000E+01 0.  1.
        -11    1    3    3    0    0 -0.66620330494E+02 -0.34215021377E+02  0.11133335238E+03  0.13417917676E+03  0.00000000000E+00 0.  1.
         11    1    3    3    0    0  0.60436994726E+01  0.39841785974E+02  0.70210041777E+02  0.80952728053E+02  0.00000000000E+00 0. -1.
<mgrwt>
<rscale>  0 0.13270109E+03</rscale>
<asrwt>0</asrwt>
<pdfrwt beam="1">  1        2 0.93682294E-01 0.13901500E+03</pdfrwt>
<pdfrwt beam="2">  1       -2 0.43939624E-02 0.13901500E+03</pdfrwt>
<totfact> 0.11286984E+04</totfact>
</mgrwt>
</event>
<event>
 8    1  0.7550631E-006  0.1269798E+03  0.7546771E-02  0.1245146E+00
         -1   -1    0    0    0  501 -0.00000000000E+00  0.00000000000E+00  0.25105350895E+02  0.25105350895E+02  0.00000000000E+00 0. -1.
          1   -1    0    0  501    0  0.00000000000E+00 -0.00000000000E+00 -0.55517805794E+03  0.55517805794E+03  0.00000000000E+00 0.  1.
         23    2    1    2    0    0  0.18682644784E+02  0.12232809186E+02 -0.14283903024E+03  0.17276187327E+03  0.94577975559E+02 0.  0.
         23    2    1    2    0    0 -0.18682644784E+02 -0.12232809186E+02 -0.38723367680E+03  0.40752153556E+03  0.12500079463E+03 0.  0.
          5    1    4    4  502    0  0.51943306411E+02 -0.16946372059E+02 -0.19703776100E+03  0.20452690744E+03  0.47000000000E+01 0. -1.
         -5    1    4    4    0  502 -0.70625951195E+02  0.47135628732E+01 -0.19019591580E+03  0.20299462812E+03  0.47000000000E+01 0. -1.
        -11    1    3    3    0    0 -0.21472542961E+02  0.28101959711E+02 -0.16078939267E+02  0.38850000370E+02  0.00000000000E+00 0. -1.
         11    1    3    3    0    0  0.40155187745E+02 -0.15869150525E+02 -0.12676009097E+03  0.13391187290E+03  0.00000000000E+00 0.  1.
<mgrwt>
<rscale>  0 0.11876644E+03</rscale>
<asrwt>0</asrwt>
<pdfrwt beam="2">  1        1 0.85412005E-01 0.12697985E+03</pdfrwt>
<pdfrwt beam="1">  1       -1 0.38623619E-02 0.12697985E+03</pdfrwt>
<totfact> 0.96444684E+03</totfact>
</mgrwt>
</event>
<event>
 8    1  0.7550631E-006  0.1729369E+03  0.7546771E-02  0.1181106E+00
         -3   -1    0    0    0  501 -0.00000000000E+00  0.00000000000E+00  0.18844961227E+03  0.18844961227E+03  0.00000000000E+00 0.  1.
          3   -1    0    0  501    0  0.00000000000E+00 -0.00000000000E+00 -0.16218446369E+03  0.16218446369E+03  0.00000000000E+00 0. -1.
         23    2    1    2    0    0 -0.85031324143E+02 -0.83894543351E+02  0.79317940588E+02  0.16974244501E+03  0.90843499767E+02 0.  0.
         23    2    1    2    0    0  0.85031324143E+02  0.83894543351E+02 -0.53052792007E+02  0.18089163095E+03  0.12505423991E+03 0.  0.
          5    1    4    4  502    0  0.93411272285E+02  0.32564560997E+02 -0.75015384939E+02  0.12423974565E+03  0.47000000000E+01 0.  1.
         -5    1    4    4    0  502 -0.83799481415E+01  0.51329982354E+02  0.21962592932E+02  0.56651885296E+02  0.47000000000E+01 0.  1.
        -11    1    3    3    0    0 -0.10033316275E+02 -0.40099161932E+01  0.56878007346E+02  0.57895203454E+02  0.00000000000E+00 0.  1.
         11    1    3    3    0    0 -0.74998007868E+02 -0.79884627158E+02  0.22439933242E+02  0.11184724156E+03  0.00000000000E+00 0. -1.
<mgrwt>
<rscale>  0 0.16691281E+03</rscale>
<asrwt>0</asrwt>
<pdfrwt beam="2">  1        3 0.24951456E-01 0.17293693E+03</pdfrwt>
<pdfrwt beam="1">  1       -3 0.28992248E-01 0.17293693E+03</pdfrwt>
<totfact> 0.41375533E+02</totfact>
</mgrwt>
</event>
<event>
 7    1  0.7550631E-006  0.1729206E+03  0.7546771E-02  0.1223575E+00
          1   -1    0    0  501    0  0.00000000000E+00  0.00000000000E+00  0.46818738838E+03  0.46818738838E+03  0.00000000000E+00 0. -1.
         -1   -1    0    0    0  501 -0.00000000000E+00 -0.00000000000E+00 -0.34705312194E+02  0.34705312194E+02  0.00000000000E+00 0.  1.
         23    2    1    2    0    0  0.22709411225E+01 -0.13002280388E+02  0.37123954138E+02  0.70456245091E+02  0.58409571413E+02 0.  0.
          5    1    1    2  502    0 -0.54482062977E+02  0.62886293825E+02  0.30337388392E+03  0.31461211767E+03  0.47000000000E+01 0. -1.
         -5    1    1    2    0  502  0.52211121855E+02 -0.49884013438E+02  0.92984238128E+02  0.11782433782E+03  0.47000000000E+01 0.  1.
        -11    1    3    3    0    0  0.89639058036E+01 -0.25215136536E+02  0.46511782962E+02  0.53660979045E+02  0.00000000000E+00 0. -1.
         11    1    3    3    0    0 -0.66929646811E+01  0.12212856149E+02 -0.93878288240E+01  0.16795266046E+02  0.00000000000E+00 0.  1.
<mgrwt>
<rscale>  0 0.13265075E+03</rscale>
<asrwt>0</asrwt>
<pdfrwt beam="1">  1        1 0.72028824E-01 0.17292058E+03</pdfrwt>
<pdfrwt beam="2">  1       -1 0.53392792E-02 0.17292058E+03</pdfrwt>
<totfact> 0.76248406E+03</totfact>
</mgrwt>
</event>
<event>
 6    1  0.7550631E-006  0.2062329E+03  0.7546771E-02  0.1146958E+00
         -1   -1    0    0    0  501 -0.00000000000E+00  0.00000000000E+00  0.82895645495E+02  0.82895645495E+02  0.00000000000E+00 0.  1.
          1   -1    0    0  501    0  0.00000000000E+00 -0.00000000000E+00 -0.50866084356E+03  0.50866084356E+03  0.00000000000E+00 0. -1.
          5    1    1    2  502    0  0.26272536050E+02 -0.31385392709E+02 -0.18009909696E+03  0.18475135656E+03  0.47000000000E+01 0. -1.
         -5    1    1    2    0  502  0.11523994315E+03  0.24992879660E+02 -0.90531320338E+02  0.14873768350E+03  0.47000000000E+01 0.  1.
        -11    1    1    2    0    0  0.85057039964E+01 -0.98682225268E+01  0.21879770924E+02  0.25464744098E+02  0.00000000000E+00 0. -1.
         11    1    1    2    0    0 -0.15001818320E+03  0.16260735576E+02 -0.17701455169E+03  0.23260270489E+03  0.00000000000E+00 0.  1.
<mgrwt>
<rscale>  0 0.20333138E+03</rscale>
<asrwt>0</asrwt>
<pdfrwt beam="2">  1        1 0.78255514E-01 0.20623290E+03</pdfrwt>
<pdfrwt beam="1">  1       -1 0.12753176E-01 0.20623290E+03</pdfrwt>
<totfact> 0.18248867E+03</totfact>
</mgrwt>
</event>
<event>
 8    1  0.7550631E-006  0.1942557E+03  0.7546771E-02  0.1159758E+00
          2   -1    0    0  501    0  0.00000000000E+00  0.00000000000E+00  0.79008836270E+03  0.79008836270E+03  0.00000000000E+00 0. -1.
         -2   -1    0    0    0  501 -0.00000000000E+00 -0.00000000000E+00 -0.46227731145E+02  0.46227731145E+02  0.00000000000E+00 0.  1.
         23    2    1    2    0    0 -0.10929742211E+03  0.10080468868E+03  0.23400350173E+03  0.29070675334E+03  0.87437211050E+02 0.  0.
         23    2    1    2    0    0  0.10929742211E+03 -0.10080468868E+03  0.50985712982E+03  0.54560934050E+03  0.12501099103E+03 0.  0.
          5    1    4    4  502    0  0.11449468527E+03 -0.12469874958E+03  0.44393397111E+03  0.47514026540E+03  0.47000000000E+01 0.  1.
         -5    1    4    4    0  502 -0.51972631629E+01  0.23894060908E+02  0.65923158712E+02  0.70469075101E+02  0.47000000000E+01 0.  1.
        -11    1    3    3    0    0 -0.20705638460E+02  0.72955164248E+02  0.13584824199E+03  0.15558253214E+03  0.00000000000E+00 0. -1.
         11    1    3    3    0    0 -0.88591783646E+02  0.27849524427E+02  0.98155259744E+02  0.13512422120E+03  0.00000000000E+00 0.  1.
<mgrwt>
<rscale>  0 0.18856939E+03</rscale>
<asrwt>0</asrwt>
<pdfrwt beam="1">  1        2 0.12155205E+00 0.19425566E+03</pdfrwt>
<pdfrwt beam="2">  1       -2 0.71119592E-02 0.19425566E+03</pdfrwt>
<totfact> 0.40470161E+03</totfact>
</mgrwt>
</event>
<event>
 8    1  0.7550631E-006  0.2486145E+03  0.7546771E-02  0.1116600E+00
          1   -1    0    0  501    0  0.00000000000E+00  0.00000000000E+00  0.19935988852E+04  0.19935988852E+04  0.00000000000E+00 0. -1.
         -1   -1    0    0    0  501 -0.00000000000E+00 -0.00000000000E+00 -0.33187963663E+02  0.33187963663E+02  0.00000000000E+00 0.  1.
         23    2    1    2    0    0  0.16394065456E+03 -0.13894998903E+03  0.60269799800E+03  0.64649936518E+03  0.92373777212E+02 0.  0.
         23    2    1    2    0    0 -0.16394065456E+03  0.13894998903E+03  0.13577129236E+04  0.13802874837E+04  0.12500206878E+03 0.  0.
          5    1    4    4  502    0 -0.47546300818E+02  0.78252682711E+02  0.88265766513E+03  0.88740677081E+03  0.47000000000E+01 0. -1.
         -5    1    4    4    0  502 -0.11639435375E+03  0.60697306322E+02  0.47505525846E+03  0.49288071292E+03  0.47000000000E+01 0. -1.
        -11    1    3    3    0    0  0.21227860463E+02 -0.74152820341E+02  0.19253506893E+03  0.20741025913E+03  0.00000000000E+00 0.  1.
         11    1    3    3    0    0  0.14271279410E+03 -0.64797168692E+02  0.41016292907E+03  0.43908910605E+03  0.00000000000E+00 0. -1.
<mgrwt>
<rscale>  0 0.24485538E+03</rscale>
<asrwt>0</asrwt>
<pdfrwt beam="1">  1        1 0.30670743E+00 0.24861447E+03</pdfrwt>
<pdfrwt beam="2">  1       -1 0.51058421E-02 0.24861447E+03</pdfrwt>
<totfact> 0.58257284E+02</totfact>
</mgrwt>
</event>
<event>
 8    1  0.7550631E-006  0.1317283E+03  0.7546771E-02  0.1238966E+00
         -2   -1    0    0    0  501 -0.00000000000E+00  0.00000000000E+00  0.25518543284E+02  0.25518543284E+02  0.00000000000E+00 0.  1.
          2   -1    0    0  501    0  0.00000000000E+00 -0.00000000000E+00 -0.52015516075E+03  0.52015516075E+03  0.00000000000E+00 0. -1.
         23    2    1    2    0    0 -0.34329776397E+02 -0.23513455026E+02 -0.20605029952E+03  0.22844443972E+03  0.89435563340E+02 0.  0.
         23    2    1    2    0    0  0.34329776397E+02  0.23513455026E+02 -0.28858631795E+03  0.31722926432E+03  0.12498370742E+03 0.  0.
          5    1    4    4  502    0  0.40813698861E+02 -0.42874659145E+02 -0.91238876372E+02  0.10886053910E+03  0.47000000000E+01 0. -1.
         -5    1    4    4    0  502 -0.64839224644E+01  0.66388114171E+02 -0.19734744157E+03  0.20836872522E+03  0.47000000000E+01 0. -1.
        -11    1    3    3    0    0 -0.43334948727E+02  0.90253851497E+01 -0.42218624278E+02  0.61170152805E+02  0.00000000000E+00 0.  1.
         11    1    3    3    0    0  0.90051723300E+01 -0.32538840176E+02 -0.16383167525E+03  0.16727428691E+03  0.00000000000E+00 0. -1.
<mgrwt>
<rscale>  0 0.12253895E+03</rscale>
<asrwt>0</asrwt>
<pdfrwt beam="2">  1        2 0.80023870E-01 0.13172829E+03</pdfrwt>
<pdfrwt beam="1">  1       -2 0.39259298E-02 0.13172829E+03</pdfrwt>
<totfact> 0.15865518E+04</totfact>
</mgrwt>
</event>
<event>
 8    1  0.7550631E-006  0.1699709E+03  0.7546771E-02  0.1184455E+00
          2   -1    0    0  501    0  0.00000000000E+00  0.00000000000E+00  0.28122730871E+02  0.28122730871E+02  0.00000000000E+00 0. -1.
         -2   -1    0    0    0  501 -0.00000000000E+00 -0.00000000000E+00 -0.93336042721E+03  0.93336042721E+03  0.00000000000E+00 0.  1.
         23    2    1    2    0    0 -0.10731888762E+03 -0.41801428070E+02 -0.52270383659E+03  0.54288758582E+03  0.90790566814E+02 0.  0.
         23    2    1    2    0    0  0.10731888762E+03  0.41801428070E+02 -0.38253385975E+03  0.41859557227E+03  0.12500158493E+03 0.  0.
          5    1    4    4  502    0  0.91383197000E+02  0.56719198826E+02 -0.14806739089E+03  0.18306828905E+03  0.47000000000E+01 0.  1.
         -5    1    4    4    0  502  0.15935690620E+02 -0.14917770756E+02 -0.23446646886E+03  0.23552728322E+03  0.47000000000E+01 0.  1.
        -11    1    3    3    0    0 -0.34896661603E+02  0.27360720987E+02 -0.12037150929E+03  0.12827971895E+03  0.00000000000E+00 0. -1.
         11    1    3    3    0    0 -0.72422226017E+02 -0.69162149057E+02 -0.40233232730E+03  0.41460786687E+03  0.00000000000E+00 0.  1.
<mgrwt>
<rscale>  0 0.16381549E+03</rscale>
<asrwt>0</asrwt>
<pdfrwt beam="1">  1        2 0.43265739E-02 0.16997088E+03</pdfrwt>
<pdfrwt beam="2">  1       -2 0.14359391E+00 0.16997088E+03</pdfrwt>
<totfact> 0.66599896E+02</totfact>
</mgrwt>
</event>
<event>
 8    1  0.7550631E-006  0.1688918E+03  0.7546771E-02  0.1185505E+00
          2   -1    0    0  501    0  0.00000000000E+00  0.00000000000E+00  0.22056673242E+03  0.22056673242E+03  0.00000000000E+00 0. -1.
         -2   -1    0    0    0  501 -0.00000000000E+00 -0.00000000000E+00 -0.11702059530E+03  0.11702059530E+03  0.00000000000E+00 0.  1.
         23    2    1    2    0    0 -0.15454167715E+02  0.11251946452E+03  0.14735693202E+02  0.14676874204E+03  0.91784866889E+02 0.  0.
         23    2    1    2    0    0  0.15454167715E+02 -0.11251946452E+03  0.88810443916E+02  0.19081858568E+03  0.12499990598E+03 0.  0.
          5    1    4    4  502    0 -0.80314580222E+01 -0.13484299972E+03  0.79364828481E+02  0.15674184155E+03  0.47000000000E+01 0.  1.
         -5    1    4    4    0  502  0.23485625738E+02  0.22323535195E+02  0.94456154347E+01  0.34076744135E+02  0.47000000000E+01 0.  1.
        -11    1    3    3    0    0 -0.13445384582E+02  0.85703733314E+02 -0.32315407102E+02  0.92575341245E+02  0.00000000000E+00 0.  1.
         11    1    3    3    0    0 -0.20087831337E+01  0.26815731210E+02  0.47051100304E+02  0.54193400796E+02  0.00000000000E+00 0. -1.
<mgrwt>
<rscale>  0 0.16286014E+03</rscale>
<asrwt>0</asrwt>
<pdfrwt beam="1">  1        2 0.33933343E-01 0.16889179E+03</pdfrwt>
<pdfrwt beam="2">  1       -2 0.18003169E-01 0.16889179E+03</pdfrwt>
<totfact> 0.37494401E+03</totfact>
</mgrwt>
</event>
<event>
 8    1  0.7550631E-006  0.1891099E+03  0.7546771E-02  0.1163955E+00
          1   -1    0    0  501    0  0.00000000000E+00  0.00000000000E+00  0.89338323514E+02  0.89338323514E+02  0.00000000000E+00 0. -1.
         -1   -1    0    0    0  501 -0.00000000000E+00 -0.00000000000E+00 -0.56906403775E+03  0.56906403775E+03  0.00000000000E+00 0.  1.
         23    2    1    2    0    0  0.13933615115E+03  0.26893374441E+02 -0.43091824933E+03  0.46309563932E+03  0.92893578571E+02 0.  0.
         23    2    1    2    0    0 -0.13933615115E+03 -0.26893374441E+02 -0.48807464900E+02  0.19530672195E+03  0.12499892160E+03 0.  0.
          5    1    4    4  502    0 -0.90723190472E+02  0.35717247854E+02 -0.60798573103E+02  0.11499989380E+03  0.47000000000E+01 0.  1.
         -5    1    4    4    0  502 -0.48612960679E+02 -0.62610622295E+02  0.11991108203E+02  0.80306828141E+02  0.47000000000E+01 0.  1.
        -11    1    3    3    0    0  0.11007521425E+03  0.49052407442E+02 -0.23860182315E+03  0.26730791511E+03  0.00000000000E+00 0.  1.
         11    1    3    3    0    0  0.29260936901E+02 -0.22159033001E+02 -0.19231642618E+03  0.19578772421E+03  0.00000000000E+00 0. -1.
<mgrwt>
<rscale>  0 0.18403378E+03</rscale>
<asrwt>0</asrwt>
<pdfrwt beam="1">  1        1 0.13744357E-01 0.18910988E+03</pdfrwt>
<pdfrwt beam="2">  1       -1 0.87548315E-01 0.18910988E+03</pdfrwt>
<totfact> 0.56435198E+02</totfact>
</mgrwt>
</event>
<event>
 8    1  0.7550631E-006  0.2182922E+03  0.7546771E-02  0.1138575E+00
          2   -1    0    0  501    0  0.00000000000E+00  0.00000000000E+00  0.23470960281E+03  0.23470960281E+03  0.00000000000E+00 0. -1.
         -2   -1    0    0    0  501 -0.00000000000E+00 -0.00000000000E+00 -0.21988967380E+03  0.21988967380E+03  0.00000000000E+00 0.  1.
         23    2    1    2    0    0  0.15330754650E+03 -0.92322641385E+02 -0.80406561992E+02  0.21644055320E+03  0.91403631933E+02 0.  0.
         23    2    1    2    0    0 -0.15330754650E+03  0.92322641385E+02  0.95226490998E+02  0.23815872341E+03  0.12499927609E+03 0.  0.
          5    1    4    4  502    0 -0.84433453441E+02  0.17032397777E+02 -0.15354211422E+02  0.87618219809E+02  0.47000000000E+01 0. -1.
         -5    1    4    4    0  502 -0.68874093060E+02  0.75290243608E+02  0.11058070242E+03  0.15054050360E+03  0.47000000000E+01 0. -1.
        -11    1    3    3    0    0  0.47320956854E+02 -0.74314121607E+02 -0.61099982232E+02  0.10721506171E+03  0.00000000000E+00 0.  1.
         11    1    3    3    0    0  0.10598658965E+03 -0.18008519778E+02 -0.19306579761E+02  0.10922549149E+03  0.00000000000E+00 0. -1.
<mgrwt>
<rscale>  0 0.21382143E+03</rscale>
<asrwt>0</asrwt>
<pdfrwt beam="1">  1        2 0.36109170E-01 0.21829222E+03</pdfrwt>
<pdfrwt beam="2">  1       -2 0.33829181E-01 0.21829222E+03</pdfrwt>
<totfact> 0.11658063E+03</totfact>
</mgrwt>
</event>
<event>
 8    1  0.7550631E-006  0.1417210E+03  0.7546771E-02  0.1221559E+00
          4   -1    0    0  501    0  0.00000000000E+00  0.00000000000E+00  0.36929576135E+02  0.36929576135E+02  0.00000000000E+00 0. -1.
         -4   -1    0    0    0  501 -0.00000000000E+00 -0.00000000000E+00 -0.44125108383E+03  0.44125108383E+03  0.00000000000E+00 0.  1.
         23    2    1    2    0    0  0.64604397570E+02 -0.16960668870E+02 -0.18722022515E+03  0.21891669691E+03  0.91715402240E+02 0.  0.
         23    2    1    2    0    0 -0.64604397570E+02  0.16960668870E+02 -0.21710128254E+03  0.25926396305E+03  0.12499377257E+03 0.  0.
          5    1    4    4  502    0 -0.64615053212E+02  0.50899190654E+02 -0.69650241549E+02  0.10788456265E+03  0.47000000000E+01 0. -1.
         -5    1    4    4    0  502  0.10655641938E-01 -0.33938521784E+02 -0.14745104099E+03  0.15137940040E+03  0.47000000000E+01 0. -1.
        -11    1    3    3    0    0  0.55750053276E+02 -0.49565698734E+02 -0.15598244069E+03  0.17290271465E+03  0.00000000000E+00 0.  1.
         11    1    3    3    0    0  0.88543442944E+01  0.32605029864E+02 -0.31237784462E+02  0.46013982260E+02  0.00000000000E+00 0. -1.
<mgrwt>
<rscale>  0 0.13405593E+03</rscale>
<asrwt>0</asrwt>
<pdfrwt beam="1">  1        4 0.56814735E-02 0.14172098E+03</pdfrwt>
<pdfrwt beam="2">  1       -4 0.67884780E-01 0.14172098E+03</pdfrwt>
<totfact> 0.66113253E+02</totfact>
</mgrwt>
</event>
<event>
 8    1  0.7550631E-006  0.2016966E+03  0.7546771E-02  0.1152409E+00
         -1   -1    0    0    0  501 -0.00000000000E+00  0.00000000000E+00  0.11307631290E+03  0.11307631290E+03  0.00000000000E+00 0.  1.
          1   -1    0    0  501    0  0.00000000000E+00 -0.00000000000E+00 -0.33125012888E+03  0.33125012888E+03  0.00000000000E+00 0. -1.
         23    2    1    2    0    0 -0.14296748928E+03 -0.67979336420E+02 -0.79643154566E+02  0.19963838487E+03  0.91932363579E+02 0.  0.
         23    2    1    2    0    0  0.14296748928E+03  0.67979336420E+02 -0.13853066141E+03  0.24468805692E+03  0.12498243028E+03 0.  0.
          5    1    4    4  502    0  0.14612604667E+03  0.30777916264E+02 -0.14297733728E+03  0.20679630224E+03  0.47000000000E+01 0.  1.
         -5    1    4    4    0  502 -0.31585573975E+01  0.37201420156E+02  0.44466758630E+01  0.37891754679E+02  0.47000000000E+01 0.  1.
        -11    1    3    3    0    0 -0.39274610979E+02  0.22627612664E+02 -0.18035042812E+02  0.48782852434E+02  0.00000000000E+00 0. -1.
         11    1    3    3    0    0 -0.10369287830E+03 -0.90606949083E+02 -0.61608111753E+02  0.15085553243E+03  0.00000000000E+00 0.  1.
<mgrwt>
<rscale>  0 0.19686778E+03</rscale>
<asrwt>0</asrwt>
<pdfrwt beam="2">  1        1 0.50961558E-01 0.20169656E+03</pdfrwt>
<pdfrwt beam="1">  1       -1 0.17396356E-01 0.20169656E+03</pdfrwt>
<totfact> 0.19370633E+03</totfact>
</mgrwt>
</event>
<event>
 8    1  0.7550631E-006  0.1271985E+03  0.7546771E-02  0.1247939E+00
          3   -1    0    0  501    0  0.00000000000E+00  0.00000000000E+00  0.22937073905E+03  0.22937073905E+03  0.00000000000E+00 0. -1.
         -3   -1    0    0    0  501 -0.00000000000E+00 -0.00000000000E+00 -0.83883435407E+02  0.83883435407E+02  0.00000000000E+00 0.  1.
         23    2    1    2    0    0  0.76733121186E+01  0.22230441873E+02 -0.30281610226E+02  0.96288373794E+02  0.88325549787E+02 0.  0.
         23    2    1    2    0    0 -0.76733121186E+01 -0.22230441873E+02  0.17576891386E+03  0.21696580066E+03  0.12500550112E+03 0.  0.
          5    1    4    4  502    0  0.28520429137E+02  0.29210279304E+02  0.14128220214E+02  0.43455171172E+02  0.47000000000E+01 0.  1.
         -5    1    4    4    0  502 -0.36193741256E+02 -0.51440721177E+02  0.16164069365E+03  0.17351062949E+03  0.47000000000E+01 0.  1.
        -11    1    3    3    0    0 -0.51883387001E+01 -0.31442456644E+02  0.27174819161E+01  0.31983302616E+02  0.00000000000E+00 0.  1.
         11    1    3    3    0    0  0.12861650819E+02  0.53672898517E+02 -0.32999092142E+02  0.64305071178E+02  0.00000000000E+00 0. -1.
<mgrwt>
<rscale>  0 0.11711197E+03</rscale>
<asrwt>0</asrwt>
<pdfrwt beam="1">  1        3 0.35287806E-01 0.12719846E+03</pdfrwt>
<pdfrwt beam="2">  1       -3 0.12905144E-01 0.12719846E+03</pdfrwt>
<totfact> 0.86771826E+02</totfact>
</mgrwt>
</event>
<event>
 8    1  0.7550631E-006  0.2187518E+03  0.7546771E-02  0.1138201E+00
          3   -1    0    0  501    0  0.00000000000E+00  0.00000000000E+00  0.19217661814E+03  0.19217661814E+03  0.00000000000E+00 0. -1.
         -3   -1    0    0    0  501 -0.00000000000E+00 -0.00000000000E+00 -0.31149847891E+03  0.31149847891E+03  0.00000000000E+00 0.  1.
         23    2    1    2    0    0  0.17681242105E+03 -0.31082791869E+02 -0.18678516864E+03  0.27475669000E+03  0.91508290826E+02 0.  0.
         23    2    1    2    0    0 -0.17681242105E+03  0.31082791869E+02  0.67463307861E+02  0.22891840705E+03  0.12499426784E+03 0.  0.
          5    1    4    4  502    0 -0.77358176463E+02  0.72723520456E+02  0.56709439965E+02  0.12046181334E+03  0.47000000000E+01 0.  1.
         -5    1    4    4    0  502 -0.99454244588E+02 -0.41640728588E+02  0.10753867896E+02  0.10845659371E+03  0.47000000000E+01 0.  1.
        -11    1    3    3    0    0  0.43110138773E+01 -0.17463521026E+02 -0.53185472194E+02  0.56144936190E+02  0.00000000000E+00 0.  1.
         11    1    3    3    0    0  0.17250140717E+03 -0.13619270843E+02 -0.13359969644E+03  0.21861175381E+03  0.00000000000E+00 0. -1.
<mgrwt>
<rscale>  0 0.21430526E+03</rscale>
<asrwt>0</asrwt>
<pdfrwt beam="1">  1        3 0.29565634E-01 0.21875178E+03</pdfrwt>
<pdfrwt beam="2">  1       -3 0.47922842E-01 0.21875178E+03</pdfrwt>
<totfact> 0.11816050E+02</totfact>
</mgrwt>
</event>
<event>
 8    1  0.7550631E-006  0.1661791E+03  0.7546771E-02  0.1188586E+00
          3   -1    0    0  501    0  0.00000000000E+00  0.00000000000E+00  0.92618130153E+02  0.92618130153E+02  0.00000000000E+00 0. -1.
         -3   -1    0    0    0  501 -0.00000000000E+00 -0.00000000000E+00 -0.25849521349E+03  0.25849521349E+03  0.00000000000E+00 0.  1.
         23    2    1    2    0    0 -0.96466919927E+02  0.51814970091E+02 -0.81710742991E+02  0.16483543380E+03  0.92213973719E+02 0.  0.
         23    2    1    2    0    0  0.96466919927E+02 -0.51814970091E+02 -0.84166340344E+02  0.18627790984E+03  0.12499931633E+03 0.  0.
          5    1    4    4  502    0 -0.11000287539E+02 -0.25118226772E+02  0.19931515248E+02  0.34224069632E+02  0.47000000000E+01 0. -1.
         -5    1    4    4    0  502  0.10746720747E+03 -0.26696743319E+02 -0.10409785559E+03  0.15205384021E+03  0.47000000000E+01 0. -1.
        -11    1    3    3    0    0 -0.75718634659E+02  0.73812615869E+02 -0.39432568994E+02  0.11285628646E+03  0.00000000000E+00 0. -1.
         11    1    3    3    0    0 -0.20748285269E+02 -0.21997645778E+02 -0.42278173997E+02  0.51979147337E+02  0.00000000000E+00 0.  1.
<mgrwt>
<rscale>  0 0.16009796E+03</rscale>
<asrwt>0</asrwt>
<pdfrwt beam="1">  1        3 0.14248943E-01 0.16617908E+03</pdfrwt>
<pdfrwt beam="2">  1       -3 0.39768494E-01 0.16617908E+03</pdfrwt>
<totfact> 0.60693493E+02</totfact>
</mgrwt>
</event>
<event>
 8    1  0.7550631E-006  0.1289737E+03  0.7546771E-02  0.1243434E+00
         -1   -1    0    0    0  501 -0.00000000000E+00  0.00000000000E+00  0.80715519965E+02  0.80715519965E+02  0.00000000000E+00 0.  1.
          1   -1    0    0  501    0  0.00000000000E+00 -0.00000000000E+00 -0.18524331190E+03  0.18524331190E+03  0.00000000000E+00 0. -1.
         23    2    1    2    0    0 -0.19101414690E+02 -0.25363283456E+02  0.58842002576E+01  0.96179488071E+02  0.90596412303E+02 0.  0.
         23    2    1    2    0    0  0.19101414690E+02  0.25363283456E+02 -0.11041199220E+03  0.16977934380E+03  0.12500422940E+03 0.  0.
          5    1    4    4  502    0  0.32654268808E+02 -0.44897043660E+02 -0.61458483001E+02  0.82953486566E+02  0.47000000000E+01 0. -1.
         -5    1    4    4    0  502 -0.13552854118E+02  0.70260327117E+02 -0.48953509195E+02  0.86825857230E+02  0.47000000000E+01 0. -1.
        -11    1    3    3    0    0  0.31183743660E+02  0.54651096221E+01  0.17336575237E+02  0.36095015346E+02  0.00000000000E+00 0.  1.
         11    1    3    3    0    0 -0.50285158350E+02 -0.30828393078E+02 -0.11452374979E+02  0.60084472726E+02  0.00000000000E+00 0. -1.
<mgrwt>
<rscale>  0 0.11979617E+03</rscale>
<asrwt>0</asrwt>
<pdfrwt beam="2">  1        1 0.28498970E-01 0.12897371E+03</pdfrwt>
<pdfrwt beam="1">  1       -1 0.12417773E-01 0.12897371E+03</pdfrwt>
<totfact> 0.66464540E+03</totfact>
</mgrwt>
</event>
<event>
 8    1  0.7550631E-006  0.1964426E+03  0.7546771E-02  0.1157377E+00
         -2   -1    0    0    0  501 -0.00000000000E+00  0.00000000000E+00  0.37311062025E+02  0.37311062025E+02  0.00000000000E+00 0.  1.
          2   -1    0    0  501    0  0.00000000000E+00 -0.00000000000E+00 -0.10505664421E+04  0.10505664421E+04  0.00000000000E+00 0. -1.
         23    2    1    2    0    0  0.42024743329E+02  0.14559763947E+03 -0.29917519583E+03  0.34726950713E+03  0.90141894293E+02 0.  0.
         23    2    1    2    0    0 -0.42024743329E+02 -0.14559763947E+03 -0.71408018423E+03  0.74060799699E+03  0.12499977607E+03 0.  0.
          5    1    4    4  502    0 -0.80459867780E+01 -0.40935577359E+02 -0.48085251506E+03  0.48268176953E+03  0.47000000000E+01 0.  1.
         -5    1    4    4    0  502 -0.33978756551E+02 -0.10466206211E+03 -0.23322766917E+03  0.25792622745E+03  0.47000000000E+01 0.  1.
        -11    1    3    3    0    0  0.57654564163E+02  0.12308018469E+03 -0.28643007708E+03  0.31704095901E+03  0.00000000000E+00 0. -1.
         11    1    3    3    0    0 -0.15629820834E+02  0.22517454785E+02 -0.12745118747E+02  0.30228548116E+02  0.00000000000E+00 0.  1.
<mgrwt>
<rscale>  0 0.19120749E+03</rscale>
<asrwt>0</asrwt>
<pdfrwt beam="2">  1        2 0.16162560E+00 0.19644260E+03</pdfrwt>
<pdfrwt beam="1">  1       -2 0.57401635E-02 0.19644260E+03</pdfrwt>
<totfact> 0.38420154E+03</totfact>
</mgrwt>
</event>
<event>
 8    1  0.7550631E-006  0.1277477E+03  0.7546771E-02  0.1245440E+00
          1   -1    0    0  501    0  0.00000000000E+00  0.00000000000E+00  0.23399022273E+03  0.23399022273E+03  0.00000000000E+00 0. -1.
         -1   -1    0    0    0  501 -0.00000000000E+00 -0.00000000000E+00 -0.57068771224E+02  0.57068771224E+02  0.00000000000E+00 0.  1.
         23    2    1    2    0    0 -0.13408717695E+02  0.22365005995E+02  0.37648845293E+02  0.10207133760E+03  0.91220256542E+02 0.  0.
         23    2    1    2    0    0  0.13408717695E+02 -0.22365005995E+02  0.13927260622E+03  0.18898765636E+03  0.12505793942E+03 0.  0.
          5    1    4    4  502    0  0.46859991463E+02 -0.95033829717E+01  0.14467209289E+03  0.15244106254E+03  0.47000000000E+01 0.  1.
         -5    1    4    4    0  502 -0.33451273768E+02 -0.12861623023E+02 -0.53994866720E+01  0.36546593820E+02  0.47000000000E+01 0.  1.
        -11    1    3    3    0    0 -0.44325299973E+02 -0.13732666609E+01 -0.46044656351E+01  0.44584965883E+02  0.00000000000E+00 0.  1.
         11    1    3    3    0    0  0.30916582278E+02  0.23738272655E+02  0.42253310928E+02  0.57486371713E+02  0.00000000000E+00 0. -1.
<mgrwt>
<rscale>  0 0.11859105E+03</rscale>
<asrwt>0</asrwt>
<pdfrwt beam="1">  1        1 0.35998495E-01 0.12774770E+03</pdfrwt>
<pdfrwt beam="2">  1       -1 0.87798111E-02 0.12774770E+03</pdfrwt>
<totfact> 0.84454095E+03</totfact>
</mgrwt>
</event>
<event>
 8    1  0.7550631E-006  0.1468969E+03  0.7546771E-02  0.1213554E+00
         -2   -1    0    0    0  501 -0.00000000000E+00  0.00000000000E+00  0.12746138760E+02  0.12746138760E+02  0.00000000000E+00 0.  1.
          2   -1    0    0  501    0  0.00000000000E+00 -0.00000000000E+00 -0.18195960127E+04  0.18195960127E+04  0.00000000000E+00 0. -1.
         23    2    1    2    0    0  0.77030654790E+02  0.46490517405E+01 -0.39854449498E+03  0.41639627074E+03  0.92697380462E+02 0.  0.
         23    2    1    2    0    0 -0.77030654790E+02 -0.46490517405E+01 -0.14083053790E+04  0.14159458807E+04  0.12499344493E+03 0.  0.
          5    1    4    4  502    0 -0.11737229535E+02  0.70203007772E+01 -0.14240366118E+02  0.20295940661E+02  0.47000000000E+01 0. -1.
         -5    1    4    4    0  502 -0.65293425255E+02 -0.11669352518E+02 -0.13940650129E+04  0.13956499401E+04  0.47000000000E+01 0. -1.
        -11    1    3    3    0    0 -0.97497981984E+01 -0.23974040235E+02 -0.13502419580E+03  0.13748216837E+03  0.00000000000E+00 0. -1.
         11    1    3    3    0    0  0.86780452988E+02  0.28623091976E+02 -0.26352029919E+03  0.27891410237E+03  0.00000000000E+00 0.  1.
<mgrwt>
<rscale>  0 0.13983323E+03</rscale>
<asrwt>0</asrwt>
<pdfrwt beam="2">  1        2 0.27993799E+00 0.14689689E+03</pdfrwt>
<pdfrwt beam="1">  1       -2 0.19609434E-02 0.14689689E+03</pdfrwt>
<totfact> 0.72612670E+03</totfact>
</mgrwt>
</event>
<event>
 8    1  0.7550631E-006  0.3460159E+03  0.7546771E-02  0.1065392E+00
          1   -1    0    0  501    0  0.00000000000E+00  0.00000000000E+00  0.11889685286E+04  0.11889685286E+04  0.00000000000E+00 0. -1.
         -1   -1    0    0    0  501 -0.00000000000E+00 -0.00000000000E+00 -0.99298759183E+02  0.99298759183E+02  0.00000000000E+00 0.  1.
         23    2    1    2    0    0 -0.32255871749E+03 -0.76137985998E+01  0.45264414827E+03  0.56333374611E+03  0.91411642471E+02 0.  0.
         23    2    1    2    0    0  0.32255871749E+03  0.76137985998E+01  0.63702562110E+03  0.72493354163E+03  0.12499960677E+03 0.  0.
          5    1    4    4  502    0  0.19276798901E+03 -0.15517817716E+02  0.49314245420E+03  0.52972810987E+03  0.47000000000E+01 0. -1.
         -5    1    4    4    0  502  0.12979072848E+03  0.23131616316E+02  0.14388316690E+03  0.19520543176E+03  0.47000000000E+01 0. -1.
        -11    1    3    3    0    0 -0.13047418912E+03 -0.30892918424E+02  0.24650915196E+03  0.28061476874E+03  0.00000000000E+00 0.  1.
         11    1    3    3    0    0 -0.19208452836E+03  0.23279119825E+02  0.20613499631E+03  0.28271897736E+03  0.00000000000E+00 0. -1.
<mgrwt>
<rscale>  0 0.34331748E+03</rscale>
<asrwt>0</asrwt>
<pdfrwt beam="1">  1        1 0.18291823E+00 0.34601589E+03</pdfrwt>
<pdfrwt beam="2">  1       -1 0.15276733E-01 0.34601589E+03</pdfrwt>
<totfact> 0.36254241E+02</totfact>
</mgrwt>
</event>
<event>
 8    1  0.7550631E-006  0.1366849E+03  0.7546771E-02  0.1227415E+00
         -1   -1    0    0    0  501 -0.00000000000E+00  0.00000000000E+00  0.53367980805E+02  0.53367980805E+02  0.00000000000E+00 0.  1.
          1   -1    0    0  501    0  0.00000000000E+00 -0.00000000000E+00 -0.29120262700E+03  0.29120262700E+03  0.00000000000E+00 0. -1.
         23    2    1    2    0    0  0.23969478123E+02 -0.49823305168E+02 -0.94277810182E+02  0.14635017664E+03  0.97330216739E+02 0.  0.
         23    2    1    2    0    0 -0.23969478123E+02  0.49823305168E+02 -0.14355683601E+03  0.19822043116E+03  0.12500350613E+03 0.  0.
          5    1    4    4  502    0 -0.58287242918E+02  0.44265200831E+02 -0.29777366139E+02  0.79155493971E+02  0.47000000000E+01 0. -1.
         -5    1    4    4    0  502  0.34317764796E+02  0.55581043369E+01 -0.11377946987E+03  0.11906493719E+03  0.47000000000E+01 0. -1.
        -11    1    3    3    0    0  0.45617044843E+02 -0.56051934954E+02 -0.30014808578E+02  0.78253580917E+02  0.00000000000E+00 0.  1.
         11    1    3    3    0    0 -0.21647566720E+02  0.62286297869E+01 -0.64263001604E+02  0.68096595723E+02  0.00000000000E+00 0. -1.
<mgrwt>
<rscale>  0 0.13002734E+03</rscale>
<asrwt>0</asrwt>
<pdfrwt beam="2">  1        1 0.44800404E-01 0.13668494E+03</pdfrwt>
<pdfrwt beam="1">  1       -1 0.82104586E-02 0.13668494E+03</pdfrwt>
<totfact> 0.71676549E+03</totfact>
</mgrwt>
</event>
<event>
 8    1  0.9540048E-006  0.1971117E+03  0.7546771E-02  0.1160332E+00
          2   -1    0    0  501    0  0.00000000000E+00  0.00000000000E+00  0.69087906432E+03  0.69087906432E+03  0.00000000000E+00 0. -1.
         -2   -1    0    0    0  501 -0.00000000000E+00 -0.00000000000E+00 -0.58100792404E+02  0.58100792404E+02  0.00000000000E+00 0.  1.
         23    2    1    2    0    0  0.29128231455E+02 -0.14959778650E+03  0.12830995066E+03  0.20736993974E+03  0.57540393414E+02 0.  0.
         23    2    1    2    0    0 -0.29128231455E+02  0.14959778650E+03  0.50446832126E+03  0.54160991699E+03  0.12500025374E+03 0.  0.
          5    1    4    4  502    0 -0.17711720787E+02  0.16410431780E+03  0.36210057844E+03  0.39797343011E+03  0.47000000000E+01 0.  1.
         -5    1    4    4    0  502 -0.11416510667E+02 -0.14506531293E+02  0.14236774282E+03  0.14363648688E+03  0.47000000000E+01 0.  1.
        -11    1    3    3    0    0  0.36141191309E+02 -0.48556116706E+02  0.36605062959E+02  0.70737633640E+02  0.00000000000E+00 0. -1.
         11    1    3    3    0    0 -0.70129598540E+01 -0.10104166980E+03  0.91704887705E+02  0.13663230610E+03  0.00000000000E+00 0.  1.
<mgrwt>
<rscale>  0 0.18794013E+03</rscale>
<asrwt>0</asrwt>
<pdfrwt beam="1">  1        2 0.10628908E+00 0.19711168E+03</pdfrwt>
<pdfrwt beam="2">  1       -2 0.89385839E-02 0.19711168E+03</pdfrwt>
<totfact> 0.33433215E+03</totfact>
</mgrwt>
</event>
<event>
 8    1  0.7550631E-006  0.1469909E+03  0.7546771E-02  0.1213745E+00
          1   -1    0    0  501    0  0.00000000000E+00  0.00000000000E+00  0.90710355895E+02  0.90710355895E+02  0.00000000000E+00 0. -1.
         -1   -1    0    0    0  501 -0.00000000000E+00 -0.00000000000E+00 -0.27608795938E+03  0.27608795938E+03  0.00000000000E+00 0.  1.
         23    2    1    2    0    0  0.23869627499E+02 -0.73564124961E+02 -0.18422363030E+03  0.21980283770E+03  0.91616057001E+02 0.  0.
         23    2    1    2    0    0 -0.23869627499E+02  0.73564124961E+02 -0.11539731857E+01  0.14699547758E+03  0.12499959670E+03 0.  0.
          5    1    4    4  502    0 -0.25307698424E+02  0.26848471329E+02  0.59567255595E+02  0.70225835356E+02  0.47000000000E+01 0.  1.
         -5    1    4    4    0  502  0.14380709245E+01  0.46715653632E+02 -0.60721228781E+02  0.76769642222E+02  0.47000000000E+01 0.  1.
        -11    1    3    3    0    0 -0.30238064971E+02 -0.75887667531E+01 -0.74855695728E+02  0.81088255234E+02  0.00000000000E+00 0. -1.
         11    1    3    3    0    0  0.54107692471E+02 -0.65975358208E+02 -0.10936793457E+03  0.13871458246E+03  0.00000000000E+00 0.  1.
<mgrwt>
<rscale>  0 0.13969109E+03</rscale>
<asrwt>0</asrwt>
<pdfrwt beam="1">  1        1 0.13955439E-01 0.14699095E+03</pdfrwt>
<pdfrwt beam="2">  1       -1 0.42475071E-01 0.14699095E+03</pdfrwt>
<totfact> 0.22146357E+03</totfact>
</mgrwt>
</event>
<event>
 8    1  0.7550631E-006  0.1763046E+03  0.7546771E-02  0.1177148E+00
          3   -1    0    0  501    0  0.00000000000E+00  0.00000000000E+00  0.18036111999E+03  0.18036111999E+03  0.00000000000E+00 0.  1.
         -3   -1    0    0    0  501 -0.00000000000E+00 -0.00000000000E+00 -0.15212475855E+03  0.15212475855E+03  0.00000000000E+00 0. -1.
         23    2    1    2    0    0  0.11925717683E+03  0.35259213530E+02  0.82751050335E+01  0.15505491608E+03  0.92239163442E+02 0.  0.
         23    2    1    2    0    0 -0.11925717683E+03 -0.35259213530E+02  0.19961256412E+02  0.17743096246E+03  0.12497122995E+03 0.  0.
          5    1    4    4  502    0 -0.10969399832E+02  0.16498849631E+02  0.49683899756E+02  0.53694689372E+02  0.47000000000E+01 0. -1.
         -5    1    4    4    0  502 -0.10828777700E+03 -0.51758063161E+02 -0.29722643344E+02  0.12373627309E+03  0.47000000000E+01 0. -1.
        -11    1    3    3    0    0  0.31140561816E+02  0.38731838637E+02  0.37385065750E+02  0.62189493128E+02  0.00000000000E+00 0.  1.
         11    1    3    3    0    0  0.88116615018E+02 -0.34726251071E+01 -0.29109960716E+02  0.92865422953E+02  0.00000000000E+00 0. -1.
<mgrwt>
<rscale>  0 0.17067275E+03</rscale>
<asrwt>0</asrwt>
<pdfrwt beam="1">  1        3 0.27747865E-01 0.17630455E+03</pdfrwt>
<pdfrwt beam="2">  1       -3 0.23403809E-01 0.17630455E+03</pdfrwt>
<totfact> 0.50500243E+02</totfact>
</mgrwt>
</event>
<event>
 8    1  0.7550631E-006  0.1597154E+03  0.7546771E-02  0.1196946E+00
         -1   -1    0    0    0  501 -0.00000000000E+00  0.00000000000E+00  0.11887323878E+03  0.11887323878E+03  0.00000000000E+00 0.  1.
          1   -1    0    0  501    0  0.00000000000E+00 -0.00000000000E+00 -0.19057706369E+03  0.19057706369E+03  0.00000000000E+00 0. -1.
         23    2    1    2    0    0 -0.99031185294E+02 -0.87498946743E+01  0.49612370443E+00  0.13417384811E+03  0.90103490828E+02 0.  0.
         23    2    1    2    0    0  0.99031185294E+02  0.87498946743E+01 -0.72199948615E+02  0.17527645437E+03  0.12500106623E+03 0.  0.
          5    1    4    4  502    0  0.12507053905E+03  0.21190215743E+02 -0.72203053180E+02  0.14603778918E+03  0.47000000000E+01 0. -1.
         -5    1    4    4    0  502 -0.26039353756E+02 -0.12440321069E+02  0.31045646849E-02  0.29238665187E+02  0.47000000000E+01 0. -1.
        -11    1    3    3    0    0 -0.26646217572E+02 -0.19839704395E+02 -0.38790156545E+02  0.51071626429E+02  0.00000000000E+00 0. -1.
         11    1    3    3    0    0 -0.72384967723E+02  0.11089809720E+02  0.39286280249E+02  0.83102221677E+02  0.00000000000E+00 0.  1.
<mgrwt>
<rscale>  0 0.15290662E+03</rscale>
<asrwt>0</asrwt>
<pdfrwt beam="2">  1        1 0.29319548E-01 0.15971538E+03</pdfrwt>
<pdfrwt beam="1">  1       -1 0.18288191E-01 0.15971538E+03</pdfrwt>
<totfact> 0.35370710E+03</totfact>
</mgrwt>
</event>
<event>
 8    1  0.7550631E-006  0.1325892E+03  0.7546771E-02  0.1236689E+00
          2   -1    0    0  501    0  0.00000000000E+00  0.00000000000E+00  0.32187043243E+02  0.32187043243E+02  0.00000000000E+00 0.  1.
         -2   -1    0    0    0  501 -0.00000000000E+00 -0.00000000000E+00 -0.56122291160E+03  0.56122291160E+03  0.00000000000E+00 0. -1.
         23    2    1    2    0    0  0.18772703947E+02 -0.40004840709E+02 -0.38293679245E+03  0.39611616537E+03  0.91184580710E+02 0.  0.
         23    2    1    2    0    0 -0.18772703947E+02  0.40004840709E+02 -0.14609907591E+03  0.19729378948E+03  0.12500839048E+03 0.  0.
          5    1    4    4  502    0  0.49561993604E+02  0.35208621006E+02 -0.48253869503E+02  0.77759656154E+02  0.47000000000E+01 0.  1.
         -5    1    4    4    0  502 -0.68334697551E+02  0.47962197025E+01 -0.97845206404E+02  0.11953413332E+03  0.47000000000E+01 0.  1.
        -11    1    3    3    0    0  0.15754246694E+02  0.27771134673E+02 -0.92309667908E+02  0.97675518935E+02  0.00000000000E+00 0.  1.
         11    1    3    3    0    0  0.30184572533E+01 -0.67775975382E+02 -0.29062712454E+03  0.29844064643E+03  0.00000000000E+00 0. -1.
<mgrwt>
<rscale>  0 0.12396922E+03</rscale>
<asrwt>0</asrwt>
<pdfrwt beam="1">  1        2 0.49518532E-02 0.13258921E+03</pdfrwt>
<pdfrwt beam="2">  1       -2 0.86341980E-01 0.13258921E+03</pdfrwt>
<totfact> 0.18378398E+03</totfact>
</mgrwt>
</event>
<event>
 8    1  0.7550631E-006  0.2184187E+03  0.7546771E-02  0.1138343E+00
          1   -1    0    0  501    0  0.00000000000E+00  0.00000000000E+00  0.46310513382E+03  0.46310513382E+03  0.00000000000E+00 0. -1.
         -1   -1    0    0    0  501 -0.00000000000E+00 -0.00000000000E+00 -0.96661089898E+02  0.96661089898E+02  0.00000000000E+00 0.  1.
         23    2    1    2    0    0 -0.17421966323E+03 -0.41569334794E+02  0.20929165656E+03  0.29068706033E+03  0.92819550133E+02 0.  0.
         23    2    1    2    0    0  0.17421966323E+03  0.41569334794E+02  0.15715238737E+03  0.26907916339E+03  0.12500489056E+03 0.  0.
          5    1    4    4  502    0  0.78033198008E+02 -0.19891070115E+02  0.77976111728E+01  0.81041516531E+02  0.47000000000E+01 0.  1.
         -5    1    4    4    0  502  0.96186465226E+02  0.61460404909E+02  0.14935477619E+03  0.18803764686E+03  0.47000000000E+01 0.  1.
        -11    1    3    3    0    0 -0.15412801715E+03 -0.57771360454E+02  0.20744039090E+03  0.26481029348E+03  0.00000000000E+00 0.  1.
         11    1    3    3    0    0 -0.20091646088E+02  0.16202025660E+02  0.18512656588E+01  0.25876766849E+02  0.00000000000E+00 0. -1.
<mgrwt>
<rscale>  0 0.21412199E+03</rscale>
<asrwt>0</asrwt>
<pdfrwt beam="1">  1        1 0.71246943E-01 0.21841869E+03</pdfrwt>
<pdfrwt beam="2">  1       -1 0.14870937E-01 0.21841869E+03</pdfrwt>
<totfact> 0.16228999E+03</totfact>
</mgrwt>
</event>
<event>
 8    1  0.7550631E-006  0.1475403E+03  0.7546771E-02  0.1212908E+00
         -1   -1    0    0    0  501 -0.00000000000E+00  0.00000000000E+00  0.13313766251E+03  0.13313766251E+03  0.00000000000E+00 0.  1.
          1   -1    0    0  501    0  0.00000000000E+00 -0.00000000000E+00 -0.13534671360E+03  0.13534671360E+03  0.00000000000E+00 0. -1.
         23    2    1    2    0    0  0.54757019199E+02 -0.56078173978E+02  0.47384512563E+01  0.12078058929E+03  0.91773662233E+02 0.  0.
         23    2    1    2    0    0 -0.54757019199E+02  0.56078173978E+02 -0.69475023480E+01  0.14770378683E+03  0.12500019242E+03 0.  0.
          5    1    4    4  502    0  0.10189852203E+02  0.69310885459E+02 -0.31380026742E+02  0.76906618761E+02  0.47000000000E+01 0. -1.
         -5    1    4    4    0  502 -0.64946871402E+02 -0.13232711481E+02  0.24432524394E+02  0.70797168067E+02  0.47000000000E+01 0. -1.
        -11    1    3    3    0    0  0.25896340704E+02  0.20256515185E+02 -0.16020646133E+02  0.36573323226E+02  0.00000000000E+00 0. -1.
         11    1    3    3    0    0  0.28860678495E+02 -0.76334689163E+02  0.20759097390E+02  0.84207266060E+02  0.00000000000E+00 0.  1.
<mgrwt>
<rscale>  0 0.14031325E+03</rscale>
<asrwt>0</asrwt>
<pdfrwt beam="2">  1        1 0.20822571E-01 0.14754030E+03</pdfrwt>
<pdfrwt beam="1">  1       -1 0.20482717E-01 0.14754030E+03</pdfrwt>
<totfact> 0.45196667E+03</totfact>
</mgrwt>
</event>
<event>
 8    1  0.7550631E-006  0.1754252E+03  0.7546771E-02  0.1178263E+00
          1   -1    0    0  501    0  0.00000000000E+00  0.00000000000E+00  0.72636400306E+02  0.72636400306E+02  0.00000000000E+00 0. -1.
         -1   -1    0    0    0  501 -0.00000000000E+00 -0.00000000000E+00 -0.37375536428E+03  0.37375536428E+03  0.00000000000E+00 0.  1.
         23    2    1    2    0    0 -0.10542569756E+03 -0.63531078782E+02 -0.12455961072E+03  0.19749983401E+03  0.91325309387E+02 0.  0.
         23    2    1    2    0    0  0.10542569756E+03  0.63531078782E+02 -0.17655935325E+03  0.24889193057E+03  0.12499284861E+03 0.  0.
          5    1    4    4  502    0 -0.27300858801E+02  0.23187168871E+02 -0.44347154472E+02  0.57199141613E+02  0.47000000000E+01 0.  1.
         -5    1    4    4    0  502  0.13272655636E+03  0.40343909911E+02 -0.13221219878E+03  0.19169278896E+03  0.47000000000E+01 0.  1.
        -11    1    3    3    0    0 -0.12681719110E+02 -0.18559178646E+02 -0.83630188222E+02  0.86598368885E+02  0.00000000000E+00 0.  1.
         11    1    3    3    0    0 -0.92743978454E+02 -0.44971900136E+02 -0.40929422495E+02  0.11090146513E+03  0.00000000000E+00 0. -1.
<mgrwt>
<rscale>  0 0.16960233E+03</rscale>
<asrwt>0</asrwt>
<pdfrwt beam="1">  1        1 0.11174831E-01 0.17542516E+03</pdfrwt>
<pdfrwt beam="2">  1       -1 0.57500824E-01 0.17542516E+03</pdfrwt>
<totfact> 0.17154476E+03</totfact>
</mgrwt>
</event>
<event>
 8    1  0.7550631E-006  0.1224545E+03  0.7546771E-02  0.1250125E+00
         -2   -1    0    0    0  501 -0.00000000000E+00  0.00000000000E+00  0.16644570073E+02  0.16644570073E+02  0.00000000000E+00 0.  1.
          2   -1    0    0  501    0  0.00000000000E+00 -0.00000000000E+00 -0.74297186131E+03  0.74297186131E+03  0.00000000000E+00 0. -1.
         23    2    1    2    0    0  0.78013036974E+01  0.34477519255E+02 -0.27446022957E+03  0.29145093133E+03  0.91464026163E+02 0.  0.
         23    2    1    2    0    0 -0.78013036974E+01 -0.34477519255E+02 -0.45186706166E+03  0.46816550005E+03  0.11724135085E+03 0.  0.
          5    1    4    4  502    0 -0.34792881477E+02 -0.67207302317E+02 -0.22836663545E+03  0.24062580135E+03  0.47000000000E+01 0. -1.
         -5    1    4    4    0  502  0.26991577780E+02  0.32729783062E+02 -0.22350042621E+03  0.22753969870E+03  0.47000000000E+01 0.  1.
        -11    1    3    3    0    0  0.37032265183E+02  0.48297125420E+02 -0.13180912686E+03  0.14518142757E+03  0.00000000000E+00 0.  1.
         11    1    3    3    0    0 -0.29230961486E+02 -0.13819606165E+02 -0.14265110271E+03  0.14626950376E+03  0.00000000000E+00 0. -1.
<mgrwt>
<rscale>  0 0.11583796E+03</rscale>
<asrwt>0</asrwt>
<pdfrwt beam="2">  1        2 0.11430337E+00 0.12245446E+03</pdfrwt>
<pdfrwt beam="1">  1       -2 0.25607028E-02 0.12245446E+03</pdfrwt>
<totfact> 0.19631406E+04</totfact>
</mgrwt>
</event>
<event>
 8    1  0.7550631E-006  0.1431301E+03  0.7546771E-02  0.1219589E+00
          1   -1    0    0  501    0  0.00000000000E+00  0.00000000000E+00  0.12570065085E+04  0.12570065085E+04  0.00000000000E+00 0. -1.
         -1   -1    0    0    0  501 -0.00000000000E+00 -0.00000000000E+00 -0.14797818952E+02  0.14797818952E+02  0.00000000000E+00 0.  1.
         23    2    1    2    0    0  0.98528299669E+01 -0.69026190261E+02  0.35423591893E+03  0.37237014261E+03  0.91185216157E+02 0.  0.
         23    2    1    2    0    0 -0.98528299669E+01  0.69026190261E+02  0.88797277063E+03  0.89943418486E+03  0.12499807321E+03 0.  0.
          5    1    4    4  502    0 -0.28307605555E+02  0.71702061728E+02  0.86898072789E+03  0.87240592710E+03  0.47000000000E+01 0.  1.
         -5    1    4    4    0  502  0.18454775588E+02 -0.26758714666E+01  0.18992042740E+02  0.27028257760E+02  0.47000000000E+01 0.  1.
        -11    1    3    3    0    0 -0.37056599581E+02 -0.16374892657E+02  0.86728732673E+02  0.95724614144E+02  0.00000000000E+00 0.  1.
         11    1    3    3    0    0  0.46909429548E+02 -0.52651297604E+02  0.26750718626E+03  0.27664552846E+03  0.00000000000E+00 0. -1.
<mgrwt>
<rscale>  0 0.13544808E+03</rscale>
<asrwt>0</asrwt>
<pdfrwt beam="1">  1        1 0.19338553E+00 0.14313005E+03</pdfrwt>
<pdfrwt beam="2">  1       -1 0.22765885E-02 0.14313005E+03</pdfrwt>
<totfact> 0.58032411E+03</totfact>
</mgrwt>
</event>
<event>
 8    1  0.7550631E-006  0.1300880E+03  0.7546771E-02  0.1232796E+00
         -2   -1    0    0    0  501 -0.00000000000E+00  0.00000000000E+00  0.15189122175E+03  0.15189122175E+03  0.00000000000E+00 0.  1.
          2   -1    0    0  501    0  0.00000000000E+00 -0.00000000000E+00 -0.10426642609E+03  0.10426642609E+03  0.00000000000E+00 0. -1.
         23    2    1    2    0    0  0.51334329776E+02  0.46012971006E+02  0.48897964401E+02  0.12606338951E+03  0.93533739038E+02 0.  0.
         23    2    1    2    0    0 -0.51334329776E+02 -0.46012971006E+02 -0.12731687399E+01  0.13009425833E+03  0.11031993554E+03 0.  0.
          5    1    4    4  502    0 -0.10025256681E+02 -0.44071223117E+02 -0.48960553102E+02  0.66798235296E+02  0.47000000000E+01 0. -1.
         -5    1    4    4    0  502 -0.41309073095E+02 -0.19417478894E+01  0.47687384363E+02  0.63296023036E+02  0.47000000000E+01 0.  1.
        -11    1    3    3    0    0 -0.23923777721E+02  0.29177088828E+02  0.72636103644E+01  0.38424076936E+02  0.00000000000E+00 0.  1.
         11    1    3    3    0    0  0.75258107497E+02  0.16835882178E+02  0.41634354036E+02  0.87639312576E+02  0.00000000000E+00 0. -1.
<mgrwt>
<rscale>  0 0.12646595E+03</rscale>
<asrwt>0</asrwt>
<pdfrwt beam="2">  1        2 0.16040989E-01 0.13008803E+03</pdfrwt>
<pdfrwt beam="1">  1       -2 0.23367880E-01 0.13008803E+03</pdfrwt>
<totfact> 0.54661371E+03</totfact>
</mgrwt>
</event>
<event>
 7    1  0.7550631E-006  0.1463951E+03  0.7546771E-02  0.1223341E+00
         -2   -1    0    0    0  501 -0.00000000000E+00  0.00000000000E+00  0.17877142113E+02  0.17877142113E+02  0.00000000000E+00 0.  1.
          2   -1    0    0  501    0  0.00000000000E+00 -0.00000000000E+00 -0.94344290269E+03  0.94344290269E+03  0.00000000000E+00 0. -1.
         23    2    1    2    0    0 -0.89304663136E+02  0.12911235231E+02 -0.69633642888E+03  0.71155881816E+03  0.11528012253E+03 0.  0.
          5    1    3    3  502    0 -0.10161284436E+03 -0.24299492599E+02 -0.55725724230E+03  0.56698620757E+03  0.47000000000E+01 0. -1.
         -5    1    3    3    0  502  0.12308181221E+02  0.37210727830E+02 -0.13907918659E+03  0.14457261059E+03  0.47000000000E+01 0.  1.
        -11    1    1    2    0    0  0.85081653879E+02 -0.15440731890E+01 -0.21397017363E+03  0.23027050873E+03  0.00000000000E+00 0.  1.
         11    1    1    2    0    0  0.42230092564E+01 -0.11367162042E+02 -0.15259158067E+02  0.19490717919E+02  0.00000000000E+00 0. -1.
<mgrwt>
<rscale>  0 0.13281265E+03</rscale>
<asrwt>0</asrwt>
<pdfrwt beam="2">  1        2 0.14514508E+00 0.14639511E+03</pdfrwt>
<pdfrwt beam="1">  1       -2 0.27503292E-02 0.14639511E+03</pdfrwt>
<totfact> 0.13231344E+04</totfact>
</mgrwt>
</event>
<event>
 8    1  0.7550631E-006  0.1264919E+03  0.7546771E-02  0.1243006E+00
          1   -1    0    0  501    0  0.00000000000E+00  0.00000000000E+00  0.36672128952E+03  0.36672128952E+03  0.00000000000E+00 0. -1.
         -1   -1    0    0    0  501 -0.00000000000E+00 -0.00000000000E+00 -0.47477261355E+02  0.47477261355E+02  0.00000000000E+00 0.  1.
         23    2    1    2    0    0 -0.10827625609E+02 -0.16046849607E+02  0.44777473085E+02  0.11198656418E+03  0.10080292458E+03 0.  0.
         23    2    1    2    0    0  0.10827625609E+02  0.16046849607E+02  0.27446655508E+03  0.30221198669E+03  0.12500182472E+03 0.  0.
          5    1    4    4  502    0  0.23745823499E+02  0.61477753320E+02  0.89462260473E+02  0.11121584570E+03  0.47000000000E+01 0. -1.
         -5    1    4    4    0  502 -0.12918197890E+02 -0.45430903713E+02  0.18500429460E+03  0.19099614098E+03  0.47000000000E+01 0. -1.
        -11    1    3    3    0    0 -0.31521510653E+02 -0.29021614788E+02 -0.16582558270E+02  0.45943889665E+02  0.00000000000E+00 0.  1.
         11    1    3    3    0    0  0.20693885044E+02  0.12974765180E+02  0.61360031354E+02  0.66042674518E+02  0.00000000000E+00 0. -1.
<mgrwt>
<rscale>  0 0.12005529E+03</rscale>
<asrwt>0</asrwt>
<pdfrwt beam="1">  1        1 0.56418658E-01 0.12649188E+03</pdfrwt>
<pdfrwt beam="2">  1       -1 0.73041943E-02 0.12649188E+03</pdfrwt>
<totfact> 0.63867914E+03</totfact>
</mgrwt>
</event>
<event>
 8    1  0.7550631E-006  0.1763532E+03  0.7546771E-02  0.1177204E+00
          1   -1    0    0  501    0  0.00000000000E+00  0.00000000000E+00  0.47362830830E+03  0.47362830830E+03  0.00000000000E+00 0. -1.
         -1   -1    0    0    0  501 -0.00000000000E+00 -0.00000000000E+00 -0.63745460638E+02  0.63745460638E+02  0.00000000000E+00 0.  1.
         23    2    1    2    0    0  0.10902941053E+03  0.59865118779E+02  0.27468929975E+03  0.31516271392E+03  0.91662860740E+02 0.  0.
         23    2    1    2    0    0 -0.10902941053E+03 -0.59865118779E+02  0.13519354791E+03  0.22221105502E+03  0.12501684995E+03 0.  0.
          5    1    4    4  502    0 -0.13273612040E+03 -0.27580325457E+02  0.97990718839E+02  0.16734342828E+03  0.47000000000E+01 0. -1.
         -5    1    4    4    0  502  0.23706709872E+02 -0.32284793322E+02  0.37202829074E+02  0.54867626738E+02  0.47000000000E+01 0. -1.
        -11    1    3    3    0    0  0.12084203567E+03  0.43429833775E+02  0.19915283242E+03  0.23696159754E+03  0.00000000000E+00 0.  1.
         11    1    3    3    0    0 -0.11812625144E+02  0.16435285004E+02  0.75536467330E+02  0.78201116377E+02  0.00000000000E+00 0. -1.
<mgrwt>
<rscale>  0 0.17061871E+03</rscale>
<asrwt>0</asrwt>
<pdfrwt beam="1">  1        1 0.72865891E-01 0.17635322E+03</pdfrwt>
<pdfrwt beam="2">  1       -1 0.98069942E-02 0.17635322E+03</pdfrwt>
<totfact> 0.29985259E+03</totfact>
</mgrwt>
</event>
<event>
 8    1  0.7550631E-006  0.1295606E+03  0.7546771E-02  0.1242890E+00
         -2   -1    0    0    0  501 -0.00000000000E+00  0.00000000000E+00  0.13150791517E+02  0.13150791517E+02  0.00000000000E+00 0.  1.
          2   -1    0    0  501    0  0.00000000000E+00 -0.00000000000E+00 -0.96615300274E+03  0.96615300274E+03  0.00000000000E+00 0. -1.
         23    2    1    2    0    0  0.14001595087E+02 -0.31055328538E+02 -0.38856477748E+03  0.40018759533E+03  0.89482104683E+02 0.  0.
         23    2    1    2    0    0 -0.14001595087E+02  0.31055328538E+02 -0.56443743374E+03  0.57911619893E+03  0.12500190862E+03 0.  0.
          5    1    4    4  502    0 -0.33933115787E+02 -0.16241015179E+01 -0.51628925937E+03  0.51742708026E+03  0.47000000000E+01 0. -1.
         -5    1    4    4    0  502  0.19931520700E+02  0.32679430056E+02 -0.48148174371E+02  0.61689118664E+02  0.47000000000E+01 0. -1.
        -11    1    3    3    0    0  0.50079291920E+02 -0.23353060186E+02 -0.28348922995E+03  0.28882424483E+03  0.00000000000E+00 0.  1.
         11    1    3    3    0    0 -0.36077696833E+02 -0.77022683527E+01 -0.10507554753E+03  0.11136335050E+03  0.00000000000E+00 0. -1.
<mgrwt>
<rscale>  0 0.12012580E+03</rscale>
<asrwt>0</asrwt>
<pdfrwt beam="2">  1        2 0.14863891E+00 0.12956062E+03</pdfrwt>
<pdfrwt beam="1">  1       -2 0.20231988E-02 0.12956062E+03</pdfrwt>
<totfact> 0.19891669E+04</totfact>
</mgrwt>
</event>
<event>
 8    1  0.7550631E-006  0.1309556E+03  0.7546771E-02  0.1243384E+00
          1   -1    0    0  501    0  0.00000000000E+00  0.00000000000E+00  0.34131829430E+03  0.34131829430E+03  0.00000000000E+00 0. -1.
         -1   -1    0    0    0  501 -0.00000000000E+00 -0.00000000000E+00 -0.36359111980E+02  0.36359111980E+02  0.00000000000E+00 0.  1.
         23    2    1    2    0    0  0.22836599361E+02  0.31641341542E+02  0.12186865679E+03  0.15257408147E+03  0.83091492125E+02 0.  0.
         23    2    1    2    0    0 -0.22836599361E+02 -0.31641341542E+02  0.18309052553E+03  0.22510332481E+03  0.12500672597E+03 0.  0.
          5    1    4    4  502    0 -0.30497034819E+01 -0.69079005911E+02  0.50272094117E+02  0.85618825009E+02  0.47000000000E+01 0.  1.
         -5    1    4    4    0  502 -0.19786895879E+02  0.37437664369E+02  0.13281843141E+03  0.13948449980E+03  0.47000000000E+01 0.  1.
        -11    1    3    3    0    0  0.20441983314E+02 -0.16092728985E+02  0.52488777884E+01  0.26540560018E+02  0.00000000000E+00 0.  1.
         11    1    3    3    0    0  0.23946160468E+01  0.47734070528E+02  0.11661977900E+03  0.12603352145E+03  0.00000000000E+00 0. -1.
<mgrwt>
<rscale>  0 0.11982609E+03</rscale>
<asrwt>0</asrwt>
<pdfrwt beam="1">  1        1 0.52510505E-01 0.13095559E+03</pdfrwt>
<pdfrwt beam="2">  1       -1 0.55937098E-02 0.13095559E+03</pdfrwt>
<totfact> 0.10423903E+04</totfact>
</mgrwt>
</event>
<event>
 8    1  0.7550631E-006  0.1557380E+03  0.7546771E-02  0.1201634E+00
          1   -1    0    0  501    0  0.00000000000E+00  0.00000000000E+00  0.16625469649E+03  0.16625469649E+03  0.00000000000E+00 0. -1.
         -1   -1    0    0    0  501 -0.00000000000E+00 -0.00000000000E+00 -0.12982004958E+03  0.12982004958E+03  0.00000000000E+00 0.  1.
         23    2    1    2    0    0 -0.90210245588E+02 -0.22178081843E+02 -0.16177671969E+02  0.13168989698E+03  0.91927994499E+02 0.  0.
         23    2    1    2    0    0  0.90210245588E+02  0.22178081843E+02  0.52612318884E+02  0.16438484909E+03  0.12499826714E+03 0.  0.
          5    1    4    4  502    0 -0.18044895156E+02 -0.96919318800E+01 -0.20886659104E+02  0.29629281349E+02  0.47000000000E+01 0.  1.
         -5    1    4    4    0  502  0.10825514074E+03  0.31870013723E+02  0.73498977988E+02  0.13475556774E+03  0.47000000000E+01 0.  1.
        -11    1    3    3    0    0 -0.39709011820E+02 -0.46296752289E+02  0.20993512305E+02  0.64505212589E+02  0.00000000000E+00 0. -1.
         11    1    3    3    0    0 -0.50501233769E+02  0.24118670446E+02 -0.37171184274E+02  0.67184684390E+02  0.00000000000E+00 0.  1.
<mgrwt>
<rscale>  0 0.14905912E+03</rscale>
<asrwt>0</asrwt>
<pdfrwt beam="1">  1        1 0.25577646E-01 0.15573799E+03</pdfrwt>
<pdfrwt beam="2">  1       -1 0.19972315E-01 0.15573799E+03</pdfrwt>
<totfact> 0.36398606E+03</totfact>
</mgrwt>
</event>
<event>
 8    1  0.7550631E-006  0.1509874E+03  0.7546771E-02  0.1208056E+00
         -2   -1    0    0    0  501 -0.00000000000E+00  0.00000000000E+00  0.26845319148E+03  0.26845319148E+03  0.00000000000E+00 0. -1.
          2   -1    0    0  501    0  0.00000000000E+00 -0.00000000000E+00 -0.80378504038E+02  0.80378504038E+02  0.00000000000E+00 0.  1.
         23    2    1    2    0    0 -0.84728712477E+02  0.59912581327E+01  0.14592338425E+03  0.19207097900E+03  0.91557506579E+02 0.  0.
         23    2    1    2    0    0  0.84728712477E+02 -0.59912581327E+01  0.42151303193E+02  0.15676071652E+03  0.12482924333E+03 0.  0.
          5    1    4    4  502    0  0.52567284430E+02 -0.64896808905E+02  0.25581903375E+02  0.87472504130E+02  0.47000000000E+01 0.  1.
         -5    1    4    4    0  502  0.32161428048E+02  0.58905550773E+02  0.16569399818E+02  0.69288212390E+02  0.47000000000E+01 0.  1.
        -11    1    3    3    0    0 -0.59646206765E+02  0.44806888827E+02  0.65309883396E+02  0.99149927570E+02  0.00000000000E+00 0.  1.
         11    1    3    3    0    0 -0.25082505712E+02 -0.38815630694E+02  0.80613500854E+02  0.92921051431E+02  0.00000000000E+00 0. -1.
<mgrwt>
<rscale>  0 0.14399182E+03</rscale>
<asrwt>0</asrwt>
<pdfrwt beam="2">  1        2 0.12365924E-01 0.15098738E+03</pdfrwt>
<pdfrwt beam="1">  1       -2 0.41300491E-01 0.15098738E+03</pdfrwt>
<totfact> 0.26714882E+03</totfact>
</mgrwt>
</event>
<event>
 8    1  0.7550631E-006  0.1316000E+03  0.7546771E-02  0.1240383E+00
          3   -1    0    0  501    0  0.00000000000E+00  0.00000000000E+00  0.46749033652E+03  0.46749033652E+03  0.00000000000E+00 0. -1.
         -3   -1    0    0    0  501 -0.00000000000E+00 -0.00000000000E+00 -0.33681736995E+02  0.33681736995E+02  0.00000000000E+00 0.  1.
         23    2    1    2    0    0 -0.29097871936E+02  0.29110903390E+02  0.84821200966E+02  0.12819653198E+03  0.86865320068E+02 0.  0.
         23    2    1    2    0    0  0.29097871936E+02 -0.29110903390E+02  0.34898739856E+03  0.37297554153E+03  0.12499767751E+03 0.  0.
          5    1    4    4  502    0 -0.44122343467E+02  0.81018910296E+01  0.81828280475E+02  0.93436498847E+02  0.47000000000E+01 0. -1.
         -5    1    4    4    0  502  0.73220215403E+02 -0.37212794420E+02  0.26715911808E+03  0.27953904269E+03  0.47000000000E+01 0. -1.
        -11    1    3    3    0    0 -0.10461191177E+02  0.47788275798E+02  0.11473335157E+02  0.50247320767E+02  0.00000000000E+00 0.  1.
         11    1    3    3    0    0 -0.18636680759E+02 -0.18677372408E+02  0.73347865809E+02  0.77949211212E+02  0.00000000000E+00 0. -1.
<mgrwt>
<rscale>  0 0.12166037E+03</rscale>
<asrwt>0</asrwt>
<pdfrwt beam="1">  1        3 0.71921585E-01 0.13159996E+03</pdfrwt>
<pdfrwt beam="2">  1       -3 0.51818060E-02 0.13159996E+03</pdfrwt>
<totfact> 0.92990441E+02</totfact>
</mgrwt>
</event>
<event>
 8    1  0.7550631E-006  0.1317878E+03  0.7546771E-02  0.1238439E+00
         -4   -1    0    0    0  501 -0.00000000000E+00  0.00000000000E+00  0.11090054206E+03  0.11090054206E+03  0.00000000000E+00 0.  1.
          4   -1    0    0  501    0  0.00000000000E+00 -0.00000000000E+00 -0.14432979103E+03  0.14432979103E+03  0.00000000000E+00 0. -1.
         23    2    1    2    0    0 -0.39770520111E+02 -0.12599205384E+02  0.36486562121E+02  0.10604503787E+03  0.90409328028E+02 0.  0.
         23    2    1    2    0    0  0.39770520111E+02  0.12599205384E+02 -0.69915811086E+02  0.14918529522E+03  0.12501038927E+03 0.  0.
          5    1    4    4  502    0  0.28230609140E+02  0.64281163725E+02 -0.13463319503E+02  0.71640674720E+02  0.47000000000E+01 0.  1.
         -5    1    4    4    0  502  0.11539910972E+02 -0.51681958341E+02 -0.56452491583E+02  0.77544620504E+02  0.47000000000E+01 0.  1.
        -11    1    3    3    0    0 -0.65686378753E+02  0.82442730968E+01  0.21911187018E+02  0.69733553682E+02  0.00000000000E+00 0. -1.
         11    1    3    3    0    0  0.25915858641E+02 -0.20843478481E+02  0.14575375103E+02  0.36311484185E+02  0.00000000000E+00 0.  1.
<mgrwt>
<rscale>  0 0.12286810E+03</rscale>
<asrwt>0</asrwt>
<pdfrwt beam="2">  1        4 0.22204583E-01 0.13178783E+03</pdfrwt>
<pdfrwt beam="1">  1       -4 0.17061622E-01 0.13178783E+03</pdfrwt>
<totfact> 0.91879426E+02</totfact>
</mgrwt>
</event>
<event>
 8    1  0.7550631E-006  0.1458781E+03  0.7546771E-02  0.1216221E+00
          2   -1    0    0  501    0  0.00000000000E+00  0.00000000000E+00  0.12287573456E+04  0.12287573456E+04  0.00000000000E+00 0. -1.
         -2   -1    0    0    0  501 -0.00000000000E+00 -0.00000000000E+00 -0.15068756956E+02  0.15068756956E+02  0.00000000000E+00 0.  1.
         23    2    1    2    0    0 -0.13914458799E+02  0.73903773213E+02  0.37846858175E+03  0.39596238309E+03  0.88838964372E+02 0.  0.
         23    2    1    2    0    0  0.13914458799E+02 -0.73903773213E+02  0.83522000687E+03  0.84786371944E+03  0.12500018805E+03 0.  0.
          5    1    4    4  502    0  0.68002238990E+01 -0.56891818039E+02  0.82352260151E+03  0.82552679375E+03  0.47000000000E+01 0.  1.
         -5    1    4    4    0  502  0.71142349003E+01 -0.17011955175E+02  0.11697405357E+02  0.22336925687E+02  0.47000000000E+01 0.  1.
        -11    1    3    3    0    0 -0.24487236426E+02 -0.12215591418E+01  0.27304668564E+02  0.36696891965E+02  0.00000000000E+00 0.  1.
         11    1    3    3    0    0  0.10572777627E+02  0.75125332355E+02  0.35116391318E+03  0.35926549112E+03  0.00000000000E+00 0. -1.
<mgrwt>
<rscale>  0 0.13787197E+03</rscale>
<asrwt>0</asrwt>
<pdfrwt beam="1">  1        2 0.18903951E+00 0.14587812E+03</pdfrwt>
<pdfrwt beam="2">  1       -2 0.23182713E-02 0.14587812E+03</pdfrwt>
<totfact> 0.11610835E+04</totfact>
</mgrwt>
</event>
<event>
 8    1  0.7550631E-006  0.1306370E+03  0.7546771E-02  0.1239679E+00
          2   -1    0    0  501    0  0.00000000000E+00  0.00000000000E+00  0.17467500347E+02  0.17467500347E+02  0.00000000000E+00 0. -1.
         -2   -1    0    0    0  501 -0.00000000000E+00 -0.00000000000E+00 -0.79084944754E+03  0.79084944754E+03  0.00000000000E+00 0.  1.
         23    2    1    2    0    0 -0.31988732926E+02  0.20359362220E+02 -0.25666259585E+03  0.27533954679E+03  0.92186741208E+02 0.  0.
         23    2    1    2    0    0  0.31988732926E+02 -0.20359362220E+02 -0.51671935135E+03  0.53297740110E+03  0.12501295678E+03 0.  0.
          5    1    4    4  502    0 -0.11404503422E+02 -0.33934832956E+01 -0.45656656973E+03  0.45674577286E+03  0.47000000000E+01 0.  1.
         -5    1    4    4    0  502  0.43393236348E+02 -0.16965878925E+02 -0.60152781620E+02  0.76231628246E+02  0.47000000000E+01 0.  1.
        -11    1    3    3    0    0  0.24778767603E+02  0.32531653251E+02 -0.90026100524E+02  0.98878686089E+02  0.00000000000E+00 0.  1.
         11    1    3    3    0    0 -0.56767500528E+02 -0.12172291031E+02 -0.16663649532E+03  0.17646086070E+03  0.00000000000E+00 0. -1.
<mgrwt>
<rscale>  0 0.12209617E+03</rscale>
<asrwt>0</asrwt>
<pdfrwt beam="1">  1        2 0.26873077E-02 0.13063699E+03</pdfrwt>
<pdfrwt beam="2">  1       -2 0.12166915E+00 0.13063699E+03</pdfrwt>
<totfact> 0.18705637E+03</totfact>
</mgrwt>
</event>
<event>
 8    1  0.7550631E-006  0.1309557E+03  0.7546771E-02  0.1244333E+00
          1   -1    0    0  501    0  0.00000000000E+00  0.00000000000E+00  0.10919326884E+03  0.10919326884E+03  0.00000000000E+00 0. -1.
         -1   -1    0    0    0  501 -0.00000000000E+00 -0.00000000000E+00 -0.11195164789E+03  0.11195164789E+03  0.00000000000E+00 0.  1.
         23    2    1    2    0    0  0.38821910418E+02  0.38862978665E+01 -0.46244499043E+01  0.90175872548E+02  0.81166855386E+02 0.  0.
         23    2    1    2    0    0 -0.38821910418E+02 -0.38862978665E+01  0.18660708617E+01  0.13096904418E+03  0.12500865680E+03 0.  0.
          5    1    4    4  502    0 -0.52071193888E+02 -0.35858025723E+02  0.43303817060E+02  0.76775763191E+02  0.47000000000E+01 0. -1.
         -5    1    4    4    0  502  0.13249283469E+02  0.31971727856E+02 -0.41437746199E+02  0.54193280991E+02  0.47000000000E+01 0. -1.
        -11    1    3    3    0    0  0.47796277494E+02  0.33881508523E+02 -0.55812401484E+01  0.58852281210E+02  0.00000000000E+00 0.  1.
         11    1    3    3    0    0 -0.89743670752E+01 -0.29995210657E+02  0.95679024413E+00  0.31323591338E+02  0.00000000000E+00 0. -1.
<mgrwt>
<rscale>  0 0.11925403E+03</rscale>
<asrwt>0</asrwt>
<pdfrwt beam="1">  1        1 0.16798965E-01 0.13095575E+03</pdfrwt>
<pdfrwt beam="2">  1       -1 0.17223330E-01 0.13095575E+03</pdfrwt>
<totfact> 0.77810953E+03</totfact>
</mgrwt>
</event>
<event>
 8    1  0.7550631E-006  0.2417265E+03  0.7546771E-02  0.1121475E+00
         -1   -1    0    0    0  501 -0.00000000000E+00  0.00000000000E+00  0.37241260132E+02  0.37241260132E+02  0.00000000000E+00 0.  1.
          1   -1    0    0  501    0  0.00000000000E+00 -0.00000000000E+00 -0.17983687870E+04  0.17983687870E+04  0.00000000000E+00 0. -1.
         23    2    1    2    0    0  0.19954867111E+03  0.54792201911E+02 -0.45952708231E+03  0.51175378301E+03  0.88909715557E+02 0.  0.
         23    2    1    2    0    0 -0.19954867111E+03 -0.54792201911E+02 -0.13016004445E+04  0.13238562641E+04  0.12493931820E+03 0.  0.
          5    1    4    4  502    0 -0.20871083127E+03 -0.52770514632E+02 -0.12913740679E+04  0.13092035791E+04  0.47000000000E+01 0.  1.
         -5    1    4    4    0  502  0.91621601558E+01 -0.20216872788E+01 -0.10226376629E+02  0.14652684980E+02  0.47000000000E+01 0.  1.
        -11    1    3    3    0    0  0.15723990546E+03  0.19395852636E+01 -0.30944731649E+03  0.34711063301E+03  0.00000000000E+00 0.  1.
         11    1    3    3    0    0  0.42308765651E+02  0.52852616648E+02 -0.15007976581E+03  0.16464315001E+03  0.00000000000E+00 0. -1.
<mgrwt>
<rscale>  0 0.23749138E+03</rscale>
<asrwt>0</asrwt>
<pdfrwt beam="2">  1        1 0.27667218E+00 0.24172648E+03</pdfrwt>
<pdfrwt beam="1">  1       -1 0.57294234E-02 0.24172648E+03</pdfrwt>
<totfact> 0.65603036E+02</totfact>
</mgrwt>
</event>
<event>
 8    1  0.7550631E-006  0.1368639E+03  0.7546771E-02  0.1229939E+00
         -1   -1    0    0    0  501 -0.00000000000E+00  0.00000000000E+00  0.18177178308E+03  0.18177178308E+03  0.00000000000E+00 0.  1.
          1   -1    0    0  501    0  0.00000000000E+00 -0.00000000000E+00 -0.81429301084E+02  0.81429301084E+02  0.00000000000E+00 0. -1.
         23    2    1    2    0    0  0.34343790270E+02  0.43900167448E+02  0.53204026860E+02  0.11844690873E+03  0.89957106892E+02 0.  0.
         23    2    1    2    0    0 -0.34343790270E+02 -0.43900167448E+02  0.47138455140E+02  0.14475417544E+03  0.12500006689E+03 0.  0.
          5    1    4    4  502    0 -0.16608189774E+02  0.33888819132E+02  0.52298144210E+02  0.64664286260E+02  0.47000000000E+01 0.  1.
         -5    1    4    4    0  502 -0.17735600496E+02 -0.77788986580E+02 -0.51596890694E+01  0.80089889183E+02  0.47000000000E+01 0.  1.
        -11    1    3    3    0    0  0.21421270695E+02 -0.23700763330E+02  0.34723678502E+02  0.47184010738E+02  0.00000000000E+00 0.  1.
         11    1    3    3    0    0  0.12922519575E+02  0.67600930778E+02  0.18480348357E+02  0.71262897988E+02  0.00000000000E+00 0. -1.
<mgrwt>
<rscale>  0 0.12834064E+03</rscale>
<asrwt>0</asrwt>
<pdfrwt beam="2">  1        1 0.12527585E-01 0.13686394E+03</pdfrwt>
<pdfrwt beam="1">  1       -1 0.27964890E-01 0.13686394E+03</pdfrwt>
<totfact> 0.52043238E+03</totfact>
</mgrwt>
</event>
<event>
 8    1  0.7550631E-006  0.1181624E+03  0.7546771E-02  0.1257416E+00
         -2   -1    0    0    0  501 -0.00000000000E+00  0.00000000000E+00  0.73601988792E+02  0.73601988792E+02  0.00000000000E+00 0.  1.
          2   -1    0    0  501    0  0.00000000000E+00 -0.00000000000E+00 -0.15382281038E+03  0.15382281038E+03  0.00000000000E+00 0. -1.
         23    2    1    2    0    0 -0.28840515809E+02  0.53329178433E+00 -0.40745889799E+02  0.10284303137E+03  0.89913301651E+02 0.  0.
         23    2    1    2    0    0  0.28840515809E+02 -0.53329178433E+00 -0.39474931791E+02  0.12458176780E+03  0.11458746387E+03 0.  0.
          5    1    4    4  502    0 -0.37729472729E+02  0.12993375354E+02 -0.39705577000E+02  0.56488616202E+02  0.47000000000E+01 0. -1.
         -5    1    4    4    0  502  0.66569988538E+02 -0.13526667138E+02  0.23064520916E+00  0.68093151602E+02  0.47000000000E+01 0.  1.
        -11    1    3    3    0    0  0.24456517784E+02 -0.93387289553E+01  0.10541104180E+02  0.28221410276E+02  0.00000000000E+00 0.  1.
         11    1    3    3    0    0 -0.53297033594E+02  0.98720207396E+01 -0.51286993979E+02  0.74621621094E+02  0.00000000000E+00 0. -1.
<mgrwt>
<rscale>  0 0.11172066E+03</rscale>
<asrwt>0</asrwt>
<pdfrwt beam="2">  1        2 0.23665047E-01 0.11816237E+03</pdfrwt>
<pdfrwt beam="1">  1       -2 0.11323383E-01 0.11816237E+03</pdfrwt>
<totfact> 0.11535481E+04</totfact>
</mgrwt>
</event>
<event>
 8    1  0.7550631E-006  0.1610578E+03  0.7546771E-02  0.1196922E+00
         -1   -1    0    0    0  501 -0.00000000000E+00  0.00000000000E+00  0.14074031626E+03  0.14074031626E+03  0.00000000000E+00 0.  1.
          1   -1    0    0  501    0  0.00000000000E+00 -0.00000000000E+00 -0.15443627659E+03  0.15443627659E+03  0.00000000000E+00 0. -1.
         23    2    1    2    0    0  0.26432032622E+02 -0.98041778015E+02  0.14333442657E+02  0.13169793075E+03  0.82632044634E+02 0.  0.
         23    2    1    2    0    0 -0.26432032622E+02  0.98041778015E+02 -0.28029402981E+02  0.16347866210E+03  0.12501513087E+03 0.  0.
          5    1    4    4  502    0  0.33918928228E+02  0.68344444899E+02  0.21969342258E+02  0.79537405288E+02  0.47000000000E+01 0.  1.
         -5    1    4    4    0  502 -0.60350960850E+02  0.29697333116E+02 -0.49998745239E+02  0.83941256812E+02  0.47000000000E+01 0.  1.
        -11    1    3    3    0    0  0.13193308320E+02  0.44906089708E+01  0.24115194837E+02  0.27852676270E+02  0.00000000000E+00 0.  1.
         11    1    3    3    0    0  0.13238724302E+02 -0.10253238699E+03 -0.97817521804E+01  0.10384525448E+03  0.00000000000E+00 0. -1.
<mgrwt>
<rscale>  0 0.15292703E+03</rscale>
<asrwt>0</asrwt>
<pdfrwt beam="2">  1        1 0.23759427E-01 0.16105783E+03</pdfrwt>
<pdfrwt beam="1">  1       -1 0.21652356E-01 0.16105783E+03</pdfrwt>
<totfact> 0.35113746E+03</totfact>
</mgrwt>
</event>
<event>
 8    1  0.7550631E-006  0.1165082E+03  0.7546771E-02  0.1259286E+00
          1   -1    0    0  501    0  0.00000000000E+00  0.00000000000E+00  0.19272951786E+03  0.19272951786E+03  0.00000000000E+00 0. -1.
         -1   -1    0    0    0  501 -0.00000000000E+00 -0.00000000000E+00 -0.68270544682E+02  0.68270544682E+02  0.00000000000E+00 0.  1.
         23    2    1    2    0    0 -0.21320588298E+02  0.17462915148E+02  0.64396571209E+01  0.95160646353E+02  0.90854601092E+02 0.  0.
         23    2    1    2    0    0  0.21320588298E+02 -0.17462915148E+02  0.11801931606E+03  0.16583941619E+03  0.11320173192E+03 0.  0.
          5    1    4    4  502    0  0.30958208676E+02  0.36984979014E+02  0.18456953734E+02  0.51856036276E+02  0.47000000000E+01 0. -1.
         -5    1    4    4    0  502 -0.96376203788E+01 -0.54447894162E+02  0.99562362322E+02  0.11398337991E+03  0.47000000000E+01 0.  1.
        -11    1    3    3    0    0 -0.64284850894E+01 -0.19357084061E+02 -0.33252401368E+02  0.39009541405E+02  0.00000000000E+00 0.  1.
         11    1    3    3    0    0 -0.14892103208E+02  0.36819999209E+02  0.39692058489E+02  0.56151104947E+02  0.00000000000E+00 0. -1.
<mgrwt>
<rscale>  0 0.11069613E+03</rscale>
<asrwt>0</asrwt>
<pdfrwt beam="1">  1        1 0.29650695E-01 0.11650817E+03</pdfrwt>
<pdfrwt beam="2">  1       -1 0.10503161E-01 0.11650817E+03</pdfrwt>
<totfact> 0.81199030E+03</totfact>
</mgrwt>
</event>
<event>
 8    1  0.7550631E-006  0.1396710E+03  0.7546771E-02  0.1223283E+00
         -1   -1    0    0    0  501 -0.00000000000E+00  0.00000000000E+00  0.17825892334E+02  0.17825892334E+02  0.00000000000E+00 0.  1.
          1   -1    0    0  501    0  0.00000000000E+00 -0.00000000000E+00 -0.90745953771E+03  0.90745953771E+03  0.00000000000E+00 0. -1.
         23    2    1    2    0    0  0.45572533256E+02 -0.42483503946E+02 -0.37572347783E+03  0.39273341483E+03  0.95862920021E+02 0.  0.
         23    2    1    2    0    0 -0.45572533256E+02  0.42483503946E+02 -0.51391016755E+03  0.53255201522E+03  0.12500513873E+03 0.  0.
          5    1    4    4  502    0 -0.71053705071E+02 -0.78575565791E+01 -0.38714127176E+03  0.39371414059E+03  0.47000000000E+01 0. -1.
         -5    1    4    4    0  502  0.25481171815E+02  0.50341060525E+02 -0.12676889578E+03  0.13883787462E+03  0.47000000000E+01 0. -1.
        -11    1    3    3    0    0 -0.15272969395E+02  0.19097835162E+02 -0.49388782189E+02  0.55111184964E+02  0.00000000000E+00 0.  1.
         11    1    3    3    0    0  0.60845502651E+02 -0.61581339108E+02 -0.32633469564E+03  0.33762222986E+03  0.00000000000E+00 0. -1.
<mgrwt>
<rscale>  0 0.13285257E+03</rscale>
<asrwt>0</asrwt>
<pdfrwt beam="2">  1        1 0.13960917E+00 0.13967100E+03</pdfrwt>
<pdfrwt beam="1">  1       -1 0.27424448E-02 0.13967100E+03</pdfrwt>
<totfact> 0.78580187E+03</totfact>
</mgrwt>
</event>
<event>
 8    1  0.7550631E-006  0.1707085E+03  0.7546771E-02  0.1183644E+00
          2   -1    0    0  501    0  0.00000000000E+00  0.00000000000E+00  0.71565651144E+03  0.71565651144E+03  0.00000000000E+00 0.  1.
         -2   -1    0    0    0  501 -0.00000000000E+00 -0.00000000000E+00 -0.39996827987E+02  0.39996827987E+02  0.00000000000E+00 0. -1.
         23    2    1    2    0    0 -0.38421140323E+02 -0.10973197550E+03  0.18749869279E+03  0.23850487848E+03  0.90617475080E+02 0.  0.
         23    2    1    2    0    0  0.38421140323E+02  0.10973197550E+03  0.48816099066E+03  0.51714846095E+03  0.12499634950E+03 0.  0.
          5    1    4    4  502    0  0.36604179540E+02 -0.19220319606E+02  0.12435422117E+03  0.13113103739E+03  0.47000000000E+01 0.  1.
         -5    1    4    4    0  502  0.18169607838E+01  0.12895229510E+03  0.36380676949E+03  0.38601742355E+03  0.47000000000E+01 0.  1.
        -11    1    3    3    0    0 -0.37715034134E+02 -0.74391877702E+00  0.58756605088E+02  0.69823462077E+02  0.00000000000E+00 0. -1.
         11    1    3    3    0    0 -0.70610618892E+00 -0.10898805672E+03  0.12874208770E+03  0.16868141640E+03  0.00000000000E+00 0.  1.
<mgrwt>
<rscale>  0 0.16455868E+03</rscale>
<asrwt>0</asrwt>
<pdfrwt beam="1">  1        2 0.11010099E+00 0.17070846E+03</pdfrwt>
<pdfrwt beam="2">  1       -2 0.61533587E-02 0.17070846E+03</pdfrwt>
<totfact> 0.56818805E+03</totfact>
</mgrwt>
</event>
<event>
 8    1  0.7550631E-006  0.3378910E+03  0.7546771E-02  0.1068858E+00
          2   -1    0    0  501    0  0.00000000000E+00  0.00000000000E+00  0.17482790838E+04  0.17482790838E+04  0.00000000000E+00 0. -1.
         -2   -1    0    0    0  501 -0.00000000000E+00 -0.00000000000E+00 -0.94876656491E+02  0.94876656491E+02  0.00000000000E+00 0.  1.
         23    2    1    2    0    0  0.13125189145E+03  0.28516497619E+03  0.28599047096E+03  0.43461542720E+03  0.92487282510E+02 0.  0.
         23    2    1    2    0    0 -0.13125189145E+03 -0.28516497619E+03  0.13674119564E+04  0.14085403131E+04  0.12499693030E+03 0.  0.
          5    1    4    4  502    0 -0.13815273737E+03 -0.29164051464E+03  0.13510446108E+04  0.13890586737E+04  0.47000000000E+01 0.  1.
         -5    1    4    4    0  502  0.69008459241E+01  0.64755384552E+01  0.16367345533E+02  0.19481639370E+02  0.47000000000E+01 0.  1.
        -11    1    3    3    0    0  0.81632913826E+02  0.16762466078E+03  0.22784324672E+03  0.29440534064E+03  0.00000000000E+00 0. -1.
         11    1    3    3    0    0  0.49618977623E+02  0.11754031541E+03  0.58147224243E+02  0.14021008656E+03  0.00000000000E+00 0.  1.
<mgrwt>
<rscale>  0 0.33520169E+03</rscale>
<asrwt>0</asrwt>
<pdfrwt beam="1">  1        2 0.26896599E+00 0.33789104E+03</pdfrwt>
<pdfrwt beam="2">  1       -2 0.14596410E-01 0.33789104E+03</pdfrwt>
<totfact> 0.35856801E+02</totfact>
</mgrwt>
</event>
<event>
 8    1  0.7550631E-006  0.1307783E+03  0.7546771E-02  0.1239758E+00
         -3   -1    0    0    0  501 -0.00000000000E+00  0.00000000000E+00  0.89929585570E+02  0.89929585570E+02  0.00000000000E+00 0.  1.
          3   -1    0    0  501    0  0.00000000000E+00 -0.00000000000E+00 -0.16496644481E+03  0.16496644481E+03  0.00000000000E+00 0. -1.
         23    2    1    2    0    0  0.38082666734E+02  0.52678902381E+01  0.87451777720E+01  0.99582155323E+02  0.91444449539E+02 0.  0.
         23    2    1    2    0    0 -0.38082666734E+02 -0.52678902381E+01 -0.83782037011E+02  0.15531387506E+03  0.12499971954E+03 0.  0.
          5    1    4    4  502    0 -0.67306922645E+02  0.35199434408E+02 -0.30037959942E+02  0.81814369496E+02  0.47000000000E+01 0.  1.
         -5    1    4    4    0  502  0.29224255911E+02 -0.40467324646E+02 -0.53744077069E+02  0.73499505560E+02  0.47000000000E+01 0.  1.
        -11    1    3    3    0    0  0.25408601012E+02  0.26758200293E+02 -0.33943464927E+02  0.50137382256E+02  0.00000000000E+00 0. -1.
         11    1    3    3    0    0  0.12674065722E+02 -0.21490310055E+02  0.42688642698E+02  0.49444773067E+02  0.00000000000E+00 0.  1.
<mgrwt>
<rscale>  0 0.12204695E+03</rscale>
<asrwt>0</asrwt>
<pdfrwt beam="2">  1        3 0.25379453E-01 0.13077832E+03</pdfrwt>
<pdfrwt beam="1">  1       -3 0.13835321E-01 0.13077832E+03</pdfrwt>
<totfact> 0.14244132E+03</totfact>
</mgrwt>
</event>
<event>
 8    1  0.7550631E-006  0.1469493E+03  0.7546771E-02  0.1212789E+00
          1   -1    0    0  501    0  0.00000000000E+00  0.00000000000E+00  0.20131230837E+03  0.20131230837E+03  0.00000000000E+00 0. -1.
         -1   -1    0    0    0  501 -0.00000000000E+00 -0.00000000000E+00 -0.92338039072E+02  0.92338039072E+02  0.00000000000E+00 0.  1.
         23    2    1    2    0    0  0.53141689014E+02 -0.56062206762E+02  0.27066210427E+02  0.12541530589E+03  0.95023202780E+02 0.  0.
         23    2    1    2    0    0 -0.53141689014E+02  0.56062206762E+02  0.81908058872E+02  0.16823504155E+03  0.12500835556E+03 0.  0.
          5    1    4    4  502    0 -0.92693570168E+02  0.49358910468E+02  0.69355418639E+02  0.12593912850E+03  0.47000000000E+01 0. -1.
         -5    1    4    4    0  502  0.39551881154E+02  0.67032962940E+01  0.12552640232E+02  0.42295913051E+02  0.47000000000E+01 0. -1.
        -11    1    3    3    0    0 -0.23351464189E+02 -0.92734965951E+01  0.25406074993E+02  0.35731740308E+02  0.00000000000E+00 0.  1.
         11    1    3    3    0    0  0.76493153203E+02 -0.46788710167E+02  0.16601354335E+01  0.89683565583E+02  0.00000000000E+00 0. -1.
<mgrwt>
<rscale>  0 0.14040226E+03</rscale>
<asrwt>0</asrwt>
<pdfrwt beam="1">  1        1 0.30971124E-01 0.14694931E+03</pdfrwt>
<pdfrwt beam="2">  1       -1 0.14205852E-01 0.14694931E+03</pdfrwt>
<totfact> 0.49024115E+03</totfact>
</mgrwt>
</event>
<event>
 8    1  0.7550631E-006  0.1872534E+03  0.7546771E-02  0.1166030E+00
         -1   -1    0    0    0  501 -0.00000000000E+00  0.00000000000E+00  0.32680028978E+02  0.32680028978E+02  0.00000000000E+00 0.  1.
          1   -1    0    0  501    0  0.00000000000E+00 -0.00000000000E+00 -0.11117262647E+04  0.11117262647E+04  0.00000000000E+00 0. -1.
         23    2    1    2    0    0 -0.12297108988E+03 -0.65707207082E+02 -0.29952152080E+03  0.34270647295E+03  0.91078313371E+02 0.  0.
         23    2    1    2    0    0  0.12297108988E+03  0.65707207082E+02 -0.77952471492E+03  0.80169982073E+03  0.12499798151E+03 0.  0.
          5    1    4    4  502    0  0.11168508485E+03  0.75432985098E+02 -0.77315706158E+03  0.78482967916E+03  0.47000000000E+01 0. -1.
         -5    1    4    4    0  502  0.11286005033E+02 -0.97257780162E+01 -0.63676533407E+01  0.16870141573E+02  0.47000000000E+01 0. -1.
        -11    1    3    3    0    0 -0.38919613916E+02  0.63722539681E-01 -0.17232836076E+03  0.17666862859E+03  0.00000000000E+00 0. -1.
         11    1    3    3    0    0 -0.84051475965E+02 -0.65770929621E+02 -0.12719316005E+03  0.16603784436E+03  0.00000000000E+00 0.  1.
<mgrwt>
<rscale>  0 0.18184440E+03</rscale>
<asrwt>0</asrwt>
<pdfrwt beam="2">  1        1 0.17103478E+00 0.18725336E+03</pdfrwt>
<pdfrwt beam="1">  1       -1 0.50276977E-02 0.18725336E+03</pdfrwt>
<totfact> 0.23001692E+03</totfact>
</mgrwt>
</event>
<event>
 7    1  0.7550631E-006  0.3464412E+03  0.7546771E-02  0.1064085E+00
         -2   -1    0    0    0  501 -0.00000000000E+00  0.00000000000E+00  0.98339292937E+02  0.98339292937E+02  0.00000000000E+00 0.  1.
          2   -1    0    0  501    0  0.00000000000E+00 -0.00000000000E+00 -0.30512091445E+03  0.30512091445E+03  0.00000000000E+00 0. -1.
         23    2    1    2    0    0  0.10647078936E+02 -0.87593209126E+02  0.18066994505E+01  0.12367320464E+03  0.86636405796E+02 0.  0.
          5    1    1    2  502    0 -0.45682183235E+02  0.10587315406E+03 -0.21037686582E+03  0.23995104144E+03  0.47000000000E+01 0. -1.
         -5    1    1    2    0  502  0.35035104299E+02 -0.18279944937E+02  0.17885448557E+01  0.39835961302E+02  0.47000000000E+01 0.  1.
        -11    1    3    3    0    0  0.23412115900E+02  0.97046318540E+01  0.31028982268E+01  0.25533018383E+02  0.00000000000E+00 0.  1.
         11    1    3    3    0    0 -0.12765036965E+02 -0.97297840980E+02 -0.12961987763E+01  0.98140186261E+02  0.00000000000E+00 0. -1.
<mgrwt>
<rscale>  0 0.34644119E+03</rscale>
<asrwt>0</asrwt>
<pdfrwt beam="2">  1        2 0.46941679E-01 0.34644119E+03</pdfrwt>
<pdfrwt beam="1">  1       -2 0.15129122E-01 0.34644119E+03</pdfrwt>
<totfact> 0.36338740E+03</totfact>
</mgrwt>
</event>
<event>
 8    1  0.7550631E-006  0.1668494E+03  0.7546771E-02  0.1188056E+00
         -2   -1    0    0    0  501 -0.00000000000E+00  0.00000000000E+00  0.56387746426E+03  0.56387746426E+03  0.00000000000E+00 0. -1.
          2   -1    0    0  501    0  0.00000000000E+00 -0.00000000000E+00 -0.46064266147E+02  0.46064266147E+02  0.00000000000E+00 0.  1.
         23    2    1    2    0    0  0.21524611056E+02 -0.10838364516E+03  0.32403068672E+03  0.35422626377E+03  0.90939741552E+02 0.  0.
         23    2    1    2    0    0 -0.21524611056E+02  0.10838364516E+03  0.19378251139E+03  0.25571546663E+03  0.12501365819E+03 0.  0.
          5    1    4    4  502    0  0.16987961187E+02 -0.50596141605E+00  0.11377394780E+03  0.11513230659E+03  0.47000000000E+01 0.  1.
         -5    1    4    4    0  502 -0.38512572243E+02  0.10888960657E+03  0.80008563596E+02  0.14058316005E+03  0.47000000000E+01 0.  1.
        -11    1    3    3    0    0  0.54486732709E+02 -0.72899781489E+02  0.17095761425E+03  0.19367418014E+03  0.00000000000E+00 0.  1.
         11    1    3    3    0    0 -0.32962121653E+02 -0.35483863666E+02  0.15307307247E+03  0.16055208363E+03  0.00000000000E+00 0. -1.
<mgrwt>
<rscale>  0 0.16056866E+03</rscale>
<asrwt>0</asrwt>
<pdfrwt beam="2">  1        2 0.70868106E-02 0.16684945E+03</pdfrwt>
<pdfrwt beam="1">  1       -2 0.86750374E-01 0.16684945E+03</pdfrwt>
<totfact> 0.11580291E+03</totfact>
</mgrwt>
</event>
<event>
 8    1  0.7550631E-006  0.1295731E+03  0.7546771E-02  0.1242632E+00
         -1   -1    0    0    0  501 -0.00000000000E+00  0.00000000000E+00  0.25223779289E+02  0.25223779289E+02  0.00000000000E+00 0.  1.
          1   -1    0    0  501    0  0.00000000000E+00 -0.00000000000E+00 -0.50616173628E+03  0.50616173628E+03  0.00000000000E+00 0. -1.
         23    2    1    2    0    0  0.18634326825E+02  0.28566438442E+02 -0.21585756871E+03  0.23633160191E+03  0.89971420731E+02 0.  0.
         23    2    1    2    0    0 -0.18634326825E+02 -0.28566438442E+02 -0.26508038828E+03  0.29505391366E+03  0.12500368065E+03 0.  0.
          5    1    4    4  502    0  0.51428433981E+02 -0.86200428551E+01 -0.14897101438E+03  0.15790390142E+03  0.47000000000E+01 0. -1.
         -5    1    4    4    0  502 -0.70062760806E+02 -0.19946395587E+02 -0.11610937390E+03  0.13715001224E+03  0.47000000000E+01 0. -1.
        -11    1    3    3    0    0 -0.54775976102E+01 -0.13728406024E+02  0.27518384643E+00  0.14783400613E+02  0.00000000000E+00 0.  1.
         11    1    3    3    0    0  0.24111924436E+02  0.42294844465E+02 -0.21613275256E+03  0.22154820130E+03  0.00000000000E+00 0. -1.
<mgrwt>
<rscale>  0 0.12028229E+03</rscale>
<asrwt>0</asrwt>
<pdfrwt beam="2">  1        1 0.77871024E-01 0.12957314E+03</pdfrwt>
<pdfrwt beam="1">  1       -1 0.38805820E-02 0.12957314E+03</pdfrwt>
<totfact> 0.10834448E+04</totfact>
</mgrwt>
</event>
<event>
 8    1  0.7550631E-006  0.1354949E+03  0.7546771E-02  0.1231472E+00
         -2   -1    0    0    0  501 -0.00000000000E+00  0.00000000000E+00  0.32353745172E+02  0.32353745172E+02  0.00000000000E+00 0.  1.
          2   -1    0    0  501    0  0.00000000000E+00 -0.00000000000E+00 -0.66943091921E+03  0.66943091921E+03  0.00000000000E+00 0. -1.
         23    2    1    2    0    0  0.51485061945E+02  0.91417568297E+01 -0.91964827316E+02  0.14008516460E+03  0.91826143092E+02 0.  0.
         23    2    1    2    0    0 -0.51485061945E+02 -0.91417568297E+01 -0.54511234673E+03  0.56169949979E+03  0.12499829675E+03 0.  0.
          5    1    4    4  502    0  0.63473152003E+01 -0.72594503682E+01  0.25029946589E+01  0.11015580428E+02  0.47000000000E+01 0. -1.
         -5    1    4    4    0  502 -0.57832377145E+02 -0.18823064615E+01 -0.54761534139E+03  0.55068391936E+03  0.47000000000E+01 0. -1.
        -11    1    3    3    0    0  0.14294559509E+02 -0.15818268901E+02  0.13684158982E+02  0.25333935139E+02  0.00000000000E+00 0.  1.
         11    1    3    3    0    0  0.37190502435E+02  0.24960025731E+02 -0.10564898630E+03  0.11475122946E+03  0.00000000000E+00 0. -1.
<mgrwt>
<rscale>  0 0.12733005E+03</rscale>
<asrwt>0</asrwt>
<pdfrwt beam="2">  1        2 0.10298936E+00 0.13549486E+03</pdfrwt>
<pdfrwt beam="1">  1       -2 0.49775000E-02 0.13549486E+03</pdfrwt>
<totfact> 0.83794920E+03</totfact>
</mgrwt>
</event>
<event>
 8    1  0.7550631E-006  0.1319321E+03  0.7546771E-02  0.1238190E+00
         -2   -1    0    0    0  501 -0.00000000000E+00  0.00000000000E+00  0.74388867378E+02  0.74388867378E+02  0.00000000000E+00 0.  1.
          2   -1    0    0  501    0  0.00000000000E+00 -0.00000000000E+00 -0.20331425542E+03  0.20331425542E+03  0.00000000000E+00 0. -1.
         23    2    1    2    0    0  0.60931431579E+01 -0.41764747196E+02 -0.10294180335E+02  0.10027865145E+03  0.90379296775E+02 0.  0.
         23    2    1    2    0    0 -0.60931431579E+01  0.41764747196E+02 -0.11863120771E+03  0.17742447135E+03  0.12499863635E+03 0.  0.
          5    1    4    4  502    0  0.22277372574E+02 -0.39536988232E+02 -0.43822875487E+02  0.63261277123E+02  0.47000000000E+01 0. -1.
         -5    1    4    4    0  502 -0.28370515732E+02  0.81301735428E+02 -0.74808332220E+02  0.11416319423E+03  0.47000000000E+01 0. -1.
        -11    1    3    3    0    0  0.11777710311E+02 -0.51708475378E+02  0.28236582895E+02  0.60081490491E+02  0.00000000000E+00 0.  1.
         11    1    3    3    0    0 -0.56845671530E+01  0.99437281824E+01 -0.38530763230E+02  0.40197160956E+02  0.00000000000E+00 0. -1.
<mgrwt>
<rscale>  0 0.12302401E+03</rscale>
<asrwt>0</asrwt>
<pdfrwt beam="2">  1        2 0.31279116E-01 0.13193210E+03</pdfrwt>
<pdfrwt beam="1">  1       -2 0.11444441E-01 0.13193210E+03</pdfrwt>
<totfact> 0.84420410E+03</totfact>
</mgrwt>
</event>
<event>
 8    1  0.7550631E-006  0.1504010E+03  0.7546771E-02  0.1209006E+00
         -1   -1    0    0    0  501 -0.00000000000E+00  0.00000000000E+00  0.62153836217E+03  0.62153836217E+03  0.00000000000E+00 0.  1.
          1   -1    0    0  501    0  0.00000000000E+00 -0.00000000000E+00 -0.30253886159E+02  0.30253886159E+02  0.00000000000E+00 0. -1.
         23    2    1    2    0    0  0.23756500755E+01 -0.83598109769E+02  0.27244557642E+03  0.29926041042E+03  0.91301223803E+02 0.  0.
         23    2    1    2    0    0 -0.23756500755E+01  0.83598109769E+02  0.31883889960E+03  0.35253183791E+03  0.12500466060E+03 0.  0.
          5    1    4    4  502    0  0.24668279485E+02  0.32987405564E+02  0.16274448389E+02  0.44538080436E+02  0.47000000000E+01 0. -1.
         -5    1    4    4    0  502 -0.27043929561E+02  0.50610704206E+02  0.30256445121E+03  0.30799375747E+03  0.47000000000E+01 0. -1.
        -11    1    3    3    0    0 -0.10947421033E+02 -0.10061060614E+03  0.20853287857E+03  0.23179366156E+03  0.00000000000E+00 0. -1.
         11    1    3    3    0    0  0.13323071108E+02  0.17012496367E+02  0.63912697845E+02  0.67466748863E+02  0.00000000000E+00 0.  1.
<mgrwt>
<rscale>  0 0.14326215E+03</rscale>
<asrwt>0</asrwt>
<pdfrwt beam="2">  1        1 0.46544445E-02 0.15040097E+03</pdfrwt>
<pdfrwt beam="1">  1       -1 0.95621277E-01 0.15040097E+03</pdfrwt>
<totfact> 0.19979001E+03</totfact>
</mgrwt>
</event>
<event>
 8    1  0.7550631E-006  0.1583091E+03  0.7546771E-02  0.1198647E+00
         -2   -1    0    0    0  501 -0.00000000000E+00  0.00000000000E+00  0.23078294252E+03  0.23078294252E+03  0.00000000000E+00 0.  1.
          2   -1    0    0  501    0  0.00000000000E+00 -0.00000000000E+00 -0.91842850916E+02  0.91842850916E+02  0.00000000000E+00 0. -1.
         23    2    1    2    0    0  0.32657289847E+02  0.91486039708E+02  0.67622421703E+02  0.14899402084E+03  0.90499902140E+02 0.  0.
         23    2    1    2    0    0 -0.32657289847E+02 -0.91486039708E+02  0.71317669904E+02  0.17363177260E+03  0.12500235347E+03 0.  0.
          5    1    4    4  502    0  0.23147557128E+02  0.21189619994E+02  0.21361446693E+02  0.38251938530E+02  0.47000000000E+01 0. -1.
         -5    1    4    4    0  502 -0.55804846975E+02 -0.11267565970E+03  0.49956223211E+02  0.13537983407E+03  0.47000000000E+01 0. -1.
        -11    1    3    3    0    0  0.41704881410E+02  0.12596088972E+02  0.52393454118E+02  0.68139802064E+02  0.00000000000E+00 0. -1.
         11    1    3    3    0    0 -0.90475915638E+01  0.78889950736E+02  0.15228967585E+02  0.80854218776E+02  0.00000000000E+00 0.  1.
<mgrwt>
<rscale>  0 0.15149560E+03</rscale>
<asrwt>0</asrwt>
<pdfrwt beam="2">  1        2 0.14129669E-01 0.15830914E+03</pdfrwt>
<pdfrwt beam="1">  1       -2 0.35505068E-01 0.15830914E+03</pdfrwt>
<totfact> 0.30364892E+03</totfact>
</mgrwt>
</event>
<event>
 8    1  0.7550631E-006  0.1291707E+03  0.7546771E-02  0.1243191E+00
         -2   -1    0    0    0  501 -0.00000000000E+00  0.00000000000E+00  0.46861483085E+02  0.46861483085E+02  0.00000000000E+00 0.  1.
          2   -1    0    0  501    0  0.00000000000E+00 -0.00000000000E+00 -0.54468514443E+03  0.54468514443E+03  0.00000000000E+00 0. -1.
         23    2    1    2    0    0  0.22831187997E+02  0.23278498480E+02 -0.22022118289E+02  0.98523125123E+02  0.90325416430E+02 0.  0.
         23    2    1    2    0    0 -0.22831187997E+02 -0.23278498480E+02 -0.47580154306E+03  0.49302350240E+03  0.12498765499E+03 0.  0.
          5    1    4    4  502    0 -0.42142628639E+02  0.39281516376E+02 -0.29655764442E+03  0.30213832120E+03  0.47000000000E+01 0.  1.
         -5    1    4    4    0  502  0.19311440642E+02 -0.62560014856E+02 -0.17924389864E+03  0.19088518119E+03  0.47000000000E+01 0.  1.
        -11    1    3    3    0    0  0.79323855385E+01  0.14814626862E+02  0.35084383447E+02  0.38901283671E+02  0.00000000000E+00 0.  1.
         11    1    3    3    0    0  0.14898802459E+02  0.84638716175E+01 -0.57106501737E+02  0.59621841452E+02  0.00000000000E+00 0. -1.
<mgrwt>
<rscale>  0 0.11994306E+03</rscale>
<asrwt>0</asrwt>
<pdfrwt beam="2">  1        2 0.83797713E-01 0.12917068E+03</pdfrwt>
<pdfrwt beam="1">  1       -2 0.72094591E-02 0.12917068E+03</pdfrwt>
<totfact> 0.60288841E+03</totfact>
</mgrwt>
</event>
<event>
 8    1  0.7550631E-006  0.1253007E+03  0.7546771E-02  0.1250376E+00
          1   -1    0    0  501    0  0.00000000000E+00  0.00000000000E+00  0.15106013308E+03  0.15106013308E+03  0.00000000000E+00 0. -1.
         -1   -1    0    0    0  501 -0.00000000000E+00 -0.00000000000E+00 -0.78855785606E+02  0.78855785606E+02  0.00000000000E+00 0.  1.
         23    2    1    2    0    0 -0.55071536603E+01 -0.51539466073E+01  0.15487383282E+02  0.92376574464E+02  0.90756159910E+02 0.  0.
         23    2    1    2    0    0  0.55071536603E+01  0.51539466073E+01  0.56716964193E+02  0.13753934422E+03  0.12507343953E+03 0.  0.
          5    1    4    4  502    0 -0.24140047824E+02  0.69657257582E+01  0.89484854474E+02  0.93063915803E+02  0.47000000000E+01 0. -1.
         -5    1    4    4    0  502  0.29647201484E+02 -0.18117791509E+01 -0.32767890282E+02  0.44475428419E+02  0.47000000000E+01 0. -1.
        -11    1    3    3    0    0  0.12383808273E+02  0.40236516273E+02  0.42749083825E+01  0.42315609304E+02  0.00000000000E+00 0.  1.
         11    1    3    3    0    0 -0.17890961933E+02 -0.45390462880E+02  0.11212474899E+02  0.50060965160E+02  0.00000000000E+00 0. -1.
<mgrwt>
<rscale>  0 0.11569318E+03</rscale>
<asrwt>0</asrwt>
<pdfrwt beam="1">  1        1 0.23240020E-01 0.12530067E+03</pdfrwt>
<pdfrwt beam="2">  1       -1 0.12131659E-01 0.12530067E+03</pdfrwt>
<totfact> 0.88729376E+03</totfact>
</mgrwt>
</event>
<event>
 8    1  0.7550631E-006  0.1422670E+03  0.7546771E-02  0.1221700E+00
         -1   -1    0    0    0  501 -0.00000000000E+00  0.00000000000E+00  0.37431625812E+02  0.37431625812E+02  0.00000000000E+00 0.  1.
          1   -1    0    0  501    0  0.00000000000E+00 -0.00000000000E+00 -0.91115029779E+03  0.91115029779E+03  0.00000000000E+00 0. -1.
         23    2    1    2    0    0 -0.33325895565E+01  0.65228262074E+02 -0.69034760005E+02  0.13141847806E+03  0.90769961767E+02 0.  0.
         23    2    1    2    0    0  0.33325895565E+01 -0.65228262074E+02 -0.80468391197E+03  0.81716344554E+03  0.12638855258E+03 0.  0.
          5    1    4    4  502    0  0.53272068999E+02 -0.63082186248E+02 -0.34628880754E+03  0.35602711102E+03  0.47000000000E+01 0. -1.
         -5    1    4    4    0  502 -0.49939479442E+02 -0.21460758257E+01 -0.45839510443E+03  0.46113633452E+03  0.47000000000E+01 0.  1.
        -11    1    3    3    0    0 -0.17874527376E+02 -0.56416852086E+01  0.12411406117E+02  0.22480443562E+02  0.00000000000E+00 0.  1.
         11    1    3    3    0    0  0.14541937820E+02  0.70869947283E+02 -0.81446166123E+02  0.10893803449E+03  0.00000000000E+00 0. -1.
<mgrwt>
<rscale>  0 0.13395646E+03</rscale>
<asrwt>0</asrwt>
<pdfrwt beam="2">  1        1 0.14017694E+00 0.14226700E+03</pdfrwt>
<pdfrwt beam="1">  1       -1 0.57587128E-02 0.14226700E+03</pdfrwt>
<totfact> 0.26251691E+03</totfact>
</mgrwt>
</event>
<event>
 8    1  0.7550631E-006  0.1638150E+03  0.7546771E-02  0.1189932E+00
         -1   -1    0    0    0  501 -0.00000000000E+00  0.00000000000E+00  0.17062029313E+03  0.17062029313E+03  0.00000000000E+00 0.  1.
          1   -1    0    0  501    0  0.00000000000E+00 -0.00000000000E+00 -0.14492087039E+03  0.14492087039E+03  0.00000000000E+00 0. -1.
         23    2    1    2    0    0 -0.17951272450E+02 -0.10435897874E+03  0.41729719067E+02  0.15094369721E+03  0.99144266844E+02 0.  0.
         23    2    1    2    0    0  0.17951272450E+02  0.10435897874E+03 -0.16030296330E+02  0.16459746631E+03  0.12498924310E+03 0.  0.
          5    1    4    4  502    0  0.51941488338E+02  0.43355623775E+02 -0.52413656137E+02  0.85714115951E+02  0.47000000000E+01 0.  1.
         -5    1    4    4    0  502 -0.33990215887E+02  0.61003354969E+02  0.36383359807E+02  0.78883350362E+02  0.47000000000E+01 0.  1.
        -11    1    3    3    0    0 -0.39519590018E+02 -0.11997241095E+01  0.85214429954E+01  0.40445671263E+02  0.00000000000E+00 0. -1.
         11    1    3    3    0    0  0.21568317568E+02 -0.10315925463E+03  0.33208276071E+02  0.11049802595E+03  0.00000000000E+00 0.  1.
<mgrwt>
<rscale>  0 0.15891056E+03</rscale>
<asrwt>0</asrwt>
<pdfrwt beam="2">  1        1 0.22295518E-01 0.16381500E+03</pdfrwt>
<pdfrwt beam="1">  1       -1 0.26249276E-01 0.16381500E+03</pdfrwt>
<totfact> 0.27767470E+03</totfact>
</mgrwt>
</event>
<event>
 8    1  0.7550631E-006  0.1523995E+03  0.7546771E-02  0.1205724E+00
          2   -1    0    0  501    0  0.00000000000E+00  0.00000000000E+00  0.10254617864E+04  0.10254617864E+04  0.00000000000E+00 0. -1.
         -2   -1    0    0    0  501 -0.00000000000E+00 -0.00000000000E+00 -0.20195594523E+02  0.20195594523E+02  0.00000000000E+00 0.  1.
         23    2    1    2    0    0 -0.65893186706E+02 -0.57082070146E+02  0.34071647661E+03  0.36385688214E+03  0.93294364584E+02 0.  0.
         23    2    1    2    0    0  0.65893186706E+02  0.57082070146E+02  0.66454971526E+03  0.68180049877E+03  0.12500128514E+03 0.  0.
          5    1    4    4  502    0  0.47009818116E+02  0.49883526146E+01  0.57098252148E+03  0.57295544024E+03  0.47000000000E+01 0. -1.
         -5    1    4    4    0  502  0.18883368590E+02  0.52093717532E+02  0.93567193777E+02  0.10884505853E+03  0.47000000000E+01 0. -1.
        -11    1    3    3    0    0 -0.11588323070E+02 -0.11144081860E+02  0.29103094379E+00  0.16079940643E+02  0.00000000000E+00 0.  1.
         11    1    3    3    0    0 -0.54304863636E+02 -0.45937988287E+02  0.34042544566E+03  0.34777694150E+03  0.00000000000E+00 0. -1.
<mgrwt>
<rscale>  0 0.14580577E+03</rscale>
<asrwt>0</asrwt>
<pdfrwt beam="1">  1        2 0.15776331E+00 0.15239946E+03</pdfrwt>
<pdfrwt beam="2">  1       -2 0.31070153E-02 0.15239946E+03</pdfrwt>
<totfact> 0.98866475E+03</totfact>
</mgrwt>
</event>
<event>
 8    1  0.7550631E-006  0.1366740E+03  0.7546771E-02  0.1229903E+00
         -2   -1    0    0    0  501 -0.00000000000E+00  0.00000000000E+00  0.18067389075E+03  0.18067389075E+03  0.00000000000E+00 0.  1.
          2   -1    0    0  501    0  0.00000000000E+00 -0.00000000000E+00 -0.91764850269E+02  0.91764850269E+02  0.00000000000E+00 0. -1.
         23    2    1    2    0    0  0.10600852886E+02  0.54264106499E+02 -0.52415258202E+01  0.10647458330E+03  0.90842676973E+02 0.  0.
         23    2    1    2    0    0 -0.10600852886E+02 -0.54264106499E+02  0.94150566299E+02  0.16596415772E+03  0.12499120440E+03 0.  0.
          5    1    4    4  502    0 -0.23387925519E+02  0.50339364433E+01 -0.23278297650E+02  0.33709119206E+02  0.47000000000E+01 0. -1.
         -5    1    4    4    0  502  0.12787072632E+02 -0.59298042942E+02  0.11742886395E+03  0.13225503851E+03  0.47000000000E+01 0. -1.
        -11    1    3    3    0    0 -0.19345694202E+02  0.23388250061E+02 -0.40671310738E+02  0.50748612220E+02  0.00000000000E+00 0. -1.
         11    1    3    3    0    0  0.29946547089E+02  0.30875856438E+02  0.35429784918E+02  0.55725971079E+02  0.00000000000E+00 0.  1.
<mgrwt>
<rscale>  0 0.12836426E+03</rscale>
<asrwt>0</asrwt>
<pdfrwt beam="2">  1        2 0.14117669E-01 0.13667396E+03</pdfrwt>
<pdfrwt beam="1">  1       -2 0.27795983E-01 0.13667396E+03</pdfrwt>
<totfact> 0.46993267E+03</totfact>
</mgrwt>
</event>
<event>
 8    1  0.7550631E-006  0.1386380E+03  0.7546771E-02  0.1233605E+00
         -3   -1    0    0    0  501 -0.00000000000E+00  0.00000000000E+00  0.23599308043E+03  0.23599308043E+03  0.00000000000E+00 0.  1.
          3   -1    0    0  501    0  0.00000000000E+00 -0.00000000000E+00 -0.76447814880E+02  0.76447814880E+02  0.00000000000E+00 0. -1.
         23    2    1    2    0    0 -0.59652092717E+02 -0.62329568172E+01  0.14501852799E+03  0.17304390212E+03  0.72914996278E+02 0.  0.
         23    2    1    2    0    0  0.59652092717E+02  0.62329568172E+01  0.14526737557E+02  0.13939699319E+03  0.12499309457E+03 0.  0.
          5    1    4    4  502    0 -0.36546830876E+02 -0.14280359309E+02 -0.18928448221E+01  0.39563523233E+02  0.47000000000E+01 0.  1.
         -5    1    4    4    0  502  0.96198923593E+02  0.20513316126E+02  0.16419582379E+02  0.99833469962E+02  0.47000000000E+01 0.  1.
        -11    1    3    3    0    0 -0.63684588686E+02  0.89487552550E+01  0.64776072901E+02  0.91278402030E+02  0.00000000000E+00 0. -1.
         11    1    3    3    0    0  0.40324959687E+01 -0.15181712072E+02  0.80242455092E+02  0.81765500087E+02  0.00000000000E+00 0.  1.
<mgrwt>
<rscale>  0 0.12594174E+03</rscale>
<asrwt>0</asrwt>
<pdfrwt beam="2">  1        3 0.11761202E-01 0.13863800E+03</pdfrwt>
<pdfrwt beam="1">  1       -3 0.36306627E-01 0.13863800E+03</pdfrwt>
<totfact> 0.97374975E+02</totfact>
</mgrwt>
</event>
<event>
 8    1  0.7550631E-006  0.1620779E+03  0.7546771E-02  0.1193743E+00
          1   -1    0    0  501    0  0.00000000000E+00  0.00000000000E+00  0.49347600378E+03  0.49347600378E+03  0.00000000000E+00 0. -1.
         -1   -1    0    0    0  501 -0.00000000000E+00 -0.00000000000E+00 -0.45632779103E+02  0.45632779103E+02  0.00000000000E+00 0.  1.
         23    2    1    2    0    0 -0.94657292896E+02 -0.41037007874E+02  0.21834734235E+03  0.25815041040E+03  0.91225179451E+02 0.  0.
         23    2    1    2    0    0  0.94657292896E+02  0.41037007874E+02  0.22949588232E+03  0.28095837248E+03  0.12500083179E+03 0.  0.
          5    1    4    4  502    0  0.18200243976E+02 -0.40614141528E+02  0.36121246903E+02  0.57511667083E+02  0.47000000000E+01 0. -1.
         -5    1    4    4    0  502  0.76457048919E+02  0.81651149402E+02  0.19337463542E+03  0.22344670539E+03  0.47000000000E+01 0. -1.
        -11    1    3    3    0    0 -0.84270970225E+02  0.72121367879E+01  0.10728068595E+03  0.13661170125E+03  0.00000000000E+00 0. -1.
         11    1    3    3    0    0 -0.10386322671E+02 -0.48249144662E+02  0.11106665640E+03  0.12153870916E+03  0.00000000000E+00 0.  1.
<mgrwt>
<rscale>  0 0.15561091E+03</rscale>
<asrwt>0</asrwt>
<pdfrwt beam="1">  1        1 0.75919382E-01 0.16207790E+03</pdfrwt>
<pdfrwt beam="2">  1       -1 0.70204279E-02 0.16207790E+03</pdfrwt>
<totfact> 0.47075565E+03</totfact>
</mgrwt>
</event>
<event>
 8    1  0.7550631E-006  0.1836674E+03  0.7546771E-02  0.1169586E+00
          2   -1    0    0  501    0  0.00000000000E+00  0.00000000000E+00  0.23759800791E+04  0.23759800791E+04  0.00000000000E+00 0. -1.
         -2   -1    0    0    0  501 -0.00000000000E+00 -0.00000000000E+00 -0.14030273744E+02  0.14030273744E+02  0.00000000000E+00 0.  1.
         23    2    1    2    0    0  0.10433533618E+03 -0.85064289203E+02  0.73817775970E+03  0.75588387287E+03  0.91281042272E+02 0.  0.
         23    2    1    2    0    0 -0.10433533618E+03  0.85064289203E+02  0.16237720456E+04  0.16341264800E+04  0.12494759151E+03 0.  0.
          5    1    4    4  502    0 -0.14700165005E+02  0.79304272034E+02  0.47348777384E+03  0.48033116117E+03  0.47000000000E+01 0. -1.
         -5    1    4    4    0  502 -0.89635171171E+02  0.57600171692E+01  0.11502842718E+04  0.11537953188E+04  0.47000000000E+01 0. -1.
        -11    1    3    3    0    0 -0.13217142019E+02  0.14706000655E-01  0.27107535470E+02  0.30158109004E+02  0.00000000000E+00 0.  1.
         11    1    3    3    0    0  0.11755247819E+03 -0.85078995203E+02  0.71107022423E+03  0.72572576387E+03  0.00000000000E+00 0. -1.
<mgrwt>
<rscale>  0 0.17817035E+03</rscale>
<asrwt>0</asrwt>
<pdfrwt beam="1">  1        2 0.36553508E+00 0.18366735E+03</pdfrwt>
<pdfrwt beam="2">  1       -2 0.21585055E-02 0.18366735E+03</pdfrwt>
<totfact> 0.32490135E+03</totfact>
</mgrwt>
</event>
<event>
 8    1  0.7550631E-006  0.1930756E+03  0.7546771E-02  0.1159452E+00
         -2   -1    0    0    0  501 -0.00000000000E+00  0.00000000000E+00  0.22252924261E+03  0.22252924261E+03  0.00000000000E+00 0.  1.
          2   -1    0    0  501    0  0.00000000000E+00 -0.00000000000E+00 -0.18938706784E+04  0.18938706784E+04  0.00000000000E+00 0. -1.
         23    2    1    2    0    0 -0.14772266137E+03  0.35868310852E+02  0.18153447469E+03  0.25349162231E+03  0.90524674390E+02 0.  0.
         23    2    1    2    0    0  0.14772266137E+03 -0.35868310852E+02 -0.18528759105E+04  0.18629082987E+04  0.11903642007E+03 0.  0.
          5    1    4    4  502    0  0.80493630941E+02 -0.21559302890E+02 -0.41108638829E+03  0.41947364256E+03  0.47000000000E+01 0. -1.
         -5    1    4    4    0  502  0.67229030429E+02 -0.14309007962E+02 -0.14417895222E+04  0.14434346561E+04  0.47000000000E+01 0.  1.
        -11    1    3    3    0    0 -0.14885584388E+03  0.49065415292E+02  0.14091303794E+03  0.21076518094E+03  0.00000000000E+00 0.  1.
         11    1    3    3    0    0  0.11331825097E+01 -0.13197104440E+02  0.40621436755E+02  0.42726441371E+02  0.00000000000E+00 0. -1.
<mgrwt>
<rscale>  0 0.18890533E+03</rscale>
<asrwt>0</asrwt>
<pdfrwt beam="2">  1        2 0.29136471E+00 0.19307561E+03</pdfrwt>
<pdfrwt beam="1">  1       -2 0.34235269E-01 0.19307561E+03</pdfrwt>
<totfact> 0.70464785E+01</totfact>
</mgrwt>
</event>
<event>
 8    1  0.7550631E-006  0.1204573E+03  0.7546771E-02  0.1253974E+00
         -1   -1    0    0    0  501 -0.00000000000E+00  0.00000000000E+00  0.13222060368E+03  0.13222060368E+03  0.00000000000E+00 0.  1.
          1   -1    0    0  501    0  0.00000000000E+00 -0.00000000000E+00 -0.12865947956E+03  0.12865947956E+03  0.00000000000E+00 0. -1.
         23    2    1    2    0    0 -0.78166848302E+01  0.29754987885E+02  0.74527010845E+02  0.12107266683E+03  0.90320847223E+02 0.  0.
         23    2    1    2    0    0  0.78166848302E+01 -0.29754987885E+02 -0.70965886719E+02  0.13980741641E+03  0.11646242630E+03 0.  0.
          5    1    4    4  502    0 -0.26688836367E+02 -0.57082275149E+02 -0.71654172129E+02  0.95535807456E+02  0.47000000000E+01 0. -1.
         -5    1    4    4    0  502  0.34505521197E+02  0.27327287264E+02  0.68828540915E+00  0.44271608951E+02  0.47000000000E+01 0.  1.
        -11    1    3    3    0    0 -0.32818119827E+02  0.16308633918E+02  0.83592203984E+02  0.91272433386E+02  0.00000000000E+00 0.  1.
         11    1    3    3    0    0  0.25001434997E+02  0.13446353967E+02 -0.90651931390E+01  0.29800233448E+02  0.00000000000E+00 0. -1.
<mgrwt>
<rscale>  0 0.11363986E+03</rscale>
<asrwt>0</asrwt>
<pdfrwt beam="2">  1        1 0.19793766E-01 0.12045728E+03</pdfrwt>
<pdfrwt beam="1">  1       -1 0.20341631E-01 0.12045728E+03</pdfrwt>
<totfact> 0.48136725E+03</totfact>
</mgrwt>
</event>
<event>
 8    1  0.7550631E-006  0.1351163E+03  0.7546771E-02  0.1232888E+00
         -1   -1    0    0    0  501 -0.00000000000E+00  0.00000000000E+00  0.13411968833E+02  0.13411968833E+02  0.00000000000E+00 0.  1.
          1   -1    0    0  501    0  0.00000000000E+00 -0.00000000000E+00 -0.15604147354E+04  0.15604147354E+04  0.00000000000E+00 0. -1.
         23    2    1    2    0    0 -0.51203321152E+02 -0.27971401384E+01 -0.26142978958E+03  0.28117273261E+03  0.89905320146E+02 0.  0.
         23    2    1    2    0    0  0.51203321152E+02  0.27971401384E+01 -0.12855729770E+04  0.12926539716E+04  0.12500722826E+03 0.  0.
          5    1    4    4  502    0  0.50942940466E+02  0.57632107884E+02 -0.87922501033E+03  0.88259580320E+03  0.47000000000E+01 0. -1.
         -5    1    4    4    0  502  0.26038068610E+00 -0.54834967745E+02 -0.40634796664E+03  0.41005816841E+03  0.47000000000E+01 0. -1.
        -11    1    3    3    0    0 -0.30278523018E+02 -0.35359010756E+02 -0.59396174874E+02  0.75464920244E+02  0.00000000000E+00 0.  1.
         11    1    3    3    0    0 -0.20924798134E+02  0.32561870617E+02 -0.20203361471E+03  0.20570781236E+03  0.00000000000E+00 0. -1.
<mgrwt>
<rscale>  0 0.12640594E+03</rscale>
<asrwt>0</asrwt>
<pdfrwt beam="2">  1        1 0.24006396E+00 0.13511629E+03</pdfrwt>
<pdfrwt beam="1">  1       -1 0.20633785E-02 0.13511629E+03</pdfrwt>
<totfact> 0.42180409E+03</totfact>
</mgrwt>
</event>
<event>
 8    1  0.7550631E-006  0.2009909E+03  0.7546771E-02  0.1153226E+00
         -2   -1    0    0    0  501 -0.00000000000E+00  0.00000000000E+00  0.90254441578E+02  0.90254441578E+02  0.00000000000E+00 0.  1.
          2   -1    0    0  501    0  0.00000000000E+00 -0.00000000000E+00 -0.46715589614E+03  0.46715589614E+03  0.00000000000E+00 0. -1.
         23    2    1    2    0    0  0.40560352447E+02 -0.15207092210E+03 -0.78708496399E+02  0.19780444118E+03  0.90337489492E+02 0.  0.
         23    2    1    2    0    0 -0.40560352447E+02  0.15207092210E+03 -0.29819295816E+03  0.35960589653E+03  0.12500661177E+03 0.  0.
          5    1    4    4  502    0 -0.66578106079E+02  0.53985610598E+02 -0.73480589298E+02  0.11299812992E+03  0.47000000000E+01 0. -1.
         -5    1    4    4    0  502  0.26017753632E+02  0.98085311501E+02 -0.22471236886E+03  0.24660776662E+03  0.47000000000E+01 0. -1.
        -11    1    3    3    0    0 -0.15045693219E+02 -0.11140693703E+03 -0.52866817536E+02  0.12422873621E+03  0.00000000000E+00 0.  1.
         11    1    3    3    0    0  0.55606045666E+02 -0.40663985065E+02 -0.25841678863E+02  0.73575704974E+02  0.00000000000E+00 0. -1.
<mgrwt>
<rscale>  0 0.19592232E+03</rscale>
<asrwt>0</asrwt>
<pdfrwt beam="2">  1        2 0.71870137E-01 0.20099095E+03</pdfrwt>
<pdfrwt beam="1">  1       -2 0.13885299E-01 0.20099095E+03</pdfrwt>
<totfact> 0.25857776E+03</totfact>
</mgrwt>
</event>
<event>
 8    1  0.7550631E-006  0.1483988E+03  0.7546771E-02  0.1211094E+00
         -4   -1    0    0    0  501 -0.00000000000E+00  0.00000000000E+00  0.10921924492E+03  0.10921924492E+03  0.00000000000E+00 0.  1.
          4   -1    0    0  501    0  0.00000000000E+00 -0.00000000000E+00 -0.16922641653E+03  0.16922641653E+03  0.00000000000E+00 0. -1.
         23    2    1    2    0    0 -0.45626695023E+02 -0.65693331288E+02 -0.32924407940E+02  0.12759581423E+03  0.93804403398E+02 0.  0.
         23    2    1    2    0    0  0.45626695023E+02  0.65693331288E+02 -0.27082763667E+02  0.15084984722E+03  0.12499916497E+03 0.  0.
          5    1    4    4  502    0  0.19797654905E+02  0.88531539494E+02  0.19298170554E+02  0.92867055577E+02  0.47000000000E+01 0.  1.
         -5    1    4    4    0  502  0.25829040118E+02 -0.22838208206E+02 -0.46380934221E+02  0.57982791643E+02  0.47000000000E+01 0.  1.
        -11    1    3    3    0    0  0.77018948273E+01 -0.42917603903E+02 -0.50769386516E+02  0.66923617026E+02  0.00000000000E+00 0. -1.
         11    1    3    3    0    0 -0.53328589851E+02 -0.22775727385E+02  0.17844978576E+02  0.60672197206E+02  0.00000000000E+00 0.  1.
<mgrwt>
<rscale>  0 0.14167439E+03</rscale>
<asrwt>0</asrwt>
<pdfrwt beam="2">  1        4 0.26034833E-01 0.14839879E+03</pdfrwt>
<pdfrwt beam="1">  1       -4 0.16802961E-01 0.14839879E+03</pdfrwt>
<totfact> 0.72148384E+02</totfact>
</mgrwt>
</event>
<event>
 8    1  0.7550631E-006  0.1353479E+03  0.7546771E-02  0.1231066E+00
         -3   -1    0    0    0  501 -0.00000000000E+00  0.00000000000E+00  0.34370345523E+03  0.34370345523E+03  0.00000000000E+00 0.  1.
          3   -1    0    0  501    0  0.00000000000E+00 -0.00000000000E+00 -0.50144490432E+02  0.50144490432E+02  0.00000000000E+00 0. -1.
         23    2    1    2    0    0  0.51391490400E+02  0.72669217701E+01  0.20760419834E+03  0.23351302441E+03  0.93460879319E+02 0.  0.
         23    2    1    2    0    0 -0.51391490400E+02 -0.72669217701E+01  0.85954766459E+02  0.16033492125E+03  0.12500068663E+03 0.  0.
          5    1    4    4  502    0 -0.57806403020E+02 -0.55384200355E+02  0.76150422769E+02  0.11058918015E+03  0.47000000000E+01 0. -1.
         -5    1    4    4    0  502  0.64149126195E+01  0.48117278585E+02  0.98043436901E+01  0.49745741099E+02  0.47000000000E+01 0. -1.
        -11    1    3    3    0    0 -0.14251538873E+01  0.30167770632E+02  0.14642584435E+03  0.14950803771E+03  0.00000000000E+00 0. -1.
         11    1    3    3    0    0  0.52816644287E+02 -0.22900848862E+02  0.61178353991E+02  0.84004986693E+02  0.00000000000E+00 0.  1.
<mgrwt>
<rscale>  0 0.12759656E+03</rscale>
<asrwt>0</asrwt>
<pdfrwt beam="2">  1        3 0.77145372E-02 0.13534794E+03</pdfrwt>
<pdfrwt beam="1">  1       -3 0.52877453E-01 0.13534794E+03</pdfrwt>
<totfact> 0.93180726E+02</totfact>
</mgrwt>
</event>
<event>
 8    1  0.7550631E-006  0.2949726E+03  0.7546771E-02  0.1090417E+00
          2   -1    0    0  501    0  0.00000000000E+00  0.00000000000E+00  0.16525223106E+04  0.16525223106E+04  0.00000000000E+00 0. -1.
         -2   -1    0    0    0  501 -0.00000000000E+00 -0.00000000000E+00 -0.83413722861E+02  0.83413722861E+02  0.00000000000E+00 0.  1.
         23    2    1    2    0    0 -0.17567084541E+03  0.20130818066E+03  0.21242831003E+03  0.34755921353E+03  0.65470531387E+02 0.  0.
         23    2    1    2    0    0  0.17567084541E+03 -0.20130818066E+03  0.13566802778E+04  0.13883768200E+04  0.12499435453E+03 0.  0.
          5    1    4    4  502    0  0.35893736816E+02 -0.67892684822E+00  0.71621789197E+02  0.80253298824E+02  0.47000000000E+01 0.  1.
         -5    1    4    4    0  502  0.13977710859E+03 -0.20062925382E+03  0.12850584886E+04  0.13081235211E+04  0.47000000000E+01 0.  1.
        -11    1    3    3    0    0 -0.16576465040E+03  0.17240967291E+03  0.16293626457E+03  0.28939806659E+03  0.00000000000E+00 0.  1.
         11    1    3    3    0    0 -0.99061950143E+01  0.28898507758E+02  0.49492045458E+02  0.58161146945E+02  0.00000000000E+00 0. -1.
<mgrwt>
<rscale>  0 0.28986972E+03</rscale>
<asrwt>0</asrwt>
<pdfrwt beam="1">  1        2 0.25423418E+00 0.29497257E+03</pdfrwt>
<pdfrwt beam="2">  1       -2 0.12832882E-01 0.29497257E+03</pdfrwt>
<totfact> 0.50147737E+02</totfact>
</mgrwt>
</event>
<event>
 8    1  0.7550631E-006  0.1265692E+03  0.7546771E-02  0.1246933E+00
          1   -1    0    0  501    0  0.00000000000E+00  0.00000000000E+00  0.23179386679E+03  0.23179386679E+03  0.00000000000E+00 0. -1.
         -1   -1    0    0    0  501 -0.00000000000E+00 -0.00000000000E+00 -0.58989525075E+02  0.58989525075E+02  0.00000000000E+00 0.  1.
         23    2    1    2    0    0 -0.18354432520E+02  0.75860482595E+01  0.28552315273E+02  0.98876083137E+02  0.92557073137E+02 0.  0.
         23    2    1    2    0    0  0.18354432520E+02 -0.75860482595E+01  0.14425202644E+03  0.19190730873E+03  0.12500133875E+03 0.  0.
          5    1    4    4  502    0  0.59647851324E+02 -0.32917665991E+02  0.46229706474E+02  0.82466445676E+02  0.47000000000E+01 0.  1.
         -5    1    4    4    0  502 -0.41293418804E+02  0.25331617732E+02  0.98022319967E+02  0.10944086305E+03  0.47000000000E+01 0.  1.
        -11    1    3    3    0    0  0.22765470732E+02 -0.30867037482E+02  0.12327467595E+02  0.40286562498E+02  0.00000000000E+00 0.  1.
         11    1    3    3    0    0 -0.41119903252E+02  0.38453085742E+02  0.16224847679E+02  0.58589520639E+02  0.00000000000E+00 0. -1.
<mgrwt>
<rscale>  0 0.11770425E+03</rscale>
<asrwt>0</asrwt>
<pdfrwt beam="1">  1        1 0.35660595E-01 0.12656922E+03</pdfrwt>
<pdfrwt beam="2">  1       -1 0.90753116E-02 0.12656922E+03</pdfrwt>
<totfact> 0.81209751E+03</totfact>
</mgrwt>
</event>
<event>
 7    1  0.7550631E-006  0.1462738E+03  0.7546771E-02  0.1218106E+00
         -2   -1    0    0    0  501 -0.00000000000E+00  0.00000000000E+00  0.60686812363E+02  0.60686812363E+02  0.00000000000E+00 0.  1.
          2   -1    0    0  501    0  0.00000000000E+00 -0.00000000000E+00 -0.29499811324E+03  0.29499811324E+03  0.00000000000E+00 0. -1.
         23    2    1    2    0    0 -0.63202445563E+02 -0.12467344026E+02 -0.53679630694E+02  0.12325465857E+03  0.90333959927E+02 0.  0.
          5    1    1    2  502    0  0.67636234532E+02  0.40594836647E+02 -0.18688045245E+03  0.20290144034E+03  0.47000000000E+01 0. -1.
         -5    1    1    2    0  502 -0.44337889689E+01 -0.28127492621E+02  0.62487822690E+01  0.29528826689E+02  0.47000000000E+01 0.  1.
        -11    1    3    3    0    0 -0.40293064610E+02  0.26390459621E+02 -0.60822135577E+02  0.77584274121E+02  0.00000000000E+00 0.  1.
         11    1    3    3    0    0 -0.22909380953E+02 -0.38857803648E+02  0.71425048825E+01  0.45670384452E+02  0.00000000000E+00 0. -1.
<mgrwt>
<rscale>  0 0.13650800E+03</rscale>
<asrwt>0</asrwt>
<pdfrwt beam="2">  1        2 0.45384325E-01 0.14627381E+03</pdfrwt>
<pdfrwt beam="1">  1       -2 0.93364328E-02 0.14627381E+03</pdfrwt>
<totfact> 0.78762157E+03</totfact>
</mgrwt>
</event>
<event>
 8    1  0.7550631E-006  0.1751515E+03  0.7546771E-02  0.1178667E+00
         -2   -1    0    0    0  501 -0.00000000000E+00  0.00000000000E+00  0.42636268180E+02  0.42636268180E+02  0.00000000000E+00 0.  1.
          2   -1    0    0  501    0  0.00000000000E+00 -0.00000000000E+00 -0.65764700344E+03  0.65764700344E+03  0.00000000000E+00 0. -1.
         23    2    1    2    0    0  0.11465874365E+03  0.43667227662E+02 -0.21540382043E+03  0.26397632870E+03  0.90726192430E+02 0.  0.
         23    2    1    2    0    0 -0.11465874365E+03 -0.43667227662E+02 -0.39960691483E+03  0.43630694292E+03  0.12499843114E+03 0.  0.
          5    1    4    4  502    0 -0.11791417081E+03 -0.47368413119E+02 -0.20271222601E+03  0.23929449391E+03  0.47000000000E+01 0.  1.
         -5    1    4    4    0  502  0.32554271573E+01  0.37011854568E+01 -0.19689468882E+03  0.19701244901E+03  0.47000000000E+01 0.  1.
        -11    1    3    3    0    0  0.24858467585E+01  0.31861348001E+02 -0.18153211702E+02  0.36754102161E+02  0.00000000000E+00 0.  1.
         11    1    3    3    0    0  0.11217289689E+03  0.11805879661E+02 -0.19725060873E+03  0.22722222654E+03  0.00000000000E+00 0. -1.
<mgrwt>
<rscale>  0 0.16921712E+03</rscale>
<asrwt>0</asrwt>
<pdfrwt beam="2">  1        2 0.10117645E+00 0.17515154E+03</pdfrwt>
<pdfrwt beam="1">  1       -2 0.65594264E-02 0.17515154E+03</pdfrwt>
<totfact> 0.57050050E+03</totfact>
</mgrwt>
</event>
<event>
 8    1  0.7550631E-006  0.1436604E+03  0.7546771E-02  0.1218101E+00
         -1   -1    0    0    0  501 -0.00000000000E+00  0.00000000000E+00  0.54349033370E+03  0.54349033370E+03  0.00000000000E+00 0.  1.
          1   -1    0    0  501    0  0.00000000000E+00 -0.00000000000E+00 -0.38633662489E+02  0.38633662489E+02  0.00000000000E+00 0. -1.
         23    2    1    2    0    0 -0.57858781988E+02 -0.40813981779E+02  0.35804410650E+03  0.37671653250E+03  0.93307791210E+02 0.  0.
         23    2    1    2    0    0  0.57858781988E+02  0.40813981779E+02  0.14681256472E+03  0.20540746369E+03  0.12499950888E+03 0.  0.
          5    1    4    4  502    0  0.33492735933E+02 -0.43028034830E+02  0.42481593889E+02  0.69281678393E+02  0.47000000000E+01 0.  1.
         -5    1    4    4    0  502  0.24366046055E+02  0.83842016609E+02  0.10433097083E+03  0.13612578530E+03  0.47000000000E+01 0.  1.
        -11    1    3    3    0    0 -0.78688055436E+02 -0.47657216486E+02  0.31828471831E+03  0.33131281632E+03  0.00000000000E+00 0.  1.
         11    1    3    3    0    0  0.20829273448E+02  0.68432347073E+01  0.39759388190E+02  0.45403716179E+02  0.00000000000E+00 0. -1.
<mgrwt>
<rscale>  0 0.13651206E+03</rscale>
<asrwt>0</asrwt>
<pdfrwt beam="2">  1        1 0.59436408E-02 0.14366035E+03</pdfrwt>
<pdfrwt beam="1">  1       -1 0.83613892E-01 0.14366035E+03</pdfrwt>
<totfact> 0.18973457E+03</totfact>
</mgrwt>
</event>
<event>
 8    1  0.7550631E-006  0.1577678E+03  0.7546771E-02  0.1200372E+00
         -1   -1    0    0    0  501 -0.00000000000E+00  0.00000000000E+00  0.16551969017E+02  0.16551969017E+02  0.00000000000E+00 0.  1.
          1   -1    0    0  501    0  0.00000000000E+00 -0.00000000000E+00 -0.18801994971E+04  0.18801994971E+04  0.00000000000E+00 0. -1.
         23    2    1    2    0    0 -0.58590349197E+02 -0.76359595771E+02 -0.32051995903E+03  0.34557985779E+03  0.86190353774E+02 0.  0.
         23    2    1    2    0    0  0.58590349197E+02  0.76359595771E+02 -0.15431275690E+04  0.15511716083E+04  0.12500818871E+03 0.  0.
          5    1    4    4  502    0  0.15013301462E+02 -0.22280306126E+02 -0.90033871700E+02  0.94074434971E+02  0.47000000000E+01 0.  1.
         -5    1    4    4    0  502  0.43577047736E+02  0.98639901898E+02 -0.14530936973E+04  0.14570971733E+04  0.47000000000E+01 0.  1.
        -11    1    3    3    0    0  0.22487949118E+02 -0.16920926782E+02 -0.83712842525E+02  0.88316847896E+02  0.00000000000E+00 0.  1.
         11    1    3    3    0    0 -0.81078298315E+02 -0.59438668990E+02 -0.23680711651E+03  0.25726300989E+03  0.00000000000E+00 0. -1.
<mgrwt>
<rscale>  0 0.15008197E+03</rscale>
<asrwt>0</asrwt>
<pdfrwt beam="2">  1        1 0.28926151E+00 0.15776775E+03</pdfrwt>
<pdfrwt beam="1">  1       -1 0.25464563E-02 0.15776775E+03</pdfrwt>
<totfact> 0.19442921E+03</totfact>
</mgrwt>
</event>
<event>
 8    1  0.7550631E-006  0.1698391E+03  0.7546771E-02  0.1184635E+00
         -2   -1    0    0    0  501 -0.00000000000E+00  0.00000000000E+00  0.29589206568E+03  0.29589206568E+03  0.00000000000E+00 0.  1.
          2   -1    0    0  501    0  0.00000000000E+00 -0.00000000000E+00 -0.86868960243E+02  0.86868960243E+02  0.00000000000E+00 0. -1.
         23    2    1    2    0    0  0.49396869824E+02 -0.10382574921E+03  0.12849727482E+03  0.19479901205E+03  0.90638118438E+02 0.  0.
         23    2    1    2    0    0 -0.49396869824E+02  0.10382574921E+03  0.80525830624E+02  0.18796201387E+03  0.12500188924E+03 0.  0.
          5    1    4    4  502    0 -0.16300228066E+02 -0.28124480968E+02  0.83404136242E+01  0.33887112065E+02  0.47000000000E+01 0.  1.
         -5    1    4    4    0  502 -0.33096641758E+02  0.13195023018E+03  0.72185417000E+02  0.15407490181E+03  0.47000000000E+01 0.  1.
        -11    1    3    3    0    0  0.61886486510E+02 -0.63901534372E+02  0.12416571765E+03  0.15274314632E+03  0.00000000000E+00 0.  1.
         11    1    3    3    0    0 -0.12489616686E+02 -0.39924214838E+02  0.43315571698E+01  0.42055865737E+02  0.00000000000E+00 0. -1.
<mgrwt>
<rscale>  0 0.16365109E+03</rscale>
<asrwt>0</asrwt>
<pdfrwt beam="2">  1        2 0.13364456E-01 0.16983907E+03</pdfrwt>
<pdfrwt beam="1">  1       -2 0.45521856E-01 0.16983907E+03</pdfrwt>
<totfact> 0.20292249E+03</totfact>
</mgrwt>
</event>
<event>
 8    1  0.7550631E-006  0.1464572E+03  0.7546771E-02  0.1217650E+00
          1   -1    0    0  501    0  0.00000000000E+00  0.00000000000E+00  0.13823235242E+04  0.13823235242E+04  0.00000000000E+00 0. -1.
         -1   -1    0    0    0  501 -0.00000000000E+00 -0.00000000000E+00 -0.14200081958E+02  0.14200081958E+02  0.00000000000E+00 0.  1.
         23    2    1    2    0    0  0.47835196398E+02 -0.59470537959E+02  0.33572782760E+03  0.35379141443E+03  0.81426284462E+02 0.  0.
         23    2    1    2    0    0 -0.47835196398E+02  0.59470537959E+02  0.10323956146E+04  0.10427321917E+04  0.12499907051E+03 0.  0.
          5    1    4    4  502    0 -0.82031444662E+02  0.53163735841E+02  0.91461009699E+03  0.91983110419E+03  0.47000000000E+01 0.  1.
         -5    1    4    4    0  502  0.34196248263E+02  0.63068021188E+01  0.11778551761E+03  0.12290108749E+03  0.47000000000E+01 0.  1.
        -11    1    3    3    0    0  0.19607961977E+02 -0.72018382504E+00  0.10813006650E+02  0.22403391494E+02  0.00000000000E+00 0.  1.
         11    1    3    3    0    0  0.28227234422E+02 -0.58750354134E+02  0.32491482095E+03  0.33138802294E+03  0.00000000000E+00 0. -1.
<mgrwt>
<rscale>  0 0.13683648E+03</rscale>
<asrwt>0</asrwt>
<pdfrwt beam="1">  1        1 0.21266505E+00 0.14645722E+03</pdfrwt>
<pdfrwt beam="2">  1       -1 0.21846291E-02 0.14645722E+03</pdfrwt>
<totfact> 0.50848421E+03</totfact>
</mgrwt>
</event>
<event>
 8    1  0.7550631E-006  0.1267268E+03  0.7546771E-02  0.1247628E+00
          1   -1    0    0  501    0  0.00000000000E+00  0.00000000000E+00  0.12374728424E+04  0.12374728424E+04  0.00000000000E+00 0. -1.
         -1   -1    0    0    0  501 -0.00000000000E+00 -0.00000000000E+00 -0.11689059548E+02  0.11689059548E+02  0.00000000000E+00 0.  1.
         23    2    1    2    0    0  0.20692093220E+02  0.25779910384E+01  0.28279490673E+03  0.29769581546E+03  0.90636805511E+02 0.  0.
         23    2    1    2    0    0 -0.20692093220E+02 -0.25779910384E+01  0.94298887609E+03  0.95146608645E+03  0.12499953790E+03 0.  0.
          5    1    4    4  502    0  0.51799602679E+02 -0.12265958640E+02  0.39615647482E+03  0.39974453733E+03  0.47000000000E+01 0. -1.
         -5    1    4    4    0  502 -0.72491695899E+02  0.96879676018E+01  0.54683240126E+03  0.55172154912E+03  0.47000000000E+01 0. -1.
        -11    1    3    3    0    0  0.53663742697E+02  0.17912410437E+02  0.16658402297E+03  0.17592864587E+03  0.00000000000E+00 0.  1.
         11    1    3    3    0    0 -0.32971649477E+02 -0.15334419399E+02  0.11621088376E+03  0.12176716960E+03  0.00000000000E+00 0. -1.
<mgrwt>
<rscale>  0 0.11729445E+03</rscale>
<asrwt>0</asrwt>
<pdfrwt beam="1">  1        1 0.19038033E+00 0.12672684E+03</pdfrwt>
<pdfrwt beam="2">  1       -1 0.17983178E-02 0.12672684E+03</pdfrwt>
<totfact> 0.83622970E+03</totfact>
</mgrwt>
</event>
<event>
 7    1  0.7550631E-006  0.2255444E+03  0.7546771E-02  0.1165201E+00
          2   -1    0    0  501    0  0.00000000000E+00  0.00000000000E+00  0.19777840609E+03  0.19777840609E+03  0.00000000000E+00 0. -1.
         -2   -1    0    0    0  501 -0.00000000000E+00 -0.00000000000E+00 -0.13186347078E+03  0.13186347078E+03  0.00000000000E+00 0.  1.
         23    2    1    2    0    0 -0.13327940956E+02 -0.25995876301E+02  0.13345705070E+02  0.98052153108E+02  0.92642848027E+02 0.  0.
          5    1    1    2  502    0  0.11727339131E+03  0.15728236414E+02  0.10481398095E+02  0.11887966789E+03  0.47000000000E+01 0. -1.
         -5    1    1    2    0  502 -0.10394545036E+03  0.10267639887E+02  0.42087832146E+02  0.11271005587E+03  0.47000000000E+01 0.  1.
        -11    1    3    3    0    0 -0.49522066852E+02 -0.11392496355E+02  0.25923917019E+02  0.57046240473E+02  0.00000000000E+00 0.  1.
         11    1    3    3    0    0  0.36194125896E+02 -0.14603379946E+02 -0.12578211949E+02  0.41005912635E+02  0.00000000000E+00 0. -1.
<mgrwt>
<rscale>  0 0.18271458E+03</rscale>
<asrwt>0</asrwt>
<pdfrwt beam="1">  1        2 0.30427447E-01 0.22554440E+03</pdfrwt>
<pdfrwt beam="2">  1       -2 0.20286688E-01 0.22554440E+03</pdfrwt>
<totfact> 0.34942713E+03</totfact>
</mgrwt>
</event>
<event>
 8    1  0.7550631E-006  0.1320021E+03  0.7546771E-02  0.1237649E+00
         -1   -1    0    0    0  501 -0.00000000000E+00  0.00000000000E+00  0.15772257311E+03  0.15772257311E+03  0.00000000000E+00 0.  1.
          1   -1    0    0  501    0  0.00000000000E+00 -0.00000000000E+00 -0.89559321241E+02  0.89559321241E+02  0.00000000000E+00 0. -1.
         23    2    1    2    0    0  0.31104560028E+01 -0.42292943477E+02  0.54707687419E+02  0.11459576411E+03  0.91328473567E+02 0.  0.
         23    2    1    2    0    0 -0.31104560028E+01  0.42292943477E+02  0.13455564446E+02  0.13268613024E+03  0.12500475566E+03 0.  0.
          5    1    4    4  502    0  0.29895991301E+02  0.35535604020E+02 -0.45139556577E+02  0.64932418844E+02  0.47000000000E+01 0. -1.
         -5    1    4    4    0  502 -0.33006447304E+02  0.67573394575E+01  0.58595121023E+02  0.67753711395E+02  0.47000000000E+01 0. -1.
        -11    1    3    3    0    0 -0.14948061389E+02 -0.27262161349E+02  0.76483264313E+02  0.82561248178E+02  0.00000000000E+00 0.  1.
         11    1    3    3    0    0  0.18058517392E+02 -0.15030782128E+02 -0.21775576894E+02  0.32034515930E+02  0.00000000000E+00 0. -1.
<mgrwt>
<rscale>  0 0.12336343E+03</rscale>
<asrwt>0</asrwt>
<pdfrwt beam="2">  1        1 0.13778357E-01 0.13200211E+03</pdfrwt>
<pdfrwt beam="1">  1       -1 0.24265011E-01 0.13200211E+03</pdfrwt>
<totfact> 0.57958532E+03</totfact>
</mgrwt>
</event>
<event>
 8    1  0.7550631E-006  0.1669581E+03  0.7546771E-02  0.1187952E+00
          2   -1    0    0  501    0  0.00000000000E+00  0.00000000000E+00  0.37121696476E+02  0.37121696476E+02  0.00000000000E+00 0. -1.
         -2   -1    0    0    0  501 -0.00000000000E+00 -0.00000000000E+00 -0.64770689567E+03  0.64770689567E+03  0.00000000000E+00 0.  1.
         23    2    1    2    0    0 -0.19805726383E+02 -0.10888911583E+03 -0.28370129948E+03  0.31777533083E+03  0.90805436030E+02 0.  0.
         23    2    1    2    0    0  0.19805726383E+02  0.10888911583E+03 -0.32688389971E+03  0.36705326131E+03  0.12500362558E+03 0.  0.
          5    1    4    4  502    0 -0.99751210282E+01  0.56440337321E+02 -0.31563265482E+02  0.65599881435E+02  0.47000000000E+01 0. -1.
         -5    1    4    4    0  502  0.29780847411E+02  0.52448778512E+02 -0.29532063422E+03  0.30145337988E+03  0.47000000000E+01 0. -1.
        -11    1    3    3    0    0 -0.37130962493E+02 -0.68950439911E+02 -0.90269657741E+02  0.11950515741E+03  0.00000000000E+00 0. -1.
         11    1    3    3    0    0  0.17325236110E+02 -0.39938675921E+02 -0.19343164174E+03  0.19827017342E+03  0.00000000000E+00 0.  1.
<mgrwt>
<rscale>  0 0.16066117E+03</rscale>
<asrwt>0</asrwt>
<pdfrwt beam="1">  1        2 0.57110298E-02 0.16695812E+03</pdfrwt>
<pdfrwt beam="2">  1       -2 0.99647223E-01 0.16695812E+03</pdfrwt>
<totfact> 0.11166277E+03</totfact>
</mgrwt>
</event>
<event>
 8    1  0.7550631E-006  0.1303278E+03  0.7546771E-02  0.1243037E+00
          1   -1    0    0  501    0  0.00000000000E+00  0.00000000000E+00  0.61055706842E+03  0.61055706842E+03  0.00000000000E+00 0. -1.
         -1   -1    0    0    0  501 -0.00000000000E+00 -0.00000000000E+00 -0.21633082942E+02  0.21633082942E+02  0.00000000000E+00 0.  1.
         23    2    1    2    0    0  0.35696212455E+02 -0.93138790871E+01  0.17951557251E+03  0.20253844812E+03  0.86226528767E+02 0.  0.
         23    2    1    2    0    0 -0.35696212455E+02  0.93138790871E+01  0.40940841297E+03  0.42965170325E+03  0.12499747825E+03 0.  0.
          5    1    4    4  502    0 -0.12270610618E+02  0.44831273821E+02  0.52870897304E+02  0.70553758079E+02  0.47000000000E+01 0. -1.
         -5    1    4    4    0  502 -0.23425601837E+02 -0.35517394733E+02  0.35653751567E+03  0.35909794517E+03  0.47000000000E+01 0. -1.
        -11    1    3    3    0    0  0.48659169876E+02 -0.37032158988E+02  0.98501468082E+02  0.11593806462E+03  0.00000000000E+00 0.  1.
         11    1    3    3    0    0 -0.12962957421E+02  0.27718279901E+02  0.81014104431E+02  0.86600383501E+02  0.00000000000E+00 0. -1.
<mgrwt>
<rscale>  0 0.12003651E+03</rscale>
<asrwt>0</asrwt>
<pdfrwt beam="1">  1        1 0.93931844E-01 0.13032781E+03</pdfrwt>
<pdfrwt beam="2">  1       -1 0.33281671E-02 0.13032781E+03</pdfrwt>
<totfact> 0.10565514E+04</totfact>
</mgrwt>
</event>
<event>
 7    1  0.7550631E-006  0.2016829E+03  0.7546771E-02  0.1178621E+00
         -1   -1    0    0    0  501 -0.00000000000E+00  0.00000000000E+00  0.36955914265E+02  0.36955914265E+02  0.00000000000E+00 0.  1.
          1   -1    0    0  501    0  0.00000000000E+00 -0.00000000000E+00 -0.66368773743E+03  0.66368773743E+03  0.00000000000E+00 0. -1.
         23    2    1    2    0    0 -0.40639929093E+02 -0.19478872511E+02 -0.12648452249E+03  0.16127055388E+03  0.89324278951E+02 0.  0.
          5    1    1    2  502    0  0.25681487166E+02 -0.57440425471E+02 -0.42819337511E+03  0.43281704882E+03  0.47000000000E+01 0. -1.
         -5    1    1    2    0  502  0.14958441926E+02  0.76919297982E+02 -0.72053925567E+02  0.10655604899E+03  0.47000000000E+01 0.  1.
        -11    1    3    3    0    0 -0.65876349343E+02 -0.14616433935E+02 -0.61154477612E+02  0.91067028478E+02  0.00000000000E+00 0.  1.
         11    1    3    3    0    0  0.25236420251E+02 -0.48624385761E+01 -0.65330044876E+02  0.70203525406E+02  0.00000000000E+00 0. -1.
<mgrwt>
<rscale>  0 0.16926035E+03</rscale>
<asrwt>0</asrwt>
<pdfrwt beam="2">  1        1 0.10210580E+00 0.20168286E+03</pdfrwt>
<pdfrwt beam="1">  1       -1 0.56855254E-02 0.20168286E+03</pdfrwt>
<totfact> 0.43582890E+03</totfact>
</mgrwt>
</event>
<event>
 8    1  0.7550631E-006  0.1354101E+03  0.7546771E-02  0.1229764E+00
         -1   -1    0    0    0  501 -0.00000000000E+00  0.00000000000E+00  0.29422123993E+02  0.29422123993E+02  0.00000000000E+00 0.  1.
          1   -1    0    0  501    0  0.00000000000E+00 -0.00000000000E+00 -0.54141428543E+03  0.54141428543E+03  0.00000000000E+00 0. -1.
         23    2    1    2    0    0 -0.25561659453E+02 -0.45363636575E+02 -0.16263254783E+03  0.19615248322E+03  0.96515248041E+02 0.  0.
         23    2    1    2    0    0  0.25561659453E+02  0.45363636575E+02 -0.34935961361E+03  0.37468392620E+03  0.12499858789E+03 0.  0.
          5    1    4    4  502    0  0.49967458083E+02  0.24479557103E+02 -0.33423973196E+03  0.33887207616E+03  0.47000000000E+01 0. -1.
         -5    1    4    4    0  502 -0.24405798630E+02  0.20884079472E+02 -0.15119881656E+02  0.35811850042E+02  0.47000000000E+01 0. -1.
        -11    1    3    3    0    0  0.18313970987E+01 -0.54815953763E+02 -0.15743100966E+03  0.16671132416E+03  0.00000000000E+00 0.  1.
         11    1    3    3    0    0 -0.27393056552E+02  0.94523171876E+01 -0.52015381695E+01  0.29441159060E+02  0.00000000000E+00 0. -1.
<mgrwt>
<rscale>  0 0.12845635E+03</rscale>
<asrwt>0</asrwt>
<pdfrwt beam="2">  1        1 0.83294494E-01 0.13541014E+03</pdfrwt>
<pdfrwt beam="1">  1       -1 0.45264812E-02 0.13541014E+03</pdfrwt>
<totfact> 0.79321689E+03</totfact>
</mgrwt>
</event>
<event>
 8    1  0.7550631E-006  0.1393016E+03  0.7546771E-02  0.1225514E+00
          3   -1    0    0  501    0  0.00000000000E+00  0.00000000000E+00  0.75845411679E+02  0.75845411679E+02  0.00000000000E+00 0. -1.
         -3   -1    0    0    0  501 -0.00000000000E+00 -0.00000000000E+00 -0.20489135832E+03  0.20489135832E+03  0.00000000000E+00 0.  1.
         23    2    1    2    0    0 -0.10787071648E+02 -0.60505246943E+02 -0.55667486494E+02  0.12329043906E+03  0.91238245761E+02 0.  0.
         23    2    1    2    0    0  0.10787071648E+02  0.60505246943E+02 -0.73378460149E+02  0.15744633094E+03  0.12501081109E+03 0.  0.
          5    1    4    4  502    0 -0.79176182747E+01  0.90331419526E+02 -0.19429564381E+02  0.92855005276E+02  0.47000000000E+01 0. -1.
         -5    1    4    4    0  502  0.18704689923E+02 -0.29826172583E+02 -0.53948895768E+02  0.64591325661E+02  0.47000000000E+01 0. -1.
        -11    1    3    3    0    0 -0.28038750294E+02 -0.68410058467E+02 -0.10984297671E+02  0.74744648054E+02  0.00000000000E+00 0. -1.
         11    1    3    3    0    0  0.17251678645E+02  0.79048115237E+01 -0.44683188824E+02  0.48545791010E+02  0.00000000000E+00 0.  1.
<mgrwt>
<rscale>  0 0.13131756E+03</rscale>
<asrwt>0</asrwt>
<pdfrwt beam="1">  1        3 0.11668525E-01 0.13930165E+03</pdfrwt>
<pdfrwt beam="2">  1       -3 0.31521747E-01 0.13930165E+03</pdfrwt>
<totfact> 0.12881559E+03</totfact>
</mgrwt>
</event>
<event>
 8    1  0.7550631E-006  0.1534733E+03  0.7546771E-02  0.1204397E+00
         -1   -1    0    0    0  501 -0.00000000000E+00  0.00000000000E+00  0.17482256088E+03  0.17482256088E+03  0.00000000000E+00 0.  1.
          1   -1    0    0  501    0  0.00000000000E+00 -0.00000000000E+00 -0.11694244691E+03  0.11694244691E+03  0.00000000000E+00 0. -1.
         23    2    1    2    0    0  0.33332619560E+02  0.82561107145E+02  0.50209881773E+02  0.13810016818E+03  0.92861317485E+02 0.  0.
         23    2    1    2    0    0 -0.33332619560E+02 -0.82561107145E+02  0.76702321955E+01  0.15366483960E+03  0.12500660194E+03 0.  0.
          5    1    4    4  502    0 -0.34519700026E+02  0.79891177543E+01 -0.37970507078E+02  0.52146765001E+02  0.47000000000E+01 0.  1.
         -5    1    4    4    0  502  0.11870804664E+01 -0.90550224899E+02  0.45640739273E+02  0.10151807460E+03  0.47000000000E+01 0.  1.
        -11    1    3    3    0    0  0.34265799692E+02  0.26884336473E+01  0.46909512191E+02  0.58153890996E+02  0.00000000000E+00 0. -1.
         11    1    3    3    0    0 -0.93318013248E+00  0.79872673497E+02  0.33003695818E+01  0.79946277187E+02  0.00000000000E+00 0.  1.
<mgrwt>
<rscale>  0 0.14685083E+03</rscale>
<asrwt>0</asrwt>
<pdfrwt beam="2">  1        1 0.17991146E-01 0.15347329E+03</pdfrwt>
<pdfrwt beam="1">  1       -1 0.26895779E-01 0.15347329E+03</pdfrwt>
<totfact> 0.34961448E+03</totfact>
</mgrwt>
</event>
<event>
 7    1  0.7550631E-006  0.1577389E+03  0.7546771E-02  0.1218136E+00
         -2   -1    0    0    0  501 -0.00000000000E+00  0.00000000000E+00  0.30211274020E+02  0.30211274020E+02  0.00000000000E+00 0.  1.
          2   -1    0    0  501    0  0.00000000000E+00 -0.00000000000E+00 -0.13751013725E+04  0.13751013725E+04  0.00000000000E+00 0. -1.
         23    2    1    2    0    0  0.16201636500E+02  0.20557755538E+01 -0.51469985377E+02  0.10230951938E+03  0.86898556500E+02 0.  0.
          5    1    1    2  502    0 -0.32541756708E+02  0.59519367974E+02 -0.10181569263E+04  0.10204249789E+04  0.47000000000E+01 0. -1.
         -5    1    1    2    0  502  0.16340120208E+02 -0.61575143528E+02 -0.27526318687E+03  0.28257814826E+03  0.47000000000E+01 0.  1.
        -11    1    3    3    0    0 -0.35289246411E+02 -0.73757111317E+01 -0.22077637538E+02  0.42274745490E+02  0.00000000000E+00 0. -1.
         11    1    3    3    0    0  0.51490882911E+02  0.94314866855E+01 -0.29392347839E+02  0.60034773886E+02  0.00000000000E+00 0.  1.
<mgrwt>
<rscale>  0 0.13648710E+03</rscale>
<asrwt>0</asrwt>
<pdfrwt beam="2">  1        2 0.21155406E+00 0.15773890E+03</pdfrwt>
<pdfrwt beam="1">  1       -2 0.46478882E-02 0.15773890E+03</pdfrwt>
<totfact> 0.34656847E+03</totfact>
</mgrwt>
</event>
<event>
 8    1  0.7550631E-006  0.1432120E+03  0.7546771E-02  0.1218283E+00
         -1   -1    0    0    0  501 -0.00000000000E+00  0.00000000000E+00  0.83130513684E+02  0.83130513684E+02  0.00000000000E+00 0.  1.
          1   -1    0    0  501    0  0.00000000000E+00 -0.00000000000E+00 -0.22382971214E+03  0.22382971214E+03  0.00000000000E+00 0. -1.
         23    2    1    2    0    0 -0.39624507255E+02  0.57574041729E+02 -0.19581575352E+02  0.11939911632E+03  0.94804214192E+02 0.  0.
         23    2    1    2    0    0  0.39624507255E+02 -0.57574041729E+02 -0.12111762311E+03  0.18756110951E+03  0.12499927726E+03 0.  0.
          5    1    4    4  502    0  0.38620050502E+02 -0.69493482489E+02 -0.14213409558E+03  0.16292649734E+03  0.47000000000E+01 0.  1.
         -5    1    4    4    0  502  0.10044567531E+01  0.11919440760E+02  0.21016472472E+02  0.24634612166E+02  0.47000000000E+01 0.  1.
        -11    1    3    3    0    0  0.17427769475E+02 -0.92131368837E+01 -0.24473084463E+02  0.31425163536E+02  0.00000000000E+00 0.  1.
         11    1    3    3    0    0 -0.57052276730E+02  0.66787178613E+02  0.48915091109E+01  0.87973952785E+02  0.00000000000E+00 0. -1.
<mgrwt>
<rscale>  0 0.13638130E+03</rscale>
<asrwt>0</asrwt>
<pdfrwt beam="2">  1        1 0.34435340E-01 0.14321205E+03</pdfrwt>
<pdfrwt beam="1">  1       -1 0.12789310E-01 0.14321205E+03</pdfrwt>
<totfact> 0.50534527E+03</totfact>
</mgrwt>
</event>
<event>
 8    1  0.7550631E-006  0.1730645E+03  0.7546771E-02  0.1181107E+00
          3   -1    0    0  501    0  0.00000000000E+00  0.00000000000E+00  0.24061395930E+03  0.24061395930E+03  0.00000000000E+00 0. -1.
         -3   -1    0    0    0  501 -0.00000000000E+00 -0.00000000000E+00 -0.12216637248E+03  0.12216637248E+03  0.00000000000E+00 0.  1.
         23    2    1    2    0    0  0.11960457881E+03  0.46305092918E+01 -0.56156035885E+01  0.14984139914E+03  0.89967844284E+02 0.  0.
         23    2    1    2    0    0 -0.11960457881E+03 -0.46305092918E+01  0.12406319041E+03  0.21293893263E+03  0.12499846771E+03 0.  0.
          5    1    4    4  502    0 -0.13784919322E+03  0.64325619912E+00  0.68443508233E+02  0.15397862732E+03  0.47000000000E+01 0. -1.
         -5    1    4    4    0  502  0.18244614419E+02 -0.52737654909E+01  0.55619682175E+02  0.58960305317E+02  0.47000000000E+01 0. -1.
        -11    1    3    3    0    0  0.80123151162E+02  0.15392278395E+02  0.38026465370E+02  0.90014741320E+02  0.00000000000E+00 0. -1.
         11    1    3    3    0    0  0.39481427643E+02 -0.10761769103E+02 -0.43642068958E+02  0.59826657820E+02  0.00000000000E+00 0.  1.
<mgrwt>
<rscale>  0 0.16691202E+03</rscale>
<asrwt>0</asrwt>
<pdfrwt beam="1">  1        3 0.37017532E-01 0.17306448E+03</pdfrwt>
<pdfrwt beam="2">  1       -3 0.18794827E-01 0.17306448E+03</pdfrwt>
<totfact> 0.43350019E+02</totfact>
</mgrwt>
</event>
<event>
 8    1  0.7550631E-006  0.1372585E+03  0.7546771E-02  0.1228760E+00
         -1   -1    0    0    0  501 -0.00000000000E+00  0.00000000000E+00  0.14274739132E+03  0.14274739132E+03  0.00000000000E+00 0.  1.
          1   -1    0    0  501    0  0.00000000000E+00 -0.00000000000E+00 -0.12769374757E+03  0.12769374757E+03  0.00000000000E+00 0. -1.
         23    2    1    2    0    0  0.51031550735E+02 -0.24754653944E+02  0.63532338205E+02  0.12487296618E+03  0.91322985185E+02 0.  0.
         23    2    1    2    0    0 -0.51031550735E+02  0.24754653944E+02 -0.48478694456E+02  0.14556817271E+03  0.12499158783E+03 0.  0.
          5    1    4    4  502    0  0.31300586162E+02  0.32474669753E+02 -0.43107615207E+02  0.62567462458E+02  0.47000000000E+01 0.  1.
         -5    1    4    4    0  502 -0.82332136896E+02 -0.77200158090E+01 -0.53710792498E+01  0.83000710252E+02  0.47000000000E+01 0.  1.
        -11    1    3    3    0    0  0.26302736881E+02 -0.58555960562E+02  0.28343759257E+02  0.70171241785E+02  0.00000000000E+00 0. -1.
         11    1    3    3    0    0  0.24728813853E+02  0.33801306618E+02  0.35188578948E+02  0.54701724398E+02  0.00000000000E+00 0.  1.
<mgrwt>
<rscale>  0 0.12912482E+03</rscale>
<asrwt>0</asrwt>
<pdfrwt beam="2">  1        1 0.19645192E-01 0.13725855E+03</pdfrwt>
<pdfrwt beam="1">  1       -1 0.21961137E-01 0.13725855E+03</pdfrwt>
<totfact> 0.43302675E+03</totfact>
</mgrwt>
</event>
<event>
 8    1  0.7550631E-006  0.1330368E+03  0.7546771E-02  0.1246718E+00
         -1   -1    0    0    0  501 -0.00000000000E+00  0.00000000000E+00  0.56755328358E+02  0.56755328358E+02  0.00000000000E+00 0.  1.
          1   -1    0    0  501    0  0.00000000000E+00 -0.00000000000E+00 -0.20920879253E+03  0.20920879253E+03  0.00000000000E+00 0. -1.
         23    2    1    2    0    0 -0.98485807227E+01  0.44454544066E+02 -0.80044386507E+02  0.11449841184E+03  0.68041027854E+02 0.  0.
         23    2    1    2    0    0  0.98485807227E+01 -0.44454544066E+02 -0.72409077668E+02  0.15146570906E+03  0.12500234182E+03 0.  0.
          5    1    4    4  502    0  0.25236023416E+02 -0.51527640673E+02 -0.10195658459E+03  0.11708624929E+03  0.47000000000E+01 0. -1.
         -5    1    4    4    0  502 -0.15387442693E+02  0.70730966075E+01  0.29547506924E+02  0.34379459765E+02  0.47000000000E+01 0. -1.
        -11    1    3    3    0    0  0.34155107264E+01  0.43128062778E+02 -0.88641894455E+02  0.98636103761E+02  0.00000000000E+00 0. -1.
         11    1    3    3    0    0 -0.13264091449E+02  0.13264812879E+01  0.85975079479E+01  0.15862308076E+02  0.00000000000E+00 0.  1.
<mgrwt>
<rscale>  0 0.11783131E+03</rscale>
<asrwt>0</asrwt>
<pdfrwt beam="2">  1        1 0.32185969E-01 0.13303679E+03</pdfrwt>
<pdfrwt beam="1">  1       -1 0.87315889E-02 0.13303679E+03</pdfrwt>
<totfact> 0.98123745E+03</totfact>
</mgrwt>
</event>
<event>
 8    1  0.7550631E-006  0.1265935E+03  0.7546771E-02  0.1247706E+00
         -1   -1    0    0    0  501 -0.00000000000E+00  0.00000000000E+00  0.56199258200E+03  0.56199258200E+03  0.00000000000E+00 0.  1.
          1   -1    0    0  501    0  0.00000000000E+00 -0.00000000000E+00 -0.21481318658E+02  0.21481318658E+02  0.00000000000E+00 0. -1.
         23    2    1    2    0    0 -0.28044626214E+01 -0.19846077781E+02  0.22841727223E+03  0.24668231288E+03  0.90972421195E+02 0.  0.
         23    2    1    2    0    0  0.28044626214E+01  0.19846077781E+02  0.31209399111E+03  0.33679158778E+03  0.12499672996E+03 0.  0.
          5    1    4    4  502    0 -0.40158836555E+02 -0.32396277060E+02  0.82718142387E+02  0.97604467115E+02  0.47000000000E+01 0. -1.
         -5    1    4    4    0  502  0.42963299177E+02  0.52242354841E+02  0.22937584872E+03  0.23918712067E+03  0.47000000000E+01 0. -1.
        -11    1    3    3    0    0  0.36385313956E+02 -0.32471634968E+02  0.15520645665E+03  0.16268786782E+03  0.00000000000E+00 0.  1.
         11    1    3    3    0    0 -0.39189776577E+02  0.12625557187E+02  0.73210815581E+02  0.83994445057E+02  0.00000000000E+00 0. -1.
<mgrwt>
<rscale>  0 0.11724902E+03</rscale>
<asrwt>0</asrwt>
<pdfrwt beam="2">  1        1 0.33048187E-02 0.12659350E+03</pdfrwt>
<pdfrwt beam="1">  1       -1 0.86460386E-01 0.12659350E+03</pdfrwt>
<totfact> 0.39297528E+03</totfact>
</mgrwt>
</event>
<event>
 8    1  0.7550631E-006  0.1728078E+03  0.7546771E-02  0.1182273E+00
         -2   -1    0    0    0  501 -0.00000000000E+00  0.00000000000E+00  0.85909928330E+02  0.85909928330E+02  0.00000000000E+00 0.  1.
          2   -1    0    0  501    0  0.00000000000E+00 -0.00000000000E+00 -0.36155659828E+03  0.36155659828E+03  0.00000000000E+00 0. -1.
         23    2    1    2    0    0  0.11689545096E+03  0.23981261953E+02 -0.34047702241E+02  0.15042678817E+03  0.85025438502E+02 0.  0.
         23    2    1    2    0    0 -0.11689545096E+03 -0.23981261953E+02 -0.24159896771E+03  0.29703973844E+03  0.12499159025E+03 0.  0.
          5    1    4    4  502    0 -0.12488833017E+03  0.90787039339E+01 -0.22789060544E+03  0.26006871386E+03  0.47000000000E+01 0. -1.
         -5    1    4    4    0  502  0.79928792086E+01 -0.33059965887E+02 -0.13708362264E+02  0.36971024579E+02  0.47000000000E+01 0. -1.
        -11    1    3    3    0    0  0.56012084639E+02 -0.84548479195E+01  0.22774260700E+02  0.61053296630E+02  0.00000000000E+00 0.  1.
         11    1    3    3    0    0  0.60883366321E+02  0.32436109872E+02 -0.56821962942E+02  0.89373491544E+02  0.00000000000E+00 0. -1.
<mgrwt>
<rscale>  0 0.16582460E+03</rscale>
<asrwt>0</asrwt>
<pdfrwt beam="2">  1        2 0.55624092E-01 0.17280783E+03</pdfrwt>
<pdfrwt beam="1">  1       -2 0.13216912E-01 0.17280783E+03</pdfrwt>
<totfact> 0.36793421E+03</totfact>
</mgrwt>
</event>
<event>
 7    1  0.7550631E-006  0.3637315E+03  0.7546771E-02  0.1092858E+00
         -2   -1    0    0    0  501 -0.00000000000E+00  0.00000000000E+00  0.12021391957E+03  0.12021391957E+03  0.00000000000E+00 0.  1.
          2   -1    0    0  501    0  0.00000000000E+00 -0.00000000000E+00 -0.79627077010E+03  0.79627077010E+03  0.00000000000E+00 0. -1.
         23    2    1    2    0    0 -0.37438435961E+02  0.36401688352E+02  0.12109862633E+02  0.13810556859E+03  0.12727835598E+03 0.  0.
          5    1    1    2  502    0  0.56274361795E+02  0.14221535296E+03 -0.47793191537E+03  0.50182966846E+03  0.47000000000E+01 0. -1.
         -5    1    1    2    0  502 -0.18835925834E+02 -0.17861704131E+03 -0.21023479778E+03  0.27654945263E+03  0.47000000000E+01 0.  1.
        -11    1    3    3    0    0 -0.59551376473E+02  0.48111977856E+02  0.50907664646E+02  0.91938670714E+02  0.00000000000E+00 0.  1.
         11    1    3    3    0    0  0.22112940511E+02 -0.11710289504E+02 -0.38797802013E+02  0.46166897875E+02  0.00000000000E+00 0. -1.
<mgrwt>
<rscale>  0 0.28524596E+03</rscale>
<asrwt>0</asrwt>
<pdfrwt beam="2">  1        2 0.12250320E+00 0.36373154E+03</pdfrwt>
<pdfrwt beam="1">  1       -2 0.18494449E-01 0.36373154E+03</pdfrwt>
<totfact> 0.85822530E+02</totfact>
</mgrwt>
</event>
<event>
 8    1  0.7550631E-006  0.1283577E+03  0.7546771E-02  0.1240902E+00
          1   -1    0    0  501    0  0.00000000000E+00  0.00000000000E+00  0.24096592054E+03  0.24096592054E+03  0.00000000000E+00 0. -1.
         -1   -1    0    0    0  501 -0.00000000000E+00 -0.00000000000E+00 -0.56971075425E+02  0.56971075425E+02  0.00000000000E+00 0.  1.
         23    2    1    2    0    0  0.25276407843E+02  0.14559551503E+02  0.56621244225E+02  0.11710633432E+03  0.98270295137E+02 0.  0.
         23    2    1    2    0    0 -0.25276407843E+02 -0.14559551503E+02  0.12737360089E+03  0.18083066164E+03  0.12499926662E+03 0.  0.
          5    1    4    4  502    0  0.40401953815E+02 -0.32905695313E+02  0.86780833523E+02  0.10133166200E+03  0.47000000000E+01 0. -1.
         -5    1    4    4    0  502 -0.65678361658E+02  0.18346143810E+02  0.40592767363E+02  0.79498999648E+02  0.47000000000E+01 0. -1.
        -11    1    3    3    0    0 -0.26341333501E+02 -0.25118355012E+02  0.28311250593E+02  0.46112086477E+02  0.00000000000E+00 0. -1.
         11    1    3    3    0    0  0.51617741345E+02  0.39677906515E+02  0.28309993632E+02  0.70994247840E+02  0.00000000000E+00 0.  1.
<mgrwt>
<rscale>  0 0.12134057E+03</rscale>
<asrwt>0</asrwt>
<pdfrwt beam="1">  1        1 0.37071680E-01 0.12835768E+03</pdfrwt>
<pdfrwt beam="2">  1       -1 0.87647809E-02 0.12835768E+03</pdfrwt>
<totfact> 0.81685058E+03</totfact>
</mgrwt>
</event>
<event>
 8    1  0.7550631E-006  0.1420350E+03  0.7546771E-02  0.1220933E+00
          2   -1    0    0  501    0  0.00000000000E+00  0.00000000000E+00  0.51133358224E+03  0.51133358224E+03  0.00000000000E+00 0.  1.
         -2   -1    0    0    0  501 -0.00000000000E+00 -0.00000000000E+00 -0.73888304944E+02  0.73888304944E+02  0.00000000000E+00 0. -1.
         23    2    1    2    0    0  0.64225090128E+02 -0.20974674551E+02 -0.11092867049E+02  0.11473234017E+03  0.92063342362E+02 0.  0.
         23    2    1    2    0    0 -0.64225090128E+02  0.20974674551E+02  0.44853814434E+03  0.47048954701E+03  0.12493657488E+03 0.  0.
          5    1    4    4  502    0 -0.82734199723E+02 -0.28700659090E+02  0.24969606333E+03  0.26464861548E+03  0.47000000000E+01 0. -1.
         -5    1    4    4    0  502  0.18509109595E+02  0.49675333641E+02  0.19884208101E+03  0.20584093153E+03  0.47000000000E+01 0. -1.
        -11    1    3    3    0    0 -0.82142892269E+01  0.88558895303E+01 -0.31534095190E+02  0.33768335558E+02  0.00000000000E+00 0. -1.
         11    1    3    3    0    0  0.72439379355E+02 -0.29830564082E+02  0.20441228142E+02  0.80964004611E+02  0.00000000000E+00 0.  1.
<mgrwt>
<rscale>  0 0.13449563E+03</rscale>
<asrwt>0</asrwt>
<pdfrwt beam="1">  1        2 0.78666703E-01 0.14203502E+03</pdfrwt>
<pdfrwt beam="2">  1       -2 0.11367432E-01 0.14203502E+03</pdfrwt>
<totfact> 0.31931333E+03</totfact>
</mgrwt>
</event>
<event>
 8    1  0.7550631E-006  0.2094720E+03  0.7546771E-02  0.1145557E+00
         -2   -1    0    0    0  501 -0.00000000000E+00  0.00000000000E+00  0.10179833953E+03  0.10179833953E+03  0.00000000000E+00 0.  1.
          2   -1    0    0  501    0  0.00000000000E+00 -0.00000000000E+00 -0.41266216777E+03  0.41266216777E+03  0.00000000000E+00 0. -1.
         23    2    1    2    0    0  0.15940660813E+03  0.53323014559E+02 -0.98038177444E+02  0.21584157242E+03  0.93393198622E+02 0.  0.
         23    2    1    2    0    0 -0.15940660813E+03 -0.53323014559E+02 -0.21282565080E+03  0.29861893489E+03  0.12499880015E+03 0.  0.
          5    1    4    4  502    0 -0.17923649157E+03 -0.40856793704E+02 -0.19924974160E+03  0.27114119390E+03  0.47000000000E+01 0.  1.
         -5    1    4    4    0  502  0.19829883432E+02 -0.12466220855E+02 -0.13575909193E+02  0.27477740987E+02  0.47000000000E+01 0.  1.
        -11    1    3    3    0    0  0.75969638366E+02  0.44082064021E+02 -0.14142238628E+01  0.87844261912E+02  0.00000000000E+00 0.  1.
         11    1    3    3    0    0  0.83436969767E+02  0.92409505379E+01 -0.96623953581E+02  0.12799731050E+03  0.00000000000E+00 0. -1.
<mgrwt>
<rscale>  0 0.20503811E+03</rscale>
<asrwt>0</asrwt>
<pdfrwt beam="2">  1        2 0.63486486E-01 0.20947198E+03</pdfrwt>
<pdfrwt beam="1">  1       -2 0.15661283E-01 0.20947198E+03</pdfrwt>
<totfact> 0.24322972E+03</totfact>
</mgrwt>
</event>
<event>
 8    1  0.7550631E-006  0.1266887E+03  0.7546771E-02  0.1246125E+00
         -2   -1    0    0    0  501 -0.00000000000E+00  0.00000000000E+00  0.95968676065E+02  0.95968676065E+02  0.00000000000E+00 0. -1.
          2   -1    0    0  501    0  0.00000000000E+00 -0.00000000000E+00 -0.13511440838E+03  0.13511440838E+03  0.00000000000E+00 0.  1.
         23    2    1    2    0    0  0.17615749184E+02  0.10689648158E+02  0.71326572988E+01  0.96206445129E+02  0.93702839269E+02 0.  0.
         23    2    1    2    0    0 -0.17615749184E+02 -0.10689648158E+02 -0.46278389613E+02  0.13487663932E+03  0.12500174115E+03 0.  0.
          5    1    4    4  502    0  0.46078363598E+02  0.21414138695E+02 -0.25747783895E+01  0.51093056394E+02  0.47000000000E+01 0. -1.
         -5    1    4    4    0  502 -0.63694112782E+02 -0.32103786852E+02 -0.43703611223E+02  0.83783582922E+02  0.47000000000E+01 0. -1.
        -11    1    3    3    0    0  0.26125417098E+02 -0.33956206434E+02 -0.15336939535E+02  0.45505857735E+02  0.00000000000E+00 0.  1.
         11    1    3    3    0    0 -0.85096679143E+01  0.44645854591E+02  0.22469596833E+02  0.50700587394E+02  0.00000000000E+00 0. -1.
<mgrwt>
<rscale>  0 0.11818304E+03</rscale>
<asrwt>0</asrwt>
<pdfrwt beam="2">  1        2 0.20786832E-01 0.12668867E+03</pdfrwt>
<pdfrwt beam="1">  1       -2 0.14764412E-01 0.12668867E+03</pdfrwt>
<totfact> 0.87568575E+03</totfact>
</mgrwt>
</event>
<event>
 8    1  0.7550631E-006  0.1832719E+03  0.7546771E-02  0.1169793E+00
         -1   -1    0    0    0  501 -0.00000000000E+00  0.00000000000E+00  0.26434661882E+03  0.26434661882E+03  0.00000000000E+00 0.  1.
          1   -1    0    0  501    0  0.00000000000E+00 -0.00000000000E+00 -0.11376039652E+03  0.11376039652E+03  0.00000000000E+00 0. -1.
         23    2    1    2    0    0  0.88796582097E+02  0.10039937463E+03  0.82241053671E+02  0.18250622587E+03  0.92628635707E+02 0.  0.
         23    2    1    2    0    0 -0.88796582097E+02 -0.10039937463E+03  0.68345168629E+02  0.19560078948E+03  0.12499495731E+03 0.  0.
          5    1    4    4  502    0  0.25249846589E+02 -0.42597336295E+02  0.41707394081E+02  0.64912899591E+02  0.47000000000E+01 0.  1.
         -5    1    4    4    0  502 -0.11404642869E+03 -0.57802038334E+02  0.26637774548E+02  0.13068788989E+03  0.47000000000E+01 0.  1.
        -11    1    3    3    0    0  0.43052422788E+02  0.93037620682E+02  0.19245563283E+02  0.10430676716E+03  0.00000000000E+00 0.  1.
         11    1    3    3    0    0  0.45744159310E+02  0.73617539472E+01  0.62995490388E+02  0.78199458703E+02  0.00000000000E+00 0. -1.
<mgrwt>
<rscale>  0 0.17795889E+03</rscale>
<asrwt>0</asrwt>
<pdfrwt beam="2">  1        1 0.17501600E-01 0.18327195E+03</pdfrwt>
<pdfrwt beam="1">  1       -1 0.40668710E-01 0.18327195E+03</pdfrwt>
<totfact> 0.17974003E+03</totfact>
</mgrwt>
</event>
<event>
 8    1  0.7550631E-006  0.1274643E+03  0.7546771E-02  0.1245807E+00
         -2   -1    0    0    0  501 -0.00000000000E+00  0.00000000000E+00  0.20602686528E+03  0.20602686528E+03  0.00000000000E+00 0.  1.
          2   -1    0    0  501    0  0.00000000000E+00 -0.00000000000E+00 -0.60018409131E+02  0.60018409131E+02  0.00000000000E+00 0. -1.
         23    2    1    2    0    0 -0.11107261375E+02  0.22504855780E+02  0.57774287645E+02  0.11102134179E+03  0.91422263321E+02 0.  0.
         23    2    1    2    0    0  0.11107261375E+02 -0.22504855780E+02  0.88234168500E+02  0.15502393262E+03  0.12496924183E+03 0.  0.
          5    1    4    4  502    0  0.33108170091E+02 -0.68518741111E+02  0.53168833052E+02  0.92951512190E+02  0.47000000000E+01 0. -1.
         -5    1    4    4    0  502 -0.22000908716E+02  0.46013885332E+02  0.35065335448E+02  0.62072420428E+02  0.47000000000E+01 0. -1.
        -11    1    3    3    0    0 -0.30547884806E+02 -0.20997770287E+02  0.12455248260E+01  0.37089499259E+02  0.00000000000E+00 0. -1.
         11    1    3    3    0    0  0.19440623431E+02  0.43502626066E+02  0.56528762819E+02  0.73931842531E+02  0.00000000000E+00 0.  1.
<mgrwt>
<rscale>  0 0.11837188E+03</rscale>
<asrwt>0</asrwt>
<pdfrwt beam="2">  1        2 0.92336015E-02 0.12746431E+03</pdfrwt>
<pdfrwt beam="1">  1       -2 0.31696440E-01 0.12746431E+03</pdfrwt>
<totfact> 0.61693758E+03</totfact>
</mgrwt>
</event>
<event>
 8    1  0.7550631E-006  0.1637840E+03  0.7546771E-02  0.1190828E+00
          2   -1    0    0  501    0  0.00000000000E+00  0.00000000000E+00  0.11941780807E+03  0.11941780807E+03  0.00000000000E+00 0. -1.
         -2   -1    0    0    0  501 -0.00000000000E+00 -0.00000000000E+00 -0.21152677993E+03  0.21152677993E+03  0.00000000000E+00 0.  1.
         23    2    1    2    0    0 -0.96413868294E+02  0.43644560522E+02 -0.87591927382E+02  0.16709836087E+03  0.95126414844E+02 0.  0.
         23    2    1    2    0    0  0.96413868294E+02 -0.43644560522E+02 -0.45170444798E+01  0.16384622713E+03  0.12499880315E+03 0.  0.
          5    1    4    4  502    0  0.11189794122E+03 -0.55767754692E+02 -0.32554109313E+02  0.12927896869E+03  0.47000000000E+01 0. -1.
         -5    1    4    4    0  502 -0.15484072926E+02  0.12123194170E+02  0.28037064833E+02  0.34567258435E+02  0.47000000000E+01 0. -1.
        -11    1    3    3    0    0 -0.37537001048E+02  0.37217380629E+02 -0.93675102884E+02  0.10756014489E+03  0.00000000000E+00 0.  1.
         11    1    3    3    0    0 -0.58876867246E+02  0.64271798928E+01  0.60831755020E+01  0.59538215982E+02  0.00000000000E+00 0. -1.
<mgrwt>
<rscale>  0 0.15812675E+03</rscale>
<asrwt>0</asrwt>
<pdfrwt beam="1">  1        2 0.18371971E-01 0.16378395E+03</pdfrwt>
<pdfrwt beam="2">  1       -2 0.32542581E-01 0.16378395E+03</pdfrwt>
<totfact> 0.26293860E+03</totfact>
</mgrwt>
</event>
<event>
 8    1  0.7550631E-006  0.2289300E+03  0.7546771E-02  0.1130362E+00
          2   -1    0    0  501    0  0.00000000000E+00  0.00000000000E+00  0.55487568476E+03  0.55487568476E+03  0.00000000000E+00 0. -1.
         -2   -1    0    0    0  501 -0.00000000000E+00 -0.00000000000E+00 -0.11066031331E+03  0.11066031331E+03  0.00000000000E+00 0.  1.
         23    2    1    2    0    0 -0.17394788779E+03 -0.80787179412E+02  0.64891781464E+02  0.22248370592E+03  0.92215075091E+02 0.  0.
         23    2    1    2    0    0  0.17394788779E+03  0.80787179412E+02  0.37932358999E+03  0.44305229215E+03  0.12499804653E+03 0.  0.
          5    1    4    4  502    0  0.80134777517E+02 -0.16115995944E+02  0.21713719980E+03  0.23206025388E+03  0.47000000000E+01 0. -1.
         -5    1    4    4    0  502  0.93813110269E+02  0.96903175357E+02  0.16218639019E+03  0.21099203827E+03  0.47000000000E+01 0. -1.
        -11    1    3    3    0    0 -0.12752917705E+03 -0.60220266755E+02  0.88491333239E+02  0.16649590862E+03  0.00000000000E+00 0.  1.
         11    1    3    3    0    0 -0.46418710736E+02 -0.20566912657E+02 -0.23599551775E+02  0.55987797301E+02  0.00000000000E+00 0. -1.
<mgrwt>
<rscale>  0 0.22478897E+03</rscale>
<asrwt>0</asrwt>
<pdfrwt beam="1">  1        2 0.85365488E-01 0.22893001E+03</pdfrwt>
<pdfrwt beam="2">  1       -2 0.17024664E-01 0.22893001E+03</pdfrwt>
<totfact> 0.15258959E+03</totfact>
</mgrwt>
</event>
<event>
 8    1  0.7550631E-006  0.1252000E+03  0.7546771E-02  0.1251673E+00
          1   -1    0    0  501    0  0.00000000000E+00  0.00000000000E+00  0.21310021798E+03  0.21310021798E+03  0.00000000000E+00 0. -1.
         -1   -1    0    0    0  501 -0.00000000000E+00 -0.00000000000E+00 -0.58706586506E+02  0.58706586506E+02  0.00000000000E+00 0.  1.
         23    2    1    2    0    0  0.32843816605E+01  0.61867658725E+01  0.26473041455E+02  0.92813179341E+02  0.88681458607E+02 0.  0.
         23    2    1    2    0    0 -0.32843816605E+01 -0.61867658725E+01  0.12792059002E+03  0.17899362515E+03  0.12500390897E+03 0.  0.
          5    1    4    4  502    0 -0.26761632815E+02 -0.34035788121E+02 -0.23798543504E+01  0.43616207661E+02  0.47000000000E+01 0. -1.
         -5    1    4    4    0  502  0.23477251155E+02  0.27849022249E+02  0.13030044437E+03  0.13537741749E+03  0.47000000000E+01 0. -1.
        -11    1    3    3    0    0  0.43058395370E+01  0.45348554454E+02  0.36704492349E-01  0.45552530033E+02  0.00000000000E+00 0.  1.
         11    1    3    3    0    0 -0.10214578765E+01 -0.39161788581E+02  0.26436336963E+02  0.47260649309E+02  0.00000000000E+00 0. -1.
<mgrwt>
<rscale>  0 0.11494738E+03</rscale>
<asrwt>0</asrwt>
<pdfrwt beam="1">  1        1 0.32784649E-01 0.12520000E+03</pdfrwt>
<pdfrwt beam="2">  1       -1 0.90317826E-02 0.12520000E+03</pdfrwt>
<totfact> 0.90688020E+03</totfact>
</mgrwt>
</event>
<event>
 8    1  0.7550631E-006  0.1258390E+03  0.7546771E-02  0.1249742E+00
         -3   -1    0    0    0  501 -0.00000000000E+00  0.00000000000E+00  0.35285824625E+02  0.35285824625E+02  0.00000000000E+00 0.  1.
          3   -1    0    0  501    0  0.00000000000E+00 -0.00000000000E+00 -0.33590962489E+03  0.33590962489E+03  0.00000000000E+00 0. -1.
         23    2    1    2    0    0 -0.55446425322E+01  0.13447555934E+02 -0.11020229578E+03  0.14295040335E+03  0.89881544273E+02 0.  0.
         23    2    1    2    0    0  0.55446425322E+01 -0.13447555934E+02 -0.19042150449E+03  0.22824504617E+03  0.12499548755E+03 0.  0.
          5    1    4    4  502    0 -0.36827881065E+02 -0.50516558781E+02 -0.13622169525E+03  0.14995551271E+03  0.47000000000E+01 0. -1.
         -5    1    4    4    0  502  0.42372523597E+02  0.37069002847E+02 -0.54199809238E+02  0.78289533460E+02  0.47000000000E+01 0. -1.
        -11    1    3    3    0    0 -0.18889679628E+02  0.86539435661E+01 -0.12245799735E+03  0.12420817948E+03  0.00000000000E+00 0. -1.
         11    1    3    3    0    0  0.13345037096E+02  0.47936123681E+01  0.12255701566E+02  0.18742223868E+02  0.00000000000E+00 0.  1.
<mgrwt>
<rscale>  0 0.11605999E+03</rscale>
<asrwt>0</asrwt>
<pdfrwt beam="2">  1        3 0.51678406E-01 0.12583899E+03</pdfrwt>
<pdfrwt beam="1">  1       -3 0.54285882E-02 0.12583899E+03</pdfrwt>
<totfact> 0.16945532E+03</totfact>
</mgrwt>
</event>
<event>
 8    1  0.7550631E-006  0.2011762E+03  0.7546771E-02  0.1153017E+00
         -2   -1    0    0    0  501 -0.00000000000E+00  0.00000000000E+00  0.27523135378E+02  0.27523135378E+02  0.00000000000E+00 0.  1.
          2   -1    0    0  501    0  0.00000000000E+00 -0.00000000000E+00 -0.21185202369E+04  0.21185202369E+04  0.00000000000E+00 0. -1.
         23    2    1    2    0    0  0.13214023694E+03  0.85943102911E+02 -0.35933886772E+03  0.40273843360E+03  0.90700412810E+02 0.  0.
         23    2    1    2    0    0 -0.13214023694E+03 -0.85943102911E+02 -0.17316582338E+04  0.17433049387E+04  0.12499844555E+03 0.  0.
          5    1    4    4  502    0 -0.13026358778E+03 -0.98517008187E+02 -0.17097741794E+04  0.17175634014E+04  0.47000000000E+01 0. -1.
         -5    1    4    4    0  502 -0.18766491537E+01  0.12573905275E+02 -0.21884054404E+02  0.25741537310E+02  0.47000000000E+01 0. -1.
        -11    1    3    3    0    0  0.88107533477E+02  0.39718025204E+01 -0.19144307689E+03  0.21078226766E+03  0.00000000000E+00 0. -1.
         11    1    3    3    0    0  0.44032703458E+02  0.81971300391E+02 -0.16789579083E+03  0.19195616593E+03  0.00000000000E+00 0.  1.
<mgrwt>
<rscale>  0 0.19616342E+03</rscale>
<asrwt>0</asrwt>
<pdfrwt beam="2">  1        2 0.32592615E+00 0.20117622E+03</pdfrwt>
<pdfrwt beam="1">  1       -2 0.42343290E-02 0.20117622E+03</pdfrwt>
<totfact> 0.16324431E+03</totfact>
</mgrwt>
</event>
<event>
 8    1  0.7550631E-006  0.1320839E+03  0.7546771E-02  0.1238156E+00
         -1   -1    0    0    0  501 -0.00000000000E+00  0.00000000000E+00  0.54893603898E+03  0.54893603898E+03  0.00000000000E+00 0.  1.
          1   -1    0    0  501    0  0.00000000000E+00 -0.00000000000E+00 -0.24508329881E+02  0.24508329881E+02  0.00000000000E+00 0. -1.
         23    2    1    2    0    0  0.10864253772E+02  0.41261271556E+02  0.24250582744E+03  0.26211479842E+03  0.89858592618E+02 0.  0.
         23    2    1    2    0    0 -0.10864253772E+02 -0.41261271556E+02  0.28192188166E+03  0.31132957044E+03  0.12500251811E+03 0.  0.
          5    1    4    4  502    0  0.14757737495E+02 -0.71150851235E+02  0.92085324931E+02  0.11739689738E+03  0.47000000000E+01 0. -1.
         -5    1    4    4    0  502 -0.25621991267E+02  0.29889579679E+02  0.18983655673E+03  0.19393267306E+03  0.47000000000E+01 0. -1.
        -11    1    3    3    0    0  0.18212207939E+02 -0.20748587481E+02  0.30661591976E+02  0.41259200465E+02  0.00000000000E+00 0.  1.
         11    1    3    3    0    0 -0.73479541669E+01  0.62009859038E+02  0.21184423546E+03  0.22085559795E+03  0.00000000000E+00 0. -1.
<mgrwt>
<rscale>  0 0.12304525E+03</rscale>
<asrwt>0</asrwt>
<pdfrwt beam="2">  1        1 0.37705127E-02 0.13208389E+03</pdfrwt>
<pdfrwt beam="1">  1       -1 0.84451689E-01 0.13208389E+03</pdfrwt>
<totfact> 0.34509438E+03</totfact>
</mgrwt>
</event>
<event>
 8    1  0.7550631E-006  0.1276701E+03  0.7546771E-02  0.1245093E+00
         -2   -1    0    0    0  501 -0.00000000000E+00  0.00000000000E+00  0.20473079321E+02  0.20473079321E+02  0.00000000000E+00 0.  1.
          2   -1    0    0  501    0  0.00000000000E+00 -0.00000000000E+00 -0.35123307279E+04  0.35123307279E+04  0.00000000000E+00 0. -1.
         23    2    1    2    0    0  0.24626365708E+02 -0.82834057689E+01 -0.99564629912E+02  0.13810918476E+03  0.92119263378E+02 0.  0.
         23    2    1    2    0    0 -0.24626365708E+02  0.82834057689E+01 -0.33922930186E+04  0.33946946224E+04  0.12499833038E+03 0.  0.
          5    1    4    4  502    0  0.27566646219E+02  0.47107422011E+02 -0.98835828140E+03  0.98987535155E+03  0.47000000000E+01 0.  1.
         -5    1    4    4    0  502 -0.52193011927E+02 -0.38824016242E+02 -0.24039347372E+04  0.24048192709E+04  0.47000000000E+01 0.  1.
        -11    1    3    3    0    0  0.36948093531E+02  0.27716927291E+02 -0.86172582286E+02  0.97770668464E+02  0.00000000000E+00 0. -1.
         11    1    3    3    0    0 -0.12321727823E+02 -0.36000333060E+02 -0.13392047626E+02  0.40338516291E+02  0.00000000000E+00 0.  1.
<mgrwt>
<rscale>  0 0.11879823E+03</rscale>
<asrwt>0</asrwt>
<pdfrwt beam="2">  1        2 0.54035836E+00 0.12767010E+03</pdfrwt>
<pdfrwt beam="1">  1       -2 0.31497057E-02 0.12767010E+03</pdfrwt>
<totfact> 0.41535571E+02</totfact>
</mgrwt>
</event>
<event>
 8    1  0.7550631E-006  0.1746417E+03  0.7546771E-02  0.1178882E+00
         -2   -1    0    0    0  501 -0.00000000000E+00  0.00000000000E+00  0.23928391795E+02  0.23928391795E+02  0.00000000000E+00 0.  1.
          2   -1    0    0  501    0  0.00000000000E+00 -0.00000000000E+00 -0.15037556144E+04  0.15037556144E+04  0.00000000000E+00 0. -1.
         23    2    1    2    0    0  0.10918089115E+03  0.54354682197E+02 -0.31995073734E+03  0.35473337853E+03  0.92695183535E+02 0.  0.
         23    2    1    2    0    0 -0.10918089115E+03 -0.54354682197E+02 -0.11598764853E+04  0.11729506277E+04  0.12499926157E+03 0.  0.
          5    1    4    4  502    0 -0.56221900929E+02 -0.80092657169E+02 -0.44593271037E+03  0.45656741896E+03  0.47000000000E+01 0.  1.
         -5    1    4    4    0  502 -0.52958990226E+02  0.25737974973E+02 -0.71394377492E+03  0.71638320872E+03  0.47000000000E+01 0.  1.
        -11    1    3    3    0    0  0.19094714176E+02 -0.26138600820E+02 -0.69412513460E+02  0.76589369936E+02  0.00000000000E+00 0.  1.
         11    1    3    3    0    0  0.90086176978E+02  0.80493283017E+02 -0.25053822388E+03  0.27814400860E+03  0.00000000000E+00 0. -1.
<mgrwt>
<rscale>  0 0.16901249E+03</rscale>
<asrwt>0</asrwt>
<pdfrwt beam="2">  1        2 0.23134700E+00 0.17464167E+03</pdfrwt>
<pdfrwt beam="1">  1       -2 0.36812913E-02 0.17464167E+03</pdfrwt>
<totfact> 0.42049522E+03</totfact>
</mgrwt>
</event>
<event>
 8    1  0.7550631E-006  0.1370756E+03  0.7546771E-02  0.1230008E+00
         -2   -1    0    0    0  501 -0.00000000000E+00  0.00000000000E+00  0.13157457487E+02  0.13157457487E+02  0.00000000000E+00 0.  1.
          2   -1    0    0  501    0  0.00000000000E+00 -0.00000000000E+00 -0.12201197509E+04  0.12201197509E+04  0.00000000000E+00 0. -1.
         23    2    1    2    0    0 -0.52152217534E+02 -0.21080748899E+02 -0.35145276485E+03  0.36685567627E+03  0.88880760144E+02 0.  0.
         23    2    1    2    0    0  0.52152217534E+02  0.21080748899E+02 -0.85550952858E+03  0.86642153213E+03  0.12500186432E+03 0.  0.
          5    1    4    4  502    0  0.86962486533E+02  0.68303920917E+01 -0.73285105230E+03  0.73803921520E+03  0.47000000000E+01 0.  1.
         -5    1    4    4    0  502 -0.34810268998E+02  0.14250356807E+02 -0.12265847628E+03  0.12838231693E+03  0.47000000000E+01 0.  1.
        -11    1    3    3    0    0 -0.48896618327E+02 -0.52829069323E+02 -0.21540771354E+03  0.22711731088E+03  0.00000000000E+00 0. -1.
         11    1    3    3    0    0 -0.32555992074E+01  0.31748320424E+02 -0.13604505130E+03  0.13973836538E+03  0.00000000000E+00 0.  1.
<mgrwt>
<rscale>  0 0.12829488E+03</rscale>
<asrwt>0</asrwt>
<pdfrwt beam="2">  1        2 0.18771077E+00 0.13707559E+03</pdfrwt>
<pdfrwt beam="1">  1       -2 0.20242238E-02 0.13707559E+03</pdfrwt>
<totfact> 0.14254130E+04</totfact>
</mgrwt>
</event>
<event>
 8    1  0.7550631E-006  0.2699391E+03  0.7546771E-02  0.1103050E+00
         -1   -1    0    0    0  501 -0.00000000000E+00  0.00000000000E+00  0.51231464930E+02  0.51231464930E+02  0.00000000000E+00 0.  1.
          1   -1    0    0  501    0  0.00000000000E+00 -0.00000000000E+00 -0.17434747908E+04  0.17434747908E+04  0.00000000000E+00 0. -1.
         23    2    1    2    0    0 -0.23471840523E+03  0.46371440628E+02 -0.41087835165E+03  0.48521653938E+03  0.96804080354E+02 0.  0.
         23    2    1    2    0    0  0.23471840523E+03 -0.46371440628E+02 -0.12813649743E+04  0.13094897164E+04  0.12499631920E+03 0.  0.
          5    1    4    4  502    0  0.16075636608E+03 -0.78610548612E+02 -0.10303519972E+04  0.10457865727E+04  0.47000000000E+01 0. -1.
         -5    1    4    4    0  502  0.73962039151E+02  0.32239107984E+02 -0.25101297705E+03  0.26370314364E+03  0.47000000000E+01 0. -1.
        -11    1    3    3    0    0 -0.75009815158E+02  0.61955549863E+02 -0.16731954883E+03  0.19354791125E+03  0.00000000000E+00 0. -1.
         11    1    3    3    0    0 -0.15970859007E+03 -0.15584109235E+02 -0.24355880283E+03  0.29166862813E+03  0.00000000000E+00 0.  1.
<mgrwt>
<rscale>  0 0.26692859E+03</rscale>
<asrwt>0</asrwt>
<pdfrwt beam="2">  1        1 0.26822687E+00 0.26993910E+03</pdfrwt>
<pdfrwt beam="1">  1       -1 0.78817645E-02 0.26993910E+03</pdfrwt>
<totfact> 0.43687065E+02</totfact>
</mgrwt>
</event>
<event>
 8    1  0.7550631E-006  0.1465417E+03  0.7546771E-02  0.1216458E+00
         -1   -1    0    0    0  501 -0.00000000000E+00  0.00000000000E+00  0.22337064772E+03  0.22337064772E+03  0.00000000000E+00 0.  1.
          1   -1    0    0  501    0  0.00000000000E+00 -0.00000000000E+00 -0.79248730426E+02  0.79248730426E+02  0.00000000000E+00 0. -1.
         23    2    1    2    0    0  0.31242291649E+02  0.69785411849E+02  0.93336064555E+02  0.14752692386E+03  0.84891034994E+02 0.  0.
         23    2    1    2    0    0 -0.31242291649E+02 -0.69785411849E+02  0.50785852741E+02  0.15509245429E+03  0.12501352744E+03 0.  0.
          5    1    4    4  502    0  0.23309190938E+02  0.23310722867E+02 -0.47683305923E+01  0.33638298997E+02  0.47000000000E+01 0.  1.
         -5    1    4    4    0  502 -0.54551482586E+02 -0.93096134716E+02  0.55554183333E+02  0.12145415529E+03  0.47000000000E+01 0.  1.
        -11    1    3    3    0    0 -0.19407482086E+02  0.59154533112E+02  0.46214433211E+02  0.77535043598E+02  0.00000000000E+00 0. -1.
         11    1    3    3    0    0  0.50649773735E+02  0.10630878737E+02  0.47121631344E+02  0.69991880262E+02  0.00000000000E+00 0.  1.
<mgrwt>
<rscale>  0 0.13769967E+03</rscale>
<asrwt>0</asrwt>
<pdfrwt beam="2">  1        1 0.12192112E-01 0.14654169E+03</pdfrwt>
<pdfrwt beam="1">  1       -1 0.34364715E-01 0.14654169E+03</pdfrwt>
<totfact> 0.38231958E+03</totfact>
</mgrwt>
</event>
<event>
 8    1  0.7550631E-006  0.1267448E+03  0.7546771E-02  0.1247675E+00
         -1   -1    0    0    0  501 -0.00000000000E+00  0.00000000000E+00  0.50185069024E+03  0.50185069024E+03  0.00000000000E+00 0.  1.
          1   -1    0    0  501    0  0.00000000000E+00 -0.00000000000E+00 -0.24973433826E+02  0.24973433826E+02  0.00000000000E+00 0. -1.
         23    2    1    2    0    0 -0.18079390193E+02  0.10563485841E+02  0.25371689668E+03  0.27018278162E+03  0.90487680029E+02 0.  0.
         23    2    1    2    0    0  0.18079390193E+02 -0.10563485841E+02  0.22316035973E+03  0.25664134245E+03  0.12500312362E+03 0.  0.
          5    1    4    4  502    0 -0.48051332040E+01 -0.32877540922E+02  0.25240825212E+01  0.33652384682E+02  0.47000000000E+01 0. -1.
         -5    1    4    4    0  502  0.22884523397E+02  0.22314055081E+02  0.22063627721E+03  0.22298895776E+03  0.47000000000E+01 0. -1.
        -11    1    3    3    0    0  0.26567535265E+02 -0.21108276427E+02  0.60551032926E+02  0.69410524074E+02  0.00000000000E+00 0. -1.
         11    1    3    3    0    0 -0.44646925458E+02  0.31671762268E+02  0.19316586376E+03  0.20077225754E+03  0.00000000000E+00 0.  1.
<mgrwt>
<rscale>  0 0.11726722E+03</rscale>
<asrwt>0</asrwt>
<pdfrwt beam="2">  1        1 0.38420671E-02 0.12674475E+03</pdfrwt>
<pdfrwt beam="1">  1       -1 0.77207791E-01 0.12674475E+03</pdfrwt>
<totfact> 0.40306049E+03</totfact>
</mgrwt>
</event>
<event>
 8    1  0.7550631E-006  0.1336940E+03  0.7546771E-02  0.1234302E+00
         -2   -1    0    0    0  501 -0.00000000000E+00  0.00000000000E+00  0.10653556412E+03  0.10653556412E+03  0.00000000000E+00 0.  1.
          2   -1    0    0  501    0  0.00000000000E+00 -0.00000000000E+00 -0.13993143480E+03  0.13993143480E+03  0.00000000000E+00 0. -1.
         23    2    1    2    0    0 -0.42023845201E+01 -0.47225904311E+02  0.13778880713E+02  0.10469410135E+03  0.92320372779E+02 0.  0.
         23    2    1    2    0    0  0.42023845201E+01  0.47225904311E+02 -0.47174751397E+02  0.14177289757E+03  0.12500460489E+03 0.  0.
          5    1    4    4  502    0 -0.25401855559E+02  0.33073877751E+02  0.34051181405E+02  0.54043580659E+02  0.47000000000E+01 0. -1.
         -5    1    4    4    0  502  0.29604240079E+02  0.14152026559E+02 -0.81225932802E+02  0.87729316912E+02  0.47000000000E+01 0. -1.
        -11    1    3    3    0    0 -0.45394564142E+02 -0.41710283714E+02  0.13619323110E+02  0.63133985960E+02  0.00000000000E+00 0. -1.
         11    1    3    3    0    0  0.41192179622E+02 -0.55156205964E+01  0.15955760304E+00  0.41560115390E+02  0.00000000000E+00 0.  1.
<mgrwt>
<rscale>  0 0.12549200E+03</rscale>
<asrwt>0</asrwt>
<pdfrwt beam="2">  1        2 0.21527913E-01 0.13369404E+03</pdfrwt>
<pdfrwt beam="1">  1       -2 0.16390087E-01 0.13369404E+03</pdfrwt>
<totfact> 0.71239943E+03</totfact>
</mgrwt>
</event>
<event>
 8    1  0.7550631E-006  0.1327211E+03  0.7546771E-02  0.1244191E+00
         -2   -1    0    0    0  501 -0.00000000000E+00  0.00000000000E+00  0.21365005060E+03  0.21365005060E+03  0.00000000000E+00 0.  1.
          2   -1    0    0  501    0  0.00000000000E+00 -0.00000000000E+00 -0.56981235964E+02  0.56981235964E+02  0.00000000000E+00 0. -1.
         23    2    1    2    0    0 -0.43433222559E+02 -0.10155357580E+02  0.75844254545E+02  0.11523663002E+03  0.74414742100E+02 0.  0.
         23    2    1    2    0    0  0.43433222559E+02  0.10155357580E+02  0.80824560090E+02  0.15539465654E+03  0.12500125463E+03 0.  0.
          5    1    4    4  502    0  0.73657445460E+01  0.53537273296E+02 -0.29040615951E+01  0.54323267560E+02  0.47000000000E+01 0. -1.
         -5    1    4    4    0  502  0.36067478013E+02 -0.43381915716E+02  0.83728621685E+02  0.10107138898E+03  0.47000000000E+01 0. -1.
        -11    1    3    3    0    0 -0.61198846240E+02 -0.13167846428E+01  0.72875663200E+02  0.95172974051E+02  0.00000000000E+00 0.  1.
         11    1    3    3    0    0  0.17765623681E+02 -0.88385729369E+01  0.29685913453E+01  0.20063655970E+02  0.00000000000E+00 0. -1.
<mgrwt>
<rscale>  0 0.11933935E+03</rscale>
<asrwt>0</asrwt>
<pdfrwt beam="2">  1        2 0.87663441E-02 0.13272110E+03</pdfrwt>
<pdfrwt beam="1">  1       -2 0.32869238E-01 0.13272110E+03</pdfrwt>
<totfact> 0.61781888E+03</totfact>
</mgrwt>
</event>
<event>
 8    1  0.7550631E-006  0.1608104E+03  0.7546771E-02  0.1195383E+00
         -2   -1    0    0    0  501 -0.00000000000E+00  0.00000000000E+00  0.14431677857E+03  0.14431677857E+03  0.00000000000E+00 0.  1.
          2   -1    0    0  501    0  0.00000000000E+00 -0.00000000000E+00 -0.15843657996E+03  0.15843657996E+03  0.00000000000E+00 0. -1.
         23    2    1    2    0    0  0.10117054726E+03 -0.78839044308E+00  0.22386240658E+02  0.13785131288E+03  0.90916112436E+02 0.  0.
         23    2    1    2    0    0 -0.10117054726E+03  0.78839044308E+00 -0.36506042045E+02  0.16490204564E+03  0.12499556935E+03 0.  0.
          5    1    4    4  502    0 -0.56612699510E+02  0.62483152744E+02 -0.22309356123E+02  0.87343800542E+02  0.47000000000E+01 0. -1.
         -5    1    4    4    0  502 -0.44557847751E+02 -0.61694762301E+02 -0.14196685922E+02  0.77558245098E+02  0.47000000000E+01 0. -1.
        -11    1    3    3    0    0  0.10329187557E+03 -0.17345976956E+02 -0.60115927992E+01  0.10491059871E+03  0.00000000000E+00 0. -1.
         11    1    3    3    0    0 -0.21213283058E+01  0.16557586513E+02  0.28397833458E+02  0.32940714169E+02  0.00000000000E+00 0.  1.
<mgrwt>
<rscale>  0 0.15421887E+03</rscale>
<asrwt>0</asrwt>
<pdfrwt beam="2">  1        2 0.24374858E-01 0.16081043E+03</pdfrwt>
<pdfrwt beam="1">  1       -2 0.22202581E-01 0.16081043E+03</pdfrwt>
<totfact> 0.37617808E+03</totfact>
</mgrwt>
</event>
<event>
 8    1  0.7550631E-006  0.2147041E+03  0.7546771E-02  0.1141460E+00
         -1   -1    0    0    0  501 -0.00000000000E+00  0.00000000000E+00  0.32400958462E+03  0.32400958462E+03  0.00000000000E+00 0.  1.
          1   -1    0    0  501    0  0.00000000000E+00 -0.00000000000E+00 -0.15248770213E+03  0.15248770213E+03  0.00000000000E+00 0. -1.
         23    2    1    2    0    0  0.17100932392E+03 -0.35011648971E+02  0.17241553378E+03  0.26179133496E+03  0.91310362725E+02 0.  0.
         23    2    1    2    0    0 -0.17100932392E+03  0.35011648971E+02 -0.89365128263E+00  0.21470595179E+03  0.12501137023E+03 0.  0.
          5    1    4    4  502    0 -0.15167083848E+03  0.31263911355E+01 -0.43503506668E+02  0.15788750001E+03  0.47000000000E+01 0. -1.
         -5    1    4    4    0  502 -0.19338485443E+02  0.31885257836E+02  0.42609855385E+02  0.56818451778E+02  0.47000000000E+01 0. -1.
        -11    1    3    3    0    0  0.72172625578E+02  0.30397065472E+02  0.73851049100E+02  0.10764221721E+03  0.00000000000E+00 0.  1.
         11    1    3    3    0    0  0.98836698344E+02 -0.65408714443E+02  0.98564484678E+02  0.15414911775E+03  0.00000000000E+00 0. -1.
<mgrwt>
<rscale>  0 0.21013327E+03</rscale>
<asrwt>0</asrwt>
<pdfrwt beam="2">  1        1 0.23459647E-01 0.21470409E+03</pdfrwt>
<pdfrwt beam="1">  1       -1 0.49847628E-01 0.21470409E+03</pdfrwt>
<totfact> 0.85710056E+02</totfact>
</mgrwt>
</event>
<event>
 8    1  0.7550631E-006  0.2802501E+03  0.7546771E-02  0.1097467E+00
          1   -1    0    0  501    0  0.00000000000E+00  0.00000000000E+00  0.10316074310E+03  0.10316074310E+03  0.00000000000E+00 0. -1.
         -1   -1    0    0    0  501 -0.00000000000E+00 -0.00000000000E+00 -0.72895553914E+03  0.72895553914E+03  0.00000000000E+00 0.  1.
         23    2    1    2    0    0 -0.19972388617E+03 -0.15168615153E+03 -0.27321461829E+03  0.38172431212E+03  0.90381986812E+02 0.  0.
         23    2    1    2    0    0  0.19972388617E+03  0.15168615153E+03 -0.35258017775E+03  0.45039197012E+03  0.12506728483E+03 0.  0.
          5    1    4    4  502    0  0.17764606532E+03  0.92910578328E+02 -0.19082503766E+03  0.27681543505E+03  0.47000000000E+01 0. -1.
         -5    1    4    4    0  502  0.22077820851E+02  0.58775573207E+02 -0.16175514009E+03  0.17357653506E+03  0.47000000000E+01 0. -1.
        -11    1    3    3    0    0 -0.11859208616E+03 -0.11212328123E+03 -0.22901919337E+03  0.28122145015E+03  0.00000000000E+00 0. -1.
         11    1    3    3    0    0 -0.81131800008E+02 -0.39562870300E+02 -0.44195424921E+02  0.10050286196E+03  0.00000000000E+00 0.  1.
<mgrwt>
<rscale>  0 0.27676939E+03</rscale>
<asrwt>0</asrwt>
<pdfrwt beam="1">  1        1 0.15870884E-01 0.28025015E+03</pdfrwt>
<pdfrwt beam="2">  1       -1 0.11214700E+00 0.28025015E+03</pdfrwt>
<totfact> 0.26896156E+02</totfact>
</mgrwt>
</event>
<event>
 7    1  0.7550631E-006  0.1598348E+03  0.7546771E-02  0.1201597E+00
          1   -1    0    0  501    0  0.00000000000E+00  0.00000000000E+00  0.26704473227E+03  0.26704473227E+03  0.00000000000E+00 0. -1.
         -1   -1    0    0    0  501 -0.00000000000E+00 -0.00000000000E+00 -0.12292700686E+03  0.12292700686E+03  0.00000000000E+00 0.  1.
         23    2    1    2    0    0  0.30576659647E+02 -0.74512751878E+02 -0.56442900690E+02  0.13351176885E+03  0.90291245834E+02 0.  0.
          5    1    1    2  502    0 -0.70993216231E+02  0.40150099690E+02  0.18295726152E+03  0.20036845261E+03  0.47000000000E+01 0. -1.
         -5    1    1    2    0  502  0.40416556584E+02  0.34362652188E+02  0.17603364576E+02  0.56091517682E+02  0.47000000000E+01 0.  1.
        -11    1    3    3    0    0  0.21386461742E+02 -0.72101802474E+01  0.20770435198E+02  0.30672111492E+02  0.00000000000E+00 0. -1.
         11    1    3    3    0    0  0.91901979054E+01 -0.67302571631E+02 -0.77213335888E+02  0.10283965735E+03  0.00000000000E+00 0.  1.
<mgrwt>
<rscale>  0 0.14908864E+03</rscale>
<asrwt>0</asrwt>
<pdfrwt beam="1">  1        1 0.41083805E-01 0.15983476E+03</pdfrwt>
<pdfrwt beam="2">  1       -1 0.18911847E-01 0.15983476E+03</pdfrwt>
<totfact> 0.22023524E+03</totfact>
</mgrwt>
</event>
<event>
 8    1  0.7550631E-006  0.1254064E+03  0.7546771E-02  0.1249492E+00
         -1   -1    0    0    0  501 -0.00000000000E+00  0.00000000000E+00  0.19276374346E+02  0.19276374346E+02  0.00000000000E+00 0.  1.
          1   -1    0    0  501    0  0.00000000000E+00 -0.00000000000E+00 -0.68409244388E+03  0.68409244388E+03  0.00000000000E+00 0. -1.
         23    2    1    2    0    0  0.66264894135E+01 -0.39333116266E+01 -0.17702711343E+03  0.19971731030E+03  0.92135898783E+02 0.  0.
         23    2    1    2    0    0 -0.66264894135E+01  0.39333116266E+01 -0.48778895611E+03  0.50365150792E+03  0.12516946285E+03 0.  0.
          5    1    4    4  502    0 -0.33143700965E+02  0.52387078624E+02 -0.34349033649E+03  0.34907107039E+03  0.47000000000E+01 0. -1.
         -5    1    4    4    0  502  0.26517211552E+02 -0.48453766997E+02 -0.14429861962E+03  0.15458043754E+03  0.47000000000E+01 0. -1.
        -11    1    3    3    0    0  0.41116897318E+02  0.24101384686E+02 -0.82894809576E+02  0.95619168808E+02  0.00000000000E+00 0.  1.
         11    1    3    3    0    0 -0.34490407904E+02 -0.28034696313E+02 -0.94132303849E+02  0.10409814149E+03  0.00000000000E+00 0. -1.
<mgrwt>
<rscale>  0 0.11620519E+03</rscale>
<asrwt>0</asrwt>
<pdfrwt beam="2">  1        1 0.10524498E+00 0.12540644E+03</pdfrwt>
<pdfrwt beam="1">  1       -1 0.29655965E-02 0.12540644E+03</pdfrwt>
<totfact> 0.10642654E+04</totfact>
</mgrwt>
</event>
<event>
 8    1  0.7550631E-006  0.2115921E+03  0.7546771E-02  0.1144348E+00
         -2   -1    0    0    0  501 -0.00000000000E+00  0.00000000000E+00  0.31367161465E+02  0.31367161465E+02  0.00000000000E+00 0.  1.
          2   -1    0    0  501    0  0.00000000000E+00 -0.00000000000E+00 -0.13649618790E+04  0.13649618790E+04  0.00000000000E+00 0. -1.
         23    2    1    2    0    0 -0.16896621688E+03  0.24438677659E+02 -0.48214989740E+03  0.51898675163E+03  0.87931185565E+02 0.  0.
         23    2    1    2    0    0  0.16896621688E+03 -0.24438677659E+02 -0.85144482011E+03  0.87734228880E+03  0.12499751449E+03 0.  0.
          5    1    4    4  502    0  0.17453703112E+03 -0.12649810106E+01 -0.81533574913E+03  0.83382207288E+03  0.47000000000E+01 0. -1.
         -5    1    4    4    0  502 -0.55708142377E+01 -0.23173696649E+02 -0.36109070976E+02  0.43520215928E+02  0.47000000000E+01 0. -1.
        -11    1    3    3    0    0 -0.20114201688E+02 -0.45291532505E+01 -0.96797192687E+01  0.22776990667E+02  0.00000000000E+00 0.  1.
         11    1    3    3    0    0 -0.14885201519E+03  0.28967830910E+02 -0.47247017813E+03  0.49620976097E+03  0.00000000000E+00 0. -1.
<mgrwt>
<rscale>  0 0.20652449E+03</rscale>
<asrwt>0</asrwt>
<pdfrwt beam="2">  1        2 0.20999409E+00 0.21159208E+03</pdfrwt>
<pdfrwt beam="1">  1       -2 0.48257182E-02 0.21159208E+03</pdfrwt>
<totfact> 0.33294146E+03</totfact>
</mgrwt>
</event>
<event>
 8    1  0.7550631E-006  0.1409558E+03  0.7546771E-02  0.1222599E+00
         -2   -1    0    0    0  501 -0.00000000000E+00  0.00000000000E+00  0.18206839968E+03  0.18206839968E+03  0.00000000000E+00 0.  1.
          2   -1    0    0  501    0  0.00000000000E+00 -0.00000000000E+00 -0.93278248678E+02  0.93278248678E+02  0.00000000000E+00 0. -1.
         23    2    1    2    0    0  0.63596678245E+02 -0.14080265684E+02  0.70898184911E+02  0.13325982641E+03  0.92134886690E+02 0.  0.
         23    2    1    2    0    0 -0.63596678245E+02  0.14080265684E+02  0.17891966093E+02  0.14208682195E+03  0.12500300459E+03 0.  0.
          5    1    4    4  502    0 -0.40059555485E+01  0.57988462095E+02 -0.16101851306E+02  0.60498504374E+02  0.47000000000E+01 0.  1.
         -5    1    4    4    0  502 -0.59590722697E+02 -0.43908196411E+02  0.33993817399E+02  0.81588317576E+02  0.47000000000E+01 0.  1.
        -11    1    3    3    0    0  0.49437573790E+02  0.27542225419E+02  0.69020127664E+02  0.89254836878E+02  0.00000000000E+00 0.  1.
         11    1    3    3    0    0  0.14159104455E+02 -0.41622491103E+02  0.18780572466E+01  0.44004989531E+02  0.00000000000E+00 0. -1.
<mgrwt>
<rscale>  0 0.13332843E+03</rscale>
<asrwt>0</asrwt>
<pdfrwt beam="2">  1        2 0.14350500E-01 0.14095582E+03</pdfrwt>
<pdfrwt beam="1">  1       -2 0.28010523E-01 0.14095582E+03</pdfrwt>
<totfact> 0.45559558E+03</totfact>
</mgrwt>
</event>
<event>
 8    1  0.7550631E-006  0.1443575E+03  0.7546771E-02  0.1217618E+00
          2   -1    0    0  501    0  0.00000000000E+00  0.00000000000E+00  0.86977980973E+03  0.86977980973E+03  0.00000000000E+00 0. -1.
         -2   -1    0    0    0  501 -0.00000000000E+00 -0.00000000000E+00 -0.20485954390E+02  0.20485954390E+02  0.00000000000E+00 0.  1.
         23    2    1    2    0    0 -0.59612814578E+02 -0.40751078010E+02  0.28825830741E+03  0.31095584582E+03  0.91577007143E+02 0.  0.
         23    2    1    2    0    0  0.59612814578E+02  0.40751078010E+02  0.56103554793E+03  0.57930991830E+03  0.12499902951E+03 0.  0.
          5    1    4    4  502    0  0.32461362578E+02 -0.24337986802E+02  0.41566571660E+03  0.41766751803E+03  0.47000000000E+01 0. -1.
         -5    1    4    4    0  502  0.27151452000E+02  0.65089064812E+02  0.14536983133E+03  0.16164240027E+03  0.47000000000E+01 0. -1.
        -11    1    3    3    0    0 -0.14201529915E+02  0.24095821619E+02  0.30816565401E+02  0.41616736712E+02  0.00000000000E+00 0.  1.
         11    1    3    3    0    0 -0.45411284663E+02 -0.64846899629E+02  0.25744174201E+03  0.26933910911E+03  0.00000000000E+00 0. -1.
<mgrwt>
<rscale>  0 0.13685941E+03</rscale>
<asrwt>0</asrwt>
<pdfrwt beam="1">  1        2 0.13381225E+00 0.14435753E+03</pdfrwt>
<pdfrwt beam="2">  1       -2 0.31516860E-02 0.14435753E+03</pdfrwt>
<totfact> 0.12039343E+04</totfact>
</mgrwt>
</event>
<event>
 8    1  0.7550631E-006  0.1597696E+03  0.7546771E-02  0.1196466E+00
          1   -1    0    0  501    0  0.00000000000E+00  0.00000000000E+00  0.38520514389E+03  0.38520514389E+03  0.00000000000E+00 0. -1.
         -1   -1    0    0    0  501 -0.00000000000E+00 -0.00000000000E+00 -0.57048765395E+02  0.57048765395E+02  0.00000000000E+00 0.  1.
         23    2    1    2    0    0 -0.99508462363E+02  0.29257571976E+00  0.13036137883E+03  0.18799185418E+03  0.91895747804E+02 0.  0.
         23    2    1    2    0    0  0.99508462363E+02 -0.29257571976E+00  0.19779499967E+03  0.25426205511E+03  0.12499724434E+03 0.  0.
          5    1    4    4  502    0  0.58084029714E+02 -0.37821747299E+02  0.27072452344E+02  0.74560356440E+02  0.47000000000E+01 0. -1.
         -5    1    4    4    0  502  0.41424432649E+02  0.37529171579E+02  0.17072254732E+03  0.17970169867E+03  0.47000000000E+01 0. -1.
        -11    1    3    3    0    0 -0.21085756923E+02 -0.69986709584E+01  0.10182523438E+03  0.10422076998E+03  0.00000000000E+00 0. -1.
         11    1    3    3    0    0 -0.78422705440E+02  0.72912466781E+01  0.28536144450E+02  0.83771084192E+02  0.00000000000E+00 0.  1.
<mgrwt>
<rscale>  0 0.15330836E+03</rscale>
<asrwt>0</asrwt>
<pdfrwt beam="1">  1        1 0.59262328E-01 0.15976962E+03</pdfrwt>
<pdfrwt beam="2">  1       -1 0.87767334E-02 0.15976962E+03</pdfrwt>
<totfact> 0.46105638E+03</totfact>
</mgrwt>
</event>
<event>
 8    1  0.7550631E-006  0.2299059E+03  0.7546771E-02  0.1129719E+00
         -2   -1    0    0    0  501 -0.00000000000E+00  0.00000000000E+00  0.12554860089E+03  0.12554860089E+03  0.00000000000E+00 0.  1.
          2   -1    0    0  501    0  0.00000000000E+00 -0.00000000000E+00 -0.39180779502E+03  0.39180779502E+03  0.00000000000E+00 0. -1.
         23    2    1    2    0    0 -0.15815274043E+03 -0.11054274260E+03 -0.13626399759E+03  0.25324373706E+03  0.91282671261E+02 0.  0.
         23    2    1    2    0    0  0.15815274043E+03  0.11054274260E+03 -0.12999519654E+03  0.26411265885E+03  0.12499903278E+03 0.  0.
          5    1    4    4  502    0  0.26437772058E+02  0.23074881074E+02  0.24457363609E+02  0.43030902415E+02  0.47000000000E+01 0.  1.
         -5    1    4    4    0  502  0.13171496837E+03  0.87467861522E+02 -0.15445256015E+03  0.22108175644E+03  0.47000000000E+01 0.  1.
        -11    1    3    3    0    0 -0.73680068148E+02 -0.98719709628E+02 -0.53187981837E+02  0.13417635754E+03  0.00000000000E+00 0.  1.
         11    1    3    3    0    0 -0.84472672284E+02 -0.11823032969E+02 -0.83076015750E+02  0.11906737951E+03  0.00000000000E+00 0. -1.
<mgrwt>
<rscale>  0 0.22567892E+03</rscale>
<asrwt>0</asrwt>
<pdfrwt beam="2">  1        2 0.60278122E-01 0.22990595E+03</pdfrwt>
<pdfrwt beam="1">  1       -2 0.19315169E-01 0.22990595E+03</pdfrwt>
<totfact> 0.18136141E+03</totfact>
</mgrwt>
</event>
<event>
 8    1  0.7550631E-006  0.1283195E+03  0.7546771E-02  0.1237166E+00
         -1   -1    0    0    0  501 -0.00000000000E+00  0.00000000000E+00  0.39748812765E+02  0.39748812765E+02  0.00000000000E+00 0.  1.
          1   -1    0    0  501    0  0.00000000000E+00 -0.00000000000E+00 -0.36479003183E+03  0.36479003183E+03  0.00000000000E+00 0. -1.
         23    2    1    2    0    0 -0.11126423329E+02  0.26765554703E+02 -0.12601973670E+03  0.16773628578E+03  0.10683770550E+03 0.  0.
         23    2    1    2    0    0  0.11126423329E+02 -0.26765554703E+02 -0.19902148237E+03  0.23680255881E+03  0.12500283677E+03 0.  0.
          5    1    4    4  502    0 -0.38615095458E+02  0.29568229880E+02 -0.50414221623E+02  0.70207475082E+02  0.47000000000E+01 0. -1.
         -5    1    4    4    0  502  0.49741518788E+02 -0.56333784583E+02 -0.14860726075E+03  0.16659508373E+03  0.47000000000E+01 0. -1.
        -11    1    3    3    0    0  0.15693175004E+02  0.13268502494E+02  0.13783747853E+02  0.24745112750E+02  0.00000000000E+00 0.  1.
         11    1    3    3    0    0 -0.26819598333E+02  0.13497052209E+02 -0.13980348455E+03  0.14299117303E+03  0.00000000000E+00 0. -1.
<mgrwt>
<rscale>  0 0.12366775E+03</rscale>
<asrwt>0</asrwt>
<pdfrwt beam="2">  1        1 0.56121546E-01 0.12831953E+03</pdfrwt>
<pdfrwt beam="1">  1       -1 0.61152017E-02 0.12831953E+03</pdfrwt>
<totfact> 0.83915507E+03</totfact>
</mgrwt>
</event>
<event>
 8    1  0.7550631E-006  0.1349693E+03  0.7546771E-02  0.1231421E+00
         -4   -1    0    0    0  501 -0.00000000000E+00  0.00000000000E+00  0.32520873406E+02  0.32520873406E+02  0.00000000000E+00 0.  1.
          4   -1    0    0  501    0  0.00000000000E+00 -0.00000000000E+00 -0.48981334407E+03  0.48981334407E+03  0.00000000000E+00 0. -1.
         23    2    1    2    0    0  0.46824002832E+02  0.20045757717E+02 -0.13053571651E+03  0.16879966239E+03  0.94124561590E+02 0.  0.
         23    2    1    2    0    0 -0.46824002832E+02 -0.20045757717E+02 -0.32675675415E+03  0.35353455509E+03  0.12498954201E+03 0.  0.
          5    1    4    4  502    0  0.17492353624E+02  0.38376693588E+02 -0.15883333523E+03  0.16440459673E+03  0.47000000000E+01 0.  1.
         -5    1    4    4    0  502 -0.64316356456E+02 -0.58422451305E+02 -0.16792341893E+03  0.18912995836E+03  0.47000000000E+01 0.  1.
        -11    1    3    3    0    0  0.22694969026E+02  0.48543287642E+02 -0.11768312299E+03  0.12930904775E+03  0.00000000000E+00 0. -1.
         11    1    3    3    0    0  0.24129033806E+02 -0.28497529925E+02 -0.12852593521E+02  0.39490614638E+02  0.00000000000E+00 0.  1.
<mgrwt>
<rscale>  0 0.12736341E+03</rscale>
<asrwt>0</asrwt>
<pdfrwt beam="2">  1        4 0.75355897E-01 0.13496928E+03</pdfrwt>
<pdfrwt beam="1">  1       -4 0.50032114E-02 0.13496928E+03</pdfrwt>
<totfact> 0.64121524E+02</totfact>
</mgrwt>
</event>
<event>
 8    1  0.7550631E-006  0.1976290E+03  0.7546771E-02  0.1156131E+00
         -2   -1    0    0    0  501 -0.00000000000E+00  0.00000000000E+00  0.41308319421E+02  0.41308319421E+02  0.00000000000E+00 0.  1.
          2   -1    0    0  501    0  0.00000000000E+00 -0.00000000000E+00 -0.10248346937E+04  0.10248346937E+04  0.00000000000E+00 0. -1.
         23    2    1    2    0    0  0.14558054407E+03 -0.47328134779E+02 -0.25405806378E+03  0.31037768660E+03  0.91406572062E+02 0.  0.
         23    2    1    2    0    0 -0.14558054407E+03  0.47328134779E+02 -0.72946831054E+03  0.75576532656E+03  0.12499426224E+03 0.  0.
          5    1    4    4  502    0 -0.46039157069E+02  0.41611882823E+02 -0.95511541666E+02  0.11399867266E+03  0.47000000000E+01 0. -1.
         -5    1    4    4    0  502 -0.99541387001E+02  0.57162519565E+01 -0.63395676887E+03  0.64176665390E+03  0.47000000000E+01 0. -1.
        -11    1    3    3    0    0  0.23267641296E+02 -0.50112533931E+02 -0.92131469205E+02  0.10742837989E+03  0.00000000000E+00 0. -1.
         11    1    3    3    0    0  0.12231290277E+03  0.27843991519E+01 -0.16192659457E+03  0.20294930671E+03  0.00000000000E+00 0.  1.
<mgrwt>
<rscale>  0 0.19260708E+03</rscale>
<asrwt>0</asrwt>
<pdfrwt beam="2">  1        2 0.15766686E+00 0.19762898E+03</pdfrwt>
<pdfrwt beam="1">  1       -2 0.63551266E-02 0.19762898E+03</pdfrwt>
<totfact> 0.34065764E+03</totfact>
</mgrwt>
</event>
<event>
 8    1  0.7550631E-006  0.1385380E+03  0.7546771E-02  0.1226745E+00
          1   -1    0    0  501    0  0.00000000000E+00  0.00000000000E+00  0.73373312618E+03  0.73373312618E+03  0.00000000000E+00 0. -1.
         -1   -1    0    0    0  501 -0.00000000000E+00 -0.00000000000E+00 -0.20888567917E+02  0.20888567917E+02  0.00000000000E+00 0.  1.
         23    2    1    2    0    0  0.51699898782E+02  0.29912542680E+02  0.32166181219E+03  0.33963167071E+03  0.91190518079E+02 0.  0.
         23    2    1    2    0    0 -0.51699898782E+02 -0.29912542680E+02  0.39118274608E+03  0.41499002339E+03  0.12500055575E+03 0.  0.
          5    1    4    4  502    0 -0.47314123609E+02 -0.72622892733E+02  0.18527554070E+03  0.20460162957E+03  0.47000000000E+01 0. -1.
         -5    1    4    4    0  502 -0.43857751731E+01  0.42710350054E+02  0.20590720538E+03  0.21038839382E+03  0.47000000000E+01 0. -1.
        -11    1    3    3    0    0  0.67081834307E+02 -0.83425149109E+01  0.19018958859E+03  0.20184560847E+03  0.00000000000E+00 0. -1.
         11    1    3    3    0    0 -0.15381935525E+02  0.38255057591E+02  0.13147222359E+03  0.13778606224E+03  0.00000000000E+00 0.  1.
<mgrwt>
<rscale>  0 0.13048003E+03</rscale>
<asrwt>0</asrwt>
<pdfrwt beam="1">  1        1 0.11288200E+00 0.13853800E+03</pdfrwt>
<pdfrwt beam="2">  1       -1 0.32136264E-02 0.13853800E+03</pdfrwt>
<totfact> 0.86180441E+03</totfact>
</mgrwt>
</event>
<event>
 8    1  0.7550631E-006  0.1328330E+03  0.7546771E-02  0.1235439E+00
         -1   -1    0    0    0  501 -0.00000000000E+00  0.00000000000E+00  0.18877051344E+02  0.18877051344E+02  0.00000000000E+00 0.  1.
          1   -1    0    0  501    0  0.00000000000E+00 -0.00000000000E+00 -0.93585532844E+03  0.93585532844E+03  0.00000000000E+00 0. -1.
         23    2    1    2    0    0 -0.42797359058E+02  0.13721867940E+02 -0.19573340644E+03  0.22135746492E+03  0.93100253919E+02 0.  0.
         23    2    1    2    0    0  0.42797359058E+02 -0.13721867940E+02 -0.72124487065E+03  0.73337491486E+03  0.12499879477E+03 0.  0.
          5    1    4    4  502    0 -0.43089622552E+02 -0.16449629892E+02 -0.28074740373E+03  0.28454964522E+03  0.47000000000E+01 0. -1.
         -5    1    4    4    0  502  0.85886981610E+02  0.27277619522E+01 -0.44049746692E+03  0.44882526963E+03  0.47000000000E+01 0. -1.
        -11    1    3    3    0    0 -0.21436001911E+01  0.46057606929E+02 -0.12764117521E+03  0.13571355049E+03  0.00000000000E+00 0. -1.
         11    1    3    3    0    0 -0.40653758866E+02 -0.32335738989E+02 -0.68092231232E+02  0.85643914437E+02  0.00000000000E+00 0.  1.
<mgrwt>
<rscale>  0 0.12476400E+03</rscale>
<asrwt>0</asrwt>
<pdfrwt beam="2">  1        1 0.14397772E+00 0.13283299E+03</pdfrwt>
<pdfrwt beam="1">  1       -1 0.29041621E-02 0.13283299E+03</pdfrwt>
<totfact> 0.68620455E+03</totfact>
</mgrwt>
</event>
<event>
 8    1  0.7550631E-006  0.2339171E+03  0.7546771E-02  0.1126837E+00
          2   -1    0    0  501    0  0.00000000000E+00  0.00000000000E+00  0.21630197631E+03  0.21630197631E+03  0.00000000000E+00 0.  1.
         -2   -1    0    0    0  501 -0.00000000000E+00 -0.00000000000E+00 -0.38344191417E+03  0.38344191417E+03  0.00000000000E+00 0. -1.
         23    2    1    2    0    0 -0.13231148403E+03 -0.14691768880E+03 -0.26783701702E+03  0.34507325378E+03  0.90817105786E+02 0.  0.
         23    2    1    2    0    0  0.13231148403E+03  0.14691768880E+03  0.10069707915E+03  0.25467063670E+03  0.12500438136E+03 0.  0.
          5    1    4    4  502    0  0.61564249399E+02 -0.91851209948E+01  0.29059976716E+02  0.68855613414E+02  0.47000000000E+01 0.  1.
         -5    1    4    4    0  502  0.70747234627E+02  0.15610280979E+03  0.71637102436E+02  0.18581502329E+03  0.47000000000E+01 0.  1.
        -11    1    3    3    0    0 -0.63365275697E+02 -0.47660816863E+02 -0.17680939150E+03  0.19377376642E+03  0.00000000000E+00 0. -1.
         11    1    3    3    0    0 -0.68946208329E+02 -0.99256871937E+02 -0.91027625514E+02  0.15129948736E+03  0.00000000000E+00 0.  1.
<mgrwt>
<rscale>  0 0.22971999E+03</rscale>
<asrwt>0</asrwt>
<pdfrwt beam="1">  1        2 0.33277227E-01 0.23391715E+03</pdfrwt>
<pdfrwt beam="2">  1       -2 0.58991064E-01 0.23391715E+03</pdfrwt>
<totfact> 0.43007192E+02</totfact>
</mgrwt>
</event>
<event>
 8    1  0.7550631E-006  0.1770896E+03  0.7546771E-02  0.1176243E+00
         -1   -1    0    0    0  501 -0.00000000000E+00  0.00000000000E+00  0.71840803374E+02  0.71840803374E+02  0.00000000000E+00 0.  1.
          1   -1    0    0  501    0  0.00000000000E+00 -0.00000000000E+00 -0.41473023132E+03  0.41473023132E+03  0.00000000000E+00 0. -1.
         23    2    1    2    0    0 -0.90581117975E+02  0.86778246113E+02 -0.97359897936E+02  0.18384100534E+03  0.92645359218E+02 0.  0.
         23    2    1    2    0    0  0.90581117975E+02 -0.86778246113E+02 -0.24552953001E+03  0.30273002936E+03  0.12500127054E+03 0.  0.
          5    1    4    4  502    0  0.34841885578E+02 -0.53931329797E+02 -0.19041666513E+02  0.67135835348E+02  0.47000000000E+01 0.  1.
         -5    1    4    4    0  502  0.55739232397E+02 -0.32846916317E+02 -0.22648786350E+03  0.23559419401E+03  0.47000000000E+01 0.  1.
        -11    1    3    3    0    0 -0.34371733120E+01  0.33018218417E+02 -0.70591260389E+02  0.78007326266E+02  0.00000000000E+00 0. -1.
         11    1    3    3    0    0 -0.87143944663E+02  0.53760027696E+02 -0.26768637547E+02  0.10583367907E+03  0.00000000000E+00 0.  1.
<mgrwt>
<rscale>  0 0.17154853E+03</rscale>
<asrwt>0</asrwt>
<pdfrwt beam="2">  1        1 0.63804651E-01 0.17708958E+03</pdfrwt>
<pdfrwt beam="1">  1       -1 0.11052431E-01 0.17708958E+03</pdfrwt>
<totfact> 0.29606048E+03</totfact>
</mgrwt>
</event>
<event>
 8    1  0.7550631E-006  0.1265235E+03  0.7546771E-02  0.1248083E+00
         -1   -1    0    0    0  501 -0.00000000000E+00  0.00000000000E+00  0.55965578471E+03  0.55965578471E+03  0.00000000000E+00 0.  1.
          1   -1    0    0  501    0  0.00000000000E+00 -0.00000000000E+00 -0.21543525208E+02  0.21543525208E+02  0.00000000000E+00 0. -1.
         23    2    1    2    0    0  0.15849206208E+02 -0.11404825784E+02  0.24654689131E+03  0.26336512551E+03  0.90523766662E+02 0.  0.
         23    2    1    2    0    0 -0.15849206208E+02  0.11404825784E+02  0.29156536819E+03  0.31783418441E+03  0.12500774961E+03 0.  0.
          5    1    4    4  502    0  0.41820616678E+02  0.36616093373E+02  0.19208768240E+03  0.20002367361E+03  0.47000000000E+01 0. -1.
         -5    1    4    4    0  502 -0.57669822886E+02 -0.25211267590E+02  0.99477685785E+02  0.11781051080E+03  0.47000000000E+01 0. -1.
        -11    1    3    3    0    0  0.30562088277E+02 -0.42272531476E+02  0.19222299394E+03  0.19917501740E+03  0.00000000000E+00 0.  1.
         11    1    3    3    0    0 -0.14712882069E+02  0.30867705693E+02  0.54323897378E+02  0.64190108115E+02  0.00000000000E+00 0. -1.
<mgrwt>
<rscale>  0 0.11702750E+03</rscale>
<asrwt>0</asrwt>
<pdfrwt beam="2">  1        1 0.33143889E-02 0.12652353E+03</pdfrwt>
<pdfrwt beam="1">  1       -1 0.86100879E-01 0.12652353E+03</pdfrwt>
<totfact> 0.39481938E+03</totfact>
</mgrwt>
</event>
<event>
 8    1  0.7550631E-006  0.1388603E+03  0.7546771E-02  0.1225598E+00
         -3   -1    0    0    0  501 -0.00000000000E+00  0.00000000000E+00  0.25142363812E+03  0.25142363812E+03  0.00000000000E+00 0.  1.
          3   -1    0    0  501    0  0.00000000000E+00 -0.00000000000E+00 -0.97414453831E+02  0.97414453831E+02  0.00000000000E+00 0. -1.
         23    2    1    2    0    0 -0.58068581625E+02  0.16890242131E+02  0.17623956671E+03  0.20820962190E+03  0.92917282167E+02 0.  0.
         23    2    1    2    0    0  0.58068581625E+02 -0.16890242131E+02 -0.22230382422E+02  0.14062847005E+03  0.12499974494E+03 0.  0.
          5    1    4    4  502    0  0.86557449130E+02 -0.44232796679E+02 -0.25865607639E+02  0.10069683193E+03  0.47000000000E+01 0. -1.
         -5    1    4    4    0  502 -0.28488867505E+02  0.27342554548E+02  0.36352252174E+01  0.39931638125E+02  0.47000000000E+01 0. -1.
        -11    1    3    3    0    0  0.82307182445E+01 -0.28964995301E+02  0.43367922288E+02  0.52796707844E+02  0.00000000000E+00 0. -1.
         11    1    3    3    0    0 -0.66299299869E+02  0.45855237432E+02  0.13287164442E+03  0.15541291405E+03  0.00000000000E+00 0.  1.
<mgrwt>
<rscale>  0 0.13125967E+03</rscale>
<asrwt>0</asrwt>
<pdfrwt beam="2">  1        3 0.14986839E-01 0.13886028E+03</pdfrwt>
<pdfrwt beam="1">  1       -3 0.38680560E-01 0.13886028E+03</pdfrwt>
<totfact> 0.57269461E+02</totfact>
</mgrwt>
</event>
<event>
 8    1  0.7550631E-006  0.1484727E+03  0.7546771E-02  0.1212721E+00
         -1   -1    0    0    0  501 -0.00000000000E+00  0.00000000000E+00  0.56895004288E+03  0.56895004288E+03  0.00000000000E+00 0.  1.
          1   -1    0    0  501    0  0.00000000000E+00 -0.00000000000E+00 -0.34185084941E+02  0.34185084941E+02  0.00000000000E+00 0. -1.
         23    2    1    2    0    0 -0.73178803361E+02  0.32595563020E+02  0.32560783826E+03  0.34663786442E+03  0.87862032301E+02 0.  0.
         23    2    1    2    0    0  0.73178803361E+02 -0.32595563020E+02  0.20915711968E+03  0.25649726341E+03  0.12500614958E+03 0.  0.
          5    1    4    4  502    0  0.10125216270E+03 -0.38599351584E+02  0.11557465750E+03  0.15849763989E+03  0.47000000000E+01 0. -1.
         -5    1    4    4    0  502 -0.28073359340E+02  0.60037885645E+01  0.93582462180E+02  0.97999623517E+02  0.47000000000E+01 0. -1.
        -11    1    3    3    0    0 -0.25387119141E+02 -0.29234729709E+02  0.13985465487E+03  0.14511547033E+03  0.00000000000E+00 0.  1.
         11    1    3    3    0    0 -0.47791684220E+02  0.61830292729E+02  0.18575318339E+03  0.20152239409E+03  0.00000000000E+00 0. -1.
<mgrwt>
<rscale>  0 0.14045298E+03</rscale>
<asrwt>0</asrwt>
<pdfrwt beam="2">  1        1 0.52592443E-02 0.14847271E+03</pdfrwt>
<pdfrwt beam="1">  1       -1 0.87530769E-01 0.14847271E+03</pdfrwt>
<totfact> 0.20401476E+03</totfact>
</mgrwt>
</event>
<event>
 8    1  0.7550631E-006  0.1433877E+03  0.7546771E-02  0.1219205E+00
          1   -1    0    0  501    0  0.00000000000E+00  0.00000000000E+00  0.81668447553E+02  0.81668447553E+02  0.00000000000E+00 0. -1.
         -1   -1    0    0    0  501 -0.00000000000E+00 -0.00000000000E+00 -0.20724656512E+03  0.20724656512E+03  0.00000000000E+00 0.  1.
         23    2    1    2    0    0 -0.49271073135E+02 -0.50083486824E+02 -0.72464552858E+02  0.13600622761E+03  0.91162427716E+02 0.  0.
         23    2    1    2    0    0  0.49271073135E+02  0.50083486824E+02 -0.53113564714E+02  0.15290878507E+03  0.12499620592E+03 0.  0.
          5    1    4    4  502    0 -0.31975870233E+02 -0.19912793615E+01 -0.45697779211E+02  0.56007128970E+02  0.47000000000E+01 0.  1.
         -5    1    4    4    0  502  0.81246943368E+02  0.52074766185E+02 -0.74157855028E+01  0.96901656098E+02  0.47000000000E+01 0.  1.
        -11    1    3    3    0    0  0.10926169559E+02  0.27606016556E+01  0.14111138367E+02  0.18058968097E+02  0.00000000000E+00 0. -1.
         11    1    3    3    0    0 -0.60197242693E+02 -0.52844088479E+02 -0.86575691225E+02  0.11794725951E+03  0.00000000000E+00 0.  1.
<mgrwt>
<rscale>  0 0.13572099E+03</rscale>
<asrwt>0</asrwt>
<pdfrwt beam="1">  1        1 0.12564377E-01 0.14338775E+03</pdfrwt>
<pdfrwt beam="2">  1       -1 0.31884087E-01 0.14338775E+03</pdfrwt>
<totfact> 0.41708669E+03</totfact>
</mgrwt>
</event>
<event>
 8    1  0.7550631E-006  0.1373888E+03  0.7546771E-02  0.1228748E+00
         -1   -1    0    0    0  501 -0.00000000000E+00  0.00000000000E+00  0.24740747410E+02  0.24740747410E+02  0.00000000000E+00 0.  1.
          1   -1    0    0  501    0  0.00000000000E+00 -0.00000000000E+00 -0.61678780720E+03  0.61678780720E+03  0.00000000000E+00 0. -1.
         23    2    1    2    0    0 -0.29990778167E+01 -0.56931774615E+02 -0.21553150565E+03  0.24072979070E+03  0.90811787659E+02 0.  0.
         23    2    1    2    0    0  0.29990778167E+01  0.56931774615E+02 -0.37651555414E+03  0.40079876390E+03  0.12500186082E+03 0.  0.
          5    1    4    4  502    0  0.17195511874E+01 -0.36178802431E+02 -0.17483089493E+03  0.17860513549E+03  0.47000000000E+01 0.  1.
         -5    1    4    4    0  502  0.12795266293E+01  0.93110577045E+02 -0.20168465921E+03  0.22219362841E+03  0.47000000000E+01 0.  1.
        -11    1    3    3    0    0  0.28186155210E+02 -0.62662533617E+02 -0.10298480405E+03  0.12380194800E+03  0.00000000000E+00 0.  1.
         11    1    3    3    0    0 -0.31185233027E+02  0.57307590028E+01 -0.11254670160E+03  0.11692784270E+03  0.00000000000E+00 0. -1.
<mgrwt>
<rscale>  0 0.12913281E+03</rscale>
<asrwt>0</asrwt>
<pdfrwt beam="2">  1        1 0.94890427E-01 0.13738882E+03</pdfrwt>
<pdfrwt beam="1">  1       -1 0.38062690E-02 0.13738882E+03</pdfrwt>
<totfact> 0.85922012E+03</totfact>
</mgrwt>
</event>
<event>
 8    1  0.7550631E-006  0.1447250E+03  0.7546771E-02  0.1218322E+00
         -1   -1    0    0    0  501 -0.00000000000E+00  0.00000000000E+00  0.49942335660E+03  0.49942335660E+03  0.00000000000E+00 0.  1.
          1   -1    0    0  501    0  0.00000000000E+00 -0.00000000000E+00 -0.36658075648E+02  0.36658075648E+02  0.00000000000E+00 0. -1.
         23    2    1    2    0    0 -0.39528902522E+02 -0.61302119036E+02  0.28424914878E+03  0.30626991504E+03  0.87653855255E+02 0.  0.
         23    2    1    2    0    0  0.39528902522E+02  0.61302119036E+02  0.17851613218E+03  0.22981151722E+03  0.12499936026E+03 0.  0.
          5    1    4    4  502    0  0.60779852597E+02  0.69582875121E+02  0.62886808689E+02  0.11186066198E+03  0.47000000000E+01 0.  1.
         -5    1    4    4    0  502 -0.21250950075E+02 -0.82807560848E+01  0.11562932349E+03  0.11795085523E+03  0.47000000000E+01 0.  1.
        -11    1    3    3    0    0 -0.35756756815E+02 -0.72251035534E+00  0.19553575081E+03  0.19877951988E+03  0.00000000000E+00 0.  1.
         11    1    3    3    0    0 -0.37721457073E+01 -0.60579608681E+02  0.88713397967E+02  0.10749039515E+03  0.00000000000E+00 0. -1.
<mgrwt>
<rscale>  0 0.13635339E+03</rscale>
<asrwt>0</asrwt>
<pdfrwt beam="2">  1        1 0.56397043E-02 0.14472499E+03</pdfrwt>
<pdfrwt beam="1">  1       -1 0.76834358E-01 0.14472499E+03</pdfrwt>
<totfact> 0.24246868E+03</totfact>
</mgrwt>
</event>
<event>
 8    1  0.7550631E-006  0.1320567E+03  0.7546771E-02  0.1237612E+00
         -2   -1    0    0    0  501 -0.00000000000E+00  0.00000000000E+00  0.34586569463E+02  0.34586569463E+02  0.00000000000E+00 0.  1.
          2   -1    0    0  501    0  0.00000000000E+00 -0.00000000000E+00 -0.41106217840E+03  0.41106217840E+03  0.00000000000E+00 0. -1.
         23    2    1    2    0    0 -0.41072228501E+02  0.11286606479E+02 -0.11575436367E+03  0.15339108488E+03  0.91189016731E+02 0.  0.
         23    2    1    2    0    0  0.41072228501E+02 -0.11286606479E+02 -0.26072124527E+03  0.29225766298E+03  0.12499863359E+03 0.  0.
          5    1    4    4  502    0  0.12060468332E+02  0.50669151273E+02 -0.57241242410E+02  0.77533654755E+02  0.47000000000E+01 0. -1.
         -5    1    4    4    0  502  0.29011760169E+02 -0.61955757751E+02 -0.20348000286E+03  0.21472400823E+03  0.47000000000E+01 0. -1.
        -11    1    3    3    0    0 -0.65184453016E+02 -0.63044511276E+01 -0.10028319827E+03  0.11977261321E+03  0.00000000000E+00 0. -1.
         11    1    3    3    0    0  0.24112224515E+02  0.17591057606E+02 -0.15471165396E+02  0.33618471671E+02  0.00000000000E+00 0.  1.
<mgrwt>
<rscale>  0 0.12338723E+03</rscale>
<asrwt>0</asrwt>
<pdfrwt beam="2">  1        2 0.63240336E-01 0.13205671E+03</pdfrwt>
<pdfrwt beam="1">  1       -2 0.53210106E-02 0.13205671E+03</pdfrwt>
<totfact> 0.13007528E+04</totfact>
</mgrwt>
</event>
<event>
 8    1  0.7550631E-006  0.1707898E+03  0.7546771E-02  0.1184692E+00
         -2   -1    0    0    0  501 -0.00000000000E+00  0.00000000000E+00  0.65018498371E+02  0.65018498371E+02  0.00000000000E+00 0.  1.
          2   -1    0    0  501    0  0.00000000000E+00 -0.00000000000E+00 -0.41089502050E+03  0.41089502050E+03  0.00000000000E+00 0. -1.
         23    2    1    2    0    0 -0.81090116956E+02 -0.83474145276E+02 -0.94714919218E+02  0.17218453735E+03  0.84457438886E+02 0.  0.
         23    2    1    2    0    0  0.81090116956E+02  0.83474145276E+02 -0.25116160292E+03  0.30372898152E+03  0.12500241374E+03 0.  0.
          5    1    4    4  502    0 -0.29575542441E+02  0.20476923614E+01 -0.71180541201E+02  0.77250664724E+02  0.47000000000E+01 0.  1.
         -5    1    4    4    0  502  0.11066565940E+03  0.81426452915E+02 -0.17998106171E+03  0.22647831680E+03  0.47000000000E+01 0.  1.
        -11    1    3    3    0    0 -0.19330931915E+02 -0.74117159650E+02 -0.30058207389E+02  0.82283255373E+02  0.00000000000E+00 0.  1.
         11    1    3    3    0    0 -0.61759185041E+02 -0.93569856261E+01 -0.64656711830E+02  0.89901281980E+02  0.00000000000E+00 0. -1.
<mgrwt>
<rscale>  0 0.16359923E+03</rscale>
<asrwt>0</asrwt>
<pdfrwt beam="2">  1        2 0.63214620E-01 0.17078976E+03</pdfrwt>
<pdfrwt beam="1">  1       -2 0.10002846E-01 0.17078976E+03</pdfrwt>
<totfact> 0.50046279E+03</totfact>
</mgrwt>
</event>
<event>
 8    1  0.7550631E-006  0.1418298E+03  0.7546771E-02  0.1221352E+00
         -2   -1    0    0    0  501 -0.00000000000E+00  0.00000000000E+00  0.26356611660E+02  0.26356611660E+02  0.00000000000E+00 0.  1.
          2   -1    0    0  501    0  0.00000000000E+00 -0.00000000000E+00 -0.65805837250E+03  0.65805837250E+03  0.00000000000E+00 0. -1.
         23    2    1    2    0    0  0.28477311751E+02  0.60668983263E+02 -0.20054317154E+03  0.23052795792E+03  0.91836228786E+02 0.  0.
         23    2    1    2    0    0 -0.28477311751E+02 -0.60668983263E+02 -0.43115858930E+03  0.45388702624E+03  0.12499608252E+03 0.  0.
          5    1    4    4  502    0 -0.61702554812E+02 -0.75197058923E+02 -0.23550840369E+03  0.25484917333E+03  0.47000000000E+01 0. -1.
         -5    1    4    4    0  502  0.33225243061E+02  0.14528075660E+02 -0.19565018562E+03  0.19903785291E+03  0.47000000000E+01 0. -1.
        -11    1    3    3    0    0 -0.10453932423E+02  0.72087854961E+02 -0.12094675656E+03  0.14118803582E+03  0.00000000000E+00 0.  1.
         11    1    3    3    0    0  0.38931244174E+02 -0.11418871697E+02 -0.79596414975E+02  0.89339922099E+02  0.00000000000E+00 0. -1.
<mgrwt>
<rscale>  0 0.13420137E+03</rscale>
<asrwt>0</asrwt>
<pdfrwt beam="2">  1        2 0.10123974E+00 0.14182984E+03</pdfrwt>
<pdfrwt beam="1">  1       -2 0.40548636E-02 0.14182984E+03</pdfrwt>
<totfact> 0.11647763E+04</totfact>
</mgrwt>
</event>
<event>
 8    1  0.7550631E-006  0.1594438E+03  0.7546771E-02  0.1201455E+00
          3   -1    0    0  501    0  0.00000000000E+00  0.00000000000E+00  0.17886884530E+03  0.17886884530E+03  0.00000000000E+00 0. -1.
         -3   -1    0    0    0  501 -0.00000000000E+00 -0.00000000000E+00 -0.11100338263E+03  0.11100338263E+03  0.00000000000E+00 0.  1.
         23    2    1    2    0    0 -0.80657074071E+02  0.57371959170E+02  0.33458901607E+02  0.12675832344E+03  0.71770949336E+02 0.  0.
         23    2    1    2    0    0  0.80657074071E+02 -0.57371959170E+02  0.34406561063E+02  0.16311390449E+03  0.12500091638E+03 0.  0.
          5    1    4    4  502    0  0.24190354391E+02 -0.13552595222E+02  0.75476594398E+02  0.80545964423E+02  0.47000000000E+01 0. -1.
         -5    1    4    4    0  502  0.56466719680E+02 -0.43819363948E+02 -0.41070033336E+02  0.82567940064E+02  0.47000000000E+01 0. -1.
        -11    1    3    3    0    0 -0.31014739453E+02  0.39700653004E+02  0.50544420113E+02  0.71363816580E+02  0.00000000000E+00 0. -1.
         11    1    3    3    0    0 -0.49642334618E+02  0.17671306166E+02 -0.17085518506E+02  0.55394506863E+02  0.00000000000E+00 0.  1.
<mgrwt>
<rscale>  0 0.14920360E+03</rscale>
<asrwt>0</asrwt>
<pdfrwt beam="1">  1        3 0.27518284E-01 0.15944383E+03</pdfrwt>
<pdfrwt beam="2">  1       -3 0.17077443E-01 0.15944383E+03</pdfrwt>
<totfact> 0.88344155E+02</totfact>
</mgrwt>
</event>
<event>
 8    1  0.7550631E-006  0.1577338E+03  0.7546771E-02  0.1198786E+00
          2   -1    0    0  501    0  0.00000000000E+00  0.00000000000E+00  0.13171430187E+03  0.13171430187E+03  0.00000000000E+00 0. -1.
         -2   -1    0    0    0  501 -0.00000000000E+00 -0.00000000000E+00 -0.20393164283E+03  0.20393164283E+03  0.00000000000E+00 0.  1.
         23    2    1    2    0    0  0.76742417591E+02  0.57970447098E+02 -0.11025929212E+03  0.17338956378E+03  0.93042237372E+02 0.  0.
         23    2    1    2    0    0 -0.76742417591E+02 -0.57970447098E+02  0.38041951163E+02  0.16225638092E+03  0.12501988524E+03 0.  0.
          5    1    4    4  502    0 -0.58820692235E+01 -0.74164271113E+02 -0.96876423855E+01  0.75172323784E+02  0.47000000000E+01 0.  1.
         -5    1    4    4    0  502 -0.70860348368E+02  0.16193824015E+02  0.47729593549E+02  0.87084057136E+02  0.47000000000E+01 0.  1.
        -11    1    3    3    0    0  0.52035451667E+02  0.77560174468E+02 -0.51377648715E+02  0.10659705287E+03  0.00000000000E+00 0. -1.
         11    1    3    3    0    0  0.24706965924E+02 -0.19589727370E+02 -0.58881643401E+02  0.66792510906E+02  0.00000000000E+00 0.  1.
<mgrwt>
<rscale>  0 0.15138082E+03</rscale>
<asrwt>0</asrwt>
<pdfrwt beam="1">  1        2 0.20263739E-01 0.15773377E+03</pdfrwt>
<pdfrwt beam="2">  1       -2 0.31374099E-01 0.15773377E+03</pdfrwt>
<totfact> 0.25089816E+03</totfact>
</mgrwt>
</event>
<event>
 7    1  0.7550631E-006  0.1649940E+03  0.7546771E-02  0.1196091E+00
         -1   -1    0    0    0  501 -0.00000000000E+00  0.00000000000E+00  0.37913433487E+03  0.37913433487E+03  0.00000000000E+00 0.  1.
          1   -1    0    0  501    0  0.00000000000E+00 -0.00000000000E+00 -0.17393345992E+03  0.17393345992E+03  0.00000000000E+00 0. -1.
         23    2    1    2    0    0 -0.52178847928E+02  0.66774349648E+02  0.32586484452E+03  0.34865932081E+03  0.90520600708E+02 0.  0.
          5    1    1    2  502    0  0.40684426388E+02 -0.10835247223E+03 -0.10996025175E+03  0.15971483261E+03  0.47000000000E+01 0. -1.
         -5    1    1    2    0  502  0.11494421540E+02  0.41578122581E+02 -0.10703717820E+02  0.44693641371E+02  0.47000000000E+01 0.  1.
        -11    1    3    3    0    0 -0.63383403411E+02  0.71178363001E+02  0.32231000244E+03  0.33610646060E+03  0.00000000000E+00 0.  1.
         11    1    3    3    0    0  0.11204555484E+02 -0.44040133533E+01  0.35548420838E+01  0.12552860210E+02  0.00000000000E+00 0. -1.
<mgrwt>
<rscale>  0 0.15362241E+03</rscale>
<asrwt>0</asrwt>
<pdfrwt beam="2">  1        1 0.26758994E-01 0.16499403E+03</pdfrwt>
<pdfrwt beam="1">  1       -1 0.58328359E-01 0.16499403E+03</pdfrwt>
<totfact> 0.53997026E+02</totfact>
</mgrwt>
</event>
<event>
 8    1  0.7550631E-006  0.1320855E+03  0.7546771E-02  0.1247205E+00
         -4   -1    0    0    0  501 -0.00000000000E+00  0.00000000000E+00  0.20831587883E+03  0.20831587883E+03  0.00000000000E+00 0.  1.
          4   -1    0    0  501    0  0.00000000000E+00 -0.00000000000E+00 -0.60324929604E+02  0.60324929604E+02  0.00000000000E+00 0. -1.
         23    2    1    2    0    0 -0.38395163178E+02  0.18663862948E+02  0.95722580600E+02  0.12658954316E+03  0.70989940600E+02 0.  0.
         23    2    1    2    0    0  0.38395163178E+02 -0.18663862948E+02  0.52268368628E+02  0.14205126527E+03  0.12499620502E+03 0.  0.
          5    1    4    4  502    0 -0.19949798459E+02 -0.41128515088E+02  0.63473072451E+02  0.78361151972E+02  0.47000000000E+01 0. -1.
         -5    1    4    4    0  502  0.58344961637E+02  0.22464652140E+02 -0.11204703824E+02  0.63690113298E+02  0.47000000000E+01 0. -1.
        -11    1    3    3    0    0 -0.21268192925E+02  0.14773789825E+02  0.10399854789E+03  0.10717415201E+03  0.00000000000E+00 0.  1.
         11    1    3    3    0    0 -0.17126970253E+02  0.38900731226E+01 -0.82759672923E+01  0.19415391152E+02  0.00000000000E+00 0. -1.
<mgrwt>
<rscale>  0 0.11754347E+03</rscale>
<asrwt>0</asrwt>
<pdfrwt beam="2">  1        4 0.92807585E-02 0.13208550E+03</pdfrwt>
<pdfrwt beam="1">  1       -4 0.32048596E-01 0.13208550E+03</pdfrwt>
<totfact> 0.13218832E+03</totfact>
</mgrwt>
</event>
<event>
 8    1  0.7550631E-006  0.1268397E+03  0.7546771E-02  0.1248485E+00
          1   -1    0    0  501    0  0.00000000000E+00  0.00000000000E+00  0.56936606548E+03  0.56936606548E+03  0.00000000000E+00 0. -1.
         -1   -1    0    0    0  501 -0.00000000000E+00 -0.00000000000E+00 -0.25565116974E+02  0.25565116974E+02  0.00000000000E+00 0.  1.
         23    2    1    2    0    0 -0.34150841360E+01 -0.21243057213E+02  0.10951800129E+03  0.14250440222E+03  0.88602380140E+02 0.  0.
         23    2    1    2    0    0  0.34150841360E+01  0.21243057213E+02  0.43428294722E+03  0.45242678024E+03  0.12500153178E+03 0.  0.
          5    1    4    4  502    0 -0.85709215626E+01 -0.49733946143E+02  0.23726428764E+03  0.24261772046E+03  0.47000000000E+01 0.  1.
         -5    1    4    4    0  502  0.11986005699E+02  0.70977003356E+02  0.19701865958E+03  0.20980905977E+03  0.47000000000E+01 0.  1.
        -11    1    3    3    0    0 -0.14569119587E+02 -0.26330180588E+02  0.12161429829E+03  0.12528198275E+03  0.00000000000E+00 0. -1.
         11    1    3    3    0    0  0.11154035451E+02  0.50871233749E+01 -0.12096297000E+02  0.17222419464E+02  0.00000000000E+00 0.  1.
<mgrwt>
<rscale>  0 0.11679203E+03</rscale>
<asrwt>0</asrwt>
<pdfrwt beam="1">  1        1 0.87594770E-01 0.12683971E+03</pdfrwt>
<pdfrwt beam="2">  1       -1 0.39330953E-02 0.12683971E+03</pdfrwt>
<totfact> 0.90797394E+03</totfact>
</mgrwt>
</event>
<event>
 8    1  0.7550631E-006  0.1550072E+03  0.7546771E-02  0.1203272E+00
         -2   -1    0    0    0  501 -0.00000000000E+00  0.00000000000E+00  0.85108810044E+02  0.85108810044E+02  0.00000000000E+00 0.  1.
          2   -1    0    0  501    0  0.00000000000E+00 -0.00000000000E+00 -0.32275199008E+03  0.32275199008E+03  0.00000000000E+00 0. -1.
         23    2    1    2    0    0  0.87090014046E+02 -0.28417443219E+02 -0.46551640411E+01  0.12802040280E+03  0.89304710709E+02 0.  0.
         23    2    1    2    0    0 -0.87090014046E+02  0.28417443219E+02 -0.23298801600E+03  0.27984039733E+03  0.12504003660E+03 0.  0.
          5    1    4    4  502    0 -0.14441737112E+02 -0.46973754093E+02 -0.88611105604E+02  0.10143527681E+03  0.47000000000E+01 0.  1.
         -5    1    4    4    0  502 -0.72648276934E+02  0.75391197312E+02 -0.14437691039E+03  0.17840512052E+03  0.47000000000E+01 0.  1.
        -11    1    3    3    0    0  0.35077908865E+02  0.31418581373E+02  0.79039994265E+01  0.47749975421E+02  0.00000000000E+00 0.  1.
         11    1    3    3    0    0  0.52012105181E+02 -0.59836024592E+02 -0.12559163468E+02  0.80270427377E+02  0.00000000000E+00 0. -1.
<mgrwt>
<rscale>  0 0.14774469E+03</rscale>
<asrwt>0</asrwt>
<pdfrwt beam="2">  1        2 0.49654152E-01 0.15500720E+03</pdfrwt>
<pdfrwt beam="1">  1       -2 0.13093663E-01 0.15500720E+03</pdfrwt>
<totfact> 0.41961315E+03</totfact>
</mgrwt>
</event>
<event>
 8    1  0.7550631E-006  0.1257222E+03  0.7546771E-02  0.1248513E+00
          2   -1    0    0  501    0  0.00000000000E+00  0.00000000000E+00  0.25624935391E+03  0.25624935391E+03  0.00000000000E+00 0. -1.
         -2   -1    0    0    0  501 -0.00000000000E+00 -0.00000000000E+00 -0.47755282046E+02  0.47755282046E+02  0.00000000000E+00 0.  1.
         23    2    1    2    0    0  0.12745180146E+02  0.42583632494E+01  0.69341364496E+02  0.11646919214E+03  0.92608177894E+02 0.  0.
         23    2    1    2    0    0 -0.12745180146E+02 -0.42583632494E+01  0.13915270737E+03  0.18753544381E+03  0.12500197376E+03 0.  0.
          5    1    4    4  502    0 -0.43013204715E+02  0.14406445616E+02  0.18686598230E+01  0.45642779765E+02  0.47000000000E+01 0.  1.
         -5    1    4    4    0  502  0.30268024569E+02 -0.18664808865E+02  0.13728404754E+03  0.14189266405E+03  0.47000000000E+01 0.  1.
        -11    1    3    3    0    0 -0.68825809065E+01  0.36818542027E+02  0.76587368435E-01  0.37456385604E+02  0.00000000000E+00 0.  1.
         11    1    3    3    0    0  0.19627761052E+02 -0.32560178777E+02  0.69264777127E+02  0.79012806534E+02  0.00000000000E+00 0. -1.
<mgrwt>
<rscale>  0 0.11677568E+03</rscale>
<asrwt>0</asrwt>
<pdfrwt beam="1">  1        2 0.39422977E-01 0.12572218E+03</pdfrwt>
<pdfrwt beam="2">  1       -2 0.73469666E-02 0.12572218E+03</pdfrwt>
<totfact> 0.13102229E+04</totfact>
</mgrwt>
</event>
<event>
 8    1  0.7550631E-006  0.1185217E+03  0.7546771E-02  0.1249810E+00
         -2   -1    0    0    0  501 -0.00000000000E+00  0.00000000000E+00  0.54759145455E+02  0.54759145455E+02  0.00000000000E+00 0.  1.
          2   -1    0    0  501    0  0.00000000000E+00 -0.00000000000E+00 -0.26303746050E+03  0.26303746050E+03  0.00000000000E+00 0. -1.
         23    2    1    2    0    0  0.12885210476E+02  0.36649008958E+02 -0.49234077384E+02  0.11944723565E+03  0.10165859148E+03 0.  0.
         23    2    1    2    0    0 -0.12885210476E+02 -0.36649008958E+02 -0.15904423766E+03  0.19834937030E+03  0.11197421427E+03 0.  0.
          5    1    4    4  502    0  0.10193041449E+01  0.39773199939E+02 -0.64082398130E+02  0.75575063112E+02  0.47000000000E+01 0. -1.
         -5    1    4    4    0  502 -0.13904514621E+02 -0.76422208896E+02 -0.94961839527E+02  0.12277430719E+03  0.47000000000E+01 0.  1.
        -11    1    3    3    0    0  0.49300848078E+02  0.47112677290E+02 -0.44105637354E+02  0.81212592798E+02  0.00000000000E+00 0.  1.
         11    1    3    3    0    0 -0.36415637602E+02 -0.10463668332E+02 -0.51284400306E+01  0.38234642853E+02  0.00000000000E+00 0. -1.
<mgrwt>
<rscale>  0 0.11602036E+03</rscale>
<asrwt>0</asrwt>
<pdfrwt beam="2">  1        2 0.40467301E-01 0.11852174E+03</pdfrwt>
<pdfrwt beam="1">  1       -2 0.84244841E-02 0.11852174E+03</pdfrwt>
<totfact> 0.10274756E+04</totfact>
</mgrwt>
</event>
<event>
 8    1  0.7550631E-006  0.1260605E+03  0.7546771E-02  0.1248261E+00
          1   -1    0    0  501    0  0.00000000000E+00  0.00000000000E+00  0.27902238029E+03  0.27902238029E+03  0.00000000000E+00 0. -1.
         -1   -1    0    0    0  501 -0.00000000000E+00 -0.00000000000E+00 -0.45189355379E+02  0.45189355379E+02  0.00000000000E+00 0.  1.
         23    2    1    2    0    0 -0.10878121533E+02 -0.12169159576E+02  0.65875009735E+02  0.11420901763E+03  0.91857285109E+02 0.  0.
         23    2    1    2    0    0  0.10878121533E+02  0.12169159576E+02  0.16795801517E+03  0.21000271804E+03  0.12499929899E+03 0.  0.
          5    1    4    4  502    0 -0.38505734645E+02 -0.36984090415E+02  0.94541853037E+02  0.10867735054E+03  0.47000000000E+01 0.  1.
         -5    1    4    4    0  502  0.49383856178E+02  0.49153249991E+02  0.73416162135E+02  0.10132536750E+03  0.47000000000E+01 0.  1.
        -11    1    3    3    0    0 -0.21411630972E+02 -0.39317592860E+02  0.29432490757E+01  0.44866399057E+02  0.00000000000E+00 0.  1.
         11    1    3    3    0    0  0.10533509439E+02  0.27148433284E+02  0.62931760659E+02  0.69342618573E+02  0.00000000000E+00 0. -1.
<mgrwt>
<rscale>  0 0.11692308E+03</rscale>
<asrwt>0</asrwt>
<pdfrwt beam="1">  1        1 0.42926519E-01 0.12606049E+03</pdfrwt>
<pdfrwt beam="2">  1       -1 0.69522087E-02 0.12606049E+03</pdfrwt>
<totfact> 0.96462090E+03</totfact>
</mgrwt>
</event>
<event>
 8    1  0.7550631E-006  0.1651123E+03  0.7546771E-02  0.1192508E+00
          2   -1    0    0  501    0  0.00000000000E+00  0.00000000000E+00  0.30543623676E+03  0.30543623676E+03  0.00000000000E+00 0. -1.
         -2   -1    0    0    0  501 -0.00000000000E+00 -0.00000000000E+00 -0.73482207860E+02  0.73482207860E+02  0.00000000000E+00 0.  1.
         23    2    1    2    0    0 -0.45393759644E+02 -0.97857914618E+02  0.91316250259E+02  0.16202892588E+03  0.79233518104E+02 0.  0.
         23    2    1    2    0    0  0.45393759644E+02  0.97857914618E+02  0.14063777865E+03  0.21688951875E+03  0.12500125476E+03 0.  0.
          5    1    4    4  502    0  0.84863800604E+02  0.51890701238E+02  0.11150022649E+03  0.14949548500E+03  0.47000000000E+01 0.  1.
         -5    1    4    4    0  502 -0.39470040960E+02  0.45967213380E+02  0.29137552156E+02  0.67394033749E+02  0.47000000000E+01 0.  1.
        -11    1    3    3    0    0 -0.15847545217E+01 -0.81323726925E+02  0.79495237795E+02  0.11373457188E+03  0.00000000000E+00 0.  1.
         11    1    3    3    0    0 -0.43809005123E+02 -0.16534187693E+02  0.11821012463E+02  0.48294353999E+02  0.00000000000E+00 0. -1.
<mgrwt>
<rscale>  0 0.15667000E+03</rscale>
<asrwt>0</asrwt>
<pdfrwt beam="1">  1        2 0.46990190E-01 0.16511232E+03</pdfrwt>
<pdfrwt beam="2">  1       -2 0.11304955E-01 0.16511232E+03</pdfrwt>
<totfact> 0.56520844E+03</totfact>
</mgrwt>
</event>
<event>
 8    1  0.7550631E-006  0.1424122E+03  0.7546771E-02  0.1220812E+00
         -1   -1    0    0    0  501 -0.00000000000E+00  0.00000000000E+00  0.12659003904E+03  0.12659003904E+03  0.00000000000E+00 0.  1.
          1   -1    0    0  501    0  0.00000000000E+00 -0.00000000000E+00 -0.13294370163E+03  0.13294370163E+03  0.00000000000E+00 0. -1.
         23    2    1    2    0    0  0.26160100484E+02  0.63022658504E+02  0.18174940244E+02  0.11502464465E+03  0.90797214068E+02 0.  0.
         23    2    1    2    0    0 -0.26160100484E+02 -0.63022658504E+02 -0.24528602839E+02  0.14450909602E+03  0.12500008053E+03 0.  0.
          5    1    4    4  502    0 -0.36898636915E+02 -0.89749190688E+02  0.11848776543E+02  0.97871906801E+02  0.47000000000E+01 0. -1.
         -5    1    4    4    0  502  0.10738536430E+02  0.26726532184E+02 -0.36377379383E+02  0.46637189216E+02  0.47000000000E+01 0. -1.
        -11    1    3    3    0    0  0.18842910674E+02  0.70970090312E+02  0.44989740982E+02  0.86115537478E+02  0.00000000000E+00 0.  1.
         11    1    3    3    0    0  0.73171898103E+01 -0.79474318075E+01 -0.26814800738E+02  0.28909107175E+02  0.00000000000E+00 0. -1.
<mgrwt>
<rscale>  0 0.13458153E+03</rscale>
<asrwt>0</asrwt>
<pdfrwt beam="2">  1        1 0.20452877E-01 0.14241217E+03</pdfrwt>
<pdfrwt beam="1">  1       -1 0.19475391E-01 0.14241217E+03</pdfrwt>
<totfact> 0.50038257E+03</totfact>
</mgrwt>
</event>
<event>
 8    1  0.7550631E-006  0.1779886E+03  0.7546771E-02  0.1175459E+00
          2   -1    0    0  501    0  0.00000000000E+00  0.00000000000E+00  0.63758270929E+03  0.63758270929E+03  0.00000000000E+00 0. -1.
         -2   -1    0    0    0  501 -0.00000000000E+00 -0.00000000000E+00 -0.71991558078E+02  0.71991558078E+02  0.00000000000E+00 0.  1.
         23    2    1    2    0    0 -0.16378989841E+02 -0.12564569528E+03  0.50026678000E+02  0.16415087119E+03  0.91584539909E+02 0.  0.
         23    2    1    2    0    0  0.16378989841E+02  0.12564569528E+03  0.51556447321E+03  0.54542339618E+03  0.12499937203E+03 0.  0.
          5    1    4    4  502    0  0.58425638128E+02  0.23355051717E+02  0.13373699430E+03  0.14787388977E+03  0.47000000000E+01 0. -1.
         -5    1    4    4    0  502 -0.42046648286E+02  0.10229064356E+03  0.38182747891E+03  0.39754950641E+03  0.47000000000E+01 0. -1.
        -11    1    3    3    0    0  0.85115181700E+01 -0.12888166588E+03  0.31483382132E+02  0.13294409762E+03  0.00000000000E+00 0.  1.
         11    1    3    3    0    0 -0.24890508011E+02  0.32359706037E+01  0.18543295868E+02  0.31206773567E+02  0.00000000000E+00 0. -1.
<mgrwt>
<rscale>  0 0.17231107E+03</rscale>
<asrwt>0</asrwt>
<pdfrwt beam="1">  1        2 0.98089643E-01 0.17798864E+03</pdfrwt>
<pdfrwt beam="2">  1       -2 0.11075625E-01 0.17798864E+03</pdfrwt>
<totfact> 0.26111323E+03</totfact>
</mgrwt>
</event>
<event>
 8    1  0.7550631E-006  0.1345772E+03  0.7546771E-02  0.1233402E+00
          1   -1    0    0  501    0  0.00000000000E+00  0.00000000000E+00  0.10719134069E+03  0.10719134069E+03  0.00000000000E+00 0. -1.
         -1   -1    0    0    0  501 -0.00000000000E+00 -0.00000000000E+00 -0.13244349009E+03  0.13244349009E+03  0.00000000000E+00 0.  1.
         23    2    1    2    0    0  0.38380135573E+02  0.31834023687E+02 -0.80487433128E+01  0.10396254364E+03  0.90867972023E+02 0.  0.
         23    2    1    2    0    0 -0.38380135573E+02 -0.31834023687E+02 -0.17203406084E+02  0.13567228714E+03  0.12499828977E+03 0.  0.
          5    1    4    4  502    0 -0.40431225263E+02 -0.49964803723E+02 -0.60537107126E+02  0.88419437493E+02  0.47000000000E+01 0.  1.
         -5    1    4    4    0  502  0.20510896898E+01  0.18130780036E+02  0.43333701042E+02  0.47252849646E+02  0.47000000000E+01 0.  1.
        -11    1    3    3    0    0  0.19828412755E+02 -0.60587430751E+01  0.36893182473E+02  0.42319986212E+02  0.00000000000E+00 0. -1.
         11    1    3    3    0    0  0.18551722818E+02  0.37892766762E+02 -0.44941925786E+02  0.61642557424E+02  0.00000000000E+00 0.  1.
<mgrwt>
<rscale>  0 0.12607280E+03</rscale>
<asrwt>0</asrwt>
<pdfrwt beam="1">  1        1 0.16490975E-01 0.13457716E+03</pdfrwt>
<pdfrwt beam="2">  1       -1 0.20375922E-01 0.13457716E+03</pdfrwt>
<totfact> 0.61063061E+03</totfact>
</mgrwt>
</event>
<event>
 8    1  0.7550631E-006  0.1309934E+03  0.7546771E-02  0.1240577E+00
          1   -1    0    0  501    0  0.00000000000E+00  0.00000000000E+00  0.27317259352E+02  0.27317259352E+02  0.00000000000E+00 0. -1.
         -1   -1    0    0    0  501 -0.00000000000E+00 -0.00000000000E+00 -0.48047342146E+03  0.48047342146E+03  0.00000000000E+00 0.  1.
         23    2    1    2    0    0 -0.38432302281E+02 -0.76377344214E+01 -0.16913228604E+03  0.19501467616E+03  0.88823515404E+02 0.  0.
         23    2    1    2    0    0  0.38432302281E+02  0.76377344214E+01 -0.28402387607E+03  0.31277600466E+03  0.12499556019E+03 0.  0.
          5    1    4    4  502    0  0.80331443432E+02 -0.10579569943E+01 -0.13039250512E+03  0.15322713685E+03  0.47000000000E+01 0. -1.
         -5    1    4    4    0  502 -0.41899141151E+02  0.86956914157E+01 -0.15363137095E+03  0.15954886781E+03  0.47000000000E+01 0. -1.
        -11    1    3    3    0    0 -0.40307931505E+02  0.35254992417E+02 -0.83013209280E+02  0.98786824767E+02  0.00000000000E+00 0.  1.
         11    1    3    3    0    0  0.18756292239E+01 -0.42892726838E+02 -0.86119076764E+02  0.96227851391E+02  0.00000000000E+00 0. -1.
<mgrwt>
<rscale>  0 0.12154082E+03</rscale>
<asrwt>0</asrwt>
<pdfrwt beam="1">  1        1 0.42026551E-02 0.13099338E+03</pdfrwt>
<pdfrwt beam="2">  1       -1 0.73918991E-01 0.13099338E+03</pdfrwt>
<totfact> 0.38978657E+03</totfact>
</mgrwt>
</event>
<event>
 7    1  0.7550631E-006  0.1527810E+03  0.7546771E-02  0.1215033E+00
         -2   -1    0    0    0  501 -0.00000000000E+00  0.00000000000E+00  0.15898814988E+03  0.15898814988E+03  0.00000000000E+00 0.  1.
          2   -1    0    0  501    0  0.00000000000E+00 -0.00000000000E+00 -0.10538699364E+03  0.10538699364E+03  0.00000000000E+00 0. -1.
         23    2    1    2    0    0 -0.28934250723E+02 -0.47626911696E+02  0.38686606791E+02  0.11086786887E+03  0.87689892346E+02 0.  0.
          5    1    1    2  502    0 -0.12860136422E+02  0.89778398980E+02  0.22277014491E+02  0.93508819941E+02  0.47000000000E+01 0. -1.
         -5    1    1    2    0  502  0.41794387145E+02 -0.42151487284E+02 -0.73624650419E+01  0.59998454718E+02  0.47000000000E+01 0.  1.
        -11    1    3    3    0    0  0.17415382364E+02  0.92012689150E+01  0.31543144962E+02  0.37187751836E+02  0.00000000000E+00 0. -1.
         11    1    3    3    0    0 -0.46349633087E+02 -0.56828180611E+02  0.71434618290E+01  0.73680117031E+02  0.00000000000E+00 0.  1.
<mgrwt>
<rscale>  0 0.13874107E+03</rscale>
<asrwt>0</asrwt>
<pdfrwt beam="2">  1        2 0.16213384E-01 0.15278102E+03</pdfrwt>
<pdfrwt beam="1">  1       -2 0.24459715E-01 0.15278102E+03</pdfrwt>
<totfact> 0.50403157E+03</totfact>
</mgrwt>
</event>
<event>
 8    1  0.7550631E-006  0.1481378E+03  0.7546771E-02  0.1212558E+00
         -1   -1    0    0    0  501 -0.00000000000E+00  0.00000000000E+00  0.73650241085E+02  0.73650241085E+02  0.00000000000E+00 0.  1.
          1   -1    0    0  501    0  0.00000000000E+00 -0.00000000000E+00 -0.24889229862E+03  0.24889229862E+03  0.00000000000E+00 0. -1.
         23    2    1    2    0    0 -0.44981678654E+02  0.65572012492E+02 -0.56801501852E+02  0.13287708306E+03  0.90038149430E+02 0.  0.
         23    2    1    2    0    0  0.44981678654E+02 -0.65572012492E+02 -0.11844055568E+03  0.18966545665E+03  0.12498711925E+03 0.  0.
          5    1    4    4  502    0 -0.31490692363E+01 -0.76806797747E+02 -0.20243151301E+02  0.79630873358E+02  0.47000000000E+01 0.  1.
         -5    1    4    4    0  502  0.48130747890E+02  0.11234785254E+02 -0.98197404381E+02  0.11003458329E+03  0.47000000000E+01 0.  1.
        -11    1    3    3    0    0 -0.55012145903E+01  0.16519720433E+02  0.24491613648E+02  0.30050019371E+02  0.00000000000E+00 0.  1.
         11    1    3    3    0    0 -0.39480464063E+02  0.49052292059E+02 -0.81293115500E+02  0.10282706369E+03  0.00000000000E+00 0. -1.
<mgrwt>
<rscale>  0 0.14057479E+03</rscale>
<asrwt>0</asrwt>
<pdfrwt beam="2">  1        1 0.38291123E-01 0.14813784E+03</pdfrwt>
<pdfrwt beam="1">  1       -1 0.11330806E-01 0.14813784E+03</pdfrwt>
<totfact> 0.53526821E+03</totfact>
</mgrwt>
</event>
<event>
 8    1  0.7550631E-006  0.1756582E+03  0.7546771E-02  0.1178483E+00
          1   -1    0    0  501    0  0.00000000000E+00  0.00000000000E+00  0.17986610239E+03  0.17986610239E+03  0.00000000000E+00 0. -1.
         -1   -1    0    0    0  501 -0.00000000000E+00 -0.00000000000E+00 -0.16476064244E+03  0.16476064244E+03  0.00000000000E+00 0.  1.
         23    2    1    2    0    0 -0.93391116385E+02 -0.80620950865E+02 -0.45883982408E+02  0.15868184049E+03  0.88616862522E+02 0.  0.
         23    2    1    2    0    0  0.93391116385E+02  0.80620950865E+02  0.60989442350E+02  0.18594490434E+03  0.12503662276E+03 0.  0.
          5    1    4    4  502    0  0.22490804791E+02  0.63328422273E+02  0.85468480810E+02  0.10882681921E+03  0.47000000000E+01 0. -1.
         -5    1    4    4    0  502  0.70900311594E+02  0.17292528592E+02 -0.24479038461E+02  0.77118085124E+02  0.47000000000E+01 0. -1.
        -11    1    3    3    0    0 -0.38856990734E+02 -0.20622900840E+02  0.25336108512E+02  0.50765028932E+02  0.00000000000E+00 0.  1.
         11    1    3    3    0    0 -0.54534125651E+02 -0.59998050025E+02 -0.71220090920E+02  0.10791681156E+03  0.00000000000E+00 0. -1.
<mgrwt>
<rscale>  0 0.16939205E+03</rscale>
<asrwt>0</asrwt>
<pdfrwt beam="1">  1        1 0.27671708E-01 0.17565818E+03</pdfrwt>
<pdfrwt beam="2">  1       -1 0.25347791E-01 0.17565818E+03</pdfrwt>
<totfact> 0.22454486E+03</totfact>
</mgrwt>
</event>
<event>
 7    1  0.7550631E-006  0.1775484E+03  0.7546771E-02  0.1184117E+00
          1   -1    0    0  501    0  0.00000000000E+00  0.00000000000E+00  0.15733420662E+03  0.15733420662E+03  0.00000000000E+00 0. -1.
         -1   -1    0    0    0  501 -0.00000000000E+00 -0.00000000000E+00 -0.15717604155E+03  0.15717604155E+03  0.00000000000E+00 0.  1.
         23    2    1    2    0    0 -0.83107180777E+02 -0.34725379504E+02 -0.33265516432E+02  0.13384322372E+03  0.93245688773E+02 0.  0.
          5    1    1    2  502    0  0.75204164244E+02  0.45402138259E+02  0.87922383041E+02  0.12437626750E+03  0.47000000000E+01 0. -1.
         -5    1    1    2    0  502  0.79030165334E+01 -0.10676758755E+02 -0.54498701541E+02  0.56290756946E+02  0.47000000000E+01 0.  1.
        -11    1    3    3    0    0 -0.71293994793E+02  0.12204259435E+02 -0.43465740511E+02  0.84386303628E+02  0.00000000000E+00 0. -1.
         11    1    3    3    0    0 -0.11813185985E+02 -0.46929638939E+02  0.10200224078E+02  0.49456920096E+02  0.00000000000E+00 0.  1.
<mgrwt>
<rscale>  0 0.16412516E+03</rscale>
<asrwt>0</asrwt>
<pdfrwt beam="1">  1        1 0.24205263E-01 0.17754839E+03</pdfrwt>
<pdfrwt beam="2">  1       -1 0.24180929E-01 0.17754839E+03</pdfrwt>
<totfact> 0.28752277E+03</totfact>
</mgrwt>
</event>
<event>
 8    1  0.7550631E-006  0.2898265E+03  0.7546771E-02  0.1092096E+00
          1   -1    0    0  501    0  0.00000000000E+00  0.00000000000E+00  0.17458276574E+03  0.17458276574E+03  0.00000000000E+00 0. -1.
         -1   -1    0    0    0  501 -0.00000000000E+00 -0.00000000000E+00 -0.60971278695E+03  0.60971278695E+03  0.00000000000E+00 0.  1.
         23    2    1    2    0    0 -0.94772632340E+01 -0.26131454476E+03 -0.40773918144E+03  0.49317757274E+03  0.92724151928E+02 0.  0.
         23    2    1    2    0    0  0.94772632340E+01  0.26131454476E+03 -0.27390839766E+02  0.29111797994E+03  0.12499724125E+03 0.  0.
          5    1    4    4  502    0  0.67192620296E+02  0.13541079603E+03 -0.13321682417E+02  0.15182387535E+03  0.47000000000E+01 0. -1.
         -5    1    4    4    0  502 -0.57715357062E+02  0.12590374873E+03 -0.14069157349E+02  0.13929410459E+03  0.47000000000E+01 0. -1.
        -11    1    3    3    0    0 -0.11665871192E+02 -0.24228199413E+03 -0.31021403372E+03  0.39378852693E+03  0.00000000000E+00 0. -1.
         11    1    3    3    0    0  0.21886079579E+01 -0.19032550637E+02 -0.97525147723E+02  0.99389045810E+02  0.00000000000E+00 0.  1.
<mgrwt>
<rscale>  0 0.28667896E+03</rscale>
<asrwt>0</asrwt>
<pdfrwt beam="1">  1        1 0.26858887E-01 0.28982653E+03</pdfrwt>
<pdfrwt beam="2">  1       -1 0.93801967E-01 0.28982653E+03</pdfrwt>
<totfact> 0.20348726E+02</totfact>
</mgrwt>
</event>
<event>
 7    1  0.7550631E-006  0.1624783E+03  0.7546771E-02  0.1212781E+00
          2   -1    0    0  501    0  0.00000000000E+00  0.00000000000E+00  0.63875645028E+03  0.63875645028E+03  0.00000000000E+00 0. -1.
         -2   -1    0    0    0  501 -0.00000000000E+00 -0.00000000000E+00 -0.26034676682E+02  0.26034676682E+02  0.00000000000E+00 0.  1.
         23    2    1    2    0    0  0.15575864148E+02 -0.72861042308E+01  0.16113947538E+03  0.18486844102E+03  0.88964684582E+02 0.  0.
          5    1    1    2  502    0  0.38132088036E+02  0.53595912595E+01  0.40994330075E+03  0.41177467283E+03  0.47000000000E+01 0. -1.
         -5    1    1    2    0  502 -0.53707952184E+02  0.19265129713E+01  0.41638997473E+02  0.68148013108E+02  0.47000000000E+01 0.  1.
        -11    1    3    3    0    0 -0.37029838314E+02 -0.74229126229E+01  0.74027301174E+02  0.83104451605E+02  0.00000000000E+00 0.  1.
         11    1    3    3    0    0  0.52605702462E+02  0.13680839208E+00  0.87112174203E+02  0.10176398942E+03  0.00000000000E+00 0. -1.
<mgrwt>
<rscale>  0 0.14040812E+03</rscale>
<asrwt>0</asrwt>
<pdfrwt beam="1">  1        2 0.98270212E-01 0.16247834E+03</pdfrwt>
<pdfrwt beam="2">  1       -2 0.40053353E-02 0.16247834E+03</pdfrwt>
<totfact> 0.12394148E+04</totfact>
</mgrwt>
</event>
<event>
 8    1  0.7550631E-006  0.2422583E+03  0.7546771E-02  0.1120938E+00
         -2   -1    0    0    0  501 -0.00000000000E+00  0.00000000000E+00  0.25396537991E+02  0.25396537991E+02  0.00000000000E+00 0.  1.
          2   -1    0    0  501    0  0.00000000000E+00 -0.00000000000E+00 -0.23396372847E+04  0.23396372847E+04  0.00000000000E+00 0. -1.
         23    2    1    2    0    0  0.26023985305E+02 -0.20588290290E+03 -0.79930302483E+03  0.83084824865E+03  0.91424664400E+02 0.  0.
         23    2    1    2    0    0 -0.26023985305E+02  0.20588290290E+03 -0.15149377219E+04  0.15341855740E+04  0.12499622759E+03 0.  0.
          5    1    4    4  502    0  0.21151341057E+02  0.11460139292E+03 -0.11206239237E+04  0.11266769399E+04  0.47000000000E+01 0.  1.
         -5    1    4    4    0  502 -0.47175326363E+02  0.91281509986E+02 -0.39431379813E+03  0.40750863412E+03  0.47000000000E+01 0.  1.
        -11    1    3    3    0    0 -0.32498112310E+02 -0.45488846341E+02 -0.18546307654E+03  0.19370574386E+03  0.00000000000E+00 0. -1.
         11    1    3    3    0    0  0.58522097616E+02 -0.16039405656E+03 -0.61383994829E+03  0.63714250479E+03  0.00000000000E+00 0.  1.
<mgrwt>
<rscale>  0 0.23828909E+03</rscale>
<asrwt>0</asrwt>
<pdfrwt beam="2">  1        2 0.35994418E+00 0.24225828E+03</pdfrwt>
<pdfrwt beam="1">  1       -2 0.39071599E-02 0.24225828E+03</pdfrwt>
<totfact> 0.14002699E+03</totfact>
</mgrwt>
</event>
<event>
 8    1  0.7550631E-006  0.1430654E+03  0.7546771E-02  0.1219740E+00
         -2   -1    0    0    0  501 -0.00000000000E+00  0.00000000000E+00  0.41765478018E+02  0.41765478018E+02  0.00000000000E+00 0.  1.
          2   -1    0    0  501    0  0.00000000000E+00 -0.00000000000E+00 -0.41749834361E+03  0.41749834361E+03  0.00000000000E+00 0. -1.
         23    2    1    2    0    0  0.28039108261E+02  0.63694444035E+02 -0.11793451802E+03  0.16442878472E+03  0.91022529689E+02 0.  0.
         23    2    1    2    0    0 -0.28039108261E+02 -0.63694444035E+02 -0.25779834757E+03  0.29483503691E+03  0.12499814872E+03 0.  0.
          5    1    4    4  502    0 -0.68604350000E+02 -0.18192533207E+01 -0.11756982707E+03  0.13621534700E+03  0.47000000000E+01 0.  1.
         -5    1    4    4    0  502  0.40565241739E+02 -0.61875190715E+02 -0.14022852050E+03  0.15861968990E+03  0.47000000000E+01 0.  1.
        -11    1    3    3    0    0 -0.28735472737E+02  0.15369484505E+02 -0.65877853701E+02  0.73497211209E+02  0.00000000000E+00 0. -1.
         11    1    3    3    0    0  0.56774580997E+02  0.48324959530E+02 -0.52056664315E+02  0.90931573508E+02  0.00000000000E+00 0.  1.
<mgrwt>
<rscale>  0 0.13534024E+03</rscale>
<asrwt>0</asrwt>
<pdfrwt beam="2">  1        2 0.64230510E-01 0.14306541E+03</pdfrwt>
<pdfrwt beam="1">  1       -2 0.64254586E-02 0.14306541E+03</pdfrwt>
<totfact> 0.96702967E+03</totfact>
</mgrwt>
</event>
<event>
 8    1  0.7550631E-006  0.2007386E+03  0.7546771E-02  0.1154020E+00
          1   -1    0    0  501    0  0.00000000000E+00  0.00000000000E+00  0.47389934210E+03  0.47389934210E+03  0.00000000000E+00 0. -1.
         -1   -1    0    0    0  501 -0.00000000000E+00 -0.00000000000E+00 -0.18404921079E+03  0.18404921079E+03  0.00000000000E+00 0.  1.
         23    2    1    2    0    0  0.15377288979E+03 -0.32013040807E+02 -0.11044149353E+03  0.21014347603E+03  0.85393328833E+02 0.  0.
         23    2    1    2    0    0 -0.15377288979E+03  0.32013040807E+02  0.40029162485E+03  0.44780507686E+03  0.12500026208E+03 0.  0.
          5    1    4    4  502    0 -0.90444739721E+02 -0.29087187213E+02  0.11516001259E+03  0.14936610694E+03  0.47000000000E+01 0.  1.
         -5    1    4    4    0  502 -0.63328150068E+02  0.61100228020E+02  0.28513161226E+03  0.29843896992E+03  0.47000000000E+01 0.  1.
        -11    1    3    3    0    0  0.83472746074E+02 -0.53663954335E+02 -0.36198238297E+02  0.10563063849E+03  0.00000000000E+00 0. -1.
         11    1    3    3    0    0  0.70300143715E+02  0.21650913528E+02 -0.74243255237E+02  0.10451283754E+03  0.00000000000E+00 0.  1.
<mgrwt>
<rscale>  0 0.19500875E+03</rscale>
<asrwt>0</asrwt>
<pdfrwt beam="1">  1        1 0.72907590E-01 0.20073864E+03</pdfrwt>
<pdfrwt beam="2">  1       -1 0.28315263E-01 0.20073864E+03</pdfrwt>
<totfact> 0.55137252E+02</totfact>
</mgrwt>
</event>
<event>
 8    1  0.7550631E-006  0.1661811E+03  0.7546771E-02  0.1189387E+00
          3   -1    0    0  501    0  0.00000000000E+00  0.00000000000E+00  0.15041140242E+03  0.15041140242E+03  0.00000000000E+00 0. -1.
         -3   -1    0    0    0  501 -0.00000000000E+00 -0.00000000000E+00 -0.16631713900E+03  0.16631713900E+03  0.00000000000E+00 0.  1.
         23    2    1    2    0    0 -0.75079094724E+02  0.79592404305E+02 -0.45747083367E+02  0.14788933326E+03  0.88355180764E+02 0.  0.
         23    2    1    2    0    0  0.75079094724E+02 -0.79592404305E+02  0.29841346795E+02  0.16883920816E+03  0.12507737983E+03 0.  0.
          5    1    4    4  502    0  0.21525595896E+02 -0.13542755738E+02  0.70042907619E+02  0.74664961122E+02  0.47000000000E+01 0.  1.
         -5    1    4    4    0  502  0.53553498828E+02 -0.66049648566E+02 -0.40201560824E+02  0.94174247038E+02  0.47000000000E+01 0.  1.
        -11    1    3    3    0    0 -0.62994445861E+02  0.53112015439E+02 -0.71447598498E+02  0.10905936789E+03  0.00000000000E+00 0.  1.
         11    1    3    3    0    0 -0.12084648864E+02  0.26480388866E+02  0.25700515132E+02  0.38829965371E+02  0.00000000000E+00 0. -1.
<mgrwt>
<rscale>  0 0.15938974E+03</rscale>
<asrwt>0</asrwt>
<pdfrwt beam="1">  1        3 0.23140216E-01 0.16618114E+03</pdfrwt>
<pdfrwt beam="2">  1       -3 0.25587252E-01 0.16618114E+03</pdfrwt>
<totfact> 0.59320510E+02</totfact>
</mgrwt>
</event>
<event>
 8    1  0.7550631E-006  0.1374725E+03  0.7546771E-02  0.1228049E+00
          1   -1    0    0  501    0  0.00000000000E+00  0.00000000000E+00  0.58121686218E+03  0.58121686218E+03  0.00000000000E+00 0. -1.
         -1   -1    0    0    0  501 -0.00000000000E+00 -0.00000000000E+00 -0.26075035515E+02  0.26075035515E+02  0.00000000000E+00 0.  1.
         23    2    1    2    0    0 -0.37202950885E+02 -0.43466376734E+02  0.23445887273E+03  0.25838467660E+03  0.92294597009E+02 0.  0.
         23    2    1    2    0    0  0.37202950885E+02  0.43466376734E+02  0.32068295394E+03  0.34890722110E+03  0.12500122611E+03 0.  0.
          5    1    4    4  502    0  0.39083452151E+02 -0.21006071793E+02  0.24644311061E+03  0.25044973159E+03  0.47000000000E+01 0.  1.
         -5    1    4    4    0  502 -0.18805012656E+01  0.64472448527E+02  0.74239843322E+02  0.98457489510E+02  0.47000000000E+01 0.  1.
        -11    1    3    3    0    0 -0.56171434317E+02 -0.19244771926E+02  0.21236126523E+03  0.22050600502E+03  0.00000000000E+00 0. -1.
         11    1    3    3    0    0  0.18968483432E+02 -0.24221604808E+02  0.22097607501E+02  0.37878671577E+02  0.00000000000E+00 0.  1.
<mgrwt>
<rscale>  0 0.12960115E+03</rscale>
<asrwt>0</asrwt>
<pdfrwt beam="1">  1        1 0.89417969E-01 0.13747251E+03</pdfrwt>
<pdfrwt beam="2">  1       -1 0.40115444E-02 0.13747251E+03</pdfrwt>
<totfact> 0.86249588E+03</totfact>
</mgrwt>
</event>
<event>
 8    1  0.7550631E-006  0.1301209E+03  0.7546771E-02  0.1240149E+00
          3   -1    0    0  501    0  0.00000000000E+00  0.00000000000E+00  0.26600371172E+03  0.26600371172E+03  0.00000000000E+00 0. -1.
         -3   -1    0    0    0  501 -0.00000000000E+00 -0.00000000000E+00 -0.56718935920E+02  0.56718935920E+02  0.00000000000E+00 0.  1.
         23    2    1    2    0    0 -0.29814177690E+02 -0.20423805391E+02  0.36387434169E+02  0.10633194059E+03  0.93147298442E+02 0.  0.
         23    2    1    2    0    0  0.29814177690E+02  0.20423805391E+02  0.17289734163E+03  0.21639070704E+03  0.12500172133E+03 0.  0.
          5    1    4    4  502    0 -0.97231965275E+01 -0.28725658935E+02 -0.16528464561E+01  0.30733140637E+02  0.47000000000E+01 0.  1.
         -5    1    4    4    0  502  0.39537374217E+02  0.49149464326E+02  0.17455018809E+03  0.18565756641E+03  0.47000000000E+01 0.  1.
        -11    1    3    3    0    0 -0.47556898177E+02 -0.13180212150E+02 -0.14925342535E+02  0.51557176090E+02  0.00000000000E+00 0.  1.
         11    1    3    3    0    0  0.17742720488E+02 -0.72435932408E+01  0.51312776704E+02  0.54774764504E+02  0.00000000000E+00 0. -1.
<mgrwt>
<rscale>  0 0.12180493E+03</rscale>
<asrwt>0</asrwt>
<pdfrwt beam="1">  1        3 0.40923647E-01 0.13012090E+03</pdfrwt>
<pdfrwt beam="2">  1       -3 0.87259903E-02 0.13012090E+03</pdfrwt>
<totfact> 0.12561902E+03</totfact>
</mgrwt>
</event>
<event>
 8    1  0.7550631E-006  0.1444702E+03  0.7546771E-02  0.1216314E+00
          1   -1    0    0  501    0  0.00000000000E+00  0.00000000000E+00  0.54008530757E+03  0.54008530757E+03  0.00000000000E+00 0. -1.
         -1   -1    0    0    0  501 -0.00000000000E+00 -0.00000000000E+00 -0.54440215525E+02  0.54440215525E+02  0.00000000000E+00 0.  1.
         23    2    1    2    0    0  0.22197179699E+02  0.68951846950E+02  0.40095839179E+02  0.12613917466E+03  0.95164820598E+02 0.  0.
         23    2    1    2    0    0 -0.22197179699E+02 -0.68951846950E+02  0.44554925287E+03  0.46838634844E+03  0.12499825074E+03 0.  0.
          5    1    4    4  502    0 -0.63894922563E+02 -0.75759532208E+02  0.26679131753E+03  0.28464322398E+03  0.47000000000E+01 0.  1.
         -5    1    4    4    0  502  0.41697742864E+02  0.68076852587E+01  0.17875793534E+03  0.18374312446E+03  0.47000000000E+01 0.  1.
        -11    1    3    3    0    0  0.40909651794E+02  0.54285021641E+02  0.63324319091E+02  0.92900121490E+02  0.00000000000E+00 0. -1.
         11    1    3    3    0    0 -0.18712472094E+02  0.14666825308E+02 -0.23228479912E+02  0.33239053168E+02  0.00000000000E+00 0.  1.
<mgrwt>
<rscale>  0 0.13780458E+03</rscale>
<asrwt>0</asrwt>
<pdfrwt beam="1">  1        1 0.83090043E-01 0.14447019E+03</pdfrwt>
<pdfrwt beam="2">  1       -1 0.83754182E-02 0.14447019E+03</pdfrwt>
<totfact> 0.31859264E+03</totfact>
</mgrwt>
</event>
<event>
 8    1  0.7550631E-006  0.2154307E+03  0.7546771E-02  0.1140903E+00
         -2   -1    0    0    0  501 -0.00000000000E+00  0.00000000000E+00  0.30031668545E+02  0.30031668545E+02  0.00000000000E+00 0.  1.
          2   -1    0    0  501    0  0.00000000000E+00 -0.00000000000E+00 -0.17132319391E+04  0.17132319391E+04  0.00000000000E+00 0. -1.
         23    2    1    2    0    0 -0.15998854363E+03 -0.72026744117E+02 -0.45148154184E+03  0.49284710902E+03  0.90986286249E+02 0.  0.
         23    2    1    2    0    0  0.15998854363E+03  0.72026744117E+02 -0.12317187287E+04  0.12504164986E+04  0.12500482955E+03 0.  0.
          5    1    4    4  502    0  0.14431174845E+03  0.10440064023E+02 -0.98593322192E+03  0.99650453273E+03  0.47000000000E+01 0.  1.
         -5    1    4    4    0  502  0.15676795175E+02  0.61586680094E+02 -0.24578550679E+03  0.25391196589E+03  0.47000000000E+01 0.  1.
        -11    1    3    3    0    0 -0.86550892338E+02 -0.39486392272E+02 -0.12763825784E+03  0.15919094511E+03  0.00000000000E+00 0.  1.
         11    1    3    3    0    0 -0.73437651290E+02 -0.32540351845E+02 -0.32384328400E+03  0.33365616391E+03  0.00000000000E+00 0. -1.
<mgrwt>
<rscale>  0 0.21083902E+03</rscale>
<asrwt>0</asrwt>
<pdfrwt beam="2">  1        2 0.26357415E+00 0.21543072E+03</pdfrwt>
<pdfrwt beam="1">  1       -2 0.46202566E-02 0.21543072E+03</pdfrwt>
<totfact> 0.23250653E+03</totfact>
</mgrwt>
</event>
<event>
 7    1  0.7550631E-006  0.2287823E+03  0.7546771E-02  0.1138529E+00
          1   -1    0    0  501    0  0.00000000000E+00  0.00000000000E+00  0.42868398754E+03  0.42868398754E+03  0.00000000000E+00 0. -1.
         -1   -1    0    0    0  501 -0.00000000000E+00 -0.00000000000E+00 -0.15233412256E+03  0.15233412256E+03  0.00000000000E+00 0.  1.
         23    2    1    2    0    0  0.14426178479E+03 -0.40212846802E+02 -0.50636881661E+02  0.18194208862E+03  0.90057172010E+02 0.  0.
          5    1    1    2  502    0 -0.13687774537E+03  0.98729035156E+02  0.25605196538E+03  0.30670448079E+03  0.47000000000E+01 0. -1.
         -5    1    1    2    0  502 -0.73840394185E+01 -0.58516188354E+02  0.70934781254E+02  0.92371540689E+02  0.47000000000E+01 0.  1.
        -11    1    3    3    0    0  0.27904283067E+02 -0.30271168295E+02  0.19672348753E+02  0.45628871878E+02  0.00000000000E+00 0. -1.
         11    1    3    3    0    0  0.11635750172E+03 -0.99416785076E+01 -0.70309230414E+02  0.13631321675E+03  0.00000000000E+00 0.  1.
<mgrwt>
<rscale>  0 0.21388157E+03</rscale>
<asrwt>0</asrwt>
<pdfrwt beam="1">  1        1 0.65951382E-01 0.22878229E+03</pdfrwt>
<pdfrwt beam="2">  1       -1 0.23436019E-01 0.22878229E+03</pdfrwt>
<totfact> 0.86075171E+02</totfact>
</mgrwt>
</event>
<event>
 8    1  0.7550631E-006  0.1317340E+03  0.7546771E-02  0.1233761E+00
          1   -1    0    0  501    0  0.00000000000E+00  0.00000000000E+00  0.73554559032E+03  0.73554559032E+03  0.00000000000E+00 0. -1.
         -1   -1    0    0    0  501 -0.00000000000E+00 -0.00000000000E+00 -0.20136627110E+02  0.20136627110E+02  0.00000000000E+00 0.  1.
         23    2    1    2    0    0 -0.26157063383E+02 -0.32316942267E+02  0.27775083530E+03  0.29862809042E+03  0.10151173901E+03 0.  0.
         23    2    1    2    0    0  0.26157063383E+02  0.32316942267E+02  0.43765812790E+03  0.45705412700E+03  0.12500104547E+03 0.  0.
          5    1    4    4  502    0  0.38909341594E+02  0.62870972062E+02  0.14835956539E+03  0.16582926954E+03  0.47000000000E+01 0.  1.
         -5    1    4    4    0  502 -0.12752278211E+02 -0.30554029794E+02  0.28929856251E+03  0.29122485747E+03  0.47000000000E+01 0.  1.
        -11    1    3    3    0    0  0.32966559728E+02  0.10869581194E+02  0.11590815354E+03  0.12099438794E+03  0.00000000000E+00 0. -1.
         11    1    3    3    0    0 -0.59123623110E+02 -0.43186523461E+02  0.16184268176E+03  0.17763370248E+03  0.00000000000E+00 0.  1.
<mgrwt>
<rscale>  0 0.12584067E+03</rscale>
<asrwt>0</asrwt>
<pdfrwt beam="1">  1        1 0.11316084E+00 0.13173397E+03</pdfrwt>
<pdfrwt beam="2">  1       -1 0.30979432E-02 0.13173397E+03</pdfrwt>
<totfact> 0.90312251E+03</totfact>
</mgrwt>
</event>
<event>
 7    1  0.7550631E-006  0.1880409E+03  0.7546771E-02  0.1168478E+00
          1   -1    0    0  501    0  0.00000000000E+00  0.00000000000E+00  0.14686734255E+04  0.14686734255E+04  0.00000000000E+00 0. -1.
         -1   -1    0    0    0  501 -0.00000000000E+00 -0.00000000000E+00 -0.20093072958E+02  0.20093072958E+02  0.00000000000E+00 0.  1.
         23    2    1    2    0    0 -0.10177734664E+03  0.77321381243E+02  0.64020632097E+03  0.65880990068E+03  0.88482357255E+02 0.  0.
          5    1    1    2  502    0  0.51061366342E+02 -0.11391238065E+03  0.51192420438E+03  0.52694570369E+03  0.47000000000E+01 0. -1.
         -5    1    1    2    0  502  0.50715980294E+02  0.36590999410E+02  0.29644982720E+03  0.30301089409E+03  0.47000000000E+01 0.  1.
        -11    1    3    3    0    0 -0.88264118223E+02  0.50991482914E+02  0.60154956183E+03  0.61012503738E+03  0.00000000000E+00 0. -1.
         11    1    3    3    0    0 -0.13513228413E+02  0.26329898329E+02  0.38656759137E+02  0.48684863306E+02  0.00000000000E+00 0.  1.
<mgrwt>
<rscale>  0 0.17930427E+03</rscale>
<asrwt>0</asrwt>
<pdfrwt beam="1">  1        1 0.22594967E+00 0.18804090E+03</pdfrwt>
<pdfrwt beam="2">  1       -1 0.30912431E-02 0.18804090E+03</pdfrwt>
<totfact> 0.27019299E+03</totfact>
</mgrwt>
</event>
<event>
 8    1  0.7550631E-006  0.2044540E+03  0.7546771E-02  0.1150066E+00
         -2   -1    0    0    0  501 -0.00000000000E+00  0.00000000000E+00  0.50084385553E+02  0.50084385553E+02  0.00000000000E+00 0.  1.
          2   -1    0    0  501    0  0.00000000000E+00 -0.00000000000E+00 -0.87539210436E+03  0.87539210436E+03  0.00000000000E+00 0. -1.
         23    2    1    2    0    0  0.13580868842E+03  0.87930998425E+02 -0.22771443425E+03  0.29387599969E+03  0.91287344647E+02 0.  0.
         23    2    1    2    0    0 -0.13580868842E+03 -0.87930998425E+02 -0.59759328456E+03  0.63160049023E+03  0.12500234065E+03 0.  0.
          5    1    4    4  502    0 -0.11924183260E+03 -0.48774983031E+01 -0.33557196659E+03  0.35619241905E+03  0.47000000000E+01 0.  1.
         -5    1    4    4    0  502 -0.16566855819E+02 -0.83053500122E+02 -0.26202131797E+03  0.27540807117E+03  0.47000000000E+01 0.  1.
        -11    1    3    3    0    0  0.13598424761E+02  0.25054845984E+02 -0.71881068543E+00  0.28516296254E+02  0.00000000000E+00 0.  1.
         11    1    3    3    0    0  0.12221026366E+03  0.62876152441E+02 -0.22699562356E+03  0.26535970343E+03  0.00000000000E+00 0. -1.
<mgrwt>
<rscale>  0 0.19961293E+03</rscale>
<asrwt>0</asrwt>
<pdfrwt beam="2">  1        2 0.13467571E+00 0.20445402E+03</pdfrwt>
<pdfrwt beam="1">  1       -2 0.77052898E-02 0.20445402E+03</pdfrwt>
<totfact> 0.31376108E+03</totfact>
</mgrwt>
</event>
<event>
 8    1  0.7550631E-006  0.1533213E+03  0.7546771E-02  0.1207911E+00
         -2   -1    0    0    0  501 -0.00000000000E+00  0.00000000000E+00  0.27590870205E+02  0.27590870205E+02  0.00000000000E+00 0.  1.
          2   -1    0    0  501    0  0.00000000000E+00 -0.00000000000E+00 -0.72286597591E+03  0.72286597591E+03  0.00000000000E+00 0. -1.
         23    2    1    2    0    0 -0.86584137973E+02  0.19633765570E+02 -0.21185259764E+03  0.24330329014E+03  0.80203928638E+02 0.  0.
         23    2    1    2    0    0  0.86584137973E+02 -0.19633765570E+02 -0.48342250807E+03  0.50715355597E+03  0.12500044132E+03 0.  0.
          5    1    4    4  502    0  0.99431360493E+02 -0.35359640967E+02 -0.23256856953E+03  0.25543517611E+03  0.47000000000E+01 0. -1.
         -5    1    4    4    0  502 -0.12847222520E+02  0.15725875398E+02 -0.25085393854E+03  0.25171837987E+03  0.47000000000E+01 0. -1.
        -11    1    3    3    0    0 -0.88869603503E+02  0.39423860757E+02 -0.15404237918E+03  0.18215680555E+03  0.00000000000E+00 0.  1.
         11    1    3    3    0    0  0.22854655298E+01 -0.19790095187E+02 -0.57810218452E+02  0.61146484590E+02  0.00000000000E+00 0. -1.
<mgrwt>
<rscale>  0 0.14410385E+03</rscale>
<asrwt>0</asrwt>
<pdfrwt beam="2">  1        2 0.11121015E+00 0.15332126E+03</pdfrwt>
<pdfrwt beam="1">  1       -2 0.42447494E-02 0.15332126E+03</pdfrwt>
<totfact> 0.97804149E+03</totfact>
</mgrwt>
</event>
<event>
 8    1  0.7550631E-006  0.1424651E+03  0.7546771E-02  0.1220924E+00
         -1   -1    0    0    0  501 -0.00000000000E+00  0.00000000000E+00  0.61424166829E+02  0.61424166829E+02  0.00000000000E+00 0.  1.
          1   -1    0    0  501    0  0.00000000000E+00 -0.00000000000E+00 -0.27951665826E+03  0.27951665826E+03  0.00000000000E+00 0. -1.
         23    2    1    2    0    0  0.53609367221E+02 -0.42394965094E+02 -0.59921203204E+02  0.12806890704E+03  0.90220823755E+02 0.  0.
         23    2    1    2    0    0 -0.53609367221E+02  0.42394965094E+02 -0.15817128823E+03  0.21287191805E+03  0.12499999901E+03 0.  0.
          5    1    4    4  502    0 -0.50358579081E+02 -0.74887338679E+01 -0.15425697052E+03  0.16250960149E+03  0.47000000000E+01 0.  1.
         -5    1    4    4    0  502 -0.32507881392E+01  0.49883698962E+02 -0.39143177058E+01  0.50362316555E+02  0.47000000000E+01 0.  1.
        -11    1    3    3    0    0  0.45554605125E+02  0.16086051611E+02 -0.70543369975E+01  0.48823629269E+02  0.00000000000E+00 0.  1.
         11    1    3    3    0    0  0.80547620958E+01 -0.58481016705E+02 -0.52866866206E+02  0.79245277776E+02  0.00000000000E+00 0. -1.
<mgrwt>
<rscale>  0 0.13450226E+03</rscale>
<asrwt>0</asrwt>
<pdfrwt beam="2">  1        1 0.43002562E-01 0.14246507E+03</pdfrwt>
<pdfrwt beam="1">  1       -1 0.94498719E-02 0.14246507E+03</pdfrwt>
<totfact> 0.61081554E+03</totfact>
</mgrwt>
</event>
<event>
 8    1  0.7550631E-006  0.2287000E+03  0.7546771E-02  0.1130797E+00
          3   -1    0    0  501    0  0.00000000000E+00  0.00000000000E+00  0.46528103708E+02  0.46528103708E+02  0.00000000000E+00 0. -1.
         -3   -1    0    0    0  501 -0.00000000000E+00 -0.00000000000E+00 -0.10471120341E+04  0.10471120341E+04  0.00000000000E+00 0.  1.
         23    2    1    2    0    0 -0.49736985885E+02 -0.18494926479E+03 -0.52648548687E+03  0.56726285788E+03  0.88995414153E+02 0.  0.
         23    2    1    2    0    0  0.49736985885E+02  0.18494926479E+03 -0.47409844354E+03  0.52637727994E+03  0.12499483334E+03 0.  0.
          5    1    4    4  502    0  0.23397508743E+02  0.12097530733E+03 -0.14633880071E+03  0.19136249108E+03  0.47000000000E+01 0. -1.
         -5    1    4    4    0  502  0.26339477142E+02  0.63973957460E+02 -0.32775964283E+03  0.33501478887E+03  0.47000000000E+01 0. -1.
        -11    1    3    3    0    0 -0.50376186906E+02 -0.38690150050E+02 -0.19087585919E+03  0.20116729739E+03  0.00000000000E+00 0.  1.
         11    1    3    3    0    0  0.63920102017E+00 -0.14625911474E+03 -0.33560962768E+03  0.36609556049E+03  0.00000000000E+00 0. -1.
<mgrwt>
<rscale>  0 0.22419027E+03</rscale>
<asrwt>0</asrwt>
<pdfrwt beam="1">  1        3 0.71581695E-02 0.22870004E+03</pdfrwt>
<pdfrwt beam="2">  1       -3 0.16109416E+00 0.22870004E+03</pdfrwt>
<totfact> 0.90217972E+01</totfact>
</mgrwt>
</event>
<event>
 8    1  0.7550631E-006  0.1355294E+03  0.7546771E-02  0.1232130E+00
          2   -1    0    0  501    0  0.00000000000E+00  0.00000000000E+00  0.88165944743E+03  0.88165944743E+03  0.00000000000E+00 0. -1.
         -2   -1    0    0    0  501 -0.00000000000E+00 -0.00000000000E+00 -0.20537725263E+02  0.20537725263E+02  0.00000000000E+00 0.  1.
         23    2    1    2    0    0  0.51908802954E+02 -0.68555025415E+01  0.18216363537E+03  0.20984443517E+03  0.90053179746E+02 0.  0.
         23    2    1    2    0    0 -0.51908802954E+02  0.68555025415E+01  0.67895808680E+03  0.69235273752E+03  0.12500683096E+03 0.  0.
          5    1    4    4  502    0 -0.15001087823E+02  0.44665031836E+02  0.96570821083E+02  0.10755468930E+03  0.47000000000E+01 0.  1.
         -5    1    4    4    0  502 -0.36907715131E+02 -0.37809529295E+02  0.58238726571E+03  0.58479804823E+03  0.47000000000E+01 0.  1.
        -11    1    3    3    0    0  0.18080999376E+02 -0.26844454638E+02  0.16289985506E+03  0.16608404518E+03  0.00000000000E+00 0. -1.
         11    1    3    3    0    0  0.33827803577E+02  0.19988952096E+02  0.19263780308E+02  0.43760389995E+02  0.00000000000E+00 0.  1.
<mgrwt>
<rscale>  0 0.12689936E+03</rscale>
<asrwt>0</asrwt>
<pdfrwt beam="1">  1        2 0.13563989E+00 0.13552944E+03</pdfrwt>
<pdfrwt beam="2">  1       -2 0.31596507E-02 0.13552944E+03</pdfrwt>
<totfact> 0.11740399E+04</totfact>
</mgrwt>
</event>
<event>
 8    1  0.7550631E-006  0.1277052E+03  0.7546771E-02  0.1245257E+00
          2   -1    0    0  501    0  0.00000000000E+00  0.00000000000E+00  0.21136372938E+03  0.21136372938E+03  0.00000000000E+00 0. -1.
         -2   -1    0    0    0  501 -0.00000000000E+00 -0.00000000000E+00 -0.65800701887E+02  0.65800701887E+02  0.00000000000E+00 0.  1.
         23    2    1    2    0    0 -0.25965581655E+02 -0.30666424724E+01  0.18658301386E+02  0.97127136017E+02  0.91662056564E+02 0.  0.
         23    2    1    2    0    0  0.25965581655E+02  0.30666424724E+01  0.12690472611E+03  0.18003729525E+03  0.12500000978E+03 0.  0.
          5    1    4    4  502    0 -0.53175341565E+01  0.33036736697E+02 -0.10901437292E+02  0.35505400661E+02  0.47000000000E+01 0. -1.
         -5    1    4    4    0  502  0.31283115811E+02 -0.29970094224E+02  0.13780616340E+03  0.14453189459E+03  0.47000000000E+01 0. -1.
        -11    1    3    3    0    0 -0.14518983107E+02 -0.76377411311E+01  0.55712001261E+02  0.58077216226E+02  0.00000000000E+00 0. -1.
         11    1    3    3    0    0 -0.11446598548E+02  0.45710986587E+01 -0.37053699875E+02  0.39049919791E+02  0.00000000000E+00 0.  1.
<mgrwt>
<rscale>  0 0.11869989E+03</rscale>
<asrwt>0</asrwt>
<pdfrwt beam="1">  1        2 0.32517497E-01 0.12770520E+03</pdfrwt>
<pdfrwt beam="2">  1       -2 0.10123185E-01 0.12770520E+03</pdfrwt>
<totfact> 0.98026176E+03</totfact>
</mgrwt>
</event>
<event>
 8    1  0.7550631E-006  0.1280481E+03  0.7546771E-02  0.1244488E+00
         -2   -1    0    0    0  501 -0.00000000000E+00  0.00000000000E+00  0.50089148776E+02  0.50089148776E+02  0.00000000000E+00 0.  1.
          2   -1    0    0  501    0  0.00000000000E+00 -0.00000000000E+00 -0.26412916277E+03  0.26412916277E+03  0.00000000000E+00 0. -1.
         23    2    1    2    0    0 -0.27747748776E+02  0.10047066683E+01 -0.57314108615E+02  0.11183418654E+03  0.91929490559E+02 0.  0.
         23    2    1    2    0    0  0.27747748776E+02 -0.10047066683E+01 -0.15672590538E+03  0.20238412501E+03  0.12500151056E+03 0.  0.
          5    1    4    4  502    0  0.32205952399E+02 -0.70567719433E+01 -0.17707932549E+03  0.18018379204E+03  0.47000000000E+01 0.  1.
         -5    1    4    4    0  502 -0.44582036225E+01  0.60520652750E+01  0.20353420109E+02  0.22200332965E+02  0.47000000000E+01 0.  1.
        -11    1    3    3    0    0  0.32918885468E+02  0.67224875516E+01 -0.30055450486E+02  0.45079651322E+02  0.00000000000E+00 0.  1.
         11    1    3    3    0    0 -0.60666634245E+02 -0.57177808833E+01 -0.27258658128E+02  0.66754535215E+02  0.00000000000E+00 0. -1.
<mgrwt>
<rscale>  0 0.11916067E+03</rscale>
<asrwt>0</asrwt>
<pdfrwt beam="2">  1        2 0.40635258E-01 0.12804813E+03</pdfrwt>
<pdfrwt beam="1">  1       -2 0.77060225E-02 0.12804813E+03</pdfrwt>
<totfact> 0.11810295E+04</totfact>
</mgrwt>
</event>
<event>
 8    1  0.7550631E-006  0.1477132E+03  0.7546771E-02  0.1212604E+00
          2   -1    0    0  501    0  0.00000000000E+00  0.00000000000E+00  0.76737555129E+03  0.76737555129E+03  0.00000000000E+00 0. -1.
         -2   -1    0    0    0  501 -0.00000000000E+00 -0.00000000000E+00 -0.35725302473E+02  0.35725302473E+02  0.00000000000E+00 0.  1.
         23    2    1    2    0    0  0.55646824329E+01  0.78508558073E+02  0.10807970888E+03  0.16227371765E+03  0.91961821353E+02 0.  0.
         23    2    1    2    0    0 -0.55646824329E+01 -0.78508558073E+02  0.62357053994E+03  0.64082713612E+03  0.12499856287E+03 0.  0.
          5    1    4    4  502    0 -0.51085633444E+02 -0.38836530798E+02  0.14755156869E+03  0.16097072246E+03  0.47000000000E+01 0. -1.
         -5    1    4    4    0  502  0.45520951012E+02 -0.39672027275E+02  0.47601897126E+03  0.47985641365E+03  0.47000000000E+01 0. -1.
        -11    1    3    3    0    0  0.27400627130E+02  0.28859951618E+02  0.99755422145E+02  0.10740035113E+03  0.00000000000E+00 0. -1.
         11    1    3    3    0    0 -0.21835944697E+02  0.49648606455E+02  0.83242867312E+01  0.54873366521E+02  0.00000000000E+00 0.  1.
<mgrwt>
<rscale>  0 0.14054000E+03</rscale>
<asrwt>0</asrwt>
<pdfrwt beam="1">  1        2 0.11805776E+00 0.14771324E+03</pdfrwt>
<pdfrwt beam="2">  1       -2 0.54962010E-02 0.14771324E+03</pdfrwt>
<totfact> 0.61554704E+03</totfact>
</mgrwt>
</event>
<event>
 8    1  0.7550631E-006  0.1436977E+03  0.7546771E-02  0.1218358E+00
          2   -1    0    0  501    0  0.00000000000E+00  0.00000000000E+00  0.66206858368E+02  0.66206858368E+02  0.00000000000E+00 0. -1.
         -2   -1    0    0    0  501 -0.00000000000E+00 -0.00000000000E+00 -0.29309984338E+03  0.29309984338E+03  0.00000000000E+00 0.  1.
         23    2    1    2    0    0  0.64618245335E+02 -0.29127052181E+02 -0.16713497662E+03  0.20367874021E+03  0.92341897351E+02 0.  0.
         23    2    1    2    0    0 -0.64618245335E+02  0.29127052181E+02 -0.59758008391E+02  0.15562796153E+03  0.12500056018E+03 0.  0.
          5    1    4    4  502    0 -0.28521471132E+02 -0.23669204857E+02  0.28175739086E+02  0.46793886857E+02  0.47000000000E+01 0. -1.
         -5    1    4    4    0  502 -0.36096774203E+02  0.52796257038E+02 -0.87933747478E+02  0.10883407468E+03  0.47000000000E+01 0. -1.
        -11    1    3    3    0    0  0.51153832774E+02 -0.46339044283E+02 -0.16818868437E+03  0.18180059181E+03  0.00000000000E+00 0.  1.
         11    1    3    3    0    0  0.13464412561E+02  0.17211992102E+02  0.10537077453E+01  0.21878148408E+02  0.00000000000E+00 0. -1.
<mgrwt>
<rscale>  0 0.13632754E+03</rscale>
<asrwt>0</asrwt>
<pdfrwt beam="1">  1        2 0.10185671E-01 0.14369775E+03</pdfrwt>
<pdfrwt beam="2">  1       -2 0.45092284E-01 0.14369775E+03</pdfrwt>
<totfact> 0.28475324E+03</totfact>
</mgrwt>
</event>
<event>
 8    1  0.7550631E-006  0.1290508E+03  0.7546771E-02  0.1238934E+00
          2   -1    0    0  501    0  0.00000000000E+00  0.00000000000E+00  0.15112677980E+04  0.15112677980E+04  0.00000000000E+00 0. -1.
         -2   -1    0    0    0  501 -0.00000000000E+00 -0.00000000000E+00 -0.10023061750E+02  0.10023061750E+02  0.00000000000E+00 0.  1.
         23    2    1    2    0    0  0.21705985511E+02 -0.52407496257E+02  0.44619675923E+03  0.45837960008E+03  0.88332408278E+02 0.  0.
         23    2    1    2    0    0 -0.21705985511E+02  0.52407496257E+02  0.10550479770E+04  0.10629112596E+04  0.11591555826E+03 0.  0.
          5    1    4    4  502    0 -0.42170525068E+02  0.80715595273E+02  0.84751817194E+03  0.85240982061E+03  0.47000000000E+01 0. -1.
         -5    1    4    4    0  502  0.20464539558E+02 -0.28308099016E+02  0.20752980504E+03  0.21050143902E+03  0.47000000000E+01 0.  1.
        -11    1    3    3    0    0  0.14970055311E+02 -0.70735172520E+02  0.41721605709E+03  0.42343453506E+03  0.00000000000E+00 0.  1.
         11    1    3    3    0    0  0.67359301991E+01  0.18327676263E+02  0.28980702144E+02  0.34945065026E+02  0.00000000000E+00 0. -1.
<mgrwt>
<rscale>  0 0.12255888E+03</rscale>
<asrwt>0</asrwt>
<pdfrwt beam="1">  1        2 0.23250256E+00 0.12905081E+03</pdfrwt>
<pdfrwt beam="2">  1       -2 0.15420107E-02 0.12905081E+03</pdfrwt>
<totfact> 0.14737243E+04</totfact>
</mgrwt>
</event>
<event>
 8    1  0.7550631E-006  0.1292435E+03  0.7546771E-02  0.1245600E+00
         -2   -1    0    0    0  501 -0.00000000000E+00  0.00000000000E+00  0.77805642264E+02  0.77805642264E+02  0.00000000000E+00 0.  1.
          2   -1    0    0  501    0  0.00000000000E+00 -0.00000000000E+00 -0.15653760645E+03  0.15653760645E+03  0.00000000000E+00 0. -1.
         23    2    1    2    0    0  0.17735249809E+02  0.27842502772E+02 -0.28276579187E+02  0.95600257353E+02  0.85147520393E+02 0.  0.
         23    2    1    2    0    0 -0.17735249809E+02 -0.27842502772E+02 -0.50455384995E+02  0.13874299136E+03  0.12495650335E+03 0.  0.
          5    1    4    4  502    0  0.16597407816E+01  0.44468110970E+02  0.56039730071E+01  0.45096143363E+02  0.47000000000E+01 0.  1.
         -5    1    4    4    0  502 -0.19394990590E+02 -0.72310613742E+02 -0.56059358002E+02  0.93646847995E+02  0.47000000000E+01 0.  1.
        -11    1    3    3    0    0  0.60414824340E+01  0.57127780968E+02 -0.77316927267E+01  0.57964316098E+02  0.00000000000E+00 0.  1.
         11    1    3    3    0    0  0.11693767375E+02 -0.29285278196E+02 -0.20544886460E+02  0.37635941254E+02  0.00000000000E+00 0. -1.
<mgrwt>
<rscale>  0 0.11849531E+03</rscale>
<asrwt>0</asrwt>
<pdfrwt beam="2">  1        2 0.24082708E-01 0.12924346E+03</pdfrwt>
<pdfrwt beam="1">  1       -2 0.11970099E-01 0.12924346E+03</pdfrwt>
<totfact> 0.10438085E+04</totfact>
</mgrwt>
</event>
<event>
 8    1  0.7550631E-006  0.1516982E+03  0.7546771E-02  0.1208855E+00
          2   -1    0    0  501    0  0.00000000000E+00  0.00000000000E+00  0.19772353216E+03  0.19772353216E+03  0.00000000000E+00 0. -1.
         -2   -1    0    0    0  501 -0.00000000000E+00 -0.00000000000E+00 -0.10162672900E+03  0.10162672900E+03  0.00000000000E+00 0.  1.
         23    2    1    2    0    0  0.77434691186E+02 -0.37284496932E+02  0.24617113742E+01  0.12108114063E+03  0.85254427934E+02 0.  0.
         23    2    1    2    0    0 -0.77434691186E+02  0.37284496932E+02  0.93635091783E+02  0.17826912053E+03  0.12500433516E+03 0.  0.
          5    1    4    4  502    0 -0.67413144121E+02 -0.33454943283E+02  0.25961935794E+02  0.79748839117E+02  0.47000000000E+01 0.  1.
         -5    1    4    4    0  502 -0.10021547065E+02  0.70739440215E+02  0.67673155989E+02  0.98520281409E+02  0.47000000000E+01 0.  1.
        -11    1    3    3    0    0  0.22162958847E+02  0.25992580537E+02 -0.11225787567E+02  0.35955935454E+02  0.00000000000E+00 0. -1.
         11    1    3    3    0    0  0.55271732339E+02 -0.63277077469E+02  0.13687498941E+02  0.85125205175E+02  0.00000000000E+00 0.  1.
<mgrwt>
<rscale>  0 0.14337784E+03</rscale>
<asrwt>0</asrwt>
<pdfrwt beam="1">  1        2 0.30419005E-01 0.15169822E+03</pdfrwt>
<pdfrwt beam="2">  1       -2 0.15634881E-01 0.15169822E+03</pdfrwt>
<totfact> 0.53038705E+03</totfact>
</mgrwt>
</event>
<event>
 8    1  0.7550631E-006  0.1298807E+03  0.7546771E-02  0.1241644E+00
         -3   -1    0    0    0  501 -0.00000000000E+00  0.00000000000E+00  0.50301923208E+02  0.50301923208E+02  0.00000000000E+00 0.  1.
          3   -1    0    0  501    0  0.00000000000E+00 -0.00000000000E+00 -0.31441593396E+03  0.31441593396E+03  0.00000000000E+00 0. -1.
         23    2    1    2    0    0  0.30806385076E+02 -0.17221686458E+02 -0.39317329895E+02  0.10509787077E+03  0.90852023448E+02 0.  0.
         23    2    1    2    0    0 -0.30806385076E+02  0.17221686458E+02 -0.22479668086E+03  0.25961998640E+03  0.12499347890E+03 0.  0.
          5    1    4    4  502    0 -0.51555122894E+02  0.60023468006E+02 -0.11294193683E+03  0.13798086282E+03  0.47000000000E+01 0. -1.
         -5    1    4    4    0  502  0.20748737818E+02 -0.42801781548E+02 -0.11185474403E+03  0.12163912358E+03  0.47000000000E+01 0. -1.
        -11    1    3    3    0    0  0.26278531360E+02  0.26429803229E+02  0.10486116351E+02  0.38717623188E+02  0.00000000000E+00 0.  1.
         11    1    3    3    0    0  0.45278537161E+01 -0.43651489688E+02 -0.49803446246E+02  0.66380247583E+02  0.00000000000E+00 0. -1.
<mgrwt>
<rscale>  0 0.12088494E+03</rscale>
<asrwt>0</asrwt>
<pdfrwt beam="2">  1        3 0.48371683E-01 0.12988067E+03</pdfrwt>
<pdfrwt beam="1">  1       -3 0.77387573E-02 0.12988067E+03</pdfrwt>
<totfact> 0.11009503E+03</totfact>
</mgrwt>
</event>
<event>
 8    1  0.7550631E-006  0.1314990E+03  0.7546771E-02  0.1240764E+00
         -1   -1    0    0    0  501 -0.00000000000E+00  0.00000000000E+00  0.74513920344E+02  0.74513920344E+02  0.00000000000E+00 0.  1.
          1   -1    0    0  501    0  0.00000000000E+00 -0.00000000000E+00 -0.24815204246E+03  0.24815204246E+03  0.00000000000E+00 0. -1.
         23    2    1    2    0    0  0.35024173602E+02 -0.19921857483E+02  0.10733657858E+02  0.96204205020E+02  0.86697546161E+02 0.  0.
         23    2    1    2    0    0 -0.35024173602E+02  0.19921857483E+02 -0.18437177997E+03  0.22646175778E+03  0.12517348500E+03 0.  0.
          5    1    4    4  502    0 -0.24036936335E+02 -0.38120008191E+02 -0.16141249552E+02  0.48099264755E+02  0.47000000000E+01 0.  1.
         -5    1    4    4    0  502 -0.10987237267E+02  0.58041865674E+02 -0.16823053042E+03  0.17836249303E+03  0.47000000000E+01 0.  1.
        -11    1    3    3    0    0  0.43156136845E+02 -0.46758253484E+02  0.19954596179E+02  0.66685623075E+02  0.00000000000E+00 0.  1.
         11    1    3    3    0    0 -0.81319632426E+01  0.26836396001E+02 -0.92209383206E+01  0.29518581945E+02  0.00000000000E+00 0. -1.
<mgrwt>
<rscale>  0 0.12142559E+03</rscale>
<asrwt>0</asrwt>
<pdfrwt beam="2">  1        1 0.38177237E-01 0.13149895E+03</pdfrwt>
<pdfrwt beam="1">  1       -1 0.11463680E-01 0.13149895E+03</pdfrwt>
<totfact> 0.52398933E+03</totfact>
</mgrwt>
</event>
<event>
 8    1  0.7550631E-006  0.1658402E+03  0.7546771E-02  0.1189476E+00
          1   -1    0    0  501    0  0.00000000000E+00  0.00000000000E+00  0.92571143507E+02  0.92571143507E+02  0.00000000000E+00 0.  1.
         -1   -1    0    0    0  501 -0.00000000000E+00 -0.00000000000E+00 -0.26160897372E+03  0.26160897372E+03  0.00000000000E+00 0. -1.
         23    2    1    2    0    0 -0.79268741050E+02  0.74779716791E+02 -0.49127591765E+02  0.14953059499E+03  0.89835066732E+02 0.  0.
         23    2    1    2    0    0  0.79268741050E+02 -0.74779716791E+02 -0.11991023845E+03  0.20464952224E+03  0.12500968889E+03 0.  0.
          5    1    4    4  502    0  0.78347486202E+02 -0.10044802432E+03 -0.63343024072E+02  0.14234662933E+03  0.47000000000E+01 0.  1.
         -5    1    4    4    0  502  0.92125484831E+00  0.25668307528E+02 -0.56567214379E+02  0.62302892906E+02  0.47000000000E+01 0.  1.
        -11    1    3    3    0    0 -0.31294250947E+02  0.31342770933E+02  0.25214638484E+02  0.50965453260E+02  0.00000000000E+00 0. -1.
         11    1    3    3    0    0 -0.47974490104E+02  0.43436945858E+02 -0.74342230249E+02  0.98565141731E+02  0.00000000000E+00 0.  1.
<mgrwt>
<rscale>  0 0.15931217E+03</rscale>
<asrwt>0</asrwt>
<pdfrwt beam="1">  1        1 0.14241715E-01 0.16584017E+03</pdfrwt>
<pdfrwt beam="2">  1       -1 0.40247534E-01 0.16584017E+03</pdfrwt>
<totfact> 0.23843934E+03</totfact>
</mgrwt>
</event>
<event>
 8    1  0.7550631E-006  0.1876846E+03  0.7546771E-02  0.1165706E+00
         -1   -1    0    0    0  501 -0.00000000000E+00  0.00000000000E+00  0.71042635193E+02  0.71042635193E+02  0.00000000000E+00 0.  1.
          1   -1    0    0  501    0  0.00000000000E+00 -0.00000000000E+00 -0.46401226089E+03  0.46401226089E+03  0.00000000000E+00 0. -1.
         23    2    1    2    0    0 -0.10629838008E+03 -0.91113783203E+02 -0.12689729906E+03  0.20944779542E+03  0.90356999726E+02 0.  0.
         23    2    1    2    0    0  0.10629838008E+03  0.91113783203E+02 -0.26607232664E+03  0.32560710067E+03  0.12499773560E+03 0.  0.
          5    1    4    4  502    0  0.19321321287E+02 -0.44141983841E+01  0.85400493621E+01  0.22086671247E+02  0.47000000000E+01 0.  1.
         -5    1    4    4    0  502  0.86977058794E+02  0.95527981587E+02 -0.27461237600E+03  0.30352042942E+03  0.47000000000E+01 0.  1.
        -11    1    3    3    0    0 -0.23512306024E+02  0.78248416898E+01 -0.58278945880E+02  0.63328447122E+02  0.00000000000E+00 0. -1.
         11    1    3    3    0    0 -0.82786074057E+02 -0.98938624893E+02 -0.68618353181E+02  0.14611934830E+03  0.00000000000E+00 0.  1.
<mgrwt>
<rscale>  0 0.18218371E+03</rscale>
<asrwt>0</asrwt>
<pdfrwt beam="2">  1        1 0.71386501E-01 0.18768458E+03</pdfrwt>
<pdfrwt beam="1">  1       -1 0.10929636E-01 0.18768458E+03</pdfrwt>
<totfact> 0.26114980E+03</totfact>
</mgrwt>
</event>
<event>
 8    1  0.7550631E-006  0.1761239E+03  0.7546771E-02  0.1177587E+00
         -1   -1    0    0    0  501 -0.00000000000E+00  0.00000000000E+00  0.97796800615E+02  0.97796800615E+02  0.00000000000E+00 0.  1.
          1   -1    0    0  501    0  0.00000000000E+00 -0.00000000000E+00 -0.32042677311E+03  0.32042677311E+03  0.00000000000E+00 0. -1.
         23    2    1    2    0    0 -0.30682374802E+02 -0.12022526499E+03 -0.29025898878E+02  0.15649436642E+03  0.90843059440E+02 0.  0.
         23    2    1    2    0    0  0.30682374802E+02  0.12022526499E+03 -0.19360407362E+03  0.26172920731E+03  0.12499647263E+03 0.  0.
          5    1    4    4  502    0 -0.62576174363E+01  0.32822994093E+02 -0.15591109753E+03  0.15952074175E+03  0.47000000000E+01 0.  1.
         -5    1    4    4    0  502  0.36939992238E+02  0.87402270899E+02 -0.37692976093E+02  0.10220846556E+03  0.47000000000E+01 0.  1.
        -11    1    3    3    0    0  0.39687044914E+01 -0.59246042173E+02  0.28424657455E+02  0.65831643455E+02  0.00000000000E+00 0.  1.
         11    1    3    3    0    0 -0.34651079293E+02 -0.60979222820E+02 -0.57450556333E+02  0.90662722962E+02  0.00000000000E+00 0. -1.
<mgrwt>
<rscale>  0 0.17025036E+03</rscale>
<asrwt>0</asrwt>
<pdfrwt beam="2">  1        1 0.49296426E-01 0.17612394E+03</pdfrwt>
<pdfrwt beam="1">  1       -1 0.15045662E-01 0.17612394E+03</pdfrwt>
<totfact> 0.25331561E+03</totfact>
</mgrwt>
</event>
<event>
 8    1  0.7550631E-006  0.1253177E+03  0.7546771E-02  0.1244830E+00
         -2   -1    0    0    0  501 -0.00000000000E+00  0.00000000000E+00  0.91359214684E+02  0.91359214684E+02  0.00000000000E+00 0.  1.
          2   -1    0    0  501    0  0.00000000000E+00 -0.00000000000E+00 -0.14121777461E+03  0.14121777461E+03  0.00000000000E+00 0. -1.
         23    2    1    2    0    0  0.47276638106E+02 -0.13523405941E+02 -0.25953644560E+02  0.10499966476E+03  0.89069494862E+02 0.  0.
         23    2    1    2    0    0 -0.47276638106E+02  0.13523405941E+02 -0.23904915362E+02  0.12757732453E+03  0.11526736631E+03 0.  0.
          5    1    4    4  502    0 -0.24643150694E+02  0.25918253812E+02 -0.67595568851E+02  0.76617828768E+02  0.47000000000E+01 0. -1.
         -5    1    4    4    0  502 -0.22633487412E+02 -0.12394847871E+02  0.43690653488E+02  0.50959495763E+02  0.47000000000E+01 0.  1.
        -11    1    3    3    0    0  0.68469182095E+02 -0.25688232999E+01 -0.37919685090E+02  0.78310473548E+02  0.00000000000E+00 0. -1.
         11    1    3    3    0    0 -0.21192543990E+02 -0.10954582641E+02  0.11966040530E+02  0.26689191212E+02  0.00000000000E+00 0.  1.
<mgrwt>
<rscale>  0 0.11895533E+03</rscale>
<asrwt>0</asrwt>
<pdfrwt beam="2">  1        2 0.21725812E-01 0.12531771E+03</pdfrwt>
<pdfrwt beam="1">  1       -2 0.14055264E-01 0.12531771E+03</pdfrwt>
<totfact> 0.90196448E+03</totfact>
</mgrwt>
</event>
<event>
 8    1  0.7550631E-006  0.1547823E+03  0.7546771E-02  0.1203348E+00
         -1   -1    0    0    0  501 -0.00000000000E+00  0.00000000000E+00  0.27718281482E+02  0.27718281482E+02  0.00000000000E+00 0.  1.
          1   -1    0    0  501    0  0.00000000000E+00 -0.00000000000E+00 -0.10140384572E+04  0.10140384572E+04  0.00000000000E+00 0. -1.
         23    2    1    2    0    0 -0.81810727459E+01  0.90929395464E+02 -0.18192969662E+03  0.22260985696E+03  0.90120191923E+02 0.  0.
         23    2    1    2    0    0  0.81810727459E+01 -0.90929395464E+02 -0.80439047911E+03  0.81914688173E+03  0.12498994385E+03 0.  0.
          5    1    4    4  502    0 -0.14128545401E+02  0.25005817816E+02 -0.78872499218E+02  0.84070612301E+02  0.47000000000E+01 0.  1.
         -5    1    4    4    0  502  0.22309618147E+02 -0.11593521328E+03 -0.72551797989E+03  0.73507626943E+03  0.47000000000E+01 0.  1.
        -11    1    3    3    0    0 -0.39492957781E+02  0.98144327436E+01 -0.68695086155E+02  0.79843795415E+02  0.00000000000E+00 0.  1.
         11    1    3    3    0    0  0.31311885035E+02  0.81114962720E+02 -0.11323461047E+03  0.14276606154E+03  0.00000000000E+00 0. -1.
<mgrwt>
<rscale>  0 0.14768419E+03</rscale>
<asrwt>0</asrwt>
<pdfrwt beam="2">  1        1 0.15600590E+00 0.15478233E+03</pdfrwt>
<pdfrwt beam="1">  1       -1 0.42643513E-02 0.15478233E+03</pdfrwt>
<totfact> 0.34404963E+03</totfact>
</mgrwt>
</event>
<event>
 8    1  0.7550631E-006  0.1303562E+03  0.7546771E-02  0.1240991E+00
         -2   -1    0    0    0  501 -0.00000000000E+00  0.00000000000E+00  0.80183799402E+02  0.80183799402E+02  0.00000000000E+00 0.  1.
          2   -1    0    0  501    0  0.00000000000E+00 -0.00000000000E+00 -0.16224470795E+03  0.16224470795E+03  0.00000000000E+00 0. -1.
         23    2    1    2    0    0  0.13900584824E+02  0.34324551841E+02 -0.32140517251E+02  0.10284059437E+03  0.90397864379E+02 0.  0.
         23    2    1    2    0    0 -0.13900584824E+02 -0.34324551841E+02 -0.49920391295E+02  0.13958791298E+03  0.12498535460E+03 0.  0.
          5    1    4    4  502    0 -0.49590076329E+02 -0.12986012803E+02  0.22315699176E+02  0.56106083704E+02  0.47000000000E+01 0.  1.
         -5    1    4    4    0  502  0.35689491505E+02 -0.21338539038E+02 -0.72236090471E+02  0.83481829273E+02  0.47000000000E+01 0.  1.
        -11    1    3    3    0    0 -0.37531692545E+00  0.41743593069E+02 -0.58555005834E+02  0.71912148719E+02  0.00000000000E+00 0. -1.
         11    1    3    3    0    0  0.14275901749E+02 -0.74190412279E+01  0.26414488583E+02  0.30928445654E+02  0.00000000000E+00 0.  1.
<mgrwt>
<rscale>  0 0.12128592E+03</rscale>
<asrwt>0</asrwt>
<pdfrwt beam="2">  1        2 0.24960724E-01 0.13035620E+03</pdfrwt>
<pdfrwt beam="1">  1       -2 0.12335969E-01 0.13035620E+03</pdfrwt>
<totfact> 0.95692901E+03</totfact>
</mgrwt>
</event>
<event>
 8    1  0.7550631E-006  0.1373254E+03  0.7546771E-02  0.1229943E+00
          1   -1    0    0  501    0  0.00000000000E+00  0.00000000000E+00  0.19798762369E+03  0.19798762369E+03  0.00000000000E+00 0. -1.
         -1   -1    0    0    0  501 -0.00000000000E+00 -0.00000000000E+00 -0.87487584327E+02  0.87487584327E+02  0.00000000000E+00 0.  1.
         23    2    1    2    0    0 -0.14807692600E+02  0.54903276136E+02 -0.66579614047E+01  0.10496409361E+03  0.87974399718E+02 0.  0.
         23    2    1    2    0    0  0.14807692600E+02 -0.54903276136E+02  0.11715800076E+03  0.18051111441E+03  0.12499851116E+03 0.  0.
          5    1    4    4  502    0  0.71979921433E+01  0.37409319587E+02  0.61052327791E+02  0.72116191050E+02  0.47000000000E+01 0. -1.
         -5    1    4    4    0  502  0.76097004562E+01 -0.92312595723E+02  0.56105672974E+02  0.10839492336E+03  0.47000000000E+01 0. -1.
        -11    1    3    3    0    0  0.14537347011E+02  0.46337925699E+02 -0.37637017195E+02  0.61441703097E+02  0.00000000000E+00 0.  1.
         11    1    3    3    0    0 -0.29345039610E+02  0.85653504379E+01  0.30979055791E+02  0.43522390508E+02  0.00000000000E+00 0. -1.
<mgrwt>
<rscale>  0 0.12833777E+03</rscale>
<asrwt>0</asrwt>
<pdfrwt beam="1">  1        1 0.30459634E-01 0.13732540E+03</pdfrwt>
<pdfrwt beam="2">  1       -1 0.13459628E-01 0.13732540E+03</pdfrwt>
<totfact> 0.54226224E+03</totfact>
</mgrwt>
</event>
<event>
 8    1  0.7550631E-006  0.1999207E+03  0.7546771E-02  0.1153905E+00
         -1   -1    0    0    0  501 -0.00000000000E+00  0.00000000000E+00  0.10267472199E+03  0.10267472199E+03  0.00000000000E+00 0.  1.
          1   -1    0    0  501    0  0.00000000000E+00 -0.00000000000E+00 -0.43005088033E+03  0.43005088033E+03  0.00000000000E+00 0. -1.
         23    2    1    2    0    0 -0.68842305615E+01  0.15587795172E+03 -0.45395799550E+02  0.18706506920E+03  0.92667324528E+02 0.  0.
         23    2    1    2    0    0  0.68842305615E+01 -0.15587795172E+03 -0.28198035878E+03  0.34566053312E+03  0.12499181155E+03 0.  0.
          5    1    4    4  502    0 -0.75793879393E+01 -0.14878923855E+03 -0.29074752968E+03  0.32672909366E+03  0.47000000000E+01 0.  1.
         -5    1    4    4    0  502  0.14463618501E+02 -0.70887131713E+01  0.87671708958E+01  0.18931439461E+02  0.47000000000E+01 0.  1.
        -11    1    3    3    0    0 -0.27929194254E+01  0.25764694407E+02 -0.50527941055E+02  0.56786377804E+02  0.00000000000E+00 0. -1.
         11    1    3    3    0    0 -0.40913111361E+01  0.13011325731E+03  0.51321415053E+01  0.13027869140E+03  0.00000000000E+00 0.  1.
<mgrwt>
<rscale>  0 0.19514009E+03</rscale>
<asrwt>0</asrwt>
<pdfrwt beam="2">  1        1 0.66161673E-01 0.19992069E+03</pdfrwt>
<pdfrwt beam="1">  1       -1 0.15796111E-01 0.19992069E+03</pdfrwt>
<totfact> 0.16209180E+03</totfact>
</mgrwt>
</event>
<event>
 8    1  0.7550631E-006  0.1280446E+03  0.7546771E-02  0.1259684E+00
         -2   -1    0    0    0  501 -0.00000000000E+00  0.00000000000E+00  0.82223026122E+02  0.82223026122E+02  0.00000000000E+00 0.  1.
          2   -1    0    0  501    0  0.00000000000E+00 -0.00000000000E+00 -0.12043200815E+03  0.12043200815E+03  0.00000000000E+00 0. -1.
         23    2    1    2    0    0 -0.26471903863E+02  0.83883256025E+01 -0.12629054311E+02  0.72080377203E+02  0.65306677027E+02 0.  0.
         23    2    1    2    0    0  0.26471903863E+02 -0.83883256025E+01 -0.25579927718E+02  0.13057465707E+03  0.12499713063E+03 0.  0.
          5    1    4    4  502    0  0.64261292294E+02 -0.27175520619E+02  0.15353211346E+02  0.71594927940E+02  0.47000000000E+01 0. -1.
         -5    1    4    4    0  502 -0.37789388431E+02  0.18787195016E+02 -0.40933139064E+02  0.58979729129E+02  0.47000000000E+01 0. -1.
        -11    1    3    3    0    0 -0.10803805899E+02 -0.12105718904E+02  0.22966372664E+02  0.28119831533E+02  0.00000000000E+00 0.  1.
         11    1    3    3    0    0 -0.15668097964E+02  0.20494044507E+02 -0.35595426975E+02  0.43960545670E+02  0.00000000000E+00 0. -1.
<mgrwt>
<rscale>  0 0.11047970E+03</rscale>
<asrwt>0</asrwt>
<pdfrwt beam="2">  1        2 0.18528001E-01 0.12804456E+03</pdfrwt>
<pdfrwt beam="1">  1       -2 0.12649696E-01 0.12804456E+03</pdfrwt>
<totfact> 0.12814326E+04</totfact>
</mgrwt>
</event>
<event>
 8    1  0.7550631E-006  0.2259948E+03  0.7546771E-02  0.1132554E+00
          2   -1    0    0  501    0  0.00000000000E+00  0.00000000000E+00  0.92674103355E+03  0.92674103355E+03  0.00000000000E+00 0. -1.
         -2   -1    0    0    0  501 -0.00000000000E+00 -0.00000000000E+00 -0.51599206404E+02  0.51599206404E+02  0.00000000000E+00 0.  1.
         23    2    1    2    0    0  0.17394760146E+03  0.72043461696E+02  0.46445950052E+03  0.50958269210E+03  0.92216397890E+02 0.  0.
         23    2    1    2    0    0 -0.17394760146E+03 -0.72043461696E+02  0.41068232663E+03  0.46875754786E+03  0.12500254732E+03 0.  0.
          5    1    4    4  502    0 -0.50485494583E+02 -0.78938611852E+02  0.11630312340E+03  0.14942756144E+03  0.47000000000E+01 0. -1.
         -5    1    4    4    0  502 -0.12346210688E+03  0.68951501552E+01  0.29437920323E+03  0.31932998642E+03  0.47000000000E+01 0. -1.
        -11    1    3    3    0    0  0.15087685370E+03  0.20220336549E+02  0.31921433863E+03  0.35365305170E+03  0.00000000000E+00 0.  1.
         11    1    3    3    0    0  0.23070747761E+02  0.51823125147E+02  0.14524516189E+03  0.15592964040E+03  0.00000000000E+00 0. -1.
<mgrwt>
<rscale>  0 0.22179210E+03</rscale>
<asrwt>0</asrwt>
<pdfrwt beam="1">  1        2 0.14257553E+00 0.22599483E+03</pdfrwt>
<pdfrwt beam="2">  1       -2 0.79383401E-02 0.22599483E+03</pdfrwt>
<totfact> 0.27815452E+03</totfact>
</mgrwt>
</event>
<event>
 7    1  0.7550631E-006  0.1331507E+03  0.7546771E-02  0.1238692E+00
          2   -1    0    0  501    0  0.00000000000E+00  0.00000000000E+00  0.75053895959E+03  0.75053895959E+03  0.00000000000E+00 0. -1.
         -2   -1    0    0    0  501 -0.00000000000E+00 -0.00000000000E+00 -0.18393123216E+02  0.18393123216E+02  0.00000000000E+00 0.  1.
         23    2    1    2    0    0  0.32048489329E+02  0.76428200117E+01  0.22595806021E+03  0.24552480305E+03  0.90221203552E+02 0.  0.
          5    1    1    2  502    0  0.17090127797E+02 -0.42252417246E+02  0.38834507210E+03  0.39103877590E+03  0.47000000000E+01 0. -1.
         -5    1    1    2    0  502 -0.49138617127E+02  0.34609597235E+02  0.11784270406E+03  0.13236850386E+03  0.47000000000E+01 0.  1.
        -11    1    3    3    0    0  0.43303217876E+02 -0.30819162931E+02  0.15717882955E+03  0.16592219243E+03  0.00000000000E+00 0. -1.
         11    1    3    3    0    0 -0.11254728547E+02  0.38461982942E+02  0.68779230668E+02  0.79602610621E+02  0.00000000000E+00 0.  1.
<mgrwt>
<rscale>  0 0.12271021E+03</rscale>
<asrwt>0</asrwt>
<pdfrwt beam="1">  1        2 0.11546751E+00 0.13315073E+03</pdfrwt>
<pdfrwt beam="2">  1       -2 0.28297118E-02 0.13315073E+03</pdfrwt>
<totfact> 0.16869219E+04</totfact>
</mgrwt>
</event>
<event>
 8    1  0.7550631E-006  0.1422387E+03  0.7546771E-02  0.1219806E+00
         -1   -1    0    0    0  501 -0.00000000000E+00  0.00000000000E+00  0.12540950576E+03  0.12540950576E+03  0.00000000000E+00 0.  1.
          1   -1    0    0  501    0  0.00000000000E+00 -0.00000000000E+00 -0.13343476635E+03  0.13343476635E+03  0.00000000000E+00 0. -1.
         23    2    1    2    0    0  0.20720359562E+02 -0.64634729014E+02 -0.99148623911E+00  0.11643179516E+03  0.94595974455E+02 0.  0.
         23    2    1    2    0    0 -0.20720359562E+02  0.64634729014E+02 -0.70337743469E+01  0.14241247695E+03  0.12499943246E+03 0.  0.
          5    1    4    4  502    0 -0.93712304545E+01  0.52366706495E+02 -0.63712099989E+02  0.83134912007E+02  0.47000000000E+01 0. -1.
         -5    1    4    4    0  502 -0.11349129107E+02  0.12268022519E+02  0.56678325642E+02  0.59277564943E+02  0.47000000000E+01 0. -1.
        -11    1    3    3    0    0  0.56259935878E+02 -0.53926416851E+02  0.76985729610E+01  0.78310324000E+02  0.00000000000E+00 0.  1.
         11    1    3    3    0    0 -0.35539576316E+02 -0.10708312163E+02 -0.86900592001E+01  0.38121471155E+02  0.00000000000E+00 0. -1.
<mgrwt>
<rscale>  0 0.13529359E+03</rscale>
<asrwt>0</asrwt>
<pdfrwt beam="2">  1        1 0.20528425E-01 0.14223867E+03</pdfrwt>
<pdfrwt beam="1">  1       -1 0.19293770E-01 0.14223867E+03</pdfrwt>
<totfact> 0.50554209E+03</totfact>
</mgrwt>
</event>
<event>
 8    1  0.7550631E-006  0.2114380E+03  0.7546771E-02  0.1144244E+00
         -1   -1    0    0    0  501 -0.00000000000E+00  0.00000000000E+00  0.22715069548E+02  0.22715069548E+02  0.00000000000E+00 0.  1.
          1   -1    0    0  501    0  0.00000000000E+00 -0.00000000000E+00 -0.19700218279E+04  0.19700218279E+04  0.00000000000E+00 0. -1.
         23    2    1    2    0    0  0.17033561088E+03 -0.82313026818E+01 -0.64028581525E+03  0.66872413584E+03  0.90244501098E+02 0.  0.
         23    2    1    2    0    0 -0.17033561088E+03  0.82313026818E+01 -0.13070209431E+04  0.13240127616E+04  0.12499628993E+03 0.  0.
          5    1    4    4  502    0 -0.35616973750E+02  0.31927993767E+02 -0.12219190628E+03  0.13130467458E+03  0.47000000000E+01 0. -1.
         -5    1    4    4    0  502 -0.13471863713E+03 -0.23696691085E+02 -0.11848290368E+04  0.11927080870E+04  0.47000000000E+01 0. -1.
        -11    1    3    3    0    0  0.78577762879E+02 -0.37633976382E+02 -0.20227658877E+03  0.22024213803E+03  0.00000000000E+00 0. -1.
         11    1    3    3    0    0  0.91757847998E+02  0.29402673700E+02 -0.43800922647E+03  0.44848199781E+03  0.00000000000E+00 0.  1.
<mgrwt>
<rscale>  0 0.20665371E+03</rscale>
<asrwt>0</asrwt>
<pdfrwt beam="2">  1        1 0.30308027E+00 0.21143805E+03</pdfrwt>
<pdfrwt beam="1">  1       -1 0.34946262E-02 0.21143805E+03</pdfrwt>
<totfact> 0.10665950E+03</totfact>
</mgrwt>
</event>
<event>
 8    1  0.7550631E-006  0.2014200E+03  0.7546771E-02  0.1152550E+00
          2   -1    0    0  501    0  0.00000000000E+00  0.00000000000E+00  0.87377060456E+03  0.87377060456E+03  0.00000000000E+00 0. -1.
         -2   -1    0    0    0  501 -0.00000000000E+00 -0.00000000000E+00 -0.42612729454E+02  0.42612729454E+02  0.00000000000E+00 0.  1.
         23    2    1    2    0    0  0.39165050732E+02 -0.15300435456E+03  0.35858396575E+03  0.40267511370E+03  0.92846933123E+02 0.  0.
         23    2    1    2    0    0 -0.39165050732E+02  0.15300435456E+03  0.47257390935E+03  0.51370822031E+03  0.12500320835E+03 0.  0.
          5    1    4    4  502    0 -0.70387506557E+02  0.87469288699E+02  0.37826578050E+03  0.39460406517E+03  0.47000000000E+01 0.  1.
         -5    1    4    4    0  502  0.31222455824E+02  0.65535065861E+02  0.94308128850E+02  0.11910415514E+03  0.47000000000E+01 0.  1.
        -11    1    3    3    0    0  0.20952243535E+02 -0.82345964454E+02  0.87601571199E+02  0.12204052461E+03  0.00000000000E+00 0.  1.
         11    1    3    3    0    0  0.18212807198E+02 -0.70658390106E+02  0.27098239455E+03  0.28063458909E+03  0.00000000000E+00 0. -1.
<mgrwt>
<rscale>  0 0.19670369E+03</rscale>
<asrwt>0</asrwt>
<pdfrwt beam="1">  1        2 0.13442623E+00 0.20142005E+03</pdfrwt>
<pdfrwt beam="2">  1       -2 0.65558052E-02 0.20142005E+03</pdfrwt>
<totfact> 0.40367904E+03</totfact>
</mgrwt>
</event>
<event>
 8    1  0.7550631E-006  0.1297264E+03  0.7546771E-02  0.1241674E+00
          2   -1    0    0  501    0  0.00000000000E+00  0.00000000000E+00  0.88971363461E+02  0.88971363461E+02  0.00000000000E+00 0.  1.
         -2   -1    0    0    0  501 -0.00000000000E+00 -0.00000000000E+00 -0.15437407218E+03  0.15437407218E+03  0.00000000000E+00 0. -1.
         23    2    1    2    0    0 -0.95251676980E+01 -0.33328426829E+02 -0.57423274887E+02  0.11337385912E+03  0.91403974635E+02 0.  0.
         23    2    1    2    0    0  0.95251676980E+01  0.33328426829E+02 -0.79794338307E+01  0.12997157652E+03  0.12500970556E+03 0.  0.
          5    1    4    4  502    0  0.16911128348E+02  0.52097356445E+02  0.46300724813E+02  0.71874668200E+02  0.47000000000E+01 0.  1.
         -5    1    4    4    0  502 -0.73859606501E+01 -0.18768929616E+02 -0.54280158644E+02  0.58096908317E+02  0.47000000000E+01 0.  1.
        -11    1    3    3    0    0 -0.16705470125E+02 -0.25366156417E+02 -0.81522759254E+02  0.86996982131E+02  0.00000000000E+00 0. -1.
         11    1    3    3    0    0  0.71803024272E+01 -0.79622704120E+01  0.24099484368E+02  0.26376876992E+02  0.00000000000E+00 0.  1.
<mgrwt>
<rscale>  0 0.12086677E+03</rscale>
<asrwt>0</asrwt>
<pdfrwt beam="1">  1        2 0.13687902E-01 0.12972640E+03</pdfrwt>
<pdfrwt beam="2">  1       -2 0.23749857E-01 0.12972640E+03</pdfrwt>
<totfact> 0.63985073E+03</totfact>
</mgrwt>
</event>
<event>
 8    1  0.7550631E-006  0.2201730E+03  0.7546771E-02  0.1137069E+00
         -2   -1    0    0    0  501 -0.00000000000E+00  0.00000000000E+00  0.26080907223E+02  0.26080907223E+02  0.00000000000E+00 0. -1.
          2   -1    0    0  501    0  0.00000000000E+00 -0.00000000000E+00 -0.23689744193E+04  0.23689744193E+04  0.00000000000E+00 0.  1.
         23    2    1    2    0    0 -0.84638620287E+02  0.16027245098E+03 -0.50960421990E+03  0.54859227643E+03  0.91684623759E+02 0.  0.
         23    2    1    2    0    0  0.84638620287E+02 -0.16027245098E+03 -0.18332892922E+04  0.18464630501E+04  0.12500084780E+03 0.  0.
          5    1    4    4  502    0  0.10102960465E+03 -0.15471670995E+03 -0.17912040650E+04  0.18007160614E+04  0.47000000000E+01 0. -1.
         -5    1    4    4    0  502 -0.16390984361E+02 -0.55557410298E+01 -0.42085227186E+02  0.45746988688E+02  0.47000000000E+01 0. -1.
        -11    1    3    3    0    0 -0.53807112703E+02  0.21833975239E+02 -0.10707551280E+03  0.12180760770E+03  0.00000000000E+00 0.  1.
         11    1    3    3    0    0 -0.30831507583E+02  0.13843847574E+03 -0.40252870710E+03  0.42678466873E+03  0.00000000000E+00 0. -1.
<mgrwt>
<rscale>  0 0.21577958E+03</rscale>
<asrwt>0</asrwt>
<pdfrwt beam="2">  1        2 0.36445768E+00 0.22017304E+03</pdfrwt>
<pdfrwt beam="1">  1       -2 0.40124464E-02 0.22017304E+03</pdfrwt>
<totfact> 0.13014244E+03</totfact>
</mgrwt>
</event>
<event>
 7    1  0.7550631E-006  0.1518586E+03  0.7546771E-02  0.1213555E+00
         -1   -1    0    0    0  501 -0.00000000000E+00  0.00000000000E+00  0.21044048682E+03  0.21044048682E+03  0.00000000000E+00 0.  1.
          1   -1    0    0  501    0  0.00000000000E+00 -0.00000000000E+00 -0.14588621856E+03  0.14588621856E+03  0.00000000000E+00 0. -1.
         23    2    1    2    0    0  0.53003083715E+02 -0.28090121435E+02  0.14733279888E+03  0.18337199931E+03  0.91213785685E+02 0.  0.
          5    1    1    2  502    0 -0.68005350939E+02 -0.18950998448E+02  0.62647236999E+01  0.71029605529E+02  0.47000000000E+01 0. -1.
         -5    1    1    2    0  502  0.15002267224E+02  0.47041119883E+02 -0.89043254317E+02  0.10192510054E+03  0.47000000000E+01 0.  1.
        -11    1    3    3    0    0  0.34386794318E+02 -0.19766254035E+02  0.15618393806E+03  0.16114148730E+03  0.00000000000E+00 0.  1.
         11    1    3    3    0    0  0.18616289397E+02 -0.83238674007E+01 -0.88511391775E+01  0.22230512009E+02  0.00000000000E+00 0. -1.
<mgrwt>
<rscale>  0 0.13983200E+03</rscale>
<asrwt>0</asrwt>
<pdfrwt beam="2">  1        1 0.22444034E-01 0.15185864E+03</pdfrwt>
<pdfrwt beam="1">  1       -1 0.32375460E-01 0.15185864E+03</pdfrwt>
<totfact> 0.19297751E+03</totfact>
</mgrwt>
</event>
<event>
 8    1  0.7550631E-006  0.1406075E+03  0.7546771E-02  0.1223600E+00
          1   -1    0    0  501    0  0.00000000000E+00  0.00000000000E+00  0.34328036526E+02  0.34328036526E+02  0.00000000000E+00 0. -1.
         -1   -1    0    0    0  501 -0.00000000000E+00 -0.00000000000E+00 -0.48298063481E+03  0.48298063481E+03  0.00000000000E+00 0.  1.
         23    2    1    2    0    0 -0.48757516788E+02  0.42035703093E+02 -0.25264670682E+03  0.27608513964E+03  0.90820427663E+02 0.  0.
         23    2    1    2    0    0  0.48757516788E+02 -0.42035703093E+02 -0.19600589146E+03  0.24122353170E+03  0.12500474783E+03 0.  0.
          5    1    4    4  502    0 -0.14456607387E+02  0.35895426490E+02 -0.69477225282E+02  0.79665864540E+02  0.47000000000E+01 0. -1.
         -5    1    4    4    0  502  0.63214124175E+02 -0.77931129584E+02 -0.12652866618E+03  0.16155766716E+03  0.47000000000E+01 0. -1.
        -11    1    3    3    0    0  0.99636144281E+01 -0.21875237427E+02 -0.44707364433E+02  0.50759709017E+02  0.00000000000E+00 0. -1.
         11    1    3    3    0    0 -0.58721131216E+02  0.63910940521E+02 -0.20793934239E+03  0.22532543062E+03  0.00000000000E+00 0.  1.
<mgrwt>
<rscale>  0 0.13263312E+03</rscale>
<asrwt>0</asrwt>
<pdfrwt beam="1">  1        1 0.52812366E-02 0.14060755E+03</pdfrwt>
<pdfrwt beam="2">  1       -1 0.74304710E-01 0.14060755E+03</pdfrwt>
<totfact> 0.28329927E+03</totfact>
</mgrwt>
</event>
<event>
 8    1  0.7550631E-006  0.1399677E+03  0.7546771E-02  0.1223502E+00
          4   -1    0    0  501    0  0.00000000000E+00  0.00000000000E+00  0.44535023042E+03  0.44535023042E+03  0.00000000000E+00 0. -1.
         -4   -1    0    0    0  501 -0.00000000000E+00 -0.00000000000E+00 -0.35949046776E+02  0.35949046776E+02  0.00000000000E+00 0.  1.
         23    2    1    2    0    0 -0.59670199812E+02  0.20130647693E+02  0.18454121239E+03  0.21643523972E+03  0.93930709578E+02 0.  0.
         23    2    1    2    0    0  0.59670199812E+02 -0.20130647693E+02  0.22485997125E+03  0.26486403747E+03  0.12500070380E+03 0.  0.
          5    1    4    4  502    0 -0.49009278277E+01  0.14186371159E+02 -0.10134701763E+02  0.18710275253E+02  0.47000000000E+01 0.  1.
         -5    1    4    4    0  502  0.64571127640E+02 -0.34317018851E+02  0.23499467302E+03  0.24615376222E+03  0.47000000000E+01 0.  1.
        -11    1    3    3    0    0 -0.32584538183E+01  0.37954827288E+02  0.23232334752E+02  0.44619814138E+02  0.00000000000E+00 0.  1.
         11    1    3    3    0    0 -0.56411745994E+02 -0.17824179595E+02  0.16130887764E+03  0.17181542559E+03  0.00000000000E+00 0. -1.
<mgrwt>
<rscale>  0 0.13270105E+03</rscale>
<asrwt>0</asrwt>
<pdfrwt beam="1">  1        4 0.68515416E-01 0.13996768E+03</pdfrwt>
<pdfrwt beam="2">  1       -4 0.55306229E-02 0.13996768E+03</pdfrwt>
<totfact> 0.67534591E+02</totfact>
</mgrwt>
</event>
<event>
 7    1  0.7550631E-006  0.2963351E+03  0.7546771E-02  0.1101907E+00
         -1   -1    0    0    0  501 -0.00000000000E+00  0.00000000000E+00  0.69892870740E+02  0.69892870740E+02  0.00000000000E+00 0.  1.
          1   -1    0    0  501    0  0.00000000000E+00 -0.00000000000E+00 -0.90600610122E+03  0.90600610122E+03  0.00000000000E+00 0. -1.
         23    2    1    2    0    0  0.74562912562E+02  0.16215652732E+03 -0.26591162261E+03  0.33329152021E+03  0.92303191290E+02 0.  0.
          5    1    1    2  502    0  0.78390393377E+02 -0.43836492452E+02 -0.10180815838E+03  0.13584433355E+03  0.47000000000E+01 0. -1.
         -5    1    1    2    0  502 -0.15295330594E+03 -0.11832003486E+03 -0.46839344949E+03  0.50676311821E+03  0.47000000000E+01 0.  1.
        -11    1    3    3    0    0  0.29701765061E+02  0.91037646005E+02 -0.65678422200E+02  0.11611934800E+03  0.00000000000E+00 0. -1.
         11    1    3    3    0    0  0.44861147502E+02  0.71118881312E+02 -0.20023320041E+03  0.21717217221E+03  0.00000000000E+00 0.  1.
<mgrwt>
<rscale>  0 0.26890590E+03</rscale>
<asrwt>0</asrwt>
<pdfrwt beam="2">  1        1 0.13938555E+00 0.29633505E+03</pdfrwt>
<pdfrwt beam="1">  1       -1 0.10752750E-01 0.29633505E+03</pdfrwt>
<totfact> 0.10289824E+03</totfact>
</mgrwt>
</event>
<event>
 8    1  0.7550631E-006  0.1824135E+03  0.7546771E-02  0.1170702E+00
          2   -1    0    0  501    0  0.00000000000E+00  0.00000000000E+00  0.31864355341E+03  0.31864355341E+03  0.00000000000E+00 0. -1.
         -2   -1    0    0    0  501 -0.00000000000E+00 -0.00000000000E+00 -0.10036946011E+03  0.10036946011E+03  0.00000000000E+00 0.  1.
         23    2    1    2    0    0  0.95581462626E+02 -0.92265855192E+02  0.46344043705E+02  0.16834464973E+03  0.92430225967E+02 0.  0.
         23    2    1    2    0    0 -0.95581462626E+02  0.92265855192E+02  0.17193004959E+03  0.25066836380E+03  0.12500353045E+03 0.  0.
          5    1    4    4  502    0 -0.27906140641E+02  0.24260727090E+02 -0.15255091282E+02  0.40275841077E+02  0.47000000000E+01 0. -1.
         -5    1    4    4    0  502 -0.67675321985E+02  0.68005128103E+02  0.18718514088E+03  0.21039252272E+03  0.47000000000E+01 0. -1.
        -11    1    3    3    0    0  0.14754976645E+02 -0.72136144097E+02  0.12809168307E+01  0.73640840360E+02  0.00000000000E+00 0.  1.
         11    1    3    3    0    0  0.80826485981E+02 -0.20129711096E+02  0.45063126874E+02  0.94703809366E+02  0.00000000000E+00 0. -1.
<mgrwt>
<rscale>  0 0.17703704E+03</rscale>
<asrwt>0</asrwt>
<pdfrwt beam="1">  1        2 0.49022085E-01 0.18241350E+03</pdfrwt>
<pdfrwt beam="2">  1       -2 0.15441456E-01 0.18241350E+03</pdfrwt>
<totfact> 0.32736619E+03</totfact>
</mgrwt>
</event>
<event>
 8    1  0.7550631E-006  0.1251432E+03  0.7546771E-02  0.1251921E+00
         -2   -1    0    0    0  501 -0.00000000000E+00  0.00000000000E+00  0.80368639023E+03  0.80368639023E+03  0.00000000000E+00 0.  1.
          2   -1    0    0  501    0  0.00000000000E+00 -0.00000000000E+00 -0.14839078706E+02  0.14839078706E+02  0.00000000000E+00 0. -1.
         23    2    1    2    0    0  0.53552070536E+01  0.25768216888E+01  0.41253645029E+03  0.42195180072E+03  0.88440268292E+02 0.  0.
         23    2    1    2    0    0 -0.53552070536E+01 -0.25768216888E+01  0.37631086123E+03  0.39657366822E+03  0.12500196715E+03 0.  0.
          5    1    4    4  502    0 -0.30457629175E+02 -0.55134002960E+02  0.24190519286E+03  0.25001527512E+03  0.47000000000E+01 0. -1.
         -5    1    4    4    0  502  0.25102422121E+02  0.52557181271E+02  0.13440566836E+03  0.14655839310E+03  0.47000000000E+01 0. -1.
        -11    1    3    3    0    0  0.43509487963E+02  0.14749199016E+02  0.27065317866E+03  0.27452460278E+03  0.00000000000E+00 0.  1.
         11    1    3    3    0    0 -0.38154280909E+02 -0.12172377327E+02  0.14188327164E+03  0.14742719794E+03  0.00000000000E+00 0. -1.
<mgrwt>
<rscale>  0 0.11480543E+03</rscale>
<asrwt>0</asrwt>
<pdfrwt beam="2">  1        2 0.22829358E-02 0.12514316E+03</pdfrwt>
<pdfrwt beam="1">  1       -2 0.12364403E+00 0.12514316E+03</pdfrwt>
<totfact> 0.22359040E+03</totfact>
</mgrwt>
</event>
<event>
 8    1  0.7550631E-006  0.1270602E+03  0.7546771E-02  0.1246850E+00
         -2   -1    0    0    0  501 -0.00000000000E+00  0.00000000000E+00  0.10294723619E+03  0.10294723619E+03  0.00000000000E+00 0.  1.
          2   -1    0    0  501    0  0.00000000000E+00 -0.00000000000E+00 -0.12008916011E+03  0.12008916011E+03  0.00000000000E+00 0. -1.
         23    2    1    2    0    0  0.21671237171E+02  0.34929367670E+01 -0.20454071681E+02  0.95932994223E+02  0.91120399497E+02 0.  0.
         23    2    1    2    0    0 -0.21671237171E+02 -0.34929367670E+01  0.33121477527E+01  0.12710340208E+03  0.12514975577E+03 0.  0.
          5    1    4    4  502    0  0.11056654256E+02  0.56162223699E+02  0.10965121547E+02  0.58470239137E+02  0.47000000000E+01 0. -1.
         -5    1    4    4    0  502 -0.32727891426E+02 -0.59655160466E+02 -0.76529737938E+01  0.68633162942E+02  0.47000000000E+01 0. -1.
        -11    1    3    3    0    0  0.30279078728E+02 -0.30329887508E+02 -0.37631555988E+02  0.57033838122E+02  0.00000000000E+00 0.  1.
         11    1    3    3    0    0 -0.86078415571E+01  0.33822824275E+02  0.17177484307E+02  0.38899156101E+02  0.00000000000E+00 0. -1.
<mgrwt>
<rscale>  0 0.11775343E+03</rscale>
<asrwt>0</asrwt>
<pdfrwt beam="2">  1        2 0.18475255E-01 0.12706024E+03</pdfrwt>
<pdfrwt beam="1">  1       -2 0.15838036E-01 0.12706024E+03</pdfrwt>
<totfact> 0.89232412E+03</totfact>
</mgrwt>
</event>
<event>
 8    1  0.7550631E-006  0.1286152E+03  0.7546771E-02  0.1244017E+00
          1   -1    0    0  501    0  0.00000000000E+00  0.00000000000E+00  0.48260231106E+03  0.48260231106E+03  0.00000000000E+00 0. -1.
         -1   -1    0    0    0  501 -0.00000000000E+00 -0.00000000000E+00 -0.32084637436E+02  0.32084637436E+02  0.00000000000E+00 0.  1.
         23    2    1    2    0    0  0.22559366068E+02 -0.20185410453E+02  0.87842947113E+02  0.12988201418E+03  0.90755597387E+02 0.  0.
         23    2    1    2    0    0 -0.22559366068E+02  0.20185410453E+02  0.36267472651E+03  0.38480493432E+03  0.12500201771E+03 0.  0.
          5    1    4    4  502    0  0.63322618799E+00  0.22744507105E+02  0.36011722055E+03  0.36086592540E+03  0.47000000000E+01 0.  1.
         -5    1    4    4    0  502 -0.23192592256E+02 -0.25590966518E+01  0.25575059630E+01  0.23939008918E+02  0.47000000000E+01 0.  1.
        -11    1    3    3    0    0  0.40671168284E+02 -0.46979238768E+02  0.47721781009E+02  0.78348970558E+02  0.00000000000E+00 0.  1.
         11    1    3    3    0    0 -0.18111802216E+02  0.26793828316E+02  0.40121166104E+02  0.51533043621E+02  0.00000000000E+00 0. -1.
<mgrwt>
<rscale>  0 0.11944404E+03</rscale>
<asrwt>0</asrwt>
<pdfrwt beam="1">  1        1 0.74246504E-01 0.12861524E+03</pdfrwt>
<pdfrwt beam="2">  1       -1 0.49360984E-02 0.12861524E+03</pdfrwt>
<totfact> 0.80872004E+03</totfact>
</mgrwt>
</event>
<event>
 8    1  0.7550631E-006  0.1462487E+03  0.7546771E-02  0.1214379E+00
         -3   -1    0    0    0  501 -0.00000000000E+00  0.00000000000E+00  0.40720224980E+03  0.40720224980E+03  0.00000000000E+00 0.  1.
          3   -1    0    0  501    0  0.00000000000E+00 -0.00000000000E+00 -0.51959511753E+02  0.51959511753E+02  0.00000000000E+00 0. -1.
         23    2    1    2    0    0  0.11908672138E+02 -0.74965996653E+02  0.25496082640E+03  0.28183397368E+03  0.93078722552E+02 0.  0.
         23    2    1    2    0    0 -0.11908672138E+02  0.74965996653E+02  0.10028191164E+03  0.17732778788E+03  0.12500786145E+03 0.  0.
          5    1    4    4  502    0  0.11001608924E+02  0.10437330526E+03  0.55315238933E+02  0.11872947363E+03  0.47000000000E+01 0. -1.
         -5    1    4    4    0  502 -0.22910281062E+02 -0.29407308608E+02  0.44966672710E+02  0.58598314247E+02  0.47000000000E+01 0. -1.
        -11    1    3    3    0    0 -0.27854566428E+02 -0.17084630835E+02  0.16237000289E+03  0.16562541871E+03  0.00000000000E+00 0.  1.
         11    1    3    3    0    0  0.39763238566E+02 -0.57881365818E+02  0.92590823509E+02  0.11620855497E+03  0.00000000000E+00 0. -1.
<mgrwt>
<rscale>  0 0.13922264E+03</rscale>
<asrwt>0</asrwt>
<pdfrwt beam="2">  1        3 0.79937713E-02 0.14624870E+03</pdfrwt>
<pdfrwt beam="1">  1       -3 0.62646498E-01 0.14624870E+03</pdfrwt>
<totfact> 0.62893195E+02</totfact>
</mgrwt>
</event>
<event>
 8    1  0.7550631E-006  0.1316353E+03  0.7546771E-02  0.1238990E+00
          3   -1    0    0  501    0  0.00000000000E+00  0.00000000000E+00  0.20992979822E+03  0.20992979822E+03  0.00000000000E+00 0. -1.
         -3   -1    0    0    0  501 -0.00000000000E+00 -0.00000000000E+00 -0.63764262392E+02  0.63764262392E+02  0.00000000000E+00 0.  1.
         23    2    1    2    0    0 -0.37599766063E+02  0.17008656075E+02  0.75062546966E+02  0.12408293355E+03  0.89772777907E+02 0.  0.
         23    2    1    2    0    0  0.37599766063E+02 -0.17008656075E+02  0.71102988861E+02  0.14961112706E+03  0.12499927010E+03 0.  0.
          5    1    4    4  502    0 -0.16393324788E+02  0.37219900746E+02  0.59269119896E+02  0.72034579768E+02  0.47000000000E+01 0. -1.
         -5    1    4    4    0  502  0.53993090851E+02 -0.54228556821E+02  0.11833868965E+02  0.77576547289E+02  0.47000000000E+01 0. -1.
        -11    1    3    3    0    0 -0.27887451184E+02 -0.14780921230E+02 -0.97133850574E+01  0.33023255673E+02  0.00000000000E+00 0.  1.
         11    1    3    3    0    0 -0.97123148785E+01  0.31789577305E+02  0.84775932023E+02  0.91059677882E+02  0.00000000000E+00 0. -1.
<mgrwt>
<rscale>  0 0.12252443E+03</rscale>
<asrwt>0</asrwt>
<pdfrwt beam="1">  1        3 0.32296892E-01 0.13163531E+03</pdfrwt>
<pdfrwt beam="2">  1       -3 0.98098866E-02 0.13163531E+03</pdfrwt>
<totfact> 0.16274748E+03</totfact>
</mgrwt>
</event>
<event>
 8    1  0.7550631E-006  0.1132335E+03  0.7546771E-02  0.1266380E+00
          4   -1    0    0  501    0  0.00000000000E+00  0.00000000000E+00  0.97371216014E+02  0.97371216014E+02  0.00000000000E+00 0. -1.
         -4   -1    0    0    0  501 -0.00000000000E+00 -0.00000000000E+00 -0.11651411009E+03  0.11651411009E+03  0.00000000000E+00 0.  1.
         23    2    1    2    0    0 -0.95083082659E+01  0.97949127532E+01 -0.40408712600E+02  0.98672215001E+02  0.88977489948E+02 0.  0.
         23    2    1    2    0    0  0.95083082659E+01 -0.97949127532E+01  0.21265818521E+02  0.11521311111E+03  0.11240764072E+03 0.  0.
          5    1    4    4  502    0  0.92348838639E+00  0.49223237665E+02  0.24719262729E+02  0.55289347138E+02  0.47000000000E+01 0. -1.
         -5    1    4    4    0  502  0.85848198795E+01 -0.59018150418E+02 -0.34534442085E+01  0.59923763968E+02  0.47000000000E+01 0.  1.
        -11    1    3    3    0    0 -0.33745345531E+02  0.29971120232E+02 -0.48360243549E+02  0.66149297419E+02  0.00000000000E+00 0.  1.
         11    1    3    3    0    0  0.24237037265E+02 -0.20176207478E+02  0.79515309490E+01  0.32522917582E+02  0.00000000000E+00 0. -1.
<mgrwt>
<rscale>  0 0.10692130E+03</rscale>
<asrwt>0</asrwt>
<pdfrwt beam="1">  1        4 0.14980187E-01 0.11323350E+03</pdfrwt>
<pdfrwt beam="2">  1       -4 0.17925248E-01 0.11323350E+03</pdfrwt>
<totfact> 0.16383033E+03</totfact>
</mgrwt>
</event>
<event>
 8    1  0.7550631E-006  0.2557607E+03  0.7546771E-02  0.1112056E+00
         -1   -1    0    0    0  501 -0.00000000000E+00  0.00000000000E+00  0.92574588378E+02  0.92574588378E+02  0.00000000000E+00 0.  1.
          1   -1    0    0  501    0  0.00000000000E+00 -0.00000000000E+00 -0.82167871856E+03  0.82167871856E+03  0.00000000000E+00 0. -1.
         23    2    1    2    0    0  0.17200872608E+03  0.14213738677E+03 -0.15711189397E+03  0.28768434097E+03  0.91038971043E+02 0.  0.
         23    2    1    2    0    0 -0.17200872608E+03 -0.14213738677E+03 -0.57199223621E+03  0.62656896597E+03  0.12499404892E+03 0.  0.
          5    1    4    4  502    0 -0.15791581605E+02  0.21573980163E+02 -0.91428598388E+02  0.95373420160E+02  0.47000000000E+01 0.  1.
         -5    1    4    4    0  502 -0.15621714447E+03 -0.16371136693E+03 -0.48056363783E+03  0.53119554581E+03  0.47000000000E+01 0.  1.
        -11    1    3    3    0    0  0.71800204209E+02  0.11753260501E+03 -0.86135335017E+02  0.16244530927E+03  0.00000000000E+00 0.  1.
         11    1    3    3    0    0  0.10020852187E+03  0.24604781755E+02 -0.70976558952E+02  0.12523903170E+03  0.00000000000E+00 0. -1.
<mgrwt>
<rscale>  0 0.25198633E+03</rscale>
<asrwt>0</asrwt>
<pdfrwt beam="2">  1        1 0.12641211E+00 0.25576073E+03</pdfrwt>
<pdfrwt beam="1">  1       -1 0.14242244E-01 0.25576073E+03</pdfrwt>
<totfact> 0.77438722E+02</totfact>
</mgrwt>
</event>
<event>
 8    1  0.7550631E-006  0.1320477E+03  0.7546771E-02  0.1236213E+00
         -1   -1    0    0    0  501 -0.00000000000E+00  0.00000000000E+00  0.44920767122E+02  0.44920767122E+02  0.00000000000E+00 0.  1.
          1   -1    0    0  501    0  0.00000000000E+00 -0.00000000000E+00 -0.34796616747E+03  0.34796616747E+03  0.00000000000E+00 0. -1.
         23    2    1    2    0    0  0.29297337638E+02  0.42764348682E+02 -0.69953789922E+02  0.12499088300E+03  0.89677559049E+02 0.  0.
         23    2    1    2    0    0 -0.29297337638E+02 -0.42764348682E+02 -0.23309161042E+03  0.26789605159E+03  0.12144740466E+03 0.  0.
          5    1    4    4  502    0 -0.43622416532E+02 -0.63096545077E+00 -0.21532205749E+03  0.21974756377E+03  0.47000000000E+01 0. -1.
         -5    1    4    4    0  502  0.14325078893E+02 -0.42133383231E+02 -0.17769552929E+02  0.48148487818E+02  0.47000000000E+01 0.  1.
        -11    1    3    3    0    0 -0.31239767741E+02  0.25156688752E+02 -0.32787887507E+02  0.51805671935E+02  0.00000000000E+00 0.  1.
         11    1    3    3    0    0  0.60537105379E+02  0.17607659930E+02 -0.37165902415E+02  0.73185211062E+02  0.00000000000E+00 0. -1.
<mgrwt>
<rscale>  0 0.12427077E+03</rscale>
<asrwt>0</asrwt>
<pdfrwt beam="2">  1        1 0.53533254E-01 0.13204770E+03</pdfrwt>
<pdfrwt beam="1">  1       -1 0.69108875E-02 0.13204770E+03</pdfrwt>
<totfact> 0.74298610E+03</totfact>
</mgrwt>
</event>
<event>
 8    1  0.7550631E-006  0.1247291E+03  0.7546771E-02  0.1252136E+00
          4   -1    0    0  501    0  0.00000000000E+00  0.00000000000E+00  0.95548732150E+02  0.95548732150E+02  0.00000000000E+00 0. -1.
         -4   -1    0    0    0  501 -0.00000000000E+00 -0.00000000000E+00 -0.11979823038E+03  0.11979823038E+03  0.00000000000E+00 0.  1.
         23    2    1    2    0    0 -0.92900715455E+01  0.31183866160E+02 -0.13437718475E+02  0.90150144992E+02  0.82992393785E+02 0.  0.
         23    2    1    2    0    0  0.92900715455E+01 -0.31183866160E+02 -0.10811779753E+02  0.12519681754E+03  0.12041017234E+03 0.  0.
          5    1    4    4  502    0 -0.38121880334E+02 -0.87985924590E+01  0.37022372181E+02  0.54068836046E+02  0.47000000000E+01 0. -1.
         -5    1    4    4    0  502  0.47411951879E+02 -0.22385273701E+02 -0.47834151934E+02  0.71127981491E+02  0.47000000000E+01 0.  1.
        -11    1    3    3    0    0 -0.31278942060E+02  0.39427583584E+02  0.15706715330E+02  0.52721982797E+02  0.00000000000E+00 0. -1.
         11    1    3    3    0    0  0.21988870514E+02 -0.82437174234E+01 -0.29144433805E+02  0.37428162194E+02  0.00000000000E+00 0.  1.
<mgrwt>
<rscale>  0 0.11468264E+03</rscale>
<asrwt>0</asrwt>
<pdfrwt beam="1">  1        4 0.14699805E-01 0.12472910E+03</pdfrwt>
<pdfrwt beam="2">  1       -4 0.18430497E-01 0.12472910E+03</pdfrwt>
<totfact> 0.16478822E+03</totfact>
</mgrwt>
</event>
<event>
 8    1  0.7550631E-006  0.1432310E+03  0.7546771E-02  0.1219764E+00
          2   -1    0    0  501    0  0.00000000000E+00  0.00000000000E+00  0.29129732421E+03  0.29129732421E+03  0.00000000000E+00 0. -1.
         -2   -1    0    0    0  501 -0.00000000000E+00 -0.00000000000E+00 -0.66014506777E+02  0.66014506777E+02  0.00000000000E+00 0.  1.
         23    2    1    2    0    0  0.67895145381E+02  0.17043529531E+02  0.35444266737E+02  0.11950140674E+03  0.90133553706E+02 0.  0.
         23    2    1    2    0    0 -0.67895145381E+02 -0.17043529531E+02  0.18983855070E+03  0.23781042425E+03  0.12495955299E+03 0.  0.
          5    1    4    4  502    0 -0.93041313296E+02  0.22294231165E+02  0.11770377414E+03  0.15175634145E+03  0.47000000000E+01 0.  1.
         -5    1    4    4    0  502  0.25146167915E+02 -0.39337760695E+02  0.72134776553E+02  0.86054082795E+02  0.47000000000E+01 0.  1.
        -11    1    3    3    0    0  0.75293343959E+02  0.39966290669E+02  0.12352430159E+02  0.86133469483E+02  0.00000000000E+00 0. -1.
         11    1    3    3    0    0 -0.73981985776E+01 -0.22922761138E+02  0.23091836578E+02  0.33367937259E+02  0.00000000000E+00 0.  1.
<mgrwt>
<rscale>  0 0.13532314E+03</rscale>
<asrwt>0</asrwt>
<pdfrwt beam="1">  1        2 0.44814972E-01 0.14323101E+03</pdfrwt>
<pdfrwt beam="2">  1       -2 0.10156078E-01 0.14323101E+03</pdfrwt>
<totfact> 0.69847561E+03</totfact>
</mgrwt>
</event>
<event>
 8    1  0.7550631E-006  0.1281700E+03  0.7546771E-02  0.1244031E+00
         -4   -1    0    0    0  501 -0.00000000000E+00  0.00000000000E+00  0.81959542336E+02  0.81959542336E+02  0.00000000000E+00 0.  1.
          4   -1    0    0  501    0  0.00000000000E+00 -0.00000000000E+00 -0.16232228613E+03  0.16232228613E+03  0.00000000000E+00 0. -1.
         23    2    1    2    0    0  0.22844921739E+02  0.16753264750E+02 -0.77061362225E+01  0.96950481897E+02  0.92398317493E+02 0.  0.
         23    2    1    2    0    0 -0.22844921739E+02 -0.16753264750E+02 -0.72656607571E+02  0.14733134657E+03  0.12499992292E+03 0.  0.
          5    1    4    4  502    0  0.23701056498E+02  0.24439892539E+02 -0.77531516987E+02  0.84807278890E+02  0.47000000000E+01 0. -1.
         -5    1    4    4    0  502 -0.46545978236E+02 -0.41193157289E+02  0.48749094158E+01  0.62524067680E+02  0.47000000000E+01 0. -1.
        -11    1    3    3    0    0  0.69757899668E+01 -0.10422964521E+02  0.38811482298E+02  0.40787632847E+02  0.00000000000E+00 0.  1.
         11    1    3    3    0    0  0.15869131772E+02  0.27176229271E+02 -0.46517618521E+02  0.56162849050E+02  0.00000000000E+00 0. -1.
<mgrwt>
<rscale>  0 0.11943542E+03</rscale>
<asrwt>0</asrwt>
<pdfrwt beam="2">  1        4 0.24972659E-01 0.12816998E+03</pdfrwt>
<pdfrwt beam="1">  1       -4 0.12609160E-01 0.12816998E+03</pdfrwt>
<totfact> 0.12467835E+03</totfact>
</mgrwt>
</event>
<event>
 8    1  0.7550631E-006  0.1676278E+03  0.7546771E-02  0.1186932E+00
         -1   -1    0    0    0  501 -0.00000000000E+00  0.00000000000E+00  0.21162948128E+03  0.21162948128E+03  0.00000000000E+00 0.  1.
          1   -1    0    0  501    0  0.00000000000E+00 -0.00000000000E+00 -0.11695745089E+03  0.11695745089E+03  0.00000000000E+00 0. -1.
         23    2    1    2    0    0 -0.69127929980E+02  0.87721193128E+02  0.63840486261E+02  0.15814731553E+03  0.91985255869E+02 0.  0.
         23    2    1    2    0    0  0.69127929980E+02 -0.87721193128E+02  0.30831544129E+02  0.17043961663E+03  0.12500160150E+03 0.  0.
          5    1    4    4  502    0  0.23350528191E+02  0.13608987463E+02 -0.32389887230E+02  0.42445806640E+02  0.47000000000E+01 0. -1.
         -5    1    4    4    0  502  0.45777401789E+02 -0.10133018059E+03  0.63221431358E+02  0.12799380999E+03  0.47000000000E+01 0. -1.
        -11    1    3    3    0    0 -0.32837250883E+02  0.67467841081E+02 -0.76819991156E+01  0.75426836975E+02  0.00000000000E+00 0. -1.
         11    1    3    3    0    0 -0.36290679097E+02  0.20253352047E+02  0.71522485377E+02  0.82720478559E+02  0.00000000000E+00 0.  1.
<mgrwt>
<rscale>  0 0.16157292E+03</rscale>
<asrwt>0</asrwt>
<pdfrwt beam="2">  1        1 0.17993454E-01 0.16762780E+03</pdfrwt>
<pdfrwt beam="1">  1       -1 0.32558382E-01 0.16762780E+03</pdfrwt>
<totfact> 0.25441631E+03</totfact>
</mgrwt>
</event>
<event>
 8    1  0.7550631E-006  0.1328017E+03  0.7546771E-02  0.1236133E+00
          2   -1    0    0  501    0  0.00000000000E+00  0.00000000000E+00  0.76065704493E+03  0.76065704493E+03  0.00000000000E+00 0. -1.
         -2   -1    0    0    0  501 -0.00000000000E+00 -0.00000000000E+00 -0.28816748632E+02  0.28816748632E+02  0.00000000000E+00 0.  1.
         23    2    1    2    0    0 -0.43766210307E+02 -0.97584609158E+01  0.96527413133E+02  0.14042929623E+03  0.91608607830E+02 0.  0.
         23    2    1    2    0    0  0.43766210307E+02  0.97584609158E+01  0.63531288317E+03  0.64904449734E+03  0.12500236510E+03 0.  0.
          5    1    4    4  502    0  0.64382601051E+02 -0.19874257780E+02  0.57229896416E+03  0.57627102983E+03  0.47000000000E+01 0. -1.
         -5    1    4    4    0  502 -0.20616390744E+02  0.29632718696E+02  0.63013919005E+02  0.72773467507E+02  0.47000000000E+01 0. -1.
        -11    1    3    3    0    0 -0.36752416157E+02  0.11845747701E+02 -0.26298258893E+01  0.38703718377E+02  0.00000000000E+00 0.  1.
         11    1    3    3    0    0 -0.70137941498E+01 -0.21604208616E+02  0.99157239022E+02  0.10172557785E+03  0.00000000000E+00 0. -1.
<mgrwt>
<rscale>  0 0.12432167E+03</rscale>
<asrwt>0</asrwt>
<pdfrwt beam="1">  1        2 0.11702415E+00 0.13280173E+03</pdfrwt>
<pdfrwt beam="2">  1       -2 0.44333465E-02 0.13280173E+03</pdfrwt>
<totfact> 0.85446321E+03</totfact>
</mgrwt>
</event>
<event>
 8    1  0.7550631E-006  0.1692290E+03  0.7546771E-02  0.1185585E+00
          1   -1    0    0  501    0  0.00000000000E+00  0.00000000000E+00  0.13441584389E+03  0.13441584389E+03  0.00000000000E+00 0. -1.
         -1   -1    0    0    0  501 -0.00000000000E+00 -0.00000000000E+00 -0.19452686241E+03  0.19452686241E+03  0.00000000000E+00 0.  1.
         23    2    1    2    0    0  0.10994835539E+03 -0.30412124753E+02 -0.66859021276E+02  0.15957919208E+03  0.89341209043E+02 0.  0.
         23    2    1    2    0    0 -0.10994835539E+03  0.30412124753E+02  0.67480027534E+01  0.16936351423E+03  0.12499970491E+03 0.  0.
          5    1    4    4  502    0 -0.61306819980E+02 -0.42037914207E+02  0.27749681935E+02  0.79484886956E+02  0.47000000000E+01 0. -1.
         -5    1    4    4    0  502 -0.48641535409E+02  0.72450038960E+02 -0.21001679182E+02  0.89878627274E+02  0.47000000000E+01 0. -1.
        -11    1    3    3    0    0  0.22796508415E+02 -0.48727758887E+02 -0.38368045058E+02  0.66077092579E+02  0.00000000000E+00 0.  1.
         11    1    3    3    0    0  0.87151846974E+02  0.18315634134E+02 -0.28490976218E+02  0.93502099498E+02  0.00000000000E+00 0. -1.
<mgrwt>
<rscale>  0 0.16278772E+03</rscale>
<asrwt>0</asrwt>
<pdfrwt beam="1">  1        1 0.20679360E-01 0.16922903E+03</pdfrwt>
<pdfrwt beam="2">  1       -1 0.29927210E-01 0.16922903E+03</pdfrwt>
<totfact> 0.24569066E+03</totfact>
</mgrwt>
</event>
<event>
 8    1  0.7550631E-006  0.1251594E+03  0.7546771E-02  0.1249675E+00
          1   -1    0    0  501    0  0.00000000000E+00  0.00000000000E+00  0.99910988935E+02  0.99910988935E+02  0.00000000000E+00 0. -1.
         -1   -1    0    0    0  501 -0.00000000000E+00 -0.00000000000E+00 -0.13637186948E+03  0.13637186948E+03  0.00000000000E+00 0.  1.
         23    2    1    2    0    0 -0.19345046977E+01 -0.60564739610E+01 -0.57946426091E+02  0.10929273230E+03  0.92448309082E+02 0.  0.
         23    2    1    2    0    0  0.19345046977E+01  0.60564739610E+01  0.21485545545E+02  0.12699012612E+03  0.12499776109E+03 0.  0.
          5    1    4    4  502    0  0.23261150035E+02  0.57527088635E+02 -0.96813407975E+01  0.62978292986E+02  0.47000000000E+01 0. -1.
         -5    1    4    4    0  502 -0.21326645338E+02 -0.51470614674E+02  0.31166886342E+02  0.64011833129E+02  0.47000000000E+01 0. -1.
        -11    1    3    3    0    0  0.71937023810E+01  0.41802814346E+02 -0.36892351240E+02  0.56216280748E+02  0.00000000000E+00 0. -1.
         11    1    3    3    0    0 -0.91282070788E+01 -0.47859288307E+02 -0.21054074852E+02  0.53076451554E+02  0.00000000000E+00 0.  1.
<mgrwt>
<rscale>  0 0.11609897E+03</rscale>
<asrwt>0</asrwt>
<pdfrwt beam="1">  1        1 0.15370921E-01 0.12515935E+03</pdfrwt>
<pdfrwt beam="2">  1       -1 0.20980288E-01 0.12515935E+03</pdfrwt>
<totfact> 0.63453302E+03</totfact>
</mgrwt>
</event>
<event>
 8    1  0.7550631E-006  0.1334098E+03  0.7546771E-02  0.1237780E+00
         -1   -1    0    0    0  501 -0.00000000000E+00  0.00000000000E+00  0.33048953451E+02  0.33048953451E+02  0.00000000000E+00 0.  1.
          1   -1    0    0  501    0  0.00000000000E+00 -0.00000000000E+00 -0.52478342871E+03  0.52478342871E+03  0.00000000000E+00 0. -1.
         23    2    1    2    0    0 -0.41654622932E+02 -0.20921592294E+02 -0.82999901552E+02  0.12787641117E+03  0.85384847836E+02 0.  0.
         23    2    1    2    0    0  0.41654622932E+02  0.20921592294E+02 -0.40873457371E+03  0.42995597100E+03  0.12500145844E+03 0.  0.
          5    1    4    4  502    0  0.32052572145E+02 -0.36948989495E+02 -0.66430157280E+02  0.82629601246E+02  0.47000000000E+01 0. -1.
         -5    1    4    4    0  502  0.96020507864E+01  0.57870581789E+02 -0.34230441643E+03  0.34732636975E+03  0.47000000000E+01 0. -1.
        -11    1    3    3    0    0 -0.40465067583E+02 -0.51346346402E+02 -0.66466639487E+02  0.93229196865E+02  0.00000000000E+00 0. -1.
         11    1    3    3    0    0 -0.11895553487E+01  0.30424754108E+02 -0.16533262065E+02  0.34647214303E+02  0.00000000000E+00 0.  1.
<mgrwt>
<rscale>  0 0.12328117E+03</rscale>
<asrwt>0</asrwt>
<pdfrwt beam="2">  1        1 0.80735909E-01 0.13340984E+03</pdfrwt>
<pdfrwt beam="1">  1       -1 0.50844546E-02 0.13340984E+03</pdfrwt>
<totfact> 0.69557926E+03</totfact>
</mgrwt>
</event>
<event>
 7    1  0.7550631E-006  0.1526702E+03  0.7546771E-02  0.1219412E+00
          3   -1    0    0  501    0  0.00000000000E+00  0.00000000000E+00  0.86724205817E+02  0.86724205817E+02  0.00000000000E+00 0. -1.
         -3   -1    0    0    0  501 -0.00000000000E+00 -0.00000000000E+00 -0.25390408763E+03  0.25390408763E+03  0.00000000000E+00 0.  1.
         23    2    1    2    0    0  0.42493745682E+01 -0.21972830156E+02 -0.16212169824E+03  0.18787431661E+03  0.92262946804E+02 0.  0.
          5    1    1    2  502    0  0.35457509878E+02  0.75338874362E+02  0.11119677926E+02  0.84136307467E+02  0.47000000000E+01 0. -1.
         -5    1    1    2    0  502 -0.39706884447E+02 -0.53366044206E+02 -0.16177861497E+02  0.68617669366E+02  0.47000000000E+01 0.  1.
        -11    1    3    3    0    0  0.30581852125E+02  0.37381857838E+01 -0.11603476483E+02  0.32922095602E+02  0.00000000000E+00 0. -1.
         11    1    3    3    0    0 -0.26332477557E+02 -0.25711015940E+02 -0.15051822176E+03  0.15495222101E+03  0.00000000000E+00 0.  1.
<mgrwt>
<rscale>  0 0.13557396E+03</rscale>
<asrwt>0</asrwt>
<pdfrwt beam="1">  1        3 0.13342186E-01 0.15267021E+03</pdfrwt>
<pdfrwt beam="2">  1       -3 0.39062167E-01 0.15267021E+03</pdfrwt>
<totfact> 0.69446590E+02</totfact>
</mgrwt>
</event>
<event>
 8    1  0.7550631E-006  0.1313780E+03  0.7546771E-02  0.1237618E+00
         -2   -1    0    0    0  501 -0.00000000000E+00  0.00000000000E+00  0.28467358991E+02  0.28467358991E+02  0.00000000000E+00 0.  1.
          2   -1    0    0  501    0  0.00000000000E+00 -0.00000000000E+00 -0.69462139823E+03  0.69462139823E+03  0.00000000000E+00 0. -1.
         23    2    1    2    0    0 -0.24222546477E+02  0.32213098151E+02 -0.10409432092E+03  0.14587883125E+03  0.93917997784E+02 0.  0.
         23    2    1    2    0    0  0.24222546477E+02 -0.32213098151E+02 -0.56205971833E+03  0.57720992598E+03  0.12504301754E+03 0.  0.
          5    1    4    4  502    0  0.12608914509E+02 -0.11942868536E+02 -0.37331620023E+01  0.18375073673E+02  0.47000000000E+01 0. -1.
         -5    1    4    4    0  502  0.11613631968E+02 -0.20270229615E+02 -0.55832655632E+03  0.55883485231E+03  0.47000000000E+01 0. -1.
        -11    1    3    3    0    0  0.30472300441E+02 -0.38034723737E+01 -0.58536852792E+02  0.66102879143E+02  0.00000000000E+00 0.  1.
         11    1    3    3    0    0 -0.54694846918E+02  0.36016570525E+02 -0.45557468126E+02  0.79775952102E+02  0.00000000000E+00 0. -1.
<mgrwt>
<rscale>  0 0.12338305E+03</rscale>
<asrwt>0</asrwt>
<pdfrwt beam="2">  1        2 0.10686483E+00 0.13137797E+03</pdfrwt>
<pdfrwt beam="1">  1       -2 0.43795939E-02 0.13137797E+03</pdfrwt>
<totfact> 0.96974310E+03</totfact>
</mgrwt>
</event>
<event>
 8    1  0.7550631E-006  0.1277021E+03  0.7546771E-02  0.1245479E+00
         -1   -1    0    0    0  501 -0.00000000000E+00  0.00000000000E+00  0.26434067820E+03  0.26434067820E+03  0.00000000000E+00 0.  1.
          1   -1    0    0  501    0  0.00000000000E+00 -0.00000000000E+00 -0.50640883829E+02  0.50640883829E+02  0.00000000000E+00 0. -1.
         23    2    1    2    0    0  0.14212146158E+02  0.21937081681E+02  0.13485648433E+03  0.16490123999E+03  0.91230076918E+02 0.  0.
         23    2    1    2    0    0 -0.14212146158E+02 -0.21937081681E+02  0.78843310044E+02  0.15008032204E+03  0.12499845948E+03 0.  0.
          5    1    4    4  502    0 -0.46129581257E+02  0.15602346699E+02 -0.85295626227E+01  0.49661000070E+02  0.47000000000E+01 0.  1.
         -5    1    4    4    0  502  0.31917435098E+02 -0.37539428380E+02  0.87372872666E+02  0.10041932197E+03  0.47000000000E+01 0.  1.
        -11    1    3    3    0    0  0.39025279567E+02  0.10728963834E+02  0.13135617191E+03  0.13745008915E+03  0.00000000000E+00 0.  1.
         11    1    3    3    0    0 -0.24813133408E+02  0.11208117847E+02  0.35003124190E+01  0.27451150837E+02  0.00000000000E+00 0. -1.
<mgrwt>
<rscale>  0 0.11856759E+03</rscale>
<asrwt>0</asrwt>
<pdfrwt beam="2">  1        1 0.77909054E-02 0.12770214E+03</pdfrwt>
<pdfrwt beam="1">  1       -1 0.40667796E-01 0.12770214E+03</pdfrwt>
<totfact> 0.51296386E+03</totfact>
</mgrwt>
</event>
<event>
 8    1  0.7550631E-006  0.2735217E+03  0.7546771E-02  0.1101325E+00
          1   -1    0    0  501    0  0.00000000000E+00  0.00000000000E+00  0.26807963031E+03  0.26807963031E+03  0.00000000000E+00 0. -1.
         -1   -1    0    0    0  501 -0.00000000000E+00 -0.00000000000E+00 -0.27311838214E+03  0.27311838214E+03  0.00000000000E+00 0.  1.
         23    2    1    2    0    0  0.13131647169E+03  0.20479828683E+03 -0.49520515523E+02  0.26408294799E+03  0.90006488292E+02 0.  0.
         23    2    1    2    0    0 -0.13131647169E+03 -0.20479828683E+03  0.44481763693E+02  0.27711506446E+03  0.12501111001E+03 0.  0.
          5    1    4    4  502    0 -0.55661764995E+02 -0.10895986774E+03 -0.39715383580E+02  0.12872407138E+03  0.47000000000E+01 0.  1.
         -5    1    4    4    0  502 -0.75654706691E+02 -0.95838419093E+02  0.84197147273E+02  0.14839099308E+03  0.47000000000E+01 0.  1.
        -11    1    3    3    0    0  0.37674468080E+02  0.87960086270E+02  0.21939574819E+02  0.98171723347E+02  0.00000000000E+00 0.  1.
         11    1    3    3    0    0  0.93642003606E+02  0.11683820056E+03 -0.71460090342E+02  0.16591122464E+03  0.00000000000E+00 0. -1.
<mgrwt>
<rscale>  0 0.26992038E+03</rscale>
<asrwt>0</asrwt>
<pdfrwt beam="1">  1        1 0.41243020E-01 0.27352172E+03</pdfrwt>
<pdfrwt beam="2">  1       -1 0.42018213E-01 0.27352172E+03</pdfrwt>
<totfact> 0.57337838E+02</totfact>
</mgrwt>
</event>
<event>
 8    1  0.7550631E-006  0.1304289E+03  0.7546771E-02  0.1240472E+00
          1   -1    0    0  501    0  0.00000000000E+00  0.00000000000E+00  0.48795041704E+03  0.48795041704E+03  0.00000000000E+00 0. -1.
         -1   -1    0    0    0  501 -0.00000000000E+00 -0.00000000000E+00 -0.33510976648E+02  0.33510976648E+02  0.00000000000E+00 0.  1.
         23    2    1    2    0    0  0.13210723002E+02  0.34816964681E+02  0.86659668653E+02  0.13123882610E+03  0.91252326398E+02 0.  0.
         23    2    1    2    0    0 -0.13210723002E+02 -0.34816964681E+02  0.36777977174E+03  0.39022256759E+03  0.12499979009E+03 0.  0.
          5    1    4    4  502    0 -0.25560608652E+02 -0.58867408395E+02  0.87561286225E+02  0.10866363390E+03  0.47000000000E+01 0. -1.
         -5    1    4    4    0  502  0.12349885650E+02  0.24050443714E+02  0.28021848552E+03  0.28155893369E+03  0.47000000000E+01 0. -1.
        -11    1    3    3    0    0  0.17821042441E+02  0.11772956177E+00 -0.15268451422E+02  0.23467616469E+02  0.00000000000E+00 0.  1.
         11    1    3    3    0    0 -0.46103194382E+01  0.34699235120E+02  0.10192812007E+03  0.10777120963E+03  0.00000000000E+00 0. -1.
<mgrwt>
<rscale>  0 0.12160560E+03</rscale>
<asrwt>0</asrwt>
<pdfrwt beam="1">  1        1 0.75069290E-01 0.13042888E+03</pdfrwt>
<pdfrwt beam="2">  1       -1 0.51555352E-02 0.13042888E+03</pdfrwt>
<totfact> 0.74831667E+03</totfact>
</mgrwt>
</event>
<event>
 8    1  0.7550631E-006  0.1467883E+03  0.7546771E-02  0.1214047E+00
          2   -1    0    0  501    0  0.00000000000E+00  0.00000000000E+00  0.10822599329E+04  0.10822599329E+04  0.00000000000E+00 0. -1.
         -2   -1    0    0    0  501 -0.00000000000E+00 -0.00000000000E+00 -0.23572905245E+02  0.23572905245E+02  0.00000000000E+00 0.  1.
         23    2    1    2    0    0  0.75552312946E+02 -0.14602476279E+02  0.18781075518E+03  0.22267244640E+03  0.91590143144E+02 0.  0.
         23    2    1    2    0    0 -0.75552312946E+02  0.14602476279E+02  0.87087627243E+03  0.88316039170E+03  0.12500164509E+03 0.  0.
          5    1    4    4  502    0 -0.10875483246E+03  0.23288741881E+02  0.70156466723E+03  0.71034150335E+03  0.47000000000E+01 0. -1.
         -5    1    4    4    0  502  0.33202519517E+02 -0.86862656017E+01  0.16931160521E+03  0.17281888835E+03  0.47000000000E+01 0. -1.
        -11    1    3    3    0    0  0.55653418549E+02  0.19249521023E+02  0.16932203402E+03  0.17927018229E+03  0.00000000000E+00 0. -1.
         11    1    3    3    0    0  0.19898894398E+02 -0.33851997302E+02  0.18488721160E+02  0.43402264108E+02  0.00000000000E+00 0.  1.
<mgrwt>
<rscale>  0 0.13946781E+03</rscale>
<asrwt>0</asrwt>
<pdfrwt beam="1">  1        2 0.16650149E+00 0.14678827E+03</pdfrwt>
<pdfrwt beam="2">  1       -2 0.36266016E-02 0.14678827E+03</pdfrwt>
<totfact> 0.72721541E+03</totfact>
</mgrwt>
</event>
<event>
 8    1  0.7550631E-006  0.1758333E+03  0.7546771E-02  0.1177827E+00
         -1   -1    0    0    0  501 -0.00000000000E+00  0.00000000000E+00  0.57671035803E+03  0.57671035803E+03  0.00000000000E+00 0.  1.
          1   -1    0    0  501    0  0.00000000000E+00 -0.00000000000E+00 -0.47221089747E+02  0.47221089747E+02  0.00000000000E+00 0. -1.
         23    2    1    2    0    0  0.73689707874E+02  0.99309935114E+02  0.22977391172E+03  0.27644526057E+03  0.91286884750E+02 0.  0.
         23    2    1    2    0    0 -0.73689707874E+02 -0.99309935114E+02  0.29971535657E+03  0.34748618721E+03  0.12499887631E+03 0.  0.
          5    1    4    4  502    0 -0.18126226436E+02  0.16591113837E+02  0.14098674316E+03  0.14318930439E+03  0.47000000000E+01 0.  1.
         -5    1    4    4    0  502 -0.55563481438E+02 -0.11590104895E+03  0.15872861341E+03  0.20429688282E+03  0.47000000000E+01 0.  1.
        -11    1    3    3    0    0  0.51894406138E+02  0.61630932670E+02  0.58084297954E+02  0.99323647330E+02  0.00000000000E+00 0. -1.
         11    1    3    3    0    0  0.21795301737E+02  0.37679002444E+02  0.17168961376E+03  0.17712161324E+03  0.00000000000E+00 0.  1.
<mgrwt>
<rscale>  0 0.17001980E+03</rscale>
<asrwt>0</asrwt>
<pdfrwt beam="2">  1        1 0.72647834E-02 0.17583332E+03</pdfrwt>
<pdfrwt beam="1">  1       -1 0.88724666E-01 0.17583332E+03</pdfrwt>
<totfact> 0.12844467E+03</totfact>
</mgrwt>
</event>
<event>
 8    1  0.7550631E-006  0.1260560E+03  0.7546771E-02  0.1248240E+00
         -4   -1    0    0    0  501 -0.00000000000E+00  0.00000000000E+00  0.13735602350E+03  0.13735602350E+03  0.00000000000E+00 0.  1.
          4   -1    0    0  501    0  0.00000000000E+00 -0.00000000000E+00 -0.90010638066E+02  0.90010638066E+02  0.00000000000E+00 0. -1.
         23    2    1    2    0    0 -0.46060948020E+01 -0.15932709809E+02  0.38589506568E+02  0.10100692418E+03  0.91859574154E+02 0.  0.
         23    2    1    2    0    0  0.46060948020E+01  0.15932709809E+02  0.87558788632E+01  0.12635973738E+03  0.12496019553E+03 0.  0.
          5    1    4    4  502    0  0.15845242262E+02  0.26680797432E+02  0.62649195002E+02  0.70071023172E+02  0.47000000000E+01 0.  1.
         -5    1    4    4    0  502 -0.11239147460E+02 -0.10748087623E+02 -0.53893316139E+02  0.56288714212E+02  0.47000000000E+01 0.  1.
        -11    1    3    3    0    0  0.10569604041E+02  0.16170715557E+02  0.57582686475E+02  0.60736927424E+02  0.00000000000E+00 0.  1.
         11    1    3    3    0    0 -0.15175698843E+02 -0.32103425366E+02 -0.18993179908E+02  0.40269996755E+02  0.00000000000E+00 0. -1.
<mgrwt>
<rscale>  0 0.11693518E+03</rscale>
<asrwt>0</asrwt>
<pdfrwt beam="2">  1        4 0.13847790E-01 0.12605601E+03</pdfrwt>
<pdfrwt beam="1">  1       -4 0.21131696E-01 0.12605601E+03</pdfrwt>
<totfact> 0.14336254E+03</totfact>
</mgrwt>
</event>
<event>
 8    1  0.7550631E-006  0.1605474E+03  0.7546771E-02  0.1195383E+00
          3   -1    0    0  501    0  0.00000000000E+00  0.00000000000E+00  0.72308838577E+03  0.72308838577E+03  0.00000000000E+00 0. -1.
         -3   -1    0    0    0  501 -0.00000000000E+00 -0.00000000000E+00 -0.31566365569E+02  0.31566365569E+02  0.00000000000E+00 0.  1.
         23    2    1    2    0    0  0.84711573807E+02  0.54538778756E+02  0.25129267673E+03  0.28606394076E+03  0.92379866325E+02 0.  0.
         23    2    1    2    0    0 -0.84711573807E+02 -0.54538778756E+02  0.44022934347E+03  0.46859081058E+03  0.12499977511E+03 0.  0.
          5    1    4    4  502    0 -0.26206502904E+02 -0.86798781949E+02  0.20925278674E+03  0.22810003968E+03  0.47000000000E+01 0.  1.
         -5    1    4    4    0  502 -0.58505070904E+02  0.32260003193E+02  0.23097655673E+03  0.24049077090E+03  0.47000000000E+01 0.  1.
        -11    1    3    3    0    0  0.34329181280E+02  0.15946039438E+02  0.13882546673E+02  0.40317415136E+02  0.00000000000E+00 0.  1.
         11    1    3    3    0    0  0.50382392528E+02  0.38592739318E+02  0.23741013005E+03  0.24574652563E+03  0.00000000000E+00 0. -1.
<mgrwt>
<rscale>  0 0.15421900E+03</rscale>
<asrwt>0</asrwt>
<pdfrwt beam="1">  1        3 0.11124435E+00 0.16054742E+03</pdfrwt>
<pdfrwt beam="2">  1       -3 0.48563645E-02 0.16054742E+03</pdfrwt>
<totfact> 0.40248865E+02</totfact>
</mgrwt>
</event>
<event>
 8    1  0.7550631E-006  0.1381778E+03  0.7546771E-02  0.1227744E+00
         -2   -1    0    0    0  501 -0.00000000000E+00  0.00000000000E+00  0.19030102151E+02  0.19030102151E+02  0.00000000000E+00 0. -1.
          2   -1    0    0  501    0  0.00000000000E+00 -0.00000000000E+00 -0.90903085891E+03  0.90903085891E+03  0.00000000000E+00 0.  1.
         23    2    1    2    0    0  0.23246281468E+02  0.54104603521E+02 -0.23248987687E+03  0.25618771545E+03  0.90071665789E+02 0.  0.
         23    2    1    2    0    0 -0.23246281468E+02 -0.54104603521E+02 -0.65751087989E+03  0.67187324561E+03  0.12500161306E+03 0.  0.
          5    1    4    4  502    0 -0.55838191696E+02 -0.55497102075E+02 -0.23102374070E+03  0.24411450338E+03  0.47000000000E+01 0.  1.
         -5    1    4    4    0  502  0.32591910228E+02  0.13924985542E+01 -0.42648713918E+03  0.42775874223E+03  0.47000000000E+01 0.  1.
        -11    1    3    3    0    0  0.48432246994E+01 -0.21614100700E+02 -0.19935815824E+02  0.29800384681E+02  0.00000000000E+00 0. -1.
         11    1    3    3    0    0  0.18403056768E+02  0.75718704220E+02 -0.21255406105E+03  0.22638733077E+03  0.00000000000E+00 0.  1.
<mgrwt>
<rscale>  0 0.12980609E+03</rscale>
<asrwt>0</asrwt>
<pdfrwt beam="2">  1        2 0.13985093E+00 0.13817779E+03</pdfrwt>
<pdfrwt beam="1">  1       -2 0.29277073E-02 0.13817779E+03</pdfrwt>
<totfact> 0.12635457E+04</totfact>
</mgrwt>
</event>
<event>
 7    1  0.7550631E-006  0.2652359E+03  0.7546771E-02  0.1134034E+00
         -2   -1    0    0    0  501 -0.00000000000E+00  0.00000000000E+00  0.18817269447E+02  0.18817269447E+02  0.00000000000E+00 0.  1.
          2   -1    0    0  501    0  0.00000000000E+00 -0.00000000000E+00 -0.25690466156E+04  0.25690466156E+04  0.00000000000E+00 0. -1.
         23    2    1    2    0    0 -0.72122575857E+02  0.39603666958E+02 -0.34949739553E+03  0.37120622278E+03  0.94209946205E+02 0.  0.
          5    1    1    2  502    0 -0.54896258037E+02 -0.58038624038E+02 -0.16162814564E+04  0.16182613872E+04  0.47000000000E+01 0. -1.
         -5    1    1    2    0  502  0.12701883389E+03  0.18434957080E+02 -0.58445049422E+03  0.59839627505E+03  0.47000000000E+01 0.  1.
        -11    1    3    3    0    0 -0.39954927091E+02  0.44007244397E+02 -0.32537145128E+03  0.33075612627E+03  0.00000000000E+00 0.  1.
         11    1    3    3    0    0 -0.32167648766E+02 -0.44035774398E+01 -0.24125944244E+02  0.40450096503E+02  0.00000000000E+00 0. -1.
<mgrwt>
<rscale>  0 0.21979780E+03</rscale>
<asrwt>0</asrwt>
<pdfrwt beam="2">  1        2 0.39523790E+00 0.26523588E+03</pdfrwt>
<pdfrwt beam="1">  1       -2 0.28949648E-02 0.26523588E+03</pdfrwt>
<totfact> 0.16415703E+03</totfact>
</mgrwt>
</event>
<event>
 8    1  0.7550631E-006  0.1449550E+03  0.7546771E-02  0.1218710E+00
          1   -1    0    0  501    0  0.00000000000E+00  0.00000000000E+00  0.10026455007E+03  0.10026455007E+03  0.00000000000E+00 0. -1.
         -1   -1    0    0    0  501 -0.00000000000E+00 -0.00000000000E+00 -0.16543529327E+03  0.16543529327E+03  0.00000000000E+00 0.  1.
         23    2    1    2    0    0 -0.73338820317E+02  0.10919381824E+01 -0.31359325406E+02  0.11685370168E+03  0.85390897707E+02 0.  0.
         23    2    1    2    0    0  0.73338820317E+02 -0.10919381824E+01 -0.33811417792E+02  0.14884614166E+03  0.12502874477E+03 0.  0.
          5    1    4    4  502    0  0.10077999402E+03 -0.22269982653E+02 -0.44170783035E+02  0.11236417310E+03  0.47000000000E+01 0.  1.
         -5    1    4    4    0  502 -0.27441173705E+02  0.21178044470E+02  0.10359365243E+02  0.36481968561E+02  0.47000000000E+01 0.  1.
        -11    1    3    3    0    0 -0.84271720387E+02  0.16886079301E+02 -0.41153991492E+02  0.95291728638E+02  0.00000000000E+00 0.  1.
         11    1    3    3    0    0  0.10932900070E+02 -0.15794141119E+02  0.97946660852E+01  0.21561973039E+02  0.00000000000E+00 0. -1.
<mgrwt>
<rscale>  0 0.13607488E+03</rscale>
<asrwt>0</asrwt>
<pdfrwt beam="1">  1        1 0.15425316E-01 0.14495503E+03</pdfrwt>
<pdfrwt beam="2">  1       -1 0.25451583E-01 0.14495503E+03</pdfrwt>
<totfact> 0.46562368E+03</totfact>
</mgrwt>
</event>
<event>
 8    1  0.7550631E-006  0.2008173E+03  0.7546771E-02  0.1154247E+00
          1   -1    0    0  501    0  0.00000000000E+00  0.00000000000E+00  0.22056457305E+03  0.22056457305E+03  0.00000000000E+00 0. -1.
         -1   -1    0    0    0  501 -0.00000000000E+00 -0.00000000000E+00 -0.19082950822E+03  0.19082950822E+03  0.00000000000E+00 0.  1.
         23    2    1    2    0    0  0.14108698560E+03 -0.69274873425E+02 -0.65275088127E+02  0.18923531714E+03  0.82732233923E+02 0.  0.
         23    2    1    2    0    0 -0.14108698560E+03  0.69274873425E+02  0.95010152952E+02  0.22215876413E+03  0.12499216665E+03 0.  0.
          5    1    4    4  502    0 -0.12953659551E+03 -0.70101268781E+00  0.57747099511E+02  0.14190503338E+03  0.47000000000E+01 0.  1.
         -5    1    4    4    0  502 -0.11550390082E+02  0.69975886113E+02  0.37263053442E+02  0.80253730755E+02  0.47000000000E+01 0.  1.
        -11    1    3    3    0    0  0.10373256218E+03 -0.13044052800E+02 -0.62210588322E+02  0.12165832922E+03  0.00000000000E+00 0.  1.
         11    1    3    3    0    0  0.37354423419E+02 -0.56230820624E+02 -0.30644998049E+01  0.67576987918E+02  0.00000000000E+00 0. -1.
<mgrwt>
<rscale>  0 0.19474859E+03</rscale>
<asrwt>0</asrwt>
<pdfrwt beam="1">  1        1 0.33933011E-01 0.20081730E+03</pdfrwt>
<pdfrwt beam="2">  1       -1 0.29358386E-01 0.20081730E+03</pdfrwt>
<totfact> 0.13646568E+03</totfact>
</mgrwt>
</event>
<event>
 8    1  0.7550631E-006  0.1255285E+03  0.7546771E-02  0.1249582E+00
          1   -1    0    0  501    0  0.00000000000E+00  0.00000000000E+00  0.29726732139E+03  0.29726732139E+03  0.00000000000E+00 0. -1.
         -1   -1    0    0    0  501 -0.00000000000E+00 -0.00000000000E+00 -0.69041281605E+02  0.69041281605E+02  0.00000000000E+00 0.  1.
         23    2    1    2    0    0  0.78366645657E+00 -0.11485182473E+02 -0.14390570880E+02  0.93141584262E+02  0.91300288275E+02 0.  0.
         23    2    1    2    0    0 -0.78366645657E+00  0.11485182473E+02  0.24261661066E+03  0.27316701873E+03  0.12499950721E+03 0.  0.
          5    1    4    4  502    0  0.34893023702E+02 -0.29690715659E+01  0.22953809143E+03  0.23224160675E+03  0.47000000000E+01 0.  1.
         -5    1    4    4    0  502 -0.35676690159E+02  0.14454254039E+02  0.13078519235E+02  0.40925411982E+02  0.47000000000E+01 0.  1.
        -11    1    3    3    0    0  0.36659121122E+02 -0.26912582205E+02 -0.26020017506E+02  0.52394842813E+02  0.00000000000E+00 0.  1.
         11    1    3    3    0    0 -0.35875454665E+02  0.15427399732E+02  0.11629446626E+02  0.40746741450E+02  0.00000000000E+00 0. -1.
<mgrwt>
<rscale>  0 0.11615316E+03</rscale>
<asrwt>0</asrwt>
<pdfrwt beam="1">  1        1 0.45733433E-01 0.12552848E+03</pdfrwt>
<pdfrwt beam="2">  1       -1 0.10621736E-01 0.12552848E+03</pdfrwt>
<totfact> 0.47001372E+03</totfact>
</mgrwt>
</event>
<event>
 8    1  0.7550631E-006  0.1501245E+03  0.7546771E-02  0.1207734E+00
         -2   -1    0    0    0  501 -0.00000000000E+00  0.00000000000E+00  0.64301711808E+02  0.64301711808E+02  0.00000000000E+00 0.  1.
          2   -1    0    0  501    0  0.00000000000E+00 -0.00000000000E+00 -0.30587826297E+03  0.30587826297E+03  0.00000000000E+00 0. -1.
         23    2    1    2    0    0  0.47064995887E+02 -0.68541451267E+02 -0.87096334332E+02  0.15476986707E+03  0.97236289114E+02 0.  0.
         23    2    1    2    0    0 -0.47064995887E+02  0.68541451267E+02 -0.15448021683E+03  0.21541010770E+03  0.12499733089E+03 0.  0.
          5    1    4    4  502    0  0.20387794815E+00  0.89313857793E+02 -0.13069903468E+03  0.15837087620E+03  0.47000000000E+01 0.  1.
         -5    1    4    4    0  502 -0.47268873835E+02 -0.20772406526E+02 -0.23781182148E+02  0.57039231507E+02  0.47000000000E+01 0.  1.
        -11    1    3    3    0    0  0.76658251086E+02 -0.56071812358E+02 -0.57058736528E+02  0.11079817243E+03  0.00000000000E+00 0.  1.
         11    1    3    3    0    0 -0.29593255198E+02 -0.12469638909E+02 -0.30037597804E+02  0.43971694641E+02  0.00000000000E+00 0. -1.
<mgrwt>
<rscale>  0 0.14424077E+03</rscale>
<asrwt>0</asrwt>
<pdfrwt beam="2">  1        2 0.47058195E-01 0.15012454E+03</pdfrwt>
<pdfrwt beam="1">  1       -2 0.98925708E-02 0.15012454E+03</pdfrwt>
<totfact> 0.69327066E+03</totfact>
</mgrwt>
</event>
<event>
 8    1  0.7550631E-006  0.1650281E+03  0.7546771E-02  0.1185151E+00
         -2   -1    0    0    0  501 -0.00000000000E+00  0.00000000000E+00  0.33432070192E+02  0.33432070192E+02  0.00000000000E+00 0.  1.
          2   -1    0    0  501    0  0.00000000000E+00 -0.00000000000E+00 -0.78098013371E+03  0.78098013371E+03  0.00000000000E+00 0. -1.
         23    2    1    2    0    0  0.28864505285E+01 -0.10771382357E+03 -0.38502896061E+03  0.41609778307E+03  0.11523656185E+03 0.  0.
         23    2    1    2    0    0 -0.28864505285E+01  0.10771382357E+03 -0.36251910291E+03  0.39831442083E+03  0.12499471381E+03 0.  0.
          5    1    4    4  502    0 -0.58240296026E+02  0.37214685826E+02 -0.10679131451E+03  0.12729233982E+03  0.47000000000E+01 0. -1.
         -5    1    4    4    0  502  0.55353845498E+02  0.70499137740E+02 -0.25572778839E+03  0.27102208100E+03  0.47000000000E+01 0. -1.
        -11    1    3    3    0    0 -0.49087565053E+02 -0.15029589727E+02 -0.11659899257E+03  0.12740016750E+03  0.00000000000E+00 0.  1.
         11    1    3    3    0    0  0.51974015582E+02 -0.92684233839E+02 -0.26842996803E+03  0.28869761557E+03  0.00000000000E+00 0. -1.
<mgrwt>
<rscale>  0 0.16318179E+03</rscale>
<asrwt>0</asrwt>
<pdfrwt beam="2">  1        2 0.12015077E+00 0.16502811E+03</pdfrwt>
<pdfrwt beam="1">  1       -2 0.51433961E-02 0.16502811E+03</pdfrwt>
<totfact> 0.66934095E+03</totfact>
</mgrwt>
</event>
<event>
 8    1  0.7550631E-006  0.1255090E+03  0.7546771E-02  0.1250198E+00
         -4   -1    0    0    0  501 -0.00000000000E+00  0.00000000000E+00  0.20628428890E+02  0.20628428890E+02  0.00000000000E+00 0.  1.
          4   -1    0    0  501    0  0.00000000000E+00 -0.00000000000E+00 -0.60221959077E+03  0.60221959077E+03  0.00000000000E+00 0. -1.
         23    2    1    2    0    0  0.94935888664E+01 -0.60657200378E+01 -0.17343009060E+03  0.19582581312E+03  0.90237639438E+02 0.  0.
         23    2    1    2    0    0 -0.94935888664E+01  0.60657200378E+01 -0.40816107128E+03  0.42702220653E+03  0.12500233428E+03 0.  0.
          5    1    4    4  502    0  0.46194987089E+02 -0.12680055221E+02 -0.78119228255E+02  0.91757639767E+02  0.47000000000E+01 0. -1.
         -5    1    4    4    0  502 -0.55688575955E+02  0.18745775259E+02 -0.33004184302E+03  0.33526456677E+03  0.47000000000E+01 0. -1.
        -11    1    3    3    0    0  0.88109529254E+01  0.36252035299E+02 -0.12974026284E+03  0.13499769908E+03  0.00000000000E+00 0. -1.
         11    1    3    3    0    0  0.68263594101E+00 -0.42317755337E+02 -0.43689827757E+02  0.60828114043E+02  0.00000000000E+00 0.  1.
<mgrwt>
<rscale>  0 0.11579576E+03</rscale>
<asrwt>0</asrwt>
<pdfrwt beam="2">  1        4 0.92649158E-01 0.12550898E+03</pdfrwt>
<pdfrwt beam="1">  1       -4 0.31736048E-02 0.12550898E+03</pdfrwt>
<totfact> 0.82118243E+02</totfact>
</mgrwt>
</event>
<event>
 8    1  0.7550631E-006  0.1324310E+03  0.7546771E-02  0.1237529E+00
          1   -1    0    0  501    0  0.00000000000E+00  0.00000000000E+00  0.38262324541E+03  0.38262324541E+03  0.00000000000E+00 0. -1.
         -1   -1    0    0    0  501 -0.00000000000E+00 -0.00000000000E+00 -0.83735537159E+02  0.83735537159E+02  0.00000000000E+00 0.  1.
         23    2    1    2    0    0 -0.29745846086E+02 -0.32096158869E+02 -0.35990873063E+02  0.10624541386E+03  0.89876394279E+02 0.  0.
         23    2    1    2    0    0  0.29745846086E+02  0.32096158869E+02  0.33487858132E+03  0.36011336871E+03  0.12499198106E+03 0.  0.
          5    1    4    4  502    0  0.21960332573E+02 -0.44344029850E+02  0.83118295934E+02  0.96847252459E+02  0.47000000000E+01 0.  1.
         -5    1    4    4    0  502  0.77855135136E+01  0.76440188719E+02  0.25176028538E+03  0.26326611625E+03  0.47000000000E+01 0.  1.
        -11    1    3    3    0    0 -0.18920747044E+02 -0.61830335868E+02 -0.37164891170E+02  0.74580253672E+02  0.00000000000E+00 0.  1.
         11    1    3    3    0    0 -0.10825099043E+02  0.29734176999E+02  0.11740181069E+01  0.31665160186E+02  0.00000000000E+00 0. -1.
<mgrwt>
<rscale>  0 0.12343914E+03</rscale>
<asrwt>0</asrwt>
<pdfrwt beam="1">  1        1 0.58865114E-01 0.13243102E+03</pdfrwt>
<pdfrwt beam="2">  1       -1 0.12882391E-01 0.13243102E+03</pdfrwt>
<totfact> 0.25590082E+03</totfact>
</mgrwt>
</event>
<event>
 8    1  0.7550631E-006  0.2225419E+03  0.7546771E-02  0.1135284E+00
          2   -1    0    0  501    0  0.00000000000E+00  0.00000000000E+00  0.73216007605E+03  0.73216007605E+03  0.00000000000E+00 0. -1.
         -2   -1    0    0    0  501 -0.00000000000E+00 -0.00000000000E+00 -0.62579616724E+02  0.62579616724E+02  0.00000000000E+00 0.  1.
         23    2    1    2    0    0 -0.11208684619E+03  0.14606988939E+03  0.31101374895E+03  0.37272668254E+03  0.91081030739E+02 0.  0.
         23    2    1    2    0    0  0.11208684619E+03 -0.14606988939E+03  0.35856671037E+03  0.42201301024E+03  0.12500008539E+03 0.  0.
          5    1    4    4  502    0 -0.18527589042E+02 -0.66700776537E+02  0.12125559043E+03  0.13970423529E+03  0.47000000000E+01 0.  1.
         -5    1    4    4    0  502  0.13061443523E+03 -0.79369112856E+02  0.23731111994E+03  0.28230877495E+03  0.47000000000E+01 0.  1.
        -11    1    3    3    0    0 -0.14026047124E+02  0.90317699442E+02  0.11928205737E+03  0.15027383685E+03  0.00000000000E+00 0. -1.
         11    1    3    3    0    0 -0.98060799066E+02  0.55752189950E+02  0.19173169158E+03  0.22245284569E+03  0.00000000000E+00 0.  1.
<mgrwt>
<rscale>  0 0.21813094E+03</rscale>
<asrwt>0</asrwt>
<pdfrwt beam="1">  1        2 0.11264001E+00 0.22254189E+03</pdfrwt>
<pdfrwt beam="2">  1       -2 0.96276338E-02 0.22254189E+03</pdfrwt>
<totfact> 0.27799187E+03</totfact>
</mgrwt>
</event>
<event>
 8    1  0.7550631E-006  0.2017325E+03  0.7546771E-02  0.1152506E+00
          1   -1    0    0  501    0  0.00000000000E+00  0.00000000000E+00  0.16178522144E+03  0.16178522144E+03  0.00000000000E+00 0. -1.
         -1   -1    0    0    0  501 -0.00000000000E+00 -0.00000000000E+00 -0.22889057233E+03  0.22889057233E+03  0.00000000000E+00 0.  1.
         23    2    1    2    0    0  0.15812824300E+03  0.82003603132E+01 -0.42693015166E+02  0.18747157812E+03  0.90835631318E+02 0.  0.
         23    2    1    2    0    0 -0.15812824300E+03 -0.82003603132E+01 -0.24412335727E+02  0.20320421564E+03  0.12499681587E+03 0.  0.
          5    1    4    4  502    0 -0.16686545776E+03  0.20377551891E+02 -0.70362871378E+01  0.16831792819E+03  0.47000000000E+01 0.  1.
         -5    1    4    4    0  502  0.87372147603E+01 -0.28577912205E+02 -0.17376048589E+02  0.34886287454E+02  0.47000000000E+01 0.  1.
        -11    1    3    3    0    0  0.13982397516E+03  0.23210753190E+02 -0.64097959839E+02  0.15555716489E+03  0.00000000000E+00 0.  1.
         11    1    3    3    0    0  0.18304267834E+02 -0.15010392877E+02  0.21404944674E+02  0.31914413228E+02  0.00000000000E+00 0. -1.
<mgrwt>
<rscale>  0 0.19675452E+03</rscale>
<asrwt>0</asrwt>
<pdfrwt beam="1">  1        1 0.24890034E-01 0.20173247E+03</pdfrwt>
<pdfrwt beam="2">  1       -1 0.35213934E-01 0.20173247E+03</pdfrwt>
<totfact> 0.14773660E+03</totfact>
</mgrwt>
</event>
<event>
 8    1  0.7550631E-006  0.1264283E+03  0.7546771E-02  0.1247551E+00
         -3   -1    0    0    0  501 -0.00000000000E+00  0.00000000000E+00  0.34629392632E+02  0.34629392632E+02  0.00000000000E+00 0.  1.
          3   -1    0    0  501    0  0.00000000000E+00 -0.00000000000E+00 -0.35676671752E+03  0.35676671752E+03  0.00000000000E+00 0. -1.
         23    2    1    2    0    0  0.12764566279E+02  0.14009409424E+02 -0.11134194396E+03  0.14559373902E+03  0.91876605572E+02 0.  0.
         23    2    1    2    0    0 -0.12764566279E+02 -0.14009409424E+02 -0.21079538093E+03  0.24580237113E+03  0.12499966132E+03 0.  0.
          5    1    4    4  502    0 -0.81141621265E+01  0.39989537787E+02 -0.17712146005E+03  0.18182162789E+03  0.47000000000E+01 0.  1.
         -5    1    4    4    0  502 -0.46504041523E+01 -0.53998947211E+02 -0.33673920882E+02  0.63980743246E+02  0.47000000000E+01 0.  1.
        -11    1    3    3    0    0  0.22393408505E+01  0.22900668165E+02 -0.12446026981E+03  0.12656940393E+03  0.00000000000E+00 0. -1.
         11    1    3    3    0    0  0.10525225428E+02 -0.88912587404E+01  0.13118325852E+02  0.19024335086E+02  0.00000000000E+00 0.  1.
<mgrwt>
<rscale>  0 0.11734016E+03</rscale>
<asrwt>0</asrwt>
<pdfrwt beam="2">  1        3 0.54887188E-01 0.12642829E+03</pdfrwt>
<pdfrwt beam="1">  1       -3 0.53275988E-02 0.12642829E+03</pdfrwt>
<totfact> 0.15477251E+03</totfact>
</mgrwt>
</event>
<event>
 8    1  0.7550631E-006  0.1787707E+03  0.7546771E-02  0.1174746E+00
          3   -1    0    0  501    0  0.00000000000E+00  0.00000000000E+00  0.84729861827E+02  0.84729861827E+02  0.00000000000E+00 0. -1.
         -3   -1    0    0    0  501 -0.00000000000E+00 -0.00000000000E+00 -0.38936459235E+03  0.38936459235E+03  0.00000000000E+00 0.  1.
         23    2    1    2    0    0 -0.12519700204E+03  0.25655806778E+02 -0.23441095712E+03  0.28202583416E+03  0.90871142689E+02 0.  0.
         23    2    1    2    0    0  0.12519700204E+03 -0.25655806778E+02 -0.70223773394E+02  0.19206862001E+03  0.12500586667E+03 0.  0.
          5    1    4    4  502    0  0.61131612920E+02 -0.20663968426E+01 -0.10009708389E+03  0.11740042716E+03  0.47000000000E+01 0.  1.
         -5    1    4    4    0  502  0.64065389120E+02 -0.23589409935E+02  0.29873310493E+02  0.74668192853E+02  0.47000000000E+01 0.  1.
        -11    1    3    3    0    0 -0.70340747318E+02  0.59458270833E+02 -0.14604963107E+03  0.17266615603E+03  0.00000000000E+00 0.  1.
         11    1    3    3    0    0 -0.54856254722E+02 -0.33802464055E+02 -0.88361326054E+02  0.10935967813E+03  0.00000000000E+00 0. -1.
<mgrwt>
<rscale>  0 0.17300845E+03</rscale>
<asrwt>0</asrwt>
<pdfrwt beam="1">  1        3 0.13035363E-01 0.17877074E+03</pdfrwt>
<pdfrwt beam="2">  1       -3 0.59902245E-01 0.17877074E+03</pdfrwt>
<totfact> 0.31430764E+02</totfact>
</mgrwt>
</event>
<event>
 8    1  0.7550631E-006  0.1268705E+03  0.7546771E-02  0.1265725E+00
         -1   -1    0    0    0  501 -0.00000000000E+00  0.00000000000E+00  0.11560661706E+02  0.11560661706E+02  0.00000000000E+00 0.  1.
          1   -1    0    0  501    0  0.00000000000E+00 -0.00000000000E+00 -0.80377450243E+03  0.80377450243E+03  0.00000000000E+00 0. -1.
         23    2    1    2    0    0  0.18570842113E+02  0.11240619642E+02 -0.22815777518E+03  0.23718693124E+03  0.61077346610E+02 0.  0.
         23    2    1    2    0    0 -0.18570842113E+02 -0.11240619642E+02 -0.56405606554E+03  0.57814823289E+03  0.12499962567E+03 0.  0.
          5    1    4    4  502    0  0.33334167130E+02 -0.47437348365E+02 -0.18855342921E+03  0.19732195616E+03  0.47000000000E+01 0. -1.
         -5    1    4    4    0  502 -0.51905009243E+02  0.36196728722E+02 -0.37550263633E+03  0.38082627673E+03  0.47000000000E+01 0. -1.
        -11    1    3    3    0    0 -0.22249886926E+02  0.42497323939E+01 -0.64186917249E+02  0.68066717561E+02  0.00000000000E+00 0. -1.
         11    1    3    3    0    0  0.40820729039E+02  0.69908872485E+01 -0.16397085793E+03  0.16912021368E+03  0.00000000000E+00 0.  1.
<mgrwt>
<rscale>  0 0.10726260E+03</rscale>
<asrwt>0</asrwt>
<pdfrwt beam="2">  1        1 0.12365769E+00 0.12687054E+03</pdfrwt>
<pdfrwt beam="1">  1       -1 0.17785623E-02 0.12687054E+03</pdfrwt>
<totfact> 0.17622475E+04</totfact>
</mgrwt>
</event>
<event>
 8    1  0.7550631E-006  0.1402918E+03  0.7546771E-02  0.1222060E+00
          2   -1    0    0  501    0  0.00000000000E+00  0.00000000000E+00  0.21988302279E+04  0.21988302279E+04  0.00000000000E+00 0. -1.
         -2   -1    0    0    0  501 -0.00000000000E+00 -0.00000000000E+00 -0.10722131480E+02  0.10722131480E+02  0.00000000000E+00 0.  1.
         23    2    1    2    0    0 -0.63123504417E+02 -0.84375941910E+01  0.41307727290E+03  0.42898609415E+03  0.96646085193E+02 0.  0.
         23    2    1    2    0    0  0.63123504417E+02  0.84375941910E+01  0.17750308235E+04  0.17805662652E+04  0.12500412241E+03 0.  0.
          5    1    4    4  502    0 -0.28999734299E+02  0.33375364030E+02  0.61672216435E+03  0.61832290716E+03  0.47000000000E+01 0.  1.
         -5    1    4    4    0  502  0.92123238716E+02 -0.24937769839E+02  0.11583086592E+04  0.11622433581E+04  0.47000000000E+01 0.  1.
        -11    1    3    3    0    0 -0.83062200786E+02 -0.13543280085E+02  0.38547403865E+03  0.39455415865E+03  0.00000000000E+00 0. -1.
         11    1    3    3    0    0  0.19938696369E+02  0.51056858944E+01  0.27603234252E+02  0.34431935503E+02  0.00000000000E+00 0.  1.
<mgrwt>
<rscale>  0 0.13370485E+03</rscale>
<asrwt>0</asrwt>
<pdfrwt beam="1">  1        2 0.33828122E+00 0.14029184E+03</pdfrwt>
<pdfrwt beam="2">  1       -2 0.16495604E-02 0.14029184E+03</pdfrwt>
<totfact> 0.59509205E+03</totfact>
</mgrwt>
</event>
<event>
 8    1  0.7550631E-006  0.1334094E+03  0.7546771E-02  0.1235459E+00
          2   -1    0    0  501    0  0.00000000000E+00  0.00000000000E+00  0.17031145831E+03  0.17031145831E+03  0.00000000000E+00 0. -1.
         -2   -1    0    0    0  501 -0.00000000000E+00 -0.00000000000E+00 -0.81370376686E+02  0.81370376686E+02  0.00000000000E+00 0.  1.
         23    2    1    2    0    0 -0.26446975719E+02 -0.38362731356E+02  0.40486772768E+02  0.10974564795E+03  0.90740215959E+02 0.  0.
         23    2    1    2    0    0  0.26446975719E+02  0.38362731356E+02  0.48454308854E+02  0.14193618705E+03  0.12500767763E+03 0.  0.
          5    1    4    4  502    0  0.39352888721E+02  0.99490097001E+01 -0.34311670304E+02  0.53357411516E+02  0.47000000000E+01 0.  1.
         -5    1    4    4    0  502 -0.12905913002E+02  0.28413721656E+02  0.82765979158E+02  0.88578775532E+02  0.47000000000E+01 0.  1.
        -11    1    3    3    0    0 -0.49839327522E+02 -0.49818877328E+02  0.44569590107E+02  0.83380618062E+02  0.00000000000E+00 0.  1.
         11    1    3    3    0    0  0.23392351803E+02  0.11456145972E+02 -0.40828173395E+01  0.26365029885E+02  0.00000000000E+00 0. -1.
<mgrwt>
<rscale>  0 0.12475118E+03</rscale>
<asrwt>0</asrwt>
<pdfrwt beam="1">  1        2 0.26201763E-01 0.13340937E+03</pdfrwt>
<pdfrwt beam="2">  1       -2 0.12518519E-01 0.13340937E+03</pdfrwt>
<totfact> 0.88773471E+03</totfact>
</mgrwt>
</event>
<event>
 6    1  0.7550631E-006  0.2030721E+03  0.7546771E-02  0.1195174E+00
         -2   -1    0    0    0  501 -0.00000000000E+00  0.00000000000E+00  0.83956681558E+01  0.83956681558E+01  0.00000000000E+00 0.  1.
          2   -1    0    0  501    0  0.00000000000E+00 -0.00000000000E+00 -0.23124998721E+04  0.23124998721E+04  0.00000000000E+00 0. -1.
          5    1    1    2  502    0  0.39423946740E+02 -0.60586989393E+02 -0.87591622039E+03  0.87890633517E+03  0.47000000000E+01 0. -1.
         -5    1    1    2    0  502 -0.10128699430E+03  0.77109760282E+02 -0.10571994953E+04  0.10648463895E+04  0.47000000000E+01 0.  1.
        -11    1    1    2    0    0  0.54695133146E+02 -0.62355356533E+01 -0.31427497813E+03  0.31905987114E+03  0.00000000000E+00 0. -1.
         11    1    1    2    0    0  0.71679144122E+01 -0.10287235236E+02 -0.56713510089E+02  0.58082944420E+02  0.00000000000E+00 0.  1.
<mgrwt>
<rscale>  0 0.15439475E+03</rscale>
<asrwt>0</asrwt>
<pdfrwt beam="2">  1        2 0.35576954E+00 0.20307212E+03</pdfrwt>
<pdfrwt beam="1">  1       -2 0.12916401E-02 0.20307212E+03</pdfrwt>
<totfact> 0.74257980E+03</totfact>
</mgrwt>
</event>
<event>
 8    1  0.7550631E-006  0.1274929E+03  0.7546771E-02  0.1244794E+00
         -2   -1    0    0    0  501 -0.00000000000E+00  0.00000000000E+00  0.16100902151E+02  0.16100902151E+02  0.00000000000E+00 0.  1.
          2   -1    0    0  501    0  0.00000000000E+00 -0.00000000000E+00 -0.85557076833E+03  0.85557076833E+03  0.00000000000E+00 0. -1.
         23    2    1    2    0    0 -0.25052462797E+02 -0.15810319911E+01 -0.23905044680E+03  0.25786557487E+03  0.93377797328E+02 0.  0.
         23    2    1    2    0    0  0.25052462797E+02  0.15810319911E+01 -0.60041941938E+03  0.61380609561E+03  0.12499727312E+03 0.  0.
          5    1    4    4  502    0  0.14097840719E+02 -0.57870559930E+02 -0.39929233683E+03  0.40373779991E+03  0.47000000000E+01 0. -1.
         -5    1    4    4    0  502  0.10954622078E+02  0.59451591921E+02 -0.20112708254E+03  0.21006829570E+03  0.47000000000E+01 0. -1.
        -11    1    3    3    0    0  0.20761127995E+02 -0.16792295826E+02 -0.19483367764E+02  0.33054610180E+02  0.00000000000E+00 0.  1.
         11    1    3    3    0    0 -0.45813590791E+02  0.15211263835E+02 -0.21956707904E+03  0.22481096469E+03  0.00000000000E+00 0. -1.
<mgrwt>
<rscale>  0 0.11897708E+03</rscale>
<asrwt>0</asrwt>
<pdfrwt beam="2">  1        2 0.13162626E+00 0.12749292E+03</pdfrwt>
<pdfrwt beam="1">  1       -2 0.24770621E-02 0.12749292E+03</pdfrwt>
<totfact> 0.17357033E+04</totfact>
</mgrwt>
</event>
<event>
 8    1  0.7550631E-006  0.1620451E+03  0.7546771E-02  0.1192781E+00
         -1   -1    0    0    0  501 -0.00000000000E+00  0.00000000000E+00  0.15127955923E+03  0.15127955923E+03  0.00000000000E+00 0.  1.
          1   -1    0    0  501    0  0.00000000000E+00 -0.00000000000E+00 -0.16454070791E+03  0.16454070791E+03  0.00000000000E+00 0. -1.
         23    2    1    2    0    0  0.91914399094E+02  0.46750199920E+02 -0.50539268009E+02  0.14954253982E+03  0.95785780012E+02 0.  0.
         23    2    1    2    0    0 -0.91914399094E+02 -0.46750199920E+02  0.37278119332E+02  0.16627772732E+03  0.12499914588E+03 0.  0.
          5    1    4    4  502    0 -0.23565855607E+01 -0.66900054157E+02  0.45706400287E-01  0.67106354623E+02  0.47000000000E+01 0. -1.
         -5    1    4    4    0  502 -0.89557813533E+02  0.20149854237E+02  0.37232412932E+02  0.99171372701E+02  0.47000000000E+01 0. -1.
        -11    1    3    3    0    0  0.11075683900E+03  0.48155178141E+02 -0.37053406962E+02  0.12632875181E+03  0.00000000000E+00 0. -1.
         11    1    3    3    0    0 -0.18842439909E+02 -0.14049782207E+01 -0.13485861047E+02  0.23213788008E+02  0.00000000000E+00 0.  1.
<mgrwt>
<rscale>  0 0.15643507E+03</rscale>
<asrwt>0</asrwt>
<pdfrwt beam="2">  1        1 0.25313955E-01 0.16204513E+03</pdfrwt>
<pdfrwt beam="1">  1       -1 0.23273778E-01 0.16204513E+03</pdfrwt>
<totfact> 0.28819470E+03</totfact>
</mgrwt>
</event>
<event>
 7    1  0.7550631E-006  0.3027231E+03  0.7546771E-02  0.1115373E+00
         -1   -1    0    0    0  501 -0.00000000000E+00  0.00000000000E+00  0.16183587677E+03  0.16183587677E+03  0.00000000000E+00 0.  1.
          1   -1    0    0  501    0  0.00000000000E+00 -0.00000000000E+00 -0.29844870328E+03  0.29844870328E+03  0.00000000000E+00 0. -1.
         23    2    1    2    0    0  0.18571796336E+02  0.92959486419E+02 -0.16691351665E+02  0.13467374117E+03  0.94191494341E+02 0.  0.
          5    1    1    2  502    0  0.11887320545E+03 -0.11253911293E+03 -0.67800532881E+02  0.17724247000E+03  0.47000000000E+01 0. -1.
         -5    1    1    2    0  502 -0.13744500179E+03  0.19579626509E+02 -0.52120941969E+02  0.14836836887E+03  0.47000000000E+01 0.  1.
        -11    1    3    3    0    0  0.11157980692E+02  0.14704006406E+02 -0.46947643413E+02  0.50445907263E+02  0.00000000000E+00 0. -1.
         11    1    3    3    0    0  0.74138156438E+01  0.78255480014E+02  0.30256291749E+02  0.84227833909E+02  0.00000000000E+00 0.  1.
<mgrwt>
<rscale>  0 0.24675417E+03</rscale>
<asrwt>0</asrwt>
<pdfrwt beam="2">  1        1 0.45915185E-01 0.30272307E+03</pdfrwt>
<pdfrwt beam="1">  1       -1 0.24897827E-01 0.30272307E+03</pdfrwt>
<totfact> 0.12382561E+03</totfact>
</mgrwt>
</event>
<event>
 8    1  0.7550631E-006  0.2042089E+03  0.7546771E-02  0.1150024E+00
         -1   -1    0    0    0  501 -0.00000000000E+00  0.00000000000E+00  0.75604902366E+02  0.75604902366E+02  0.00000000000E+00 0.  1.
          1   -1    0    0  501    0  0.00000000000E+00 -0.00000000000E+00 -0.55908022716E+03  0.55908022716E+03  0.00000000000E+00 0. -1.
         23    2    1    2    0    0 -0.12982312559E+03  0.96015765675E+02 -0.13338046264E+03  0.22938564926E+03  0.93564721333E+02 0.  0.
         23    2    1    2    0    0  0.12982312559E+03 -0.96015765675E+02 -0.35009486216E+03  0.40529948026E+03  0.12501273933E+03 0.  0.
          5    1    4    4  502    0  0.57643521566E+01 -0.29843341149E+02 -0.18873094835E+03  0.19122058893E+03  0.47000000000E+01 0. -1.
         -5    1    4    4    0  502  0.12405877343E+03 -0.66172424525E+02 -0.16136391381E+03  0.21407889133E+03  0.47000000000E+01 0. -1.
        -11    1    3    3    0    0 -0.13952428966E+02  0.41497608043E+02  0.95928257068E+00  0.43790889126E+02  0.00000000000E+00 0.  1.
         11    1    3    3    0    0 -0.11587069663E+03  0.54518157631E+02 -0.13433974521E+03  0.18559476014E+03  0.00000000000E+00 0. -1.
<mgrwt>
<rscale>  0 0.19966232E+03</rscale>
<asrwt>0</asrwt>
<pdfrwt beam="2">  1        1 0.86012341E-01 0.20420885E+03</pdfrwt>
<pdfrwt beam="1">  1       -1 0.11631524E-01 0.20420885E+03</pdfrwt>
<totfact> 0.18555652E+03</totfact>
</mgrwt>
</event>
<event>
 8    1  0.7550631E-006  0.1292989E+03  0.7546771E-02  0.1243075E+00
          2   -1    0    0  501    0  0.00000000000E+00  0.00000000000E+00  0.29735779268E+03  0.29735779268E+03  0.00000000000E+00 0. -1.
         -2   -1    0    0    0  501 -0.00000000000E+00 -0.00000000000E+00 -0.60798459384E+02  0.60798459384E+02  0.00000000000E+00 0.  1.
         23    2    1    2    0    0  0.32993428219E+02  0.22084118823E+01  0.89525471193E+01  0.96387179208E+02  0.90093822358E+02 0.  0.
         23    2    1    2    0    0 -0.32993428219E+02 -0.22084118823E+01  0.22760678618E+03  0.26176907285E+03  0.12499902000E+03 0.  0.
          5    1    4    4  502    0 -0.59301526702E+02  0.16349897187E+02  0.45190686736E+02  0.76474037260E+02  0.47000000000E+01 0. -1.
         -5    1    4    4    0  502  0.26308098483E+02 -0.18558309069E+02  0.18241609944E+03  0.18529503559E+03  0.47000000000E+01 0. -1.
        -11    1    3    3    0    0 -0.45284844628E+01 -0.30429968455E+02 -0.21989872283E+02  0.37815930964E+02  0.00000000000E+00 0.  1.
         11    1    3    3    0    0  0.37521912682E+02  0.32638380337E+02  0.30942419402E+02  0.58571248244E+02  0.00000000000E+00 0. -1.
<mgrwt>
<rscale>  0 0.12001361E+03</rscale>
<asrwt>0</asrwt>
<pdfrwt beam="1">  1        2 0.45747352E-01 0.12929887E+03</pdfrwt>
<pdfrwt beam="2">  1       -2 0.93536093E-02 0.12929887E+03</pdfrwt>
<totfact> 0.77227048E+03</totfact>
</mgrwt>
</event>
<event>
 8    1  0.7550631E-006  0.1249754E+03  0.7546771E-02  0.1242298E+00
         -1   -1    0    0    0  501 -0.00000000000E+00  0.00000000000E+00  0.47739638192E+02  0.47739638192E+02  0.00000000000E+00 0.  1.
          1   -1    0    0  501    0  0.00000000000E+00 -0.00000000000E+00 -0.35114234744E+03  0.35114234744E+03  0.00000000000E+00 0. -1.
         23    2    1    2    0    0 -0.58575975668E+02 -0.88417649842E+01 -0.55806020492E+02  0.12153209804E+03  0.90257504935E+02 0.  0.
         23    2    1    2    0    0  0.58575975668E+02  0.88417649842E+01 -0.24759668875E+03  0.27734988759E+03  0.11004325573E+03 0.  0.
          5    1    4    4  502    0  0.38159348107E+02  0.25885082557E+02 -0.24596419490E+03  0.25029312520E+03  0.47000000000E+01 0. -1.
         -5    1    4    4    0  502  0.20416627562E+02 -0.17043317573E+02 -0.16324938477E+01  0.27056762391E+02  0.47000000000E+01 0.  1.
        -11    1    3    3    0    0 -0.45516726178E+02 -0.22361535064E+02 -0.77631532989E+02  0.92727911260E+02  0.00000000000E+00 0.  1.
         11    1    3    3    0    0 -0.13059249490E+02  0.13519770080E+02  0.21825512497E+02  0.28804186779E+02  0.00000000000E+00 0. -1.
<mgrwt>
<rscale>  0 0.12048577E+03</rscale>
<asrwt>0</asrwt>
<pdfrwt beam="2">  1        1 0.54021899E-01 0.12497536E+03</pdfrwt>
<pdfrwt beam="1">  1       -1 0.73445598E-02 0.12497536E+03</pdfrwt>
<totfact> 0.66811560E+03</totfact>
</mgrwt>
</event>
<event>
 7    1  0.7550631E-006  0.1820129E+03  0.7546771E-02  0.1169455E+00
         -1   -1    0    0    0  501 -0.00000000000E+00  0.00000000000E+00  0.56028345497E+03  0.56028345497E+03  0.00000000000E+00 0.  1.
          1   -1    0    0  501    0  0.00000000000E+00 -0.00000000000E+00 -0.69521966640E+02  0.69521966640E+02  0.00000000000E+00 0. -1.
         23    2    1    2    0    0 -0.10799937386E+03 -0.28437516148E+02  0.91400141452E+02  0.19092253900E+03  0.12499949185E+03 0.  0.
          5    1    3    3  502    0 -0.85847360009E+02  0.13289041250E+02  0.10972909168E+03  0.14003189422E+03  0.47000000000E+01 0. -1.
         -5    1    3    3    0  502 -0.22152013853E+02 -0.41726557398E+02 -0.18328950229E+02  0.50890644784E+02  0.47000000000E+01 0. -1.
        -11    1    1    2    0    0  0.82162000790E+02  0.74714337873E+02  0.34716590025E+03  0.36449552666E+03  0.00000000000E+00 0.  1.
         11    1    1    2    0    0  0.25837373072E+02 -0.46276821725E+02  0.52195446627E+02  0.74387355947E+02  0.00000000000E+00 0. -1.
<mgrwt>
<rscale>  0 0.17830354E+03</rscale>
<asrwt>0</asrwt>
<pdfrwt beam="2">  1        1 0.10695688E-01 0.18201291E+03</pdfrwt>
<pdfrwt beam="1">  1       -1 0.86197452E-01 0.18201291E+03</pdfrwt>
<totfact> 0.81229727E+02</totfact>
</mgrwt>
</event>
<event>
 7    1  0.7550631E-006  0.2691180E+03  0.7546771E-02  0.1143723E+00
         -2   -1    0    0    0  501 -0.00000000000E+00  0.00000000000E+00  0.78063653124E+02  0.78063653124E+02  0.00000000000E+00 0.  1.
          2   -1    0    0  501    0  0.00000000000E+00 -0.00000000000E+00 -0.55409096095E+03  0.55409096095E+03  0.00000000000E+00 0. -1.
         23    2    1    2    0    0  0.29599374943E+02 -0.11500411141E+02 -0.11686612931E+02  0.95464034742E+02  0.89266021274E+02 0.  0.
          5    1    1    2  502    0  0.11205200602E+03  0.29365229640E+02 -0.28312404776E+03  0.30594000259E+03  0.47000000000E+01 0. -1.
         -5    1    1    2    0  502 -0.14165138096E+03 -0.17864818498E+02 -0.18121664714E+03  0.23075057674E+03  0.47000000000E+01 0.  1.
        -11    1    3    3    0    0  0.49509681641E+02  0.23087250456E+02 -0.98786849613E+01  0.55514125467E+02  0.00000000000E+00 0. -1.
         11    1    3    3    0    0 -0.19910306699E+02 -0.34587661597E+02 -0.18079279701E+01  0.39949909275E+02  0.00000000000E+00 0.  1.
<mgrwt>
<rscale>  0 0.20729904E+03</rscale>
<asrwt>0</asrwt>
<pdfrwt beam="2">  1        2 0.85244763E-01 0.26911800E+03</pdfrwt>
<pdfrwt beam="1">  1       -2 0.12009793E-01 0.26911800E+03</pdfrwt>
<totfact> 0.27246355E+03</totfact>
</mgrwt>
</event>
<event>
 7    1  0.7550631E-006  0.1489007E+03  0.7546771E-02  0.1219147E+00
         -2   -1    0    0    0  501 -0.00000000000E+00  0.00000000000E+00  0.58274900879E+02  0.58274900879E+02  0.00000000000E+00 0.  1.
          2   -1    0    0  501    0  0.00000000000E+00 -0.00000000000E+00 -0.28638854041E+03  0.28638854041E+03  0.00000000000E+00 0. -1.
         23    2    1    2    0    0  0.11341822047E+02  0.49811782037E+02 -0.56272663285E+02  0.11728548268E+03  0.89327606350E+02 0.  0.
          5    1    1    2  502    0 -0.73656917568E+02 -0.24966881932E+02 -0.11716187840E+03  0.14070423750E+03  0.47000000000E+01 0. -1.
         -5    1    1    2    0  502  0.62315095521E+02 -0.24844900105E+02 -0.54679097842E+02  0.86673721115E+02  0.47000000000E+01 0.  1.
        -11    1    3    3    0    0 -0.14605832620E+02  0.64736053913E+02 -0.56793396557E+02  0.87347449392E+02  0.00000000000E+00 0.  1.
         11    1    3    3    0    0  0.25947654667E+02 -0.14924271876E+02  0.52073327176E+00  0.29938033284E+02  0.00000000000E+00 0. -1.
<mgrwt>
<rscale>  0 0.13576280E+03</rscale>
<asrwt>0</asrwt>
<pdfrwt beam="2">  1        2 0.44059776E-01 0.14890069E+03</pdfrwt>
<pdfrwt beam="1">  1       -2 0.89653693E-02 0.14890069E+03</pdfrwt>
<totfact> 0.86705336E+03</totfact>
</mgrwt>
</event>
<event>
 8    1  0.7550631E-006  0.1703888E+03  0.7546771E-02  0.1183784E+00
          2   -1    0    0  501    0  0.00000000000E+00  0.00000000000E+00  0.93149905834E+03  0.93149905834E+03  0.00000000000E+00 0.  1.
         -2   -1    0    0    0  501 -0.00000000000E+00 -0.00000000000E+00 -0.27395818715E+02  0.27395818715E+02  0.00000000000E+00 0. -1.
         23    2    1    2    0    0 -0.11188992639E+03 -0.29783166665E+02  0.37658383411E+03  0.40454024312E+03  0.91820648805E+02 0.  0.
         23    2    1    2    0    0  0.11188992639E+03  0.29783166665E+02  0.52751940552E+03  0.55435463394E+03  0.12500377725E+03 0.  0.
          5    1    4    4  502    0  0.70569644098E+02  0.48881239332E+02  0.48271235299E+03  0.49030883732E+03  0.47000000000E+01 0. -1.
         -5    1    4    4    0  502  0.41320282289E+02 -0.19098072667E+02  0.44807052531E+02  0.64045796619E+02  0.47000000000E+01 0. -1.
        -11    1    3    3    0    0 -0.59413600650E+02 -0.59706048374E+02  0.25891033832E+03  0.27226705905E+03  0.00000000000E+00 0.  1.
         11    1    3    3    0    0 -0.52476325737E+02  0.29922881709E+02  0.11767349579E+03  0.13227318407E+03  0.00000000000E+00 0. -1.
<mgrwt>
<rscale>  0 0.16442995E+03</rscale>
<asrwt>0</asrwt>
<pdfrwt beam="1">  1        2 0.14330752E+00 0.17038878E+03</pdfrwt>
<pdfrwt beam="2">  1       -2 0.42147421E-02 0.17038878E+03</pdfrwt>
<totfact> 0.72058833E+03</totfact>
</mgrwt>
</event>
<event>
 8    1  0.7550631E-006  0.1537808E+03  0.7546771E-02  0.1204529E+00
          2   -1    0    0  501    0  0.00000000000E+00  0.00000000000E+00  0.24905682572E+03  0.24905682572E+03  0.00000000000E+00 0. -1.
         -2   -1    0    0    0  501 -0.00000000000E+00 -0.00000000000E+00 -0.11636716298E+03  0.11636716298E+03  0.00000000000E+00 0.  1.
         23    2    1    2    0    0 -0.80216895006E+02  0.39983891895E+02 -0.40521495937E+02  0.13379789987E+03  0.90699639036E+02 0.  0.
         23    2    1    2    0    0  0.80216895006E+02 -0.39983891895E+02  0.17321115868E+03  0.23162608883E+03  0.12496030442E+03 0.  0.
          5    1    4    4  502    0  0.29475220035E+02 -0.53514859679E+02  0.16778371540E+03  0.17862276999E+03  0.47000000000E+01 0.  1.
         -5    1    4    4    0  502  0.50741674971E+02  0.13530967784E+02  0.54274432757E+01  0.53003318845E+02  0.47000000000E+01 0.  1.
        -11    1    3    3    0    0 -0.70340197502E+02  0.26230211168E+00  0.74538723336E+01  0.70734520567E+02  0.00000000000E+00 0. -1.
         11    1    3    3    0    0 -0.98766975037E+01  0.39721589784E+02 -0.47975368270E+02  0.63063379304E+02  0.00000000000E+00 0.  1.
<mgrwt>
<rscale>  0 0.14674601E+03</rscale>
<asrwt>0</asrwt>
<pdfrwt beam="1">  1        2 0.38316435E-01 0.15378082E+03</pdfrwt>
<pdfrwt beam="2">  1       -2 0.17902640E-01 0.15378082E+03</pdfrwt>
<totfact> 0.33065343E+03</totfact>
</mgrwt>
</event>
<event>
 8    1  0.7550631E-006  0.1287855E+03  0.7546771E-02  0.1242863E+00
          1   -1    0    0  501    0  0.00000000000E+00  0.00000000000E+00  0.22795973257E+03  0.22795973257E+03  0.00000000000E+00 0. -1.
         -1   -1    0    0    0  501 -0.00000000000E+00 -0.00000000000E+00 -0.58648031418E+02  0.58648031418E+02  0.00000000000E+00 0.  1.
         23    2    1    2    0    0 -0.30732887624E+02 -0.54704400146E+00  0.44304529251E+02  0.10712936624E+03  0.92568894124E+02 0.  0.
         23    2    1    2    0    0  0.30732887624E+02  0.54704400146E+00  0.12500717190E+03  0.17947839775E+03  0.12506355422E+03 0.  0.
          5    1    4    4  502    0 -0.30459990062E+02 -0.31537969319E+00  0.11275048772E+03  0.11688743705E+03  0.47000000000E+01 0. -1.
         -5    1    4    4    0  502  0.61192877686E+02  0.86242369464E+00  0.12256684179E+02  0.62590960698E+02  0.47000000000E+01 0. -1.
        -11    1    3    3    0    0  0.93888668235E+00  0.23207226097E+02  0.60155834872E+02  0.64483961731E+02  0.00000000000E+00 0. -1.
         11    1    3    3    0    0 -0.31671774306E+02 -0.23754270098E+02 -0.15851305621E+02  0.42645404506E+02  0.00000000000E+00 0.  1.
<mgrwt>
<rscale>  0 0.12014190E+03</rscale>
<asrwt>0</asrwt>
<pdfrwt beam="1">  1        1 0.35070728E-01 0.12878549E+03</pdfrwt>
<pdfrwt beam="2">  1       -1 0.90227742E-02 0.12878549E+03</pdfrwt>
<totfact> 0.83742709E+03</totfact>
</mgrwt>
</event>
<event>
 8    1  0.7550631E-006  0.1273143E+03  0.7546771E-02  0.1249347E+00
          2   -1    0    0  501    0  0.00000000000E+00  0.00000000000E+00  0.12197740197E+03  0.12197740197E+03  0.00000000000E+00 0. -1.
         -2   -1    0    0    0  501 -0.00000000000E+00 -0.00000000000E+00 -0.98084615271E+02  0.98084615271E+02  0.00000000000E+00 0.  1.
         23    2    1    2    0    0 -0.26792827383E+01 -0.24013560725E+02 -0.74955914068E+01  0.88935517616E+02  0.85261437640E+02 0.  0.
         23    2    1    2    0    0  0.26792827383E+01  0.24013560725E+02  0.31388378103E+02  0.13112649962E+03  0.12500039587E+03 0.  0.
          5    1    4    4  502    0  0.51306056241E+02  0.36027454968E+01 -0.21817345583E+02  0.56065834074E+02  0.47000000000E+01 0. -1.
         -5    1    4    4    0  502 -0.48626773503E+02  0.20410815228E+02  0.53205723686E+02  0.75060665548E+02  0.47000000000E+01 0. -1.
        -11    1    3    3    0    0  0.27955219331E+02 -0.35061713637E+02 -0.25641244734E+02  0.51655507765E+02  0.00000000000E+00 0.  1.
         11    1    3    3    0    0 -0.30634502069E+02  0.11048152912E+02  0.18145653327E+02  0.37280009851E+02  0.00000000000E+00 0. -1.
<mgrwt>
<rscale>  0 0.11628928E+03</rscale>
<asrwt>0</asrwt>
<pdfrwt beam="1">  1        2 0.18765754E-01 0.12731429E+03</pdfrwt>
<pdfrwt beam="2">  1       -2 0.15089941E-01 0.12731429E+03</pdfrwt>
<totfact> 0.94901884E+03</totfact>
</mgrwt>
</event>
<event>
 8    1  0.7550631E-006  0.1446958E+03  0.7546771E-02  0.1217002E+00
          3   -1    0    0  501    0  0.00000000000E+00  0.00000000000E+00  0.22231379953E+03  0.22231379953E+03  0.00000000000E+00 0. -1.
         -3   -1    0    0    0  501 -0.00000000000E+00 -0.00000000000E+00 -0.94117922915E+02  0.94117922915E+02  0.00000000000E+00 0.  1.
         23    2    1    2    0    0 -0.65133553410E+02 -0.32696936661E+02 -0.81692727807E+01  0.11760434270E+03  0.91937886406E+02 0.  0.
         23    2    1    2    0    0  0.65133553410E+02  0.32696936661E+02  0.13636514940E+03  0.19882737975E+03  0.12500161407E+03 0.  0.
          5    1    4    4  502    0  0.16680169904E+02  0.23697666747E+02 -0.19529893166E+02  0.35260660861E+02  0.47000000000E+01 0. -1.
         -5    1    4    4    0  502  0.48453383506E+02  0.89992699143E+01  0.15589504256E+03  0.16356671889E+03  0.47000000000E+01 0. -1.
        -11    1    3    3    0    0 -0.39404251232E+01  0.11871439103E+02 -0.35093491723E+02  0.37256022034E+02  0.00000000000E+00 0.  1.
         11    1    3    3    0    0 -0.61193128287E+02 -0.44568375764E+02  0.26924218942E+02  0.80348320664E+02  0.00000000000E+00 0. -1.
<mgrwt>
<rscale>  0 0.13730463E+03</rscale>
<asrwt>0</asrwt>
<pdfrwt beam="1">  1        3 0.34202123E-01 0.14469579E+03</pdfrwt>
<pdfrwt beam="2">  1       -3 0.14479681E-01 0.14469579E+03</pdfrwt>
<totfact> 0.77224923E+02</totfact>
</mgrwt>
</event>
<event>
 8    1  0.7550631E-006  0.1586487E+03  0.7546771E-02  0.1198291E+00
         -3   -1    0    0    0  501 -0.00000000000E+00  0.00000000000E+00  0.72142771351E+02  0.72142771351E+02  0.00000000000E+00 0.  1.
          3   -1    0    0  501    0  0.00000000000E+00 -0.00000000000E+00 -0.37173643411E+03  0.37173643411E+03  0.00000000000E+00 0. -1.
         23    2    1    2    0    0  0.18354520989E+02  0.95960767697E+02 -0.38569607260E+02  0.13842383739E+03  0.90156457210E+02 0.  0.
         23    2    1    2    0    0 -0.18354520989E+02 -0.95960767697E+02 -0.26102405549E+03  0.30545536806E+03  0.12499626776E+03 0.  0.
          5    1    4    4  502    0 -0.69829005160E+02 -0.43628571685E+02 -0.16533207419E+03  0.18476018777E+03  0.47000000000E+01 0.  1.
         -5    1    4    4    0  502  0.51474484171E+02 -0.52332196012E+02 -0.95691981307E+02  0.12069518030E+03  0.47000000000E+01 0.  1.
        -11    1    3    3    0    0  0.33353063116E+02  0.70025484016E+02  0.13134171688E+02  0.78667030558E+02  0.00000000000E+00 0.  1.
         11    1    3    3    0    0 -0.14998542127E+02  0.25935283680E+02 -0.51703778948E+02  0.59756806834E+02  0.00000000000E+00 0. -1.
<mgrwt>
<rscale>  0 0.15178992E+03</rscale>
<asrwt>0</asrwt>
<pdfrwt beam="2">  1        3 0.57190220E-01 0.15864875E+03</pdfrwt>
<pdfrwt beam="1">  1       -3 0.11098888E-01 0.15864875E+03</pdfrwt>
<totfact> 0.44706448E+02</totfact>
</mgrwt>
</event>
<event>
 8    1  0.7550631E-006  0.1292162E+03  0.7546771E-02  0.1243344E+00
         -2   -1    0    0    0  501 -0.00000000000E+00  0.00000000000E+00  0.90878585012E+02  0.90878585012E+02  0.00000000000E+00 0.  1.
          2   -1    0    0  501    0  0.00000000000E+00 -0.00000000000E+00 -0.13958761333E+03  0.13958761333E+03  0.00000000000E+00 0. -1.
         23    2    1    2    0    0 -0.11483543281E+02  0.30662856304E+02 -0.13844984219E+02  0.96629213263E+02  0.89852316302E+02 0.  0.
         23    2    1    2    0    0  0.11483543281E+02 -0.30662856304E+02 -0.34864044098E+02  0.13383698508E+03  0.12499901792E+03 0.  0.
          5    1    4    4  502    0  0.16671265894E+02  0.23704617307E+02  0.34581943708E+02  0.45363430413E+02  0.47000000000E+01 0. -1.
         -5    1    4    4    0  502 -0.51877226129E+01 -0.54367473611E+02 -0.69445987806E+02  0.88473554665E+02  0.47000000000E+01 0. -1.
        -11    1    3    3    0    0 -0.17288842757E+02 -0.28689477280E+02 -0.15637982501E+02  0.36966697001E+02  0.00000000000E+00 0. -1.
         11    1    3    3    0    0  0.58052994761E+01  0.59352333584E+02  0.17929982815E+01  0.59662516262E+02  0.00000000000E+00 0.  1.
<mgrwt>
<rscale>  0 0.11985023E+03</rscale>
<asrwt>0</asrwt>
<pdfrwt beam="2">  1        2 0.21475017E-01 0.12921624E+03</pdfrwt>
<pdfrwt beam="1">  1       -2 0.13981321E-01 0.12921624E+03</pdfrwt>
<totfact> 0.92387626E+03</totfact>
</mgrwt>
</event>
<event>
 8    1  0.7550631E-006  0.2214159E+03  0.7546771E-02  0.1136755E+00
         -2   -1    0    0    0  501 -0.00000000000E+00  0.00000000000E+00  0.18959114330E+03  0.18959114330E+03  0.00000000000E+00 0.  1.
          2   -1    0    0  501    0  0.00000000000E+00 -0.00000000000E+00 -0.30841304478E+03  0.30841304478E+03  0.00000000000E+00 0. -1.
         23    2    1    2    0    0 -0.17752677361E+03  0.43404944589E+02  0.63668315152E+02  0.21107621498E+03  0.84260130626E+02 0.  0.
         23    2    1    2    0    0  0.17752677361E+03 -0.43404944589E+02 -0.18249021664E+03  0.28692797311E+03  0.12500095208E+03 0.  0.
          5    1    4    4  502    0  0.18648272569E+03 -0.58206489890E+02 -0.13876333113E+03  0.23966884344E+03  0.47000000000E+01 0. -1.
         -5    1    4    4    0  502 -0.89559520871E+01  0.14801545301E+02 -0.43726885505E+02  0.47259129669E+02  0.47000000000E+01 0. -1.
        -11    1    3    3    0    0 -0.89714004678E+02  0.55031438503E+02  0.62666517480E+02  0.12249144571E+03  0.00000000000E+00 0.  1.
         11    1    3    3    0    0 -0.87812768927E+02 -0.11626493914E+02  0.10017976725E+01  0.88584769267E+02  0.00000000000E+00 0. -1.
<mgrwt>
<rscale>  0 0.21619108E+03</rscale>
<asrwt>0</asrwt>
<pdfrwt beam="2">  1        2 0.47448159E-01 0.22141586E+03</pdfrwt>
<pdfrwt beam="1">  1       -2 0.29167869E-01 0.22141586E+03</pdfrwt>
<totfact> 0.11393842E+03</totfact>
</mgrwt>
</event>
<event>
 8    1  0.7550631E-006  0.1284801E+03  0.7546771E-02  0.1244234E+00
          1   -1    0    0  501    0  0.00000000000E+00  0.00000000000E+00  0.78286142612E+02  0.78286142612E+02  0.00000000000E+00 0. -1.
         -1   -1    0    0    0  501 -0.00000000000E+00 -0.00000000000E+00 -0.16091024959E+03  0.16091024959E+03  0.00000000000E+00 0.  1.
         23    2    1    2    0    0 -0.18461032937E+02  0.23269832842E+02 -0.27875749388E+02  0.99537845453E+02  0.90820869936E+02 0.  0.
         23    2    1    2    0    0  0.18461032937E+02 -0.23269832842E+02 -0.54748357589E+02  0.13965854675E+03  0.12499932865E+03 0.  0.
          5    1    4    4  502    0 -0.58080420791E+01  0.49285974516E+02 -0.33694017248E+02  0.60168242746E+02  0.47000000000E+01 0. -1.
         -5    1    4    4    0  502  0.24269075016E+02 -0.72555807358E+02 -0.21054340340E+02  0.79490304004E+02  0.47000000000E+01 0. -1.
        -11    1    3    3    0    0 -0.95714961276E+01 -0.28874411743E+02 -0.34764820975E+02  0.46194566445E+02  0.00000000000E+00 0.  1.
         11    1    3    3    0    0 -0.88895368089E+01  0.52144244585E+02  0.68890715865E+01  0.53343279008E+02  0.00000000000E+00 0. -1.
<mgrwt>
<rscale>  0 0.11931361E+03</rscale>
<asrwt>0</asrwt>
<pdfrwt beam="1">  1        1 0.12044022E-01 0.12848006E+03</pdfrwt>
<pdfrwt beam="2">  1       -1 0.24755423E-01 0.12848006E+03</pdfrwt>
<totfact> 0.66722996E+03</totfact>
</mgrwt>
</event>
<event>
 8    1  0.7550631E-006  0.1848346E+03  0.7546771E-02  0.1173095E+00
          2   -1    0    0  501    0  0.00000000000E+00  0.00000000000E+00  0.23360540935E+03  0.23360540935E+03  0.00000000000E+00 0.  1.
         -2   -1    0    0    0  501 -0.00000000000E+00 -0.00000000000E+00 -0.12439336651E+03  0.12439336651E+03  0.00000000000E+00 0. -1.
         23    2    1    2    0    0  0.48380205568E+02  0.12728764645E+03  0.86011176611E+01  0.14755548014E+03  0.56176963818E+02 0.  0.
         23    2    1    2    0    0 -0.48380205568E+02 -0.12728764645E+03  0.10061092518E+03  0.21044329572E+03  0.12498413187E+03 0.  0.
          5    1    4    4  502    0 -0.43015914223E+02 -0.89334371204E+01 -0.13176963390E+02  0.46107456440E+02  0.47000000000E+01 0.  1.
         -5    1    4    4    0  502 -0.53642913454E+01 -0.11835420933E+03  0.11378788857E+03  0.16433583928E+03  0.47000000000E+01 0.  1.
        -11    1    3    3    0    0  0.50684379039E+02  0.84223073544E+02  0.24982859699E+02  0.10142275718E+03  0.00000000000E+00 0.  1.
         11    1    3    3    0    0 -0.23041734708E+01  0.43064572910E+02 -0.16381742038E+02  0.46132722958E+02  0.00000000000E+00 0. -1.
<mgrwt>
<rscale>  0 0.17463910E+03</rscale>
<asrwt>0</asrwt>
<pdfrwt beam="1">  1        2 0.35939294E-01 0.18483458E+03</pdfrwt>
<pdfrwt beam="2">  1       -2 0.19137441E-01 0.18483458E+03</pdfrwt>
<totfact> 0.31923580E+03</totfact>
</mgrwt>
</event>
<event>
 8    1  0.7550631E-006  0.2418080E+03  0.7546771E-02  0.1121173E+00
          2   -1    0    0  501    0  0.00000000000E+00  0.00000000000E+00  0.17644872344E+04  0.17644872344E+04  0.00000000000E+00 0. -1.
         -2   -1    0    0    0  501 -0.00000000000E+00 -0.00000000000E+00 -0.33077835289E+02  0.33077835289E+02  0.00000000000E+00 0.  1.
         23    2    1    2    0    0  0.68312238777E+02 -0.19539767757E+03  0.61981195024E+03  0.65997111016E+03  0.92456466567E+02 0.  0.
         23    2    1    2    0    0 -0.68312238777E+02  0.19539767757E+03  0.11115974489E+04  0.11375939595E+04  0.12499725625E+03 0.  0.
          5    1    4    4  502    0 -0.84906697717E+01  0.24696488777E+02  0.26454937713E+02  0.37469477718E+02  0.47000000000E+01 0. -1.
         -5    1    4    4    0  502 -0.59821569005E+02  0.17070118879E+03  0.10851425112E+04  0.11001244818E+04  0.47000000000E+01 0. -1.
        -11    1    3    3    0    0 -0.58787742191E+00 -0.15914953947E+02  0.64456903055E+01  0.17180753258E+02  0.00000000000E+00 0. -1.
         11    1    3    3    0    0  0.68900116199E+02 -0.17948272362E+03  0.61336625994E+03  0.64279035690E+03  0.00000000000E+00 0.  1.
<mgrwt>
<rscale>  0 0.23794039E+03</rscale>
<asrwt>0</asrwt>
<pdfrwt beam="1">  1        2 0.27145950E+00 0.24180804E+03</pdfrwt>
<pdfrwt beam="2">  1       -2 0.50888991E-02 0.24180804E+03</pdfrwt>
<totfact> 0.18857213E+03</totfact>
</mgrwt>
</event>
<event>
 7    1  0.7550631E-006  0.2967903E+03  0.7546771E-02  0.1110535E+00
         -2   -1    0    0    0  501 -0.00000000000E+00  0.00000000000E+00  0.26812445608E+03  0.26812445608E+03  0.00000000000E+00 0.  1.
          2   -1    0    0  501    0  0.00000000000E+00 -0.00000000000E+00 -0.21286186054E+03  0.21286186054E+03  0.00000000000E+00 0. -1.
         23    2    1    2    0    0 -0.13146956005E+03  0.10505558236E+02  0.87195851006E+02  0.18248297651E+03  0.91117003392E+02 0.  0.
          5    1    1    2  502    0  0.42040007032E+02  0.53608421924E+02 -0.13268981305E+03  0.14923103424E+03  0.47000000000E+01 0. -1.
         -5    1    1    2    0  502  0.89429553021E+02 -0.64113980160E+02  0.10075655759E+03  0.14927230588E+03  0.47000000000E+01 0.  1.
        -11    1    3    3    0    0 -0.97200172317E+02 -0.24823809098E+02  0.87717351833E+02  0.13326075495E+03  0.00000000000E+00 0.  1.
         11    1    3    3    0    0 -0.34269387736E+02  0.35329367333E+02 -0.52150082655E+00  0.49222221558E+02  0.00000000000E+00 0. -1.
<mgrwt>
<rscale>  0 0.25443243E+03</rscale>
<asrwt>0</asrwt>
<pdfrwt beam="2">  1        2 0.32747978E-01 0.29679035E+03</pdfrwt>
<pdfrwt beam="1">  1       -2 0.41249917E-01 0.29679035E+03</pdfrwt>
<totfact> 0.89565148E+02</totfact>
</mgrwt>
</event>
<event>
 8    1  0.7550631E-006  0.1438498E+03  0.7546771E-02  0.1221541E+00
          2   -1    0    0  501    0  0.00000000000E+00  0.00000000000E+00  0.36190506013E+03  0.36190506013E+03  0.00000000000E+00 0. -1.
         -2   -1    0    0    0  501 -0.00000000000E+00 -0.00000000000E+00 -0.44166677124E+02  0.44166677124E+02  0.00000000000E+00 0.  1.
         23    2    1    2    0    0  0.56709666004E+02  0.43016898421E+02  0.12447407512E+03  0.16514878467E+03  0.81938305651E+02 0.  0.
         23    2    1    2    0    0 -0.56709666004E+02 -0.43016898421E+02  0.19326430788E+03  0.24092295258E+03  0.12500534633E+03 0.  0.
          5    1    4    4  502    0  0.25251408864E+02  0.10066263421E+02  0.39665250532E+01  0.27870892161E+02  0.47000000000E+01 0.  1.
         -5    1    4    4    0  502 -0.81961074868E+02 -0.53083161843E+02  0.18929778283E+03  0.21305206042E+03  0.47000000000E+01 0.  1.
        -11    1    3    3    0    0  0.41778407472E+02  0.62953081188E+02  0.11676079247E+03  0.13907411125E+03  0.00000000000E+00 0. -1.
         11    1    3    3    0    0  0.14931258532E+02 -0.19936182767E+02  0.77132826496E+01  0.26074673419E+02  0.00000000000E+00 0.  1.
<mgrwt>
<rscale>  0 0.13406848E+03</rscale>
<asrwt>0</asrwt>
<pdfrwt beam="1">  1        2 0.55677700E-01 0.14384984E+03</pdfrwt>
<pdfrwt beam="2">  1       -2 0.67948737E-02 0.14384984E+03</pdfrwt>
<totfact> 0.10348748E+04</totfact>
</mgrwt>
</event>
<event>
 8    1  0.7550631E-006  0.2056220E+03  0.7546771E-02  0.1148900E+00
          1   -1    0    0  501    0  0.00000000000E+00  0.00000000000E+00  0.13271010761E+04  0.13271010761E+04  0.00000000000E+00 0. -1.
         -1   -1    0    0    0  501 -0.00000000000E+00 -0.00000000000E+00 -0.29938536034E+02  0.29938536034E+02  0.00000000000E+00 0.  1.
         23    2    1    2    0    0  0.10329508104E+03  0.12642560190E+03  0.50976672847E+03  0.54323829826E+03  0.92695332493E+02 0.  0.
         23    2    1    2    0    0 -0.10329508104E+03 -0.12642560190E+03  0.78739581162E+03  0.81380131389E+03  0.12500843073E+03 0.  0.
          5    1    4    4  502    0 -0.24828977169E+02 -0.10242834893E+03  0.26931033106E+03  0.28923725415E+03  0.47000000000E+01 0. -1.
         -5    1    4    4    0  502 -0.78466103873E+02 -0.23997252965E+02  0.51808548056E+03  0.52456405974E+03  0.47000000000E+01 0. -1.
        -11    1    3    3    0    0  0.71379347895E+02  0.50097685766E+02  0.37579339942E+03  0.38577904099E+03  0.00000000000E+00 0. -1.
         11    1    3    3    0    0  0.31915733147E+02  0.76327916130E+02  0.13397332905E+03  0.15745925727E+03  0.00000000000E+00 0.  1.
<mgrwt>
<rscale>  0 0.20099744E+03</rscale>
<asrwt>0</asrwt>
<pdfrwt beam="1">  1        1 0.20416935E+00 0.20562202E+03</pdfrwt>
<pdfrwt beam="2">  1       -1 0.46059296E-02 0.20562202E+03</pdfrwt>
<totfact> 0.18619946E+03</totfact>
</mgrwt>
</event>
<event>
 8    1  0.7550631E-006  0.1366685E+03  0.7546771E-02  0.1228646E+00
         -1   -1    0    0    0  501 -0.00000000000E+00  0.00000000000E+00  0.17169374431E+03  0.17169374431E+03  0.00000000000E+00 0.  1.
          1   -1    0    0  501    0  0.00000000000E+00 -0.00000000000E+00 -0.88425789466E+02  0.88425789466E+02  0.00000000000E+00 0. -1.
         23    2    1    2    0    0  0.15153085161E+02 -0.53142892534E+02  0.46035030644E+02  0.11847010508E+03  0.94139039374E+02 0.  0.
         23    2    1    2    0    0 -0.15153085161E+02  0.53142892534E+02  0.37232924196E+02  0.14164942869E+03  0.12499794794E+03 0.  0.
          5    1    4    4  502    0  0.49334232473E+02  0.54580992102E+01  0.35653528980E+02  0.61293731078E+02  0.47000000000E+01 0. -1.
         -5    1    4    4    0  502 -0.64487317634E+02  0.47684793323E+02  0.15793952165E+01  0.80355697615E+02  0.47000000000E+01 0. -1.
        -11    1    3    3    0    0  0.43802977547E+02 -0.21362370880E+02  0.56305004920E+02  0.74466806771E+02  0.00000000000E+00 0.  1.
         11    1    3    3    0    0 -0.28649892386E+02 -0.31780521654E+02 -0.10269974276E+02  0.44003298308E+02  0.00000000000E+00 0. -1.
<mgrwt>
<rscale>  0 0.12920142E+03</rscale>
<asrwt>0</asrwt>
<pdfrwt beam="2">  1        1 0.13603968E-01 0.13666847E+03</pdfrwt>
<pdfrwt beam="1">  1       -1 0.26414422E-01 0.13666847E+03</pdfrwt>
<totfact> 0.51367049E+03</totfact>
</mgrwt>
</event>
<event>
 8    1  0.7550631E-006  0.1870720E+03  0.7546771E-02  0.1166556E+00
          2   -1    0    0  501    0  0.00000000000E+00  0.00000000000E+00  0.15019290091E+04  0.15019290091E+04  0.00000000000E+00 0. -1.
         -2   -1    0    0    0  501 -0.00000000000E+00 -0.00000000000E+00 -0.21528060601E+02  0.21528060601E+02  0.00000000000E+00 0.  1.
         23    2    1    2    0    0  0.73062900698E+02 -0.11846457585E+03  0.54080048007E+03  0.56541480524E+03  0.88638025444E+02 0.  0.
         23    2    1    2    0    0 -0.73062900698E+02  0.11846457585E+03  0.93960046839E+03  0.95804226442E+03  0.12499558802E+03 0.  0.
          5    1    4    4  502    0 -0.84526118789E+02  0.85388671250E+02  0.41007133392E+03  0.42733649369E+03  0.47000000000E+01 0. -1.
         -5    1    4    4    0  502  0.11463218091E+02  0.33075904599E+02  0.52952913448E+03  0.53070577074E+03  0.47000000000E+01 0. -1.
        -11    1    3    3    0    0  0.87515315669E+02 -0.82525801277E+02  0.46478934331E+03  0.48010266819E+03  0.00000000000E+00 0. -1.
         11    1    3    3    0    0 -0.14452414971E+02 -0.35938774573E+02  0.76011136762E+02  0.85312137051E+02  0.00000000000E+00 0.  1.
<mgrwt>
<rscale>  0 0.18129469E+03</rscale>
<asrwt>0</asrwt>
<pdfrwt beam="1">  1        2 0.23106592E+00 0.18707202E+03</pdfrwt>
<pdfrwt beam="2">  1       -2 0.33120105E-02 0.18707202E+03</pdfrwt>
<totfact> 0.49383504E+03</totfact>
</mgrwt>
</event>
<event>
 8    1  0.7550631E-006  0.1731290E+03  0.7546771E-02  0.1175253E+00
          1   -1    0    0  501    0  0.00000000000E+00  0.00000000000E+00  0.13947482556E+04  0.13947482556E+04  0.00000000000E+00 0. -1.
         -1   -1    0    0    0  501 -0.00000000000E+00 -0.00000000000E+00 -0.31099501295E+02  0.31099501295E+02  0.00000000000E+00 0.  1.
         23    2    1    2    0    0  0.11645925388E+02 -0.11920609726E+03  0.27601777335E+03  0.32452363812E+03  0.12158971704E+03 0.  0.
         23    2    1    2    0    0 -0.11645925388E+02  0.11920609726E+03  0.10876309809E+04  0.11013241188E+04  0.12501177008E+03 0.  0.
          5    1    4    4  502    0 -0.86784895842E+01 -0.24991168200E+02  0.11846851038E+03  0.12147737494E+03  0.47000000000E+01 0.  1.
         -5    1    4    4    0  502 -0.29674358039E+01  0.14419726546E+03  0.96916247055E+03  0.97984674381E+03  0.47000000000E+01 0.  1.
        -11    1    3    3    0    0  0.63098633983E+02 -0.36013147478E+02  0.10984797663E+03  0.13170027476E+03  0.00000000000E+00 0.  1.
         11    1    3    3    0    0 -0.51452708595E+02 -0.83192949784E+02  0.16616979672E+03  0.19282336336E+03  0.00000000000E+00 0. -1.
<mgrwt>
<rscale>  0 0.17251211E+03</rscale>
<asrwt>0</asrwt>
<pdfrwt beam="1">  1        1 0.21457661E+00 0.17312904E+03</pdfrwt>
<pdfrwt beam="2">  1       -1 0.47845397E-02 0.17312904E+03</pdfrwt>
<totfact> 0.15852882E+03</totfact>
</mgrwt>
</event>
<event>
 8    1  0.7550631E-006  0.1255615E+03  0.7546771E-02  0.1249875E+00
          1   -1    0    0  501    0  0.00000000000E+00  0.00000000000E+00  0.13284070207E+04  0.13284070207E+04  0.00000000000E+00 0. -1.
         -1   -1    0    0    0  501 -0.00000000000E+00 -0.00000000000E+00 -0.12280712678E+02  0.12280712678E+02  0.00000000000E+00 0.  1.
         23    2    1    2    0    0 -0.81823789081E+01  0.87818841247E+01  0.23272332190E+03  0.25003301625E+03  0.90621696336E+02 0.  0.
         23    2    1    2    0    0  0.81823789081E+01 -0.87818841247E+01  0.10834029861E+04  0.10906547171E+04  0.12498643461E+03 0.  0.
          5    1    4    4  502    0 -0.36235394149E+02  0.40280804736E+02  0.34297745438E+03  0.34726239536E+03  0.47000000000E+01 0. -1.
         -5    1    4    4    0  502  0.44417773057E+02 -0.49062688861E+02  0.74042553172E+03  0.74339232175E+03  0.47000000000E+01 0. -1.
        -11    1    3    3    0    0  0.19978597457E+02  0.33801956942E+02  0.50561955193E+02  0.64017403590E+02  0.00000000000E+00 0.  1.
         11    1    3    3    0    0 -0.28160976366E+02 -0.25020072817E+02  0.18216136670E+03  0.18601561266E+03  0.00000000000E+00 0. -1.
<mgrwt>
<rscale>  0 0.11598303E+03</rscale>
<asrwt>0</asrwt>
<pdfrwt beam="1">  1        1 0.20437020E+00 0.12556147E+03</pdfrwt>
<pdfrwt beam="2">  1       -1 0.18893415E-02 0.12556147E+03</pdfrwt>
<totfact> 0.67684434E+03</totfact>
</mgrwt>
</event>
<event>
 8    1  0.7550631E-006  0.1912349E+03  0.7546771E-02  0.1162151E+00
          1   -1    0    0  501    0  0.00000000000E+00  0.00000000000E+00  0.14577111270E+04  0.14577111270E+04  0.00000000000E+00 0. -1.
         -1   -1    0    0    0  501 -0.00000000000E+00 -0.00000000000E+00 -0.25632176232E+02  0.25632176232E+02  0.00000000000E+00 0.  1.
         23    2    1    2    0    0 -0.14400143696E+03  0.14472494201E+02  0.42225385949E+03  0.45557022576E+03  0.91104565254E+02 0.  0.
         23    2    1    2    0    0  0.14400143696E+03 -0.14472494201E+02  0.10098250913E+04  0.10277730775E+04  0.12499966747E+03 0.  0.
          5    1    4    4  502    0  0.93618012867E+02 -0.60026949302E+02  0.78536633106E+03  0.79321493363E+03  0.47000000000E+01 0. -1.
         -5    1    4    4    0  502  0.50383424091E+02  0.45554455101E+02  0.22445876024E+03  0.23455814386E+03  0.47000000000E+01 0. -1.
        -11    1    3    3    0    0 -0.25042064538E+01  0.23870041125E+02  0.29688119240E+02  0.38176358355E+02  0.00000000000E+00 0.  1.
         11    1    3    3    0    0 -0.14149723050E+03 -0.93975469242E+01  0.39256574025E+03  0.41739386740E+03  0.00000000000E+00 0. -1.
<mgrwt>
<rscale>  0 0.18596597E+03</rscale>
<asrwt>0</asrwt>
<pdfrwt beam="1">  1        1 0.22426319E+00 0.19123489E+03</pdfrwt>
<pdfrwt beam="2">  1       -1 0.39434129E-02 0.19123489E+03</pdfrwt>
<totfact> 0.19186997E+03</totfact>
</mgrwt>
</event>
<event>
 8    1  0.7550631E-006  0.1599663E+03  0.7546771E-02  0.1196277E+00
         -2   -1    0    0    0  501 -0.00000000000E+00  0.00000000000E+00  0.16376547019E+02  0.16376547019E+02  0.00000000000E+00 0.  1.
          2   -1    0    0  501    0  0.00000000000E+00 -0.00000000000E+00 -0.14001289025E+04  0.14001289025E+04  0.00000000000E+00 0. -1.
         23    2    1    2    0    0  0.95342978873E+02 -0.29572152486E+02 -0.48255628210E+03  0.50122212033E+03  0.91641981069E+02 0.  0.
         23    2    1    2    0    0 -0.95342978873E+02  0.29572152486E+02 -0.90119607340E+03  0.91528332920E+03  0.12499765672E+03 0.  0.
          5    1    4    4  502    0 -0.15304988154E+02  0.15862114328E+02 -0.66669774089E+03  0.66707856886E+03  0.47000000000E+01 0. -1.
         -5    1    4    4    0  502 -0.80037990719E+02  0.13710038157E+02 -0.23449833252E+03  0.24820476034E+03  0.47000000000E+01 0. -1.
        -11    1    3    3    0    0  0.48466990980E+01 -0.41860897921E+02 -0.11462554794E+03  0.12212633421E+03  0.00000000000E+00 0. -1.
         11    1    3    3    0    0  0.90496279775E+02  0.12288745435E+02 -0.36793073416E+03  0.37909578612E+03  0.00000000000E+00 0.  1.
<mgrwt>
<rscale>  0 0.15346680E+03</rscale>
<asrwt>0</asrwt>
<pdfrwt beam="2">  1        2 0.21540465E+00 0.15996628E+03</pdfrwt>
<pdfrwt beam="1">  1       -2 0.25194664E-02 0.15996628E+03</pdfrwt>
<totfact> 0.83380600E+03</totfact>
</mgrwt>
</event>
<event>
 8    1  0.7550631E-006  0.1867151E+03  0.7546771E-02  0.1165705E+00
         -1   -1    0    0    0  501 -0.00000000000E+00  0.00000000000E+00  0.49864990339E+02  0.49864990339E+02  0.00000000000E+00 0.  1.
          1   -1    0    0  501    0  0.00000000000E+00 -0.00000000000E+00 -0.18536801854E+04  0.18536801854E+04  0.00000000000E+00 0. -1.
         23    2    1    2    0    0 -0.74016074481E+02  0.11730235636E+03 -0.11541000087E+03  0.20484725011E+03  0.96977860824E+02 0.  0.
         23    2    1    2    0    0  0.74016074481E+02 -0.11730235636E+03 -0.16884051942E+04  0.16986979256E+04  0.12499728253E+03 0.  0.
          5    1    4    4  502    0  0.38831538300E+02 -0.11309098927E+03 -0.73947279182E+03  0.74909249099E+03  0.47000000000E+01 0. -1.
         -5    1    4    4    0  502  0.35184536181E+02 -0.42113670876E+01 -0.94893240237E+03  0.94960543462E+03  0.47000000000E+01 0. -1.
        -11    1    3    3    0    0  0.10659530113E+02  0.81903253044E+01  0.11189065015E+02  0.17490059655E+02  0.00000000000E+00 0.  1.
         11    1    3    3    0    0 -0.84675604594E+02  0.10911203106E+03 -0.12659906588E+03  0.18735719046E+03  0.00000000000E+00 0. -1.
<mgrwt>
<rscale>  0 0.18218467E+03</rscale>
<asrwt>0</asrwt>
<pdfrwt beam="2">  1        1 0.28518154E+00 0.18671514E+03</pdfrwt>
<pdfrwt beam="1">  1       -1 0.76715377E-02 0.18671514E+03</pdfrwt>
<totfact> 0.39231512E+02</totfact>
</mgrwt>
</event>
<event>
 8    1  0.7550631E-006  0.3494476E+03  0.7546771E-02  0.1063979E+00
         -2   -1    0    0    0  501 -0.00000000000E+00  0.00000000000E+00  0.13306443503E+03  0.13306443503E+03  0.00000000000E+00 0.  1.
          2   -1    0    0  501    0  0.00000000000E+00 -0.00000000000E+00 -0.89961084492E+03  0.89961084492E+03  0.00000000000E+00 0. -1.
         23    2    1    2    0    0  0.24024404081E+02 -0.32543840464E+03 -0.43237722255E+03  0.54916449512E+03  0.90245514653E+02 0.  0.
         23    2    1    2    0    0 -0.24024404081E+02  0.32543840464E+03 -0.33416918733E+03  0.48351078483E+03  0.12500522421E+03 0.  0.
          5    1    4    4  502    0  0.47093730638E+02  0.10963496808E+03 -0.14479284229E+03  0.18768245221E+03  0.47000000000E+01 0. -1.
         -5    1    4    4    0  502 -0.71118134719E+02  0.21580343656E+03 -0.18937634505E+03  0.29582833262E+03  0.47000000000E+01 0. -1.
        -11    1    3    3    0    0  0.54921598807E+02 -0.18987829339E+03 -0.22499696538E+03  0.29948920305E+03  0.00000000000E+00 0.  1.
         11    1    3    3    0    0 -0.30897194726E+02 -0.13556011125E+03 -0.20738025718E+03  0.24967529207E+03  0.00000000000E+00 0. -1.
<mgrwt>
<rscale>  0 0.34669661E+03</rscale>
<asrwt>0</asrwt>
<pdfrwt beam="2">  1        2 0.13840166E+00 0.34944761E+03</pdfrwt>
<pdfrwt beam="1">  1       -2 0.20471452E-01 0.34944761E+03</pdfrwt>
<totfact> 0.61356792E+02</totfact>
</mgrwt>
</event>
<event>
 8    1  0.7550631E-006  0.1538510E+03  0.7546771E-02  0.1204022E+00
         -1   -1    0    0    0  501 -0.00000000000E+00  0.00000000000E+00  0.69080230073E+02  0.69080230073E+02  0.00000000000E+00 0.  1.
          1   -1    0    0  501    0  0.00000000000E+00 -0.00000000000E+00 -0.32276578094E+03  0.32276578094E+03  0.00000000000E+00 0. -1.
         23    2    1    2    0    0 -0.19261333333E+02 -0.87604171921E+02 -0.17989018302E+03  0.22121220218E+03  0.92351884367E+02 0.  0.
         23    2    1    2    0    0  0.19261333333E+02  0.87604171921E+02 -0.73795367845E+02  0.17063380883E+03  0.12499860200E+03 0.  0.
          5    1    4    4  502    0 -0.81436225778E+01 -0.94260713871E+00 -0.77185825309E+02  0.77762129122E+02  0.47000000000E+01 0.  1.
         -5    1    4    4    0  502  0.27404955911E+02  0.88546779060E+02  0.33904574644E+01  0.92871679710E+02  0.47000000000E+01 0.  1.
        -11    1    3    3    0    0  0.22219376494E+02  0.86687923216E+01 -0.30732019671E+02  0.38901229867E+02  0.00000000000E+00 0.  1.
         11    1    3    3    0    0 -0.41480709827E+02 -0.96272964243E+02 -0.14915816335E+03  0.18231097232E+03  0.00000000000E+00 0. -1.
<mgrwt>
<rscale>  0 0.14714819E+03</rscale>
<asrwt>0</asrwt>
<pdfrwt beam="2">  1        1 0.49656275E-01 0.15385103E+03</pdfrwt>
<pdfrwt beam="1">  1       -1 0.10627727E-01 0.15385103E+03</pdfrwt>
<totfact> 0.42871989E+03</totfact>
</mgrwt>
</event>
<event>
 8    1  0.7550631E-006  0.1251795E+03  0.7546771E-02  0.1251536E+00
          1   -1    0    0  501    0  0.00000000000E+00  0.00000000000E+00  0.17384997615E+03  0.17384997615E+03  0.00000000000E+00 0. -1.
         -1   -1    0    0    0  501 -0.00000000000E+00 -0.00000000000E+00 -0.71196768297E+02  0.71196768297E+02  0.00000000000E+00 0.  1.
         23    2    1    2    0    0  0.56957171728E+01 -0.37817010902E+01  0.11041794450E+02  0.89925674988E+02  0.88982938478E+02 0.  0.
         23    2    1    2    0    0 -0.56957171728E+01  0.37817010902E+01  0.91611413405E+02  0.15512106946E+03  0.12499261045E+03 0.  0.
          5    1    4    4  502    0 -0.38057546607E+02  0.10577306059E+02  0.11001553997E+03  0.11698617565E+03  0.47000000000E+01 0.  1.
         -5    1    4    4    0  502  0.32361829434E+02 -0.67956049693E+01 -0.18404126570E+02  0.38134893811E+02  0.47000000000E+01 0.  1.
        -11    1    3    3    0    0  0.20701277085E+01 -0.23028986871E+02  0.45074840434E+02  0.50659262778E+02  0.00000000000E+00 0. -1.
         11    1    3    3    0    0  0.36255894644E+01  0.19247285781E+02 -0.34033045984E+02  0.39266412210E+02  0.00000000000E+00 0.  1.
<mgrwt>
<rscale>  0 0.11502600E+03</rscale>
<asrwt>0</asrwt>
<pdfrwt beam="1">  1        1 0.26746150E-01 0.12517945E+03</pdfrwt>
<pdfrwt beam="2">  1       -1 0.10953349E-01 0.12517945E+03</pdfrwt>
<totfact> 0.87047674E+03</totfact>
</mgrwt>
</event>
<event>
 8    1  0.7550631E-006  0.1262043E+03  0.7546771E-02  0.1248235E+00
         -3   -1    0    0    0  501 -0.00000000000E+00  0.00000000000E+00  0.26998581582E+02  0.26998581582E+02  0.00000000000E+00 0.  1.
          3   -1    0    0  501    0  0.00000000000E+00 -0.00000000000E+00 -0.46097702127E+03  0.46097702127E+03  0.00000000000E+00 0. -1.
         23    2    1    2    0    0 -0.11817546158E+02 -0.12751100330E+02 -0.14042597358E+03  0.16844380360E+03  0.91387176130E+02 0.  0.
         23    2    1    2    0    0  0.11817546158E+02  0.12751100330E+02 -0.29355246611E+03  0.31953179924E+03  0.12500110165E+03 0.  0.
          5    1    4    4  502    0 -0.36664667287E+02 -0.17034792755E+02 -0.31872262780E+02  0.51695387862E+02  0.47000000000E+01 0.  1.
         -5    1    4    4    0  502  0.48482213446E+02  0.29785893086E+02 -0.26168020333E+03  0.26783641138E+03  0.47000000000E+01 0.  1.
        -11    1    3    3    0    0 -0.23195576383E+02 -0.40283573955E+02 -0.12797477076E+03  0.13615558397E+03  0.00000000000E+00 0. -1.
         11    1    3    3    0    0  0.11378030224E+02  0.27532473625E+02 -0.12451202814E+02  0.32288219635E+02  0.00000000000E+00 0.  1.
<mgrwt>
<rscale>  0 0.11693831E+03</rscale>
<asrwt>0</asrwt>
<pdfrwt beam="2">  1        3 0.70919545E-01 0.12620428E+03</pdfrwt>
<pdfrwt beam="1">  1       -3 0.41536277E-02 0.12620428E+03</pdfrwt>
<totfact> 0.13474913E+03</totfact>
</mgrwt>
</event>
<event>
 8    1  0.7550631E-006  0.1303688E+03  0.7546771E-02  0.1241103E+00
          2   -1    0    0  501    0  0.00000000000E+00  0.00000000000E+00  0.15183852510E+04  0.15183852510E+04  0.00000000000E+00 0. -1.
         -2   -1    0    0    0  501 -0.00000000000E+00 -0.00000000000E+00 -0.92859696521E+01  0.92859696521E+01  0.00000000000E+00 0.  1.
         23    2    1    2    0    0 -0.34868906742E+02  0.12363342778E+02  0.44046175400E+03  0.45111087346E+03  0.90143055825E+02 0.  0.
         23    2    1    2    0    0  0.34868906742E+02 -0.12363342778E+02  0.10686375273E+04  0.10765603472E+04  0.12500929322E+03 0.  0.
          5    1    4    4  502    0  0.21048549295E+02  0.52551633034E+02  0.32272639585E+03  0.32768755262E+03  0.47000000000E+01 0.  1.
         -5    1    4    4    0  502  0.13820357447E+02 -0.64914975812E+02  0.74591113150E+03  0.74887279457E+03  0.47000000000E+01 0.  1.
        -11    1    3    3    0    0  0.23800706149E+02 -0.18819772865E+02  0.11492963928E+03  0.11886748693E+03  0.00000000000E+00 0. -1.
         11    1    3    3    0    0 -0.58669612891E+02  0.31183115644E+02  0.32553211472E+03  0.33224338653E+03  0.00000000000E+00 0.  1.
<mgrwt>
<rscale>  0 0.12121713E+03</rscale>
<asrwt>0</asrwt>
<pdfrwt beam="1">  1        2 0.23359753E+00 0.13036877E+03</pdfrwt>
<pdfrwt beam="2">  1       -2 0.14286119E-02 0.13036877E+03</pdfrwt>
<totfact> 0.16320403E+04</totfact>
</mgrwt>
</event>
<event>
 8    1  0.7550631E-006  0.1304902E+03  0.7546771E-02  0.1240559E+00
         -4   -1    0    0    0  501 -0.00000000000E+00  0.00000000000E+00  0.92090414560E+02  0.92090414560E+02  0.00000000000E+00 0.  1.
          4   -1    0    0  501    0  0.00000000000E+00 -0.00000000000E+00 -0.14228570231E+03  0.14228570231E+03  0.00000000000E+00 0. -1.
         23    2    1    2    0    0 -0.36610738910E+02 -0.77912871867E+01 -0.26449037194E+02  0.10174291520E+03  0.90835119114E+02 0.  0.
         23    2    1    2    0    0  0.36610738910E+02  0.77912871867E+01 -0.23746250558E+02  0.13263320168E+03  0.12500652548E+03 0.  0.
          5    1    4    4  502    0 -0.36330753324E+02  0.36730823332E+02 -0.92759178254E+01  0.52699237862E+02  0.47000000000E+01 0.  1.
         -5    1    4    4    0  502  0.72941492234E+02 -0.28939536145E+02 -0.14470332733E+02  0.79933963814E+02  0.47000000000E+01 0.  1.
        -11    1    3    3    0    0 -0.55747854301E+02 -0.16137344174E+02  0.10808578003E+02  0.59034417881E+02  0.00000000000E+00 0.  1.
         11    1    3    3    0    0  0.19137115391E+02  0.83460569870E+01 -0.37257615197E+02  0.42708497315E+02  0.00000000000E+00 0. -1.
<mgrwt>
<rscale>  0 0.12155165E+03</rscale>
<asrwt>0</asrwt>
<pdfrwt beam="2">  1        4 0.21890108E-01 0.13049016E+03</pdfrwt>
<pdfrwt beam="1">  1       -4 0.14167756E-01 0.13049016E+03</pdfrwt>
<totfact> 0.13027861E+03</totfact>
</mgrwt>
</event>
<event>
 8    1  0.7550631E-006  0.1304663E+03  0.7546771E-02  0.1239843E+00
         -2   -1    0    0    0  501 -0.00000000000E+00  0.00000000000E+00  0.24159920281E+03  0.24159920281E+03  0.00000000000E+00 0.  1.
          2   -1    0    0  501    0  0.00000000000E+00 -0.00000000000E+00 -0.57637183228E+02  0.57637183228E+02  0.00000000000E+00 0. -1.
         23    2    1    2    0    0  0.37537143188E+02  0.78911885056E+00  0.11299924272E+03  0.15071984880E+03  0.92401212875E+02 0.  0.
         23    2    1    2    0    0 -0.37537143188E+02 -0.78911885056E+00  0.70962776868E+02  0.14851653724E+03  0.12494713404E+03 0.  0.
          5    1    4    4  502    0  0.37259885414E+02  0.21011756406E+02  0.71196046829E-02  0.43033510419E+02  0.47000000000E+01 0.  1.
         -5    1    4    4    0  502 -0.74797028601E+02 -0.21800875256E+02  0.70955657263E+02  0.10548302682E+03  0.47000000000E+01 0.  1.
        -11    1    3    3    0    0 -0.28937171526E+02 -0.47220060986E+01  0.55004331110E+02  0.62330840507E+02  0.00000000000E+00 0.  1.
         11    1    3    3    0    0  0.66474314714E+02  0.55111249492E+01  0.57994911608E+02  0.88389008295E+02  0.00000000000E+00 0. -1.
<mgrwt>
<rscale>  0 0.12199406E+03</rscale>
<asrwt>0</asrwt>
<pdfrwt beam="2">  1        2 0.88672591E-02 0.13046626E+03</pdfrwt>
<pdfrwt beam="1">  1       -2 0.37169108E-01 0.13046626E+03</pdfrwt>
<totfact> 0.48486294E+03</totfact>
</mgrwt>
</event>
<event>
 8    1  0.7550631E-006  0.1277853E+03  0.7546771E-02  0.1244123E+00
         -1   -1    0    0    0  501 -0.00000000000E+00  0.00000000000E+00  0.11053957543E+03  0.11053957543E+03  0.00000000000E+00 0.  1.
          1   -1    0    0  501    0  0.00000000000E+00 -0.00000000000E+00 -0.15244328526E+03  0.15244328526E+03  0.00000000000E+00 0. -1.
         23    2    1    2    0    0  0.18062308796E+02  0.19415499024E+02  0.46222238403E+02  0.10775639499E+03  0.93657550343E+02 0.  0.
         23    2    1    2    0    0 -0.18062308796E+02 -0.19415499024E+02 -0.88125948232E+02  0.15522646571E+03  0.12500345717E+03 0.  0.
          5    1    4    4  502    0  0.41495021568E+02  0.26233043875E+02 -0.18254278613E+02  0.52586291879E+02  0.47000000000E+01 0. -1.
         -5    1    4    4    0  502 -0.59557330364E+02 -0.45648542899E+02 -0.69871669619E+02  0.10264017383E+03  0.47000000000E+01 0. -1.
        -11    1    3    3    0    0  0.12518412353E+02 -0.61480891624E+01  0.70621535833E+02  0.71985491396E+02  0.00000000000E+00 0.  1.
         11    1    3    3    0    0  0.55438964428E+01  0.25563588186E+02 -0.24399297429E+02  0.35770903592E+02  0.00000000000E+00 0. -1.
<mgrwt>
<rscale>  0 0.11938030E+03</rscale>
<asrwt>0</asrwt>
<pdfrwt beam="2">  1        1 0.23452813E-01 0.12778526E+03</pdfrwt>
<pdfrwt beam="1">  1       -1 0.17006089E-01 0.12778526E+03</pdfrwt>
<totfact> 0.51873134E+03</totfact>
</mgrwt>
</event>
<event>
 8    1  0.7550631E-006  0.1302717E+03  0.7546771E-02  0.1240800E+00
         -1   -1    0    0    0  501 -0.00000000000E+00  0.00000000000E+00  0.25078192766E+02  0.25078192766E+02  0.00000000000E+00 0.  1.
          1   -1    0    0  501    0  0.00000000000E+00 -0.00000000000E+00 -0.52867014297E+03  0.52867014297E+03  0.00000000000E+00 0. -1.
         23    2    1    2    0    0  0.25479859500E+01 -0.36603833550E+02 -0.18324581510E+03  0.20792704199E+03  0.91149839140E+02 0.  0.
         23    2    1    2    0    0 -0.25479859500E+01  0.36603833550E+02 -0.32034613510E+03  0.34582129374E+03  0.12499755226E+03 0.  0.
          5    1    4    4  502    0 -0.23279449108E+02  0.55192251992E+02 -0.30996531357E+03  0.31573517867E+03  0.47000000000E+01 0. -1.
         -5    1    4    4    0  502  0.20731463158E+02 -0.18588418441E+02 -0.10380821529E+02  0.30086115077E+02  0.47000000000E+01 0. -1.
        -11    1    3    3    0    0  0.11579752221E+02  0.25945332992E+02 -0.96537086546E+02  0.10063130748E+03  0.00000000000E+00 0. -1.
         11    1    3    3    0    0 -0.90317662708E+01 -0.62549166542E+02 -0.86708728559E+02  0.10729573452E+03  0.00000000000E+00 0.  1.
<mgrwt>
<rscale>  0 0.12140303E+03</rscale>
<asrwt>0</asrwt>
<pdfrwt beam="2">  1        1 0.81333870E-01 0.13027172E+03</pdfrwt>
<pdfrwt beam="1">  1       -1 0.38581834E-02 0.13027172E+03</pdfrwt>
<totfact> 0.10324961E+04</totfact>
</mgrwt>
</event>
<event>
 8    1  0.7550631E-006  0.2521744E+03  0.7546771E-02  0.1114493E+00
          1   -1    0    0  501    0  0.00000000000E+00  0.00000000000E+00  0.64558398413E+02  0.64558398413E+02  0.00000000000E+00 0. -1.
         -1   -1    0    0    0  501 -0.00000000000E+00 -0.00000000000E+00 -0.93155794187E+03  0.93155794187E+03  0.00000000000E+00 0.  1.
         23    2    1    2    0    0  0.56256705234E+01  0.21894232717E+03 -0.46355069494E+03  0.52034023475E+03  0.88923125972E+02 0.  0.
         23    2    1    2    0    0 -0.56256705234E+01 -0.21894232717E+03 -0.40344884852E+03  0.47577610553E+03  0.12499815368E+03 0.  0.
          5    1    4    4  502    0  0.38166454158E+02 -0.12791773346E+02 -0.51618021794E+02  0.65626350365E+02  0.47000000000E+01 0. -1.
         -5    1    4    4    0  502 -0.43792124681E+02 -0.20615055382E+03 -0.35183082672E+03  0.41014975516E+03  0.47000000000E+01 0. -1.
        -11    1    3    3    0    0  0.18345663002E+02  0.40040109810E+02 -0.17610846000E+03  0.18153226553E+03  0.00000000000E+00 0.  1.
         11    1    3    3    0    0 -0.12719992478E+02  0.17890221736E+03 -0.28744223493E+03  0.33880796922E+03  0.00000000000E+00 0. -1.
<mgrwt>
<rscale>  0 0.24812908E+03</rscale>
<asrwt>0</asrwt>
<pdfrwt beam="1">  1        1 0.99320619E-02 0.25217440E+03</pdfrwt>
<pdfrwt beam="2">  1       -1 0.14331660E+00 0.25217440E+03</pdfrwt>
<totfact> 0.27629505E+02</totfact>
</mgrwt>
</event>
<event>
 8    1  0.7550631E-006  0.1590723E+03  0.7546771E-02  0.1198197E+00
         -2   -1    0    0    0  501 -0.00000000000E+00  0.00000000000E+00  0.13448147277E+02  0.13448147277E+02  0.00000000000E+00 0.  1.
          2   -1    0    0  501    0  0.00000000000E+00 -0.00000000000E+00 -0.16073078709E+04  0.16073078709E+04  0.00000000000E+00 0. -1.
         23    2    1    2    0    0  0.85283277060E+02  0.49072930259E+02 -0.61317319567E+03  0.62725208121E+03  0.88218000816E+02 0.  0.
         23    2    1    2    0    0 -0.85283277060E+02 -0.49072930259E+02 -0.98068652791E+03  0.99350393692E+03  0.12499046692E+03 0.  0.
          5    1    4    4  502    0 -0.29017041255E+02 -0.27700177211E+02 -0.69988265764E+02  0.80806780937E+02  0.47000000000E+01 0.  1.
         -5    1    4    4    0  502 -0.56266235806E+02 -0.21372753048E+02 -0.91069826214E+03  0.91269715598E+03  0.47000000000E+01 0.  1.
        -11    1    3    3    0    0 -0.70172640392E+01  0.28915661774E+02 -0.72196433962E+02  0.78087659507E+02  0.00000000000E+00 0.  1.
         11    1    3    3    0    0  0.92300541100E+02  0.20157268485E+02 -0.54097676171E+03  0.54916442171E+03  0.00000000000E+00 0. -1.
<mgrwt>
<rscale>  0 0.15186698E+03</rscale>
<asrwt>0</asrwt>
<pdfrwt beam="2">  1        2 0.24727823E+00 0.15907233E+03</pdfrwt>
<pdfrwt beam="1">  1       -2 0.20689450E-02 0.15907233E+03</pdfrwt>
<totfact> 0.86583823E+03</totfact>
</mgrwt>
</event>
<event>
 8    1  0.7550631E-006  0.1328303E+03  0.7546771E-02  0.1241765E+00
          1   -1    0    0  501    0  0.00000000000E+00  0.00000000000E+00  0.73777948993E+03  0.73777948993E+03  0.00000000000E+00 0. -1.
         -1   -1    0    0    0  501 -0.00000000000E+00 -0.00000000000E+00 -0.16973603989E+02  0.16973603989E+02  0.00000000000E+00 0.  1.
         23    2    1    2    0    0 -0.27933632586E+02 -0.35200495431E+02  0.30317325699E+03  0.31650556898E+03  0.79008788953E+02 0.  0.
         23    2    1    2    0    0  0.27933632586E+02  0.35200495431E+02  0.41763262895E+03  0.43824752494E+03  0.12499807056E+03 0.  0.
          5    1    4    4  502    0  0.12779093520E+02  0.74858284408E+01 -0.34822105926E+01  0.15923525026E+02  0.47000000000E+01 0.  1.
         -5    1    4    4    0  502  0.15154539065E+02  0.27714666991E+02  0.42111483955E+03  0.42232399992E+03  0.47000000000E+01 0.  1.
        -11    1    3    3    0    0 -0.10481063501E+02 -0.56946528572E+02  0.24820587106E+03  0.25487038713E+03  0.00000000000E+00 0.  1.
         11    1    3    3    0    0 -0.17452569085E+02  0.21746033141E+02  0.54967385926E+02  0.61635181841E+02  0.00000000000E+00 0. -1.
<mgrwt>
<rscale>  0 0.12081109E+03</rscale>
<asrwt>0</asrwt>
<pdfrwt beam="1">  1        1 0.11350451E+00 0.13283027E+03</pdfrwt>
<pdfrwt beam="2">  1       -1 0.26113243E-02 0.13283027E+03</pdfrwt>
<totfact> 0.11532133E+04</totfact>
</mgrwt>
</event>
<event>
 8    1  0.7550631E-006  0.1407734E+03  0.7546771E-02  0.1223800E+00
          1   -1    0    0  501    0  0.00000000000E+00  0.00000000000E+00  0.21615671607E+03  0.21615671607E+03  0.00000000000E+00 0. -1.
         -1   -1    0    0    0  501 -0.00000000000E+00 -0.00000000000E+00 -0.73391288790E+02  0.73391288790E+02  0.00000000000E+00 0.  1.
         23    2    1    2    0    0 -0.56302967669E+02 -0.32005859217E+02  0.73239245619E+02  0.13254148442E+03  0.89492227606E+02 0.  0.
         23    2    1    2    0    0  0.56302967669E+02  0.32005859217E+02  0.69526181663E+02  0.15700652044E+03  0.12499103300E+03 0.  0.
          5    1    4    4  502    0  0.15899460276E+02 -0.43733415548E+02  0.53118796315E+00  0.46773674574E+02  0.47000000000E+01 0. -1.
         -5    1    4    4    0  502  0.40403507393E+02  0.75739274765E+02  0.68994993700E+02  0.11023284586E+03  0.47000000000E+01 0. -1.
        -11    1    3    3    0    0 -0.25788609593E+02 -0.23956833454E+02 -0.15423389258E+02  0.38429977753E+02  0.00000000000E+00 0.  1.
         11    1    3    3    0    0 -0.30514358076E+02 -0.80490257633E+01  0.88662634877E+02  0.94111506671E+02  0.00000000000E+00 0. -1.
<mgrwt>
<rscale>  0 0.13249515E+03</rscale>
<asrwt>0</asrwt>
<pdfrwt beam="1">  1        1 0.33254879E-01 0.14077343E+03</pdfrwt>
<pdfrwt beam="2">  1       -1 0.11290968E-01 0.14077343E+03</pdfrwt>
<totfact> 0.63903788E+03</totfact>
</mgrwt>
</event>
<event>
 8    1  0.7550631E-006  0.1388775E+03  0.7546771E-02  0.1226362E+00
         -1   -1    0    0    0  501 -0.00000000000E+00  0.00000000000E+00  0.56245756932E+02  0.56245756932E+02  0.00000000000E+00 0.  1.
          1   -1    0    0  501    0  0.00000000000E+00 -0.00000000000E+00 -0.27440889067E+03  0.27440889067E+03  0.00000000000E+00 0. -1.
         23    2    1    2    0    0 -0.21193972414E+01 -0.60473873233E+02 -0.85469966574E+02  0.13857537976E+03  0.90754831827E+02 0.  0.
         23    2    1    2    0    0  0.21193972414E+01  0.60473873233E+02 -0.13269316717E+03  0.19207926785E+03  0.12500154933E+03 0.  0.
          5    1    4    4  502    0  0.34387138136E+02  0.38874743741E+02  0.16687903407E+01  0.52140155651E+02  0.47000000000E+01 0. -1.
         -5    1    4    4    0  502 -0.32267740895E+02  0.21599129492E+02 -0.13436195751E+03  0.13993911220E+03  0.47000000000E+01 0. -1.
        -11    1    3    3    0    0 -0.26110944802E+02 -0.87662336453E+01  0.83632333083E+01  0.28784925953E+02  0.00000000000E+00 0.  1.
         11    1    3    3    0    0  0.23991547560E+02 -0.51707639588E+02 -0.93833199883E+02  0.10979045380E+03  0.00000000000E+00 0. -1.
<mgrwt>
<rscale>  0 0.13073995E+03</rscale>
<asrwt>0</asrwt>
<pdfrwt beam="2">  1        1 0.42216753E-01 0.13887753E+03</pdfrwt>
<pdfrwt beam="1">  1       -1 0.86531932E-02 0.13887753E+03</pdfrwt>
<totfact> 0.71322282E+03</totfact>
</mgrwt>
</event>
<event>
 8    1  0.7550631E-006  0.3205826E+03  0.7546771E-02  0.1076750E+00
         -2   -1    0    0    0  501 -0.00000000000E+00  0.00000000000E+00  0.31068631599E+02  0.31068631599E+02  0.00000000000E+00 0.  1.
          2   -1    0    0  501    0  0.00000000000E+00 -0.00000000000E+00 -0.33583284726E+04  0.33583284726E+04  0.00000000000E+00 0. -1.
         23    2    1    2    0    0 -0.29342978876E+03 -0.32354919602E+02 -0.12531810201E+04  0.12906888946E+04  0.90924538355E+02 0.  0.
         23    2    1    2    0    0  0.29342978876E+03  0.32354919602E+02 -0.20740788209E+04  0.20987082096E+04  0.12500124840E+03 0.  0.
          5    1    4    4  502    0  0.67615757971E+02  0.33118478407E+02 -0.89621446208E+03  0.89938377592E+03  0.47000000000E+01 0. -1.
         -5    1    4    4    0  502  0.22581403078E+03 -0.76355880498E+00 -0.11778643588E+04  0.11993244337E+04  0.47000000000E+01 0. -1.
        -11    1    3    3    0    0 -0.16628566511E+03  0.24698492869E+02 -0.62298989366E+03  0.64527307829E+03  0.00000000000E+00 0. -1.
         11    1    3    3    0    0 -0.12714412364E+03 -0.57053412471E+02 -0.63019112648E+03  0.64541581631E+03  0.00000000000E+00 0.  1.
<mgrwt>
<rscale>  0 0.31761947E+03</rscale>
<asrwt>0</asrwt>
<pdfrwt beam="2">  1        2 0.51666589E+00 0.32058259E+03</pdfrwt>
<pdfrwt beam="1">  1       -2 0.47797897E-02 0.32058259E+03</pdfrwt>
<totfact> 0.25940517E+02</totfact>
</mgrwt>
</event>
<event>
 7    1  0.7550631E-006  0.1899395E+03  0.7546771E-02  0.1169147E+00
         -2   -1    0    0    0  501 -0.00000000000E+00  0.00000000000E+00  0.23589981089E+02  0.23589981089E+02  0.00000000000E+00 0.  1.
          2   -1    0    0  501    0  0.00000000000E+00 -0.00000000000E+00 -0.22620978083E+04  0.22620978083E+04  0.00000000000E+00 0. -1.
         23    2    1    2    0    0  0.60956710693E+02 -0.10030616215E+03 -0.27106671544E+03  0.30909942713E+03  0.91039798377E+02 0.  0.
          5    1    1    2  502    0 -0.21395610711E+02  0.68480381401E+02 -0.18027717609E+04  0.18042049348E+04  0.47000000000E+01 0. -1.
         -5    1    1    2    0  502 -0.39561099982E+02  0.31825780752E+02 -0.16466935088E+03  0.17238342748E+03  0.47000000000E+01 0.  1.
        -11    1    3    3    0    0  0.68146241314E+02 -0.28844311943E+02 -0.16693072486E+03  0.18259729308E+03  0.00000000000E+00 0. -1.
         11    1    3    3    0    0 -0.71895306211E+01 -0.71461850210E+02 -0.10413599058E+03  0.12650213405E+03  0.00000000000E+00 0.  1.
<mgrwt>
<rscale>  0 0.17861800E+03</rscale>
<asrwt>0</asrwt>
<pdfrwt beam="2">  1        2 0.34801506E+00 0.18993953E+03</pdfrwt>
<pdfrwt beam="1">  1       -2 0.36292277E-02 0.18993953E+03</pdfrwt>
<totfact> 0.17309517E+03</totfact>
</mgrwt>
</event>
<event>
 8    1  0.7550631E-006  0.1380454E+03  0.7546771E-02  0.1226231E+00
         -2   -1    0    0    0  501 -0.00000000000E+00  0.00000000000E+00  0.24262926583E+02  0.24262926583E+02  0.00000000000E+00 0.  1.
          2   -1    0    0  501    0  0.00000000000E+00 -0.00000000000E+00 -0.65934225201E+03  0.65934225201E+03  0.00000000000E+00 0. -1.
         23    2    1    2    0    0  0.36994438911E+02 -0.45426273407E+02 -0.22775238280E+03  0.25352174465E+03  0.94710043366E+02 0.  0.
         23    2    1    2    0    0 -0.36994438911E+02  0.45426273407E+02 -0.40732694263E+03  0.43008343394E+03  0.12499754851E+03 0.  0.
          5    1    4    4  502    0  0.14927476320E+02  0.31761656919E+02 -0.23512891308E+02  0.42503864027E+02  0.47000000000E+01 0.  1.
         -5    1    4    4    0  502 -0.51921915231E+02  0.13664616487E+02 -0.38381405132E+03  0.38757956992E+03  0.47000000000E+01 0.  1.
        -11    1    3    3    0    0 -0.21024699359E+02  0.10887469060E+01 -0.97799624992E+01  0.23213595574E+02  0.00000000000E+00 0.  1.
         11    1    3    3    0    0  0.58019138270E+02 -0.46515020312E+02 -0.21797242030E+03  0.23030814908E+03  0.00000000000E+00 0. -1.
<mgrwt>
<rscale>  0 0.13082881E+03</rscale>
<asrwt>0</asrwt>
<pdfrwt beam="2">  1        2 0.10143727E+00 0.13804536E+03</pdfrwt>
<pdfrwt beam="1">  1       -2 0.37327579E-02 0.13804536E+03</pdfrwt>
<totfact> 0.13117319E+04</totfact>
</mgrwt>
</event>
<event>
 8    1  0.7550631E-006  0.1197698E+03  0.7546771E-02  0.1262325E+00
         -2   -1    0    0    0  501 -0.00000000000E+00  0.00000000000E+00  0.16580593292E+02  0.16580593292E+02  0.00000000000E+00 0.  1.
          2   -1    0    0  501    0  0.00000000000E+00 -0.00000000000E+00 -0.63039426447E+03  0.63039426447E+03  0.00000000000E+00 0. -1.
         23    2    1    2    0    0  0.10420280358E+02 -0.29089381986E+02 -0.20310783650E+03  0.21916172563E+03  0.76317064591E+02 0.  0.
         23    2    1    2    0    0 -0.10420280358E+02  0.29089381986E+02 -0.41070583467E+03  0.42781313213E+03  0.11571524963E+03 0.  0.
          5    1    4    4  502    0  0.42589103511E+02  0.40762058571E+02 -0.28052903196E+03  0.28669496844E+03  0.47000000000E+01 0. -1.
         -5    1    4    4    0  502 -0.53009383869E+02 -0.11672676585E+02 -0.13017680271E+03  0.14111816368E+03  0.47000000000E+01 0.  1.
        -11    1    3    3    0    0 -0.23364944097E+01 -0.51687316192E+02 -0.16602921520E+03  0.17390439374E+03  0.00000000000E+00 0. -1.
         11    1    3    3    0    0  0.12756774768E+02  0.22597934206E+02 -0.37078621301E+02  0.45257331897E+02  0.00000000000E+00 0.  1.
<mgrwt>
<rscale>  0 0.10905777E+03</rscale>
<asrwt>0</asrwt>
<pdfrwt beam="2">  1        2 0.96983721E-01 0.11976975E+03</pdfrwt>
<pdfrwt beam="1">  1       -2 0.25508608E-02 0.11976975E+03</pdfrwt>
<totfact> 0.23896782E+04</totfact>
</mgrwt>
</event>
<event>
 8    1  0.7550631E-006  0.2028520E+03  0.7546771E-02  0.1151275E+00
          1   -1    0    0  501    0  0.00000000000E+00  0.00000000000E+00  0.14673256580E+04  0.14673256580E+04  0.00000000000E+00 0. -1.
         -1   -1    0    0    0  501 -0.00000000000E+00 -0.00000000000E+00 -0.30582070461E+02  0.30582070461E+02  0.00000000000E+00 0.  1.
         23    2    1    2    0    0  0.15781719725E+03 -0.24806829383E+02  0.38865818220E+03  0.43037226755E+03  0.92970207870E+02 0.  0.
         23    2    1    2    0    0 -0.15781719725E+03  0.24806829383E+02  0.10480854053E+04  0.10675354609E+04  0.12500918723E+03 0.  0.
          5    1    4    4  502    0 -0.13672712665E+03  0.17569282054E+02  0.10278402522E+04  0.10370538370E+04  0.47000000000E+01 0. -1.
         -5    1    4    4    0  502 -0.21090070599E+02  0.72375473290E+01  0.20245153118E+02  0.30481623874E+02  0.47000000000E+01 0. -1.
        -11    1    3    3    0    0  0.57444778589E+02 -0.50367393603E+02  0.11800399219E+03  0.14057638172E+03  0.00000000000E+00 0. -1.
         11    1    3    3    0    0  0.10037241866E+03  0.25560564220E+02  0.27065419001E+03  0.28979588583E+03  0.00000000000E+00 0.  1.
<mgrwt>
<rscale>  0 0.19819028E+03</rscale>
<asrwt>0</asrwt>
<pdfrwt beam="1">  1        1 0.22574235E+00 0.20285202E+03</pdfrwt>
<pdfrwt beam="2">  1       -1 0.47049351E-02 0.20285202E+03</pdfrwt>
<totfact> 0.14544019E+03</totfact>
</mgrwt>
</event>
<event>
 8    1  0.7550631E-006  0.1554981E+03  0.7546771E-02  0.1202156E+00
         -1   -1    0    0    0  501 -0.00000000000E+00  0.00000000000E+00  0.77603475612E+02  0.77603475612E+02  0.00000000000E+00 0.  1.
          1   -1    0    0  501    0  0.00000000000E+00 -0.00000000000E+00 -0.26259201828E+03  0.26259201828E+03  0.00000000000E+00 0. -1.
         23    2    1    2    0    0  0.58763622803E+01  0.92299924527E+02 -0.78136840495E+02  0.15152399346E+03  0.91106240451E+02 0.  0.
         23    2    1    2    0    0 -0.58763622803E+01 -0.92299924527E+02 -0.10685170218E+03  0.18867150044E+03  0.12500336443E+03 0.  0.
          5    1    4    4  502    0 -0.48599879295E+02 -0.60812670653E+02 -0.11051847231E+03  0.13526474744E+03  0.47000000000E+01 0. -1.
         -5    1    4    4    0  502  0.42723517014E+02 -0.31487253874E+02  0.36667701303E+01  0.53406752998E+02  0.47000000000E+01 0. -1.
        -11    1    3    3    0    0  0.25204229886E+02  0.80620592430E+02 -0.16747482619E+02  0.86112782454E+02  0.00000000000E+00 0.  1.
         11    1    3    3    0    0 -0.19327867606E+02  0.11679332098E+02 -0.61389357876E+02  0.65411211003E+02  0.00000000000E+00 0. -1.
<mgrwt>
<rscale>  0 0.14863878E+03</rscale>
<asrwt>0</asrwt>
<pdfrwt beam="2">  1        1 0.40398771E-01 0.15549807E+03</pdfrwt>
<pdfrwt beam="1">  1       -1 0.11938996E-01 0.15549807E+03</pdfrwt>
<totfact> 0.46327543E+03</totfact>
</mgrwt>
</event>
<event>
 8    1  0.7550631E-006  0.1711464E+03  0.7546771E-02  0.1183247E+00
         -2   -1    0    0    0  501 -0.00000000000E+00  0.00000000000E+00  0.67554300823E+02  0.67554300823E+02  0.00000000000E+00 0.  1.
          2   -1    0    0  501    0  0.00000000000E+00 -0.00000000000E+00 -0.41862233230E+03  0.41862233230E+03  0.00000000000E+00 0. -1.
         23    2    1    2    0    0  0.37357210446E+02 -0.11077847332E+03 -0.86459843986E+02  0.17104397532E+03  0.90073889371E+02 0.  0.
         23    2    1    2    0    0 -0.37357210446E+02  0.11077847332E+03 -0.26460818749E+03  0.31513265781E+03  0.12499467110E+03 0.  0.
          5    1    4    4  502    0 -0.50631890172E+02  0.13350924268E+03 -0.20576288326E+03  0.25049702655E+03  0.47000000000E+01 0. -1.
         -5    1    4    4    0  502  0.13274679726E+02 -0.22730769358E+02 -0.58845304234E+02  0.64635631256E+02  0.47000000000E+01 0. -1.
        -11    1    3    3    0    0  0.50335959376E+02 -0.41305602864E+02 -0.82546844640E+01  0.65635367371E+02  0.00000000000E+00 0.  1.
         11    1    3    3    0    0 -0.12978748930E+02 -0.69472870459E+02 -0.78205159522E+02  0.10540860795E+03  0.00000000000E+00 0. -1.
<mgrwt>
<rscale>  0 0.16492441E+03</rscale>
<asrwt>0</asrwt>
<pdfrwt beam="2">  1        2 0.64403436E-01 0.17114643E+03</pdfrwt>
<pdfrwt beam="1">  1       -2 0.10392969E-01 0.17114643E+03</pdfrwt>
<totfact> 0.46171439E+03</totfact>
</mgrwt>
</event>
<event>
 8    1  0.7550631E-006  0.1311764E+03  0.7546771E-02  0.1241052E+00
         -1   -1    0    0    0  501 -0.00000000000E+00  0.00000000000E+00  0.87812167284E+01  0.87812167284E+01  0.00000000000E+00 0.  1.
          1   -1    0    0  501    0  0.00000000000E+00 -0.00000000000E+00 -0.18494202437E+04  0.18494202437E+04  0.00000000000E+00 0. -1.
         23    2    1    2    0    0 -0.11173818223E+02  0.38263251254E+02 -0.38752348257E+03  0.39917711459E+03  0.87057387196E+02 0.  0.
         23    2    1    2    0    0  0.11173818223E+02 -0.38263251254E+02 -0.14531155444E+04  0.14590243459E+04  0.12497330008E+03 0.  0.
          5    1    4    4  502    0  0.16798636503E+02  0.44410921242E+02 -0.59086561348E+03  0.59278899055E+03  0.47000000000E+01 0. -1.
         -5    1    4    4    0  502 -0.56248182798E+01 -0.82674172495E+02 -0.86224993094E+03  0.86623535531E+03  0.47000000000E+01 0. -1.
        -11    1    3    3    0    0  0.48833088423E+01 -0.27562960907E+02 -0.11399238107E+03  0.11737898645E+03  0.00000000000E+00 0.  1.
         11    1    3    3    0    0 -0.16057127066E+02  0.65826212161E+02 -0.27353110150E+03  0.28179812814E+03  0.00000000000E+00 0. -1.
<mgrwt>
<rscale>  0 0.12124831E+03</rscale>
<asrwt>0</asrwt>
<pdfrwt beam="2">  1        1 0.28452612E+00 0.13117643E+03</pdfrwt>
<pdfrwt beam="1">  1       -1 0.13509568E-02 0.13117643E+03</pdfrwt>
<totfact> 0.50653267E+03</totfact>
</mgrwt>
</event>
<event>
 7    1  0.7550631E-006  0.2105033E+03  0.7546771E-02  0.1145111E+00
         -2   -1    0    0    0  501 -0.00000000000E+00  0.00000000000E+00  0.28677961935E+03  0.28677961935E+03  0.00000000000E+00 0.  1.
          2   -1    0    0  501    0  0.00000000000E+00 -0.00000000000E+00 -0.73840276198E+03  0.73840276198E+03  0.00000000000E+00 0. -1.
         23    2    1    2    0    0  0.99188654358E+02  0.10850314646E+03 -0.68478198654E+03  0.71105711528E+03  0.12273764766E+03 0.  0.
          5    1    3    3  502    0  0.52512612224E+02 -0.10325232738E+02 -0.32170263764E+03  0.32615772556E+03  0.47000000000E+01 0. -1.
         -5    1    3    3    0  502  0.46676042134E+02  0.11882837920E+03 -0.36307934890E+03  0.38489938972E+03  0.47000000000E+01 0.  1.
        -11    1    1    2    0    0 -0.12967168607E+03 -0.45194624161E+02  0.12850562690E+03  0.18807178514E+03  0.00000000000E+00 0.  1.
         11    1    1    2    0    0  0.30483031710E+02 -0.63308522301E+02  0.10465321702E+03  0.12605348091E+03  0.00000000000E+00 0. -1.
<mgrwt>
<rscale>  0 0.20558513E+03</rscale>
<asrwt>0</asrwt>
<pdfrwt beam="2">  1        2 0.11360042E+00 0.21050329E+03</pdfrwt>
<pdfrwt beam="1">  1       -2 0.44119941E-01 0.21050329E+03</pdfrwt>
<totfact> 0.19692171E+02</totfact>
</mgrwt>
</event>
<event>
 8    1  0.7550631E-006  0.1383023E+03  0.7546771E-02  0.1228339E+00
         -2   -1    0    0    0  501 -0.00000000000E+00  0.00000000000E+00  0.93474732394E+02  0.93474732394E+02  0.00000000000E+00 0.  1.
          2   -1    0    0  501    0  0.00000000000E+00 -0.00000000000E+00 -0.16385302826E+03  0.16385302826E+03  0.00000000000E+00 0. -1.
         23    2    1    2    0    0 -0.28690577544E+02  0.51767648364E+02 -0.10186341861E+02  0.10649471240E+03  0.87945002997E+02 0.  0.
         23    2    1    2    0    0  0.28690577544E+02 -0.51767648364E+02 -0.60191954002E+02  0.15083304825E+03  0.12499799383E+03 0.  0.
          5    1    4    4  502    0  0.17912057438E+02 -0.81169275951E+02 -0.78355010112E+02  0.11432799644E+03  0.47000000000E+01 0. -1.
         -5    1    4    4    0  502  0.10778520107E+02  0.29401627587E+02  0.18163056110E+02  0.36505051811E+02  0.47000000000E+01 0. -1.
        -11    1    3    3    0    0  0.15523343963E+02  0.56671770677E+02  0.62045387246E+01  0.59086039809E+02  0.00000000000E+00 0.  1.
         11    1    3    3    0    0 -0.44213921507E+02 -0.49041223129E+01 -0.16390880586E+02  0.47408672594E+02  0.00000000000E+00 0. -1.
<mgrwt>
<rscale>  0 0.12940623E+03</rscale>
<asrwt>0</asrwt>
<pdfrwt beam="2">  1        2 0.25208158E-01 0.13830234E+03</pdfrwt>
<pdfrwt beam="1">  1       -2 0.14380728E-01 0.13830234E+03</pdfrwt>
<totfact> 0.74238570E+03</totfact>
</mgrwt>
</event>
<event>
 8    1  0.7550631E-006  0.1969730E+03  0.7546771E-02  0.1157622E+00
         -1   -1    0    0    0  501 -0.00000000000E+00  0.00000000000E+00  0.19917589896E+03  0.19917589896E+03  0.00000000000E+00 0.  1.
          1   -1    0    0  501    0  0.00000000000E+00 -0.00000000000E+00 -0.17460917186E+03  0.17460917186E+03  0.00000000000E+00 0. -1.
         23    2    1    2    0    0 -0.15196675085E+03  0.88721866328E+01 -0.82444188244E+01  0.17409796037E+03  0.84080439484E+02 0.  0.
         23    2    1    2    0    0  0.15196675085E+03 -0.88721866328E+01  0.32811145927E+02  0.19968711045E+03  0.12500304686E+03 0.  0.
          5    1    4    4  502    0  0.88523890763E+02  0.48254689979E+02 -0.14502012749E+02  0.10196760620E+03  0.47000000000E+01 0.  1.
         -5    1    4    4    0  502  0.63442860087E+02 -0.57126876612E+02  0.47313158676E+02  0.97719504252E+02  0.47000000000E+01 0.  1.
        -11    1    3    3    0    0 -0.10163889451E+03  0.17749940643E+02  0.33107068560E+02  0.10835867874E+03  0.00000000000E+00 0.  1.
         11    1    3    3    0    0 -0.50327856338E+02 -0.88777540102E+01 -0.41351487385E+02  0.65739281626E+02  0.00000000000E+00 0. -1.
<mgrwt>
<rscale>  0 0.19093327E+03</rscale>
<asrwt>0</asrwt>
<pdfrwt beam="2">  1        1 0.26862950E-01 0.19697302E+03</pdfrwt>
<pdfrwt beam="1">  1       -1 0.30642446E-01 0.19697302E+03</pdfrwt>
<totfact> 0.17019076E+03</totfact>
</mgrwt>
</event>
<event>
 8    1  0.7550631E-006  0.1307182E+03  0.7546771E-02  0.1236632E+00
          1   -1    0    0  501    0  0.00000000000E+00  0.00000000000E+00  0.67002291676E+02  0.67002291676E+02  0.00000000000E+00 0. -1.
         -1   -1    0    0    0  501 -0.00000000000E+00 -0.00000000000E+00 -0.22436704663E+03  0.22436704663E+03  0.00000000000E+00 0.  1.
         23    2    1    2    0    0  0.38172853118E+02 -0.18409209677E+01 -0.10911389371E+03  0.15203021099E+03  0.98725820074E+02 0.  0.
         23    2    1    2    0    0 -0.38172853118E+02  0.18409209677E+01 -0.48250861252E+02  0.13933912732E+03  0.12500676416E+03 0.  0.
          5    1    4    4  502    0 -0.55809167668E+02 -0.69481447139E-01 -0.82949250881E+02  0.10008664369E+03  0.47000000000E+01 0.  1.
         -5    1    4    4    0  502  0.17636314550E+02  0.19104024149E+01  0.34698389628E+02  0.39252483630E+02  0.47000000000E+01 0.  1.
        -11    1    3    3    0    0  0.14403730523E+02  0.48037462880E+02 -0.44853913143E+02  0.67282529807E+02  0.00000000000E+00 0. -1.
         11    1    3    3    0    0  0.23769122594E+02 -0.49878383848E+02 -0.64259980562E+02  0.84747681184E+02  0.00000000000E+00 0.  1.
<mgrwt>
<rscale>  0 0.12400519E+03</rscale>
<asrwt>0</asrwt>
<pdfrwt beam="1">  1        1 0.10308045E-01 0.13071820E+03</pdfrwt>
<pdfrwt beam="2">  1       -1 0.34518007E-01 0.13071820E+03</pdfrwt>
<totfact> 0.47013822E+03</totfact>
</mgrwt>
</event>
<event>
 8    1  0.7550631E-006  0.1512738E+03  0.7546771E-02  0.1208266E+00
         -3   -1    0    0    0  501 -0.00000000000E+00  0.00000000000E+00  0.48327112176E+02  0.48327112176E+02  0.00000000000E+00 0.  1.
          3   -1    0    0  501    0  0.00000000000E+00 -0.00000000000E+00 -0.46155336865E+03  0.46155336865E+03  0.00000000000E+00 0. -1.
         23    2    1    2    0    0  0.72493361196E+02  0.44709165287E+02 -0.89718026346E+02  0.15275119052E+03  0.89606947701E+02 0.  0.
         23    2    1    2    0    0 -0.72493361196E+02 -0.44709165287E+02 -0.32350823013E+03  0.35712929030E+03  0.12501823129E+03 0.  0.
          5    1    4    4  502    0 -0.40291169528E+02  0.41021648715E+02 -0.15321005034E+03  0.16371183076E+03  0.47000000000E+01 0.  1.
         -5    1    4    4    0  502 -0.32202191667E+02 -0.85730814002E+02 -0.17029817979E+03  0.19341745955E+03  0.47000000000E+01 0.  1.
        -11    1    3    3    0    0  0.43390066032E+02 -0.19153892640E+02 -0.13872823366E+02  0.49416845930E+02  0.00000000000E+00 0.  1.
         11    1    3    3    0    0  0.29103295163E+02  0.63863057926E+02 -0.75845202980E+02  0.10333434459E+03  0.00000000000E+00 0. -1.
<mgrwt>
<rscale>  0 0.14383049E+03</rscale>
<asrwt>0</asrwt>
<pdfrwt beam="2">  1        3 0.71008210E-01 0.15127378E+03</pdfrwt>
<pdfrwt beam="1">  1       -3 0.74349404E-02 0.15127378E+03</pdfrwt>
<totfact> 0.54691871E+02</totfact>
</mgrwt>
</event>
<event>
 8    1  0.7550631E-006  0.1295380E+03  0.7546771E-02  0.1241895E+00
          1   -1    0    0  501    0  0.00000000000E+00  0.00000000000E+00  0.87079157056E+03  0.87079157056E+03  0.00000000000E+00 0. -1.
         -1   -1    0    0    0  501 -0.00000000000E+00 -0.00000000000E+00 -0.14830707090E+02  0.14830707090E+02  0.00000000000E+00 0.  1.
         23    2    1    2    0    0 -0.33119602663E+02  0.76684664882E+01  0.36862459769E+03  0.38136368808E+03  0.91643085422E+02 0.  0.
         23    2    1    2    0    0  0.33119602663E+02 -0.76684664882E+01  0.48733626578E+03  0.50425858957E+03  0.12499750298E+03 0.  0.
          5    1    4    4  502    0  0.14490268051E+02 -0.64644837663E+02  0.20139077705E+03  0.21205956235E+03  0.47000000000E+01 0.  1.
         -5    1    4    4    0  502  0.18629334613E+02  0.56976371175E+02  0.28594548873E+03  0.29219902722E+03  0.47000000000E+01 0.  1.
        -11    1    3    3    0    0 -0.89622444709E+01  0.48377707979E+02  0.21765413506E+03  0.22314579755E+03  0.00000000000E+00 0. -1.
         11    1    3    3    0    0 -0.24157358193E+02 -0.40709241490E+02  0.15097046263E+03  0.15821789054E+03  0.00000000000E+00 0.  1.
<mgrwt>
<rscale>  0 0.12073188E+03</rscale>
<asrwt>0</asrwt>
<pdfrwt beam="1">  1        1 0.13396789E+00 0.12953798E+03</pdfrwt>
<pdfrwt beam="2">  1       -1 0.22816479E-02 0.12953798E+03</pdfrwt>
<totfact> 0.10902407E+04</totfact>
</mgrwt>
</event>
<event>
 8    1  0.7550631E-006  0.1651864E+03  0.7546771E-02  0.1190191E+00
          1   -1    0    0  501    0  0.00000000000E+00  0.00000000000E+00  0.37073589933E+03  0.37073589933E+03  0.00000000000E+00 0. -1.
         -1   -1    0    0    0  501 -0.00000000000E+00 -0.00000000000E+00 -0.63451310431E+02  0.63451310431E+02  0.00000000000E+00 0.  1.
         23    2    1    2    0    0  0.10167728295E+03  0.36389184442E+02  0.15787100998E+03  0.21145205350E+03  0.90145840317E+02 0.  0.
         23    2    1    2    0    0 -0.10167728295E+03 -0.36389184442E+02  0.14941357892E+03  0.22273515626E+03  0.12499635856E+03 0.  0.
          5    1    4    4  502    0  0.49431854322E+00  0.18805863422E+02  0.90271097206E+02  0.92330200047E+02  0.47000000000E+01 0. -1.
         -5    1    4    4    0  502 -0.10217160150E+03 -0.55195047864E+02  0.59142481717E+02  0.13040495621E+03  0.47000000000E+01 0. -1.
        -11    1    3    3    0    0  0.41344432547E+02  0.60184780240E+02  0.62474218270E+02  0.96096814846E+02  0.00000000000E+00 0.  1.
         11    1    3    3    0    0  0.60332850406E+02 -0.23795595798E+02  0.95396791708E+02  0.11535523866E+03  0.00000000000E+00 0. -1.
<mgrwt>
<rscale>  0 0.15868389E+03</rscale>
<asrwt>0</asrwt>
<pdfrwt beam="1">  1        1 0.57036291E-01 0.16518636E+03</pdfrwt>
<pdfrwt beam="2">  1       -1 0.97617403E-02 0.16518636E+03</pdfrwt>
<totfact> 0.41198074E+03</totfact>
</mgrwt>
</event>
<event>
 8    1  0.7550631E-006  0.1250676E+03  0.7546771E-02  0.1250398E+00
         -1   -1    0    0    0  501 -0.00000000000E+00  0.00000000000E+00  0.10333023881E+03  0.10333023881E+03  0.00000000000E+00 0.  1.
          1   -1    0    0  501    0  0.00000000000E+00 -0.00000000000E+00 -0.19553771760E+03  0.19553771760E+03  0.00000000000E+00 0. -1.
         23    2    1    2    0    0  0.21690436701E+01  0.32255253311E+01  0.54147114693E+02  0.10635410308E+03  0.91455871594E+02 0.  0.
         23    2    1    2    0    0 -0.21690436701E+01 -0.32255253311E+01 -0.14635459348E+03  0.19251385333E+03  0.12500723149E+03 0.  0.
          5    1    4    4  502    0  0.15997046391E+02 -0.60572683411E+02 -0.57885029835E+02  0.85426706291E+02  0.47000000000E+01 0.  1.
         -5    1    4    4    0  502 -0.18166090062E+02  0.57347158079E+02 -0.88469563650E+02  0.10708714704E+03  0.47000000000E+01 0.  1.
        -11    1    3    3    0    0  0.13332402790E+02 -0.27244170586E+02  0.65332527395E+02  0.72030111279E+02  0.00000000000E+00 0.  1.
         11    1    3    3    0    0 -0.11163359120E+02  0.30469695917E+02 -0.11185412702E+02  0.34323991805E+02  0.00000000000E+00 0. -1.
<mgrwt>
<rscale>  0 0.11568035E+03</rscale>
<asrwt>0</asrwt>
<pdfrwt beam="2">  1        1 0.30082725E-01 0.12506765E+03</pdfrwt>
<pdfrwt beam="1">  1       -1 0.15896960E-01 0.12506765E+03</pdfrwt>
<totfact> 0.42219878E+03</totfact>
</mgrwt>
</event>
<event>
 8    1  0.7550631E-006  0.1740744E+03  0.7546771E-02  0.1183726E+00
         -2   -1    0    0    0  501 -0.00000000000E+00  0.00000000000E+00  0.27961846359E+02  0.27961846359E+02  0.00000000000E+00 0. -1.
          2   -1    0    0  501    0  0.00000000000E+00 -0.00000000000E+00 -0.11628576206E+04  0.11628576206E+04  0.00000000000E+00 0.  1.
         23    2    1    2    0    0 -0.55573361481E+01  0.12100600121E+03 -0.22445122897E+03  0.26388302320E+03  0.67694604172E+02 0.  0.
         23    2    1    2    0    0  0.55573361481E+01 -0.12100600121E+03 -0.91044454523E+03  0.92693644372E+03  0.12501425694E+03 0.  0.
          5    1    4    4  502    0  0.57622306003E+02 -0.55268609913E+02 -0.60090581952E+03  0.60620528150E+03  0.47000000000E+01 0. -1.
         -5    1    4    4    0  502 -0.52064969855E+02 -0.65737391295E+02 -0.30953872571E+03  0.32073116221E+03  0.47000000000E+01 0. -1.
        -11    1    3    3    0    0  0.25895134462E+02  0.38210527762E+02 -0.48836275106E+02  0.67198096602E+02  0.00000000000E+00 0. -1.
         11    1    3    3    0    0 -0.31452470610E+02  0.82795473446E+02 -0.17561495386E+03  0.19668492660E+03  0.00000000000E+00 0.  1.
<mgrwt>
<rscale>  0 0.16448325E+03</rscale>
<asrwt>0</asrwt>
<pdfrwt beam="2">  1        2 0.17890117E+00 0.17407441E+03</pdfrwt>
<pdfrwt beam="1">  1       -2 0.43018226E-02 0.17407441E+03</pdfrwt>
<totfact> 0.51009894E+03</totfact>
</mgrwt>
</event>
<event>
 8    1  0.7550631E-006  0.1264872E+03  0.7546771E-02  0.1249209E+00
         -1   -1    0    0    0  501 -0.00000000000E+00  0.00000000000E+00  0.17364776107E+02  0.17364776107E+02  0.00000000000E+00 0.  1.
          1   -1    0    0  501    0  0.00000000000E+00 -0.00000000000E+00 -0.82755341041E+03  0.82755341041E+03  0.00000000000E+00 0. -1.
         23    2    1    2    0    0 -0.10968593642E+02  0.15936962716E+02 -0.17300511832E+03  0.19530149288E+03  0.88530250928E+02 0.  0.
         23    2    1    2    0    0  0.10968593642E+02 -0.15936962716E+02 -0.63718351599E+03  0.64961669364E+03  0.12499887512E+03 0.  0.
          5    1    4    4  502    0 -0.10023099874E+02  0.34091388145E+02 -0.51008746809E+03  0.51134528489E+03  0.47000000000E+01 0. -1.
         -5    1    4    4    0  502  0.20991693516E+02 -0.50028350861E+02 -0.12709604790E+03  0.13827140875E+03  0.47000000000E+01 0. -1.
        -11    1    3    3    0    0  0.36904346227E+01 -0.18243222878E+02 -0.27697583056E+00  0.18614811422E+02  0.00000000000E+00 0.  1.
         11    1    3    3    0    0 -0.14659028265E+02  0.34180185594E+02 -0.17272814249E+03  0.17668668146E+03  0.00000000000E+00 0. -1.
<mgrwt>
<rscale>  0 0.11636984E+03</rscale>
<asrwt>0</asrwt>
<pdfrwt beam="2">  1        1 0.12731590E+00 0.12648722E+03</pdfrwt>
<pdfrwt beam="1">  1       -1 0.26715041E-02 0.12648722E+03</pdfrwt>
<totfact> 0.93733348E+03</totfact>
</mgrwt>
</event>
<event>
 8    1  0.7550631E-006  0.1334162E+03  0.7546771E-02  0.1236303E+00
         -2   -1    0    0    0  501 -0.00000000000E+00  0.00000000000E+00  0.22691935015E+03  0.22691935015E+03  0.00000000000E+00 0.  1.
          2   -1    0    0  501    0  0.00000000000E+00 -0.00000000000E+00 -0.66988521714E+02  0.66988521714E+02  0.00000000000E+00 0. -1.
         23    2    1    2    0    0 -0.38304597664E+02 -0.27181142884E+02  0.11629840362E+03  0.15353807607E+03  0.88558259856E+02 0.  0.
         23    2    1    2    0    0  0.38304597664E+02  0.27181142884E+02  0.43632424820E+02  0.14036979579E+03  0.12487527516E+03 0.  0.
          5    1    4    4  502    0  0.39576951974E+02  0.37433146362E+02  0.83004105433E+02  0.99394904763E+02  0.47000000000E+01 0. -1.
         -5    1    4    4    0  502 -0.12723543104E+01 -0.10252003478E+02 -0.39371680613E+02  0.40974891032E+02  0.47000000000E+01 0. -1.
        -11    1    3    3    0    0  0.24069191610E+02  0.94767397318E+01  0.18123244517E+02  0.31584593911E+02  0.00000000000E+00 0.  1.
         11    1    3    3    0    0 -0.62373789274E+02 -0.36657882615E+02  0.98175159101E+02  0.12195348216E+03  0.00000000000E+00 0. -1.
<mgrwt>
<rscale>  0 0.12421379E+03</rscale>
<asrwt>0</asrwt>
<pdfrwt beam="2">  1        2 0.10305927E-01 0.13341623E+03</pdfrwt>
<pdfrwt beam="1">  1       -2 0.34910669E-01 0.13341623E+03</pdfrwt>
<totfact> 0.45329678E+03</totfact>
</mgrwt>
</event>
<event>
 8    1  0.7550631E-006  0.1604209E+03  0.7546771E-02  0.1195741E+00
          2   -1    0    0  501    0  0.00000000000E+00  0.00000000000E+00  0.10987693350E+04  0.10987693350E+04  0.00000000000E+00 0.  1.
         -2   -1    0    0    0  501 -0.00000000000E+00 -0.00000000000E+00 -0.22429014058E+02  0.22429014058E+02  0.00000000000E+00 0. -1.
         23    2    1    2    0    0 -0.81260850062E+01 -0.10024496932E+03  0.31405698788E+03  0.34221776672E+03  0.91466502563E+02 0.  0.
         23    2    1    2    0    0  0.81260850062E+01  0.10024496932E+03  0.76228333304E+03  0.77898058232E+03  0.12497912090E+03 0.  0.
          5    1    4    4  502    0 -0.30920872155E+02  0.93875792023E+02  0.32105360609E+03  0.33595575995E+03  0.47000000000E+01 0. -1.
         -5    1    4    4    0  502  0.39046957162E+02  0.63691773006E+01  0.44122972696E+03  0.44302482237E+03  0.47000000000E+01 0. -1.
        -11    1    3    3    0    0 -0.20183370386E+02 -0.79239095568E+02  0.30593174103E+03  0.31667085890E+03  0.00000000000E+00 0.  1.
         11    1    3    3    0    0  0.12057285379E+02 -0.21005873756E+02  0.81252468529E+01  0.25546907824E+02  0.00000000000E+00 0. -1.
<mgrwt>
<rscale>  0 0.15391715E+03</rscale>
<asrwt>0</asrwt>
<pdfrwt beam="1">  1        2 0.16904139E+00 0.16042091E+03</pdfrwt>
<pdfrwt beam="2">  1       -2 0.34506184E-02 0.16042091E+03</pdfrwt>
<totfact> 0.76882802E+03</totfact>
</mgrwt>
</event>
<event>
 8    1  0.7550631E-006  0.2515104E+03  0.7546771E-02  0.1114544E+00
         -1   -1    0    0    0  501 -0.00000000000E+00  0.00000000000E+00  0.41757218399E+02  0.41757218399E+02  0.00000000000E+00 0.  1.
          1   -1    0    0  501    0  0.00000000000E+00 -0.00000000000E+00 -0.15080017913E+04  0.15080017913E+04  0.00000000000E+00 0. -1.
         23    2    1    2    0    0 -0.77007286484E+02 -0.20421669038E+03 -0.54255771957E+03  0.59244251321E+03  0.94787518129E+02 0.  0.
         23    2    1    2    0    0  0.77007286484E+02  0.20421669038E+03 -0.92368685337E+03  0.95731649653E+03  0.12499157026E+03 0.  0.
          5    1    4    4  502    0  0.91022083515E+02  0.99904671504E+02 -0.65286784044E+03  0.66672668325E+03  0.47000000000E+01 0.  1.
         -5    1    4    4    0  502 -0.14014797032E+02  0.10431201887E+03 -0.27081901293E+03  0.29058981328E+03  0.47000000000E+01 0.  1.
        -11    1    3    3    0    0 -0.53088781165E+02 -0.74919270574E+02 -0.32968541246E+03  0.34223352696E+03  0.00000000000E+00 0.  1.
         11    1    3    3    0    0 -0.23918505319E+02 -0.12929741980E+03 -0.21287230712E+03  0.25020898625E+03  0.00000000000E+00 0. -1.
<mgrwt>
<rscale>  0 0.24804898E+03</rscale>
<asrwt>0</asrwt>
<pdfrwt beam="2">  1        1 0.23200027E+00 0.25151038E+03</pdfrwt>
<pdfrwt beam="1">  1       -1 0.64241875E-02 0.25151038E+03</pdfrwt>
<totfact> 0.85337837E+02</totfact>
</mgrwt>
</event>
<event>
 8    1  0.7550631E-006  0.1289954E+03  0.7546771E-02  0.1243333E+00
         -1   -1    0    0    0  501 -0.00000000000E+00  0.00000000000E+00  0.12476419153E+02  0.12476419153E+02  0.00000000000E+00 0.  1.
          1   -1    0    0  501    0  0.00000000000E+00 -0.00000000000E+00 -0.10901431558E+04  0.10901431558E+04  0.00000000000E+00 0. -1.
         23    2    1    2    0    0 -0.16904361981E+02 -0.27012064345E+02 -0.32293820626E+03  0.33694668224E+03  0.90711479617E+02 0.  0.
         23    2    1    2    0    0  0.16904361981E+02  0.27012064345E+02 -0.75472853037E+03  0.76567289270E+03  0.12499765991E+03 0.  0.
          5    1    4    4  502    0 -0.37169997299E+02  0.26091071502E+02 -0.59930705420E+03  0.60104358239E+03  0.47000000000E+01 0. -1.
         -5    1    4    4    0  502  0.54074359280E+02  0.92099284281E+00 -0.15542147617E+03  0.16462931031E+03  0.47000000000E+01 0. -1.
        -11    1    3    3    0    0  0.22401803974E+02 -0.46472100822E+02 -0.15418362214E+03  0.16258562763E+03  0.00000000000E+00 0. -1.
         11    1    3    3    0    0 -0.39306165955E+02  0.19460036477E+02 -0.16875458412E+03  0.17436105460E+03  0.00000000000E+00 0.  1.
<mgrwt>
<rscale>  0 0.11985693E+03</rscale>
<asrwt>0</asrwt>
<pdfrwt beam="2">  1        1 0.16771437E+00 0.12899544E+03</pdfrwt>
<pdfrwt beam="1">  1       -1 0.19194487E-02 0.12899544E+03</pdfrwt>
<totfact> 0.96299972E+03</totfact>
</mgrwt>
</event>
<event>
 8    1  0.7550631E-006  0.1522311E+03  0.7546771E-02  0.1199852E+00
          1   -1    0    0  501    0  0.00000000000E+00  0.00000000000E+00  0.16922719522E+04  0.16922719522E+04  0.00000000000E+00 0. -1.
         -1   -1    0    0    0  501 -0.00000000000E+00 -0.00000000000E+00 -0.15091489105E+02  0.15091489105E+02  0.00000000000E+00 0.  1.
         23    2    1    2    0    0  0.76705817577E+02  0.58910833244E+02  0.51127269060E+03  0.53155936187E+03  0.10863389119E+03 0.  0.
         23    2    1    2    0    0 -0.76705817577E+02 -0.58910833244E+02  0.11659077725E+04  0.11758040794E+04  0.11755862592E+03 0.  0.
          5    1    4    4  502    0 -0.58328169722E+02 -0.72932170545E+02  0.11226115002E+04  0.11264989779E+04  0.47000000000E+01 0. -1.
         -5    1    4    4    0  502 -0.18377647855E+02  0.14021337300E+02  0.43296272299E+02  0.49305101515E+02  0.47000000000E+01 0.  1.
        -11    1    3    3    0    0  0.42594170437E+02 -0.22186029755E+02  0.99387560477E+02  0.11038283584E+03  0.00000000000E+00 0. -1.
         11    1    3    3    0    0  0.34111647141E+02  0.81096862999E+02  0.41188513012E+03  0.42117652603E+03  0.00000000000E+00 0.  1.
<mgrwt>
<rscale>  0 0.15050663E+03</rscale>
<asrwt>0</asrwt>
<pdfrwt beam="1">  1        1 0.26034938E+00 0.15223107E+03</pdfrwt>
<pdfrwt beam="2">  1       -1 0.23217689E-02 0.15223107E+03</pdfrwt>
<totfact> 0.29320947E+03</totfact>
</mgrwt>
</event>
<event>
 8    1  0.7550631E-006  0.1258579E+03  0.7546771E-02  0.1245721E+00
          1   -1    0    0  501    0  0.00000000000E+00  0.00000000000E+00  0.30702386965E+03  0.30702386965E+03  0.00000000000E+00 0.  1.
         -1   -1    0    0    0  501 -0.00000000000E+00 -0.00000000000E+00 -0.43485298062E+02  0.43485298062E+02  0.00000000000E+00 0. -1.
         23    2    1    2    0    0  0.14123207174E+02 -0.40035791778E+01  0.75454741412E+02  0.12420021599E+03  0.97553995423E+02 0.  0.
         23    2    1    2    0    0 -0.14123207174E+02  0.40035791778E+01  0.18808383018E+03  0.22630895172E+03  0.12499888331E+03 0.  0.
          5    1    4    4  502    0  0.25086746657E+02 -0.50313143068E+02  0.64773439970E+02  0.85897879769E+02  0.47000000000E+01 0.  1.
         -5    1    4    4    0  502 -0.39209953830E+02  0.54316722246E+02  0.12331039021E+03  0.14041107196E+03  0.47000000000E+01 0.  1.
        -11    1    3    3    0    0 -0.29683476145E+02 -0.18715125147E+02  0.69172496732E+02  0.77564160341E+02  0.00000000000E+00 0.  1.
         11    1    3    3    0    0  0.43806683319E+02  0.14711545969E+02  0.62822446807E+01  0.46636055648E+02  0.00000000000E+00 0. -1.
<mgrwt>
<rscale>  0 0.11842331E+03</rscale>
<asrwt>0</asrwt>
<pdfrwt beam="1">  1        1 0.47234440E-01 0.12585791E+03</pdfrwt>
<pdfrwt beam="2">  1       -1 0.66900460E-02 0.12585791E+03</pdfrwt>
<totfact> 0.90782308E+03</totfact>
</mgrwt>
</event>
<event>
 8    1  0.7550631E-006  0.1595099E+03  0.7546771E-02  0.1196857E+00
         -2   -1    0    0    0  501 -0.00000000000E+00  0.00000000000E+00  0.40150689638E+02  0.40150689638E+02  0.00000000000E+00 0.  1.
          2   -1    0    0  501    0  0.00000000000E+00 -0.00000000000E+00 -0.60266961116E+03  0.60266961116E+03  0.00000000000E+00 0. -1.
         23    2    1    2    0    0 -0.40033287497E+02  0.90656625429E+02 -0.15684875386E+03  0.20691698840E+03  0.91606881064E+02 0.  0.
         23    2    1    2    0    0  0.40033287497E+02 -0.90656625429E+02 -0.40567016766E+03  0.43590331240E+03  0.12498849942E+03 0.  0.
          5    1    4    4  502    0 -0.41763860196E+02 -0.42113760738E+02 -0.10714296678E+03  0.12255404601E+03  0.47000000000E+01 0.  1.
         -5    1    4    4    0  502  0.81797147694E+02 -0.48542864691E+02 -0.29852720088E+03  0.31334926639E+03  0.47000000000E+01 0.  1.
        -11    1    3    3    0    0  0.12151631007E+02  0.80842478934E+02 -0.91062884384E+02  0.12237490531E+03  0.00000000000E+00 0. -1.
         11    1    3    3    0    0 -0.52184918505E+02  0.98141464949E+01 -0.65785869477E+02  0.84542083092E+02  0.00000000000E+00 0.  1.
<mgrwt>
<rscale>  0 0.15298145E+03</rscale>
<asrwt>0</asrwt>
<pdfrwt beam="2">  1        2 0.92718391E-01 0.15950991E+03</pdfrwt>
<pdfrwt beam="1">  1       -2 0.61770299E-02 0.15950991E+03</pdfrwt>
<totfact> 0.68901373E+03</totfact>
</mgrwt>
</event>
<event>
 8    1  0.7550631E-006  0.1299351E+03  0.7546771E-02  0.1241379E+00
         -2   -1    0    0    0  501 -0.00000000000E+00  0.00000000000E+00  0.27349160659E+02  0.27349160659E+02  0.00000000000E+00 0.  1.
          2   -1    0    0  501    0  0.00000000000E+00 -0.00000000000E+00 -0.47810206218E+03  0.47810206218E+03  0.00000000000E+00 0. -1.
         23    2    1    2    0    0  0.31195783325E+02 -0.16857781633E+02 -0.17179963014E+03  0.19772071451E+03  0.91219550160E+02 0.  0.
         23    2    1    2    0    0 -0.31195783325E+02  0.16857781633E+02 -0.27895327138E+03  0.30773050833E+03  0.12500310573E+03 0.  0.
          5    1    4    4  502    0 -0.34595386101E+02  0.16035175764E+02 -0.11346988603E+02  0.40060101742E+02  0.47000000000E+01 0.  1.
         -5    1    4    4    0  502  0.33996027760E+01  0.82260586919E+00 -0.26760628278E+03  0.26767040659E+03  0.47000000000E+01 0.  1.
        -11    1    3    3    0    0 -0.12798909598E+02 -0.33652629143E+02 -0.25744558127E+02  0.44261651666E+02  0.00000000000E+00 0.  1.
         11    1    3    3    0    0  0.43994692923E+02  0.16794847509E+02 -0.14605507201E+03  0.15345906284E+03  0.00000000000E+00 0. -1.
<mgrwt>
<rscale>  0 0.12104765E+03</rscale>
<asrwt>0</asrwt>
<pdfrwt beam="2">  1        2 0.73554152E-01 0.12993513E+03</pdfrwt>
<pdfrwt beam="1">  1       -2 0.42075638E-02 0.12993513E+03</pdfrwt>
<totfact> 0.15681903E+04</totfact>
</mgrwt>
</event>
<event>
 8    1  0.7550631E-006  0.1337393E+03  0.7546771E-02  0.1233812E+00
         -2   -1    0    0    0  501 -0.00000000000E+00  0.00000000000E+00  0.65629825375E+02  0.65629825375E+02  0.00000000000E+00 0.  1.
          2   -1    0    0  501    0  0.00000000000E+00 -0.00000000000E+00 -0.22106325097E+03  0.22106325097E+03  0.00000000000E+00 0. -1.
         23    2    1    2    0    0  0.53805310348E+01 -0.47244840389E+02 -0.48270239473E+02  0.11531584128E+03  0.93309711035E+02 0.  0.
         23    2    1    2    0    0 -0.53805310348E+01  0.47244840389E+02 -0.10716318613E+03  0.17137723507E+03  0.12500073273E+03 0.  0.
          5    1    4    4  502    0 -0.29992178730E+02  0.42035042802E+02 -0.12817416888E+03  0.13826490218E+03  0.47000000000E+01 0.  1.
         -5    1    4    4    0  502  0.24611647695E+02  0.52097975869E+01  0.21010982750E+02  0.33112332888E+02  0.47000000000E+01 0.  1.
        -11    1    3    3    0    0  0.83830960624E+01 -0.71152157762E+02 -0.54974267612E+02  0.90305459155E+02  0.00000000000E+00 0. -1.
         11    1    3    3    0    0 -0.30025650276E+01  0.23907317372E+02  0.67040281384E+01  0.25010382124E+02  0.00000000000E+00 0.  1.
<mgrwt>
<rscale>  0 0.12580820E+03</rscale>
<asrwt>0</asrwt>
<pdfrwt beam="2">  1        2 0.34009731E-01 0.13373933E+03</pdfrwt>
<pdfrwt beam="1">  1       -2 0.10096896E-01 0.13373933E+03</pdfrwt>
<totfact> 0.94138402E+03</totfact>
</mgrwt>
</event>
<event>
 8    1  0.7550631E-006  0.2702069E+03  0.7546771E-02  0.1103214E+00
         -1   -1    0    0    0  501 -0.00000000000E+00  0.00000000000E+00  0.32417332968E+03  0.32417332968E+03  0.00000000000E+00 0.  1.
          1   -1    0    0  501    0  0.00000000000E+00 -0.00000000000E+00 -0.22934345645E+03  0.22934345645E+03  0.00000000000E+00 0. -1.
         23    2    1    2    0    0 -0.23418400896E+03  0.50453497927E+02  0.11840891783E+03  0.28228302744E+03  0.90968842204E+02 0.  0.
         23    2    1    2    0    0  0.23418400896E+03 -0.50453497927E+02 -0.23579044603E+02  0.27123375869E+03  0.12499629995E+03 0.  0.
          5    1    4    4  502    0  0.21101872505E+03 -0.50458146272E+02 -0.62374746391E+02  0.22580439729E+03  0.47000000000E+01 0. -1.
         -5    1    4    4    0  502  0.23165283914E+02  0.46483452781E-02  0.38795701788E+02  0.45429361405E+02  0.47000000000E+01 0. -1.
        -11    1    3    3    0    0 -0.11629539722E+03  0.43031321358E+02  0.10668838524E+03  0.16358094503E+03  0.00000000000E+00 0. -1.
         11    1    3    3    0    0 -0.11788861175E+03  0.74221765694E+01  0.11720532590E+02  0.11870208241E+03  0.00000000000E+00 0.  1.
<mgrwt>
<rscale>  0 0.26664747E+03</rscale>
<asrwt>0</asrwt>
<pdfrwt beam="2">  1        1 0.35283609E-01 0.27020692E+03</pdfrwt>
<pdfrwt beam="1">  1       -1 0.49872820E-01 0.27020692E+03</pdfrwt>
<totfact> 0.51070610E+02</totfact>
</mgrwt>
</event>
<event>
 8    1  0.7550631E-006  0.1252720E+03  0.7546771E-02  0.1249680E+00
          2   -1    0    0  501    0  0.00000000000E+00  0.00000000000E+00  0.75654500111E+03  0.75654500111E+03  0.00000000000E+00 0. -1.
         -2   -1    0    0    0  501 -0.00000000000E+00 -0.00000000000E+00 -0.21673193577E+02  0.21673193577E+02  0.00000000000E+00 0.  1.
         23    2    1    2    0    0 -0.60515568586E+01  0.55314859214E+01  0.12406233771E+03  0.15469491143E+03  0.92042562478E+02 0.  0.
         23    2    1    2    0    0  0.60515568586E+01 -0.55314859214E+01  0.61080946983E+03  0.62352328326E+03  0.12500343059E+03 0.  0.
          5    1    4    4  502    0  0.40160522165E+02 -0.31750212300E+02  0.52408257767E+03  0.52659812166E+03  0.47000000000E+01 0.  1.
         -5    1    4    4    0  502 -0.34108965306E+02  0.26218726378E+02  0.86726892158E+02  0.96925161597E+02  0.47000000000E+01 0.  1.
        -11    1    3    3    0    0 -0.17430767326E+02 -0.32436006963E+02  0.10388612548E+03  0.11021911479E+03  0.00000000000E+00 0. -1.
         11    1    3    3    0    0  0.11379210467E+02  0.37967492884E+02  0.20176212221E+02  0.44475796635E+02  0.00000000000E+00 0.  1.
<mgrwt>
<rscale>  0 0.11609586E+03</rscale>
<asrwt>0</asrwt>
<pdfrwt beam="1">  1        2 0.11639152E+00 0.12527201E+03</pdfrwt>
<pdfrwt beam="2">  1       -2 0.33343380E-02 0.12527201E+03</pdfrwt>
<totfact> 0.13068796E+04</totfact>
</mgrwt>
</event>
<event>
 8    1  0.7550631E-006  0.1682148E+03  0.7546771E-02  0.1186375E+00
          1   -1    0    0  501    0  0.00000000000E+00  0.00000000000E+00  0.20299650070E+04  0.20299650070E+04  0.00000000000E+00 0. -1.
         -1   -1    0    0    0  501 -0.00000000000E+00 -0.00000000000E+00 -0.19240408381E+02  0.19240408381E+02  0.00000000000E+00 0.  1.
         23    2    1    2    0    0  0.14380174615E+02  0.11163595190E+03  0.33450317516E+03  0.36456466257E+03  0.91354495394E+02 0.  0.
         23    2    1    2    0    0 -0.14380174615E+02 -0.11163595190E+03  0.16762214235E+04  0.16846407528E+04  0.12500732128E+03 0.  0.
          5    1    4    4  502    0 -0.24915862771E+02  0.96437369953E+01  0.96843120701E+02  0.10057078059E+03  0.47000000000E+01 0. -1.
         -5    1    4    4    0  502  0.10535688156E+02 -0.12127968889E+03  0.15793783028E+04  0.15840699722E+04  0.47000000000E+01 0. -1.
        -11    1    3    3    0    0  0.16672342419E+02 -0.10624578501E+01  0.68360426016E+01  0.18050686881E+02  0.00000000000E+00 0.  1.
         11    1    3    3    0    0 -0.22921678036E+01  0.11269840975E+03  0.32766713256E+03  0.34651397569E+03  0.00000000000E+00 0. -1.
<mgrwt>
<rscale>  0 0.16207435E+03</rscale>
<asrwt>0</asrwt>
<pdfrwt beam="1">  1        1 0.31230214E+00 0.16821476E+03</pdfrwt>
<pdfrwt beam="2">  1       -1 0.29600644E-02 0.16821476E+03</pdfrwt>
<totfact> 0.12513164E+03</totfact>
</mgrwt>
</event>
<event>
 8    1  0.7550631E-006  0.1516465E+03  0.7546771E-02  0.1205341E+00
         -1   -1    0    0    0  501 -0.00000000000E+00  0.00000000000E+00  0.11599378110E+03  0.11599378110E+03  0.00000000000E+00 0.  1.
          1   -1    0    0  501    0  0.00000000000E+00 -0.00000000000E+00 -0.17388946042E+03  0.17388946042E+03  0.00000000000E+00 0. -1.
         23    2    1    2    0    0 -0.49641096368E+02  0.78465511993E+02 -0.42730008312E+02  0.13748031375E+03  0.91945136023E+02 0.  0.
         23    2    1    2    0    0  0.49641096368E+02 -0.78465511993E+02 -0.15165671014E+02  0.15240292777E+03  0.11989820596E+03 0.  0.
          5    1    4    4  502    0  0.34427013791E+02 -0.45082753784E+02 -0.67514664767E+02  0.88306250775E+02  0.47000000000E+01 0. -1.
         -5    1    4    4    0  502  0.15214082577E+02 -0.33382758209E+02  0.52348993754E+02  0.64096676992E+02  0.47000000000E+01 0.  1.
        -11    1    3    3    0    0  0.14571848436E+01 -0.15801935265E+02 -0.23786267629E+02  0.28593899235E+02  0.00000000000E+00 0. -1.
         11    1    3    3    0    0 -0.51098281212E+02  0.94267447259E+02 -0.18943740684E+02  0.10888641452E+03  0.00000000000E+00 0.  1.
<mgrwt>
<rscale>  0 0.14610642E+03</rscale>
<asrwt>0</asrwt>
<pdfrwt beam="2">  1        1 0.26752225E-01 0.15164648E+03</pdfrwt>
<pdfrwt beam="1">  1       -1 0.17845197E-01 0.15164648E+03</pdfrwt>
<totfact> 0.41145076E+03</totfact>
</mgrwt>
</event>
<event>
 8    1  0.7550631E-006  0.1504493E+03  0.7546771E-02  0.1209246E+00
          1   -1    0    0  501    0  0.00000000000E+00  0.00000000000E+00  0.29580673219E+03  0.29580673219E+03  0.00000000000E+00 0. -1.
         -1   -1    0    0    0  501 -0.00000000000E+00 -0.00000000000E+00 -0.10687054437E+03  0.10687054437E+03  0.00000000000E+00 0.  1.
         23    2    1    2    0    0 -0.67908208122E+02  0.48960705317E+02 -0.39415515983E+02  0.12921889046E+03  0.90195694772E+02 0.  0.
         23    2    1    2    0    0  0.67908208122E+02 -0.48960705317E+02  0.22835170380E+03  0.27345838610E+03  0.12500525151E+03 0.  0.
          5    1    4    4  502    0  0.51293213426E+02  0.35608120531E+02  0.11550467158E+03  0.13138626697E+03  0.47000000000E+01 0. -1.
         -5    1    4    4    0  502  0.16614994696E+02 -0.84568825848E+02  0.11284703222E+03  0.14207211913E+03  0.47000000000E+01 0. -1.
        -11    1    3    3    0    0 -0.56248132020E+02 -0.11995979208E+02 -0.37416442484E+01  0.57634675106E+02  0.00000000000E+00 0. -1.
         11    1    3    3    0    0 -0.11660076102E+02  0.60956684524E+02 -0.35673871735E+02  0.71584215351E+02  0.00000000000E+00 0.  1.
<mgrwt>
<rscale>  0 0.14307787E+03</rscale>
<asrwt>0</asrwt>
<pdfrwt beam="1">  1        1 0.45508728E-01 0.15044929E+03</pdfrwt>
<pdfrwt beam="2">  1       -1 0.16441622E-01 0.15044929E+03</pdfrwt>
<totfact> 0.24188432E+03</totfact>
</mgrwt>
</event>
<event>
 8    1  0.7550631E-006  0.1268863E+03  0.7546771E-02  0.1247141E+00
         -1   -1    0    0    0  501 -0.00000000000E+00  0.00000000000E+00  0.34002769553E+02  0.34002769553E+02  0.00000000000E+00 0.  1.
          1   -1    0    0  501    0  0.00000000000E+00 -0.00000000000E+00 -0.57537917738E+03  0.57537917738E+03  0.00000000000E+00 0. -1.
         23    2    1    2    0    0  0.21731946831E+02 -0.13586010672E+01 -0.59038344740E+02  0.11063337444E+03  0.90995022289E+02 0.  0.
         23    2    1    2    0    0 -0.21731946831E+02  0.13586010672E+01 -0.48233806308E+03  0.49874857249E+03  0.12500403252E+03 0.  0.
          5    1    4    4  502    0  0.88835271006E+01 -0.55978835072E+02 -0.15790787651E+03  0.16783782200E+03  0.47000000000E+01 0.  1.
         -5    1    4    4    0  502 -0.30615473932E+02  0.57337436139E+02 -0.32443018657E+03  0.33091075048E+03  0.47000000000E+01 0.  1.
        -11    1    3    3    0    0  0.50743182659E+02  0.18577837182E+02 -0.18902063187E+02  0.57247660332E+02  0.00000000000E+00 0.  1.
         11    1    3    3    0    0 -0.29011235828E+02 -0.19936438249E+02 -0.40136281554E+02  0.53385714113E+02  0.00000000000E+00 0. -1.
<mgrwt>
<rscale>  0 0.11758128E+03</rscale>
<asrwt>0</asrwt>
<pdfrwt beam="2">  1        1 0.88519869E-01 0.12688629E+03</pdfrwt>
<pdfrwt beam="1">  1       -1 0.52311956E-02 0.12688629E+03</pdfrwt>
<totfact> 0.58838109E+03</totfact>
</mgrwt>
</event>
<event>
 8    1  0.7550631E-006  0.1588036E+03  0.7546771E-02  0.1197443E+00
         -1   -1    0    0    0  501 -0.00000000000E+00  0.00000000000E+00  0.24941555835E+02  0.24941555835E+02  0.00000000000E+00 0.  1.
          1   -1    0    0  501    0  0.00000000000E+00 -0.00000000000E+00 -0.96623285499E+03  0.96623285499E+03  0.00000000000E+00 0. -1.
         23    2    1    2    0    0  0.95543255440E+02 -0.21646896673E+02 -0.27689493198E+03  0.30806305687E+03  0.92924387836E+02 0.  0.
         23    2    1    2    0    0 -0.95543255440E+02  0.21646896673E+02 -0.66439636718E+03  0.68311135396E+03  0.12498594879E+03 0.  0.
          5    1    4    4  502    0  0.22185852635E+02 -0.16000524572E+02 -0.58919334434E+02  0.65129154869E+02  0.47000000000E+01 0. -1.
         -5    1    4    4    0  502 -0.11772910808E+03  0.37647421245E+02 -0.60547703274E+03  0.61798219909E+03  0.47000000000E+01 0. -1.
        -11    1    3    3    0    0  0.10209978241E+02  0.22973235058E+02 -0.15594269863E+02  0.29583685323E+02  0.00000000000E+00 0.  1.
         11    1    3    3    0    0  0.85333277199E+02 -0.44620131731E+02 -0.26130066212E+03  0.27847937154E+03  0.00000000000E+00 0. -1.
<mgrwt>
<rscale>  0 0.15249293E+03</rscale>
<asrwt>0</asrwt>
<pdfrwt beam="2">  1        1 0.14865119E+00 0.15880362E+03</pdfrwt>
<pdfrwt beam="1">  1       -1 0.38371630E-02 0.15880362E+03</pdfrwt>
<totfact> 0.43639580E+03</totfact>
</mgrwt>
</event>
<event>
 8    1  0.7550631E-006  0.1269760E+03  0.7546771E-02  0.1248130E+00
          2   -1    0    0  501    0  0.00000000000E+00  0.00000000000E+00  0.23162597476E+03  0.23162597476E+03  0.00000000000E+00 0. -1.
         -2   -1    0    0    0  501 -0.00000000000E+00 -0.00000000000E+00 -0.52469246320E+02  0.52469246320E+02  0.00000000000E+00 0.  1.
         23    2    1    2    0    0  0.12310553351E+02 -0.18631062562E+02  0.56582369144E+02  0.10760902565E+03  0.88766388281E+02 0.  0.
         23    2    1    2    0    0 -0.12310553351E+02  0.18631062562E+02  0.12257435929E+03  0.17648619542E+03  0.12499694957E+03 0.  0.
          5    1    4    4  502    0 -0.45951385758E+02  0.24636858259E+02  0.34456490408E+01  0.52463960347E+02  0.47000000000E+01 0.  1.
         -5    1    4    4    0  502  0.33640832407E+02 -0.60057956978E+01  0.11912871025E+03  0.12402223507E+03  0.47000000000E+01 0.  1.
        -11    1    3    3    0    0 -0.64988778425E+00 -0.33869836602E+02 -0.12177387077E+02  0.35998290815E+02  0.00000000000E+00 0.  1.
         11    1    3    3    0    0  0.12960441135E+02  0.15238774040E+02  0.68759756221E+02  0.71610734839E+02  0.00000000000E+00 0. -1.
<mgrwt>
<rscale>  0 0.11699968E+03</rscale>
<asrwt>0</asrwt>
<pdfrwt beam="1">  1        2 0.35634765E-01 0.12697600E+03</pdfrwt>
<pdfrwt beam="2">  1       -2 0.80721918E-02 0.12697600E+03</pdfrwt>
<totfact> 0.12634982E+04</totfact>
</mgrwt>
</event>
<event>
 8    1  0.7550631E-006  0.1429927E+03  0.7546771E-02  0.1219196E+00
         -1   -1    0    0    0  501 -0.00000000000E+00  0.00000000000E+00  0.35223098952E+02  0.35223098952E+02  0.00000000000E+00 0.  1.
          1   -1    0    0  501    0  0.00000000000E+00 -0.00000000000E+00 -0.47637369341E+03  0.47637369341E+03  0.00000000000E+00 0. -1.
         23    2    1    2    0    0 -0.39022454116E+02  0.57438041070E+02 -0.19637710433E+03  0.22811668628E+03  0.93012767764E+02 0.  0.
         23    2    1    2    0    0  0.39022454116E+02 -0.57438041070E+02 -0.24477349013E+03  0.28348010609E+03  0.12500011435E+03 0.  0.
          5    1    4    4  502    0  0.74543541813E+02 -0.28581820924E+02 -0.82864985586E+02  0.11516230264E+03  0.47000000000E+01 0.  1.
         -5    1    4    4    0  502 -0.35521087697E+02 -0.28856220146E+02 -0.16190850455E+03  0.16831780345E+03  0.47000000000E+01 0.  1.
        -11    1    3    3    0    0 -0.24311553291E+02 -0.16488364609E+02 -0.17959749766E+02  0.34430660792E+02  0.00000000000E+00 0. -1.
         11    1    3    3    0    0 -0.14710900824E+02  0.73926405679E+02 -0.17841735456E+03  0.19368602548E+03  0.00000000000E+00 0.  1.
<mgrwt>
<rscale>  0 0.13572800E+03</rscale>
<asrwt>0</asrwt>
<pdfrwt beam="2">  1        1 0.73288260E-01 0.14299269E+03</pdfrwt>
<pdfrwt beam="1">  1       -1 0.54189383E-02 0.14299269E+03</pdfrwt>
<totfact> 0.72107773E+03</totfact>
</mgrwt>
</event>
<event>
 8    1  0.7550631E-006  0.1281466E+03  0.7546771E-02  0.1244581E+00
          1   -1    0    0  501    0  0.00000000000E+00  0.00000000000E+00  0.56530930223E+02  0.56530930223E+02  0.00000000000E+00 0. -1.
         -1   -1    0    0    0  501 -0.00000000000E+00 -0.00000000000E+00 -0.25100516735E+03  0.25100516735E+03  0.00000000000E+00 0.  1.
         23    2    1    2    0    0  0.28166794941E+02 -0.19239073953E+01 -0.13703642985E+03  0.16710586690E+03  0.91369129852E+02 0.  0.
         23    2    1    2    0    0 -0.28166794941E+02  0.19239073953E+01 -0.57437807277E+02  0.14043023067E+03  0.12499791288E+03 0.  0.
          5    1    4    4  502    0  0.94933974924E+01 -0.55256912244E+02 -0.41666673460E+02  0.70011803461E+02  0.47000000000E+01 0.  1.
         -5    1    4    4    0  502 -0.37660192433E+02  0.57180819639E+02 -0.15771133817E+02  0.70418427209E+02  0.47000000000E+01 0.  1.
        -11    1    3    3    0    0 -0.52827855967E+01 -0.38548033609E+02 -0.29984831068E+02  0.49121775344E+02  0.00000000000E+00 0. -1.
         11    1    3    3    0    0  0.33449580538E+02  0.36624126213E+02 -0.10705159878E+03  0.11798409155E+03  0.00000000000E+00 0.  1.
<mgrwt>
<rscale>  0 0.11910515E+03</rscale>
<asrwt>0</asrwt>
<pdfrwt beam="1">  1        1 0.86970662E-02 0.12814659E+03</pdfrwt>
<pdfrwt beam="2">  1       -1 0.38616180E-01 0.12814659E+03</pdfrwt>
<totfact> 0.48483605E+03</totfact>
</mgrwt>
</event>
<event>
 8    1  0.7550631E-006  0.1286831E+03  0.7546771E-02  0.1247751E+00
         -1   -1    0    0    0  501 -0.00000000000E+00  0.00000000000E+00  0.31013784173E+03  0.31013784173E+03  0.00000000000E+00 0.  1.
          1   -1    0    0  501    0  0.00000000000E+00 -0.00000000000E+00 -0.41656773261E+02  0.41656773261E+02  0.00000000000E+00 0. -1.
         23    2    1    2    0    0 -0.14598532914E+01 -0.30545583375E+02  0.16249579911E+03  0.18508463683E+03  0.83164140278E+02 0.  0.
         23    2    1    2    0    0  0.14598532914E+01  0.30545583375E+02  0.10598526936E+03  0.16670997816E+03  0.12499670260E+03 0.  0.
          5    1    4    4  502    0  0.24707652198E+01 -0.69729003091E+01  0.12435261945E+03  0.12466110052E+03  0.47000000000E+01 0.  1.
         -5    1    4    4    0  502 -0.10109119284E+01  0.37518483684E+02 -0.18367350092E+02  0.42048877634E+02  0.47000000000E+01 0.  1.
        -11    1    3    3    0    0  0.37569034938E+02 -0.31740785226E+02  0.82010367544E+02  0.95627455354E+02  0.00000000000E+00 0.  1.
         11    1    3    3    0    0 -0.39028888229E+02  0.11952018509E+01  0.80485431562E+02  0.89457181476E+02  0.00000000000E+00 0. -1.
<mgrwt>
<rscale>  0 0.11722218E+03</rscale>
<asrwt>0</asrwt>
<pdfrwt beam="2">  1        1 0.64087346E-02 0.12868310E+03</pdfrwt>
<pdfrwt beam="1">  1       -1 0.47713513E-01 0.12868310E+03</pdfrwt>
<totfact> 0.50232714E+03</totfact>
</mgrwt>
</event>
<event>
 8    1  0.7550631E-006  0.1556741E+03  0.7546771E-02  0.1201793E+00
         -4   -1    0    0    0  501 -0.00000000000E+00  0.00000000000E+00  0.58982530920E+03  0.58982530920E+03  0.00000000000E+00 0.  1.
          4   -1    0    0  501    0  0.00000000000E+00 -0.00000000000E+00 -0.34701093591E+02  0.34701093591E+02  0.00000000000E+00 0. -1.
         23    2    1    2    0    0  0.71860842246E+02  0.58696970471E+02  0.25900561702E+03  0.28998094872E+03  0.91628194264E+02 0.  0.
         23    2    1    2    0    0 -0.71860842246E+02 -0.58696970471E+02  0.29611859859E+03  0.33454545407E+03  0.12500048566E+03 0.  0.
          5    1    4    4  502    0 -0.61540727061E+02 -0.47197175248E+02  0.60762122244E+02  0.98635490256E+02  0.47000000000E+01 0.  1.
         -5    1    4    4    0  502 -0.10320115186E+02 -0.11499795223E+02  0.23535647635E+03  0.23590996381E+03  0.47000000000E+01 0.  1.
        -11    1    3    3    0    0  0.57707317091E+02 -0.54444780684E-01  0.18842316339E+03  0.19706198495E+03  0.00000000000E+00 0.  1.
         11    1    3    3    0    0  0.14153525156E+02  0.58751415252E+02  0.70582453623E+02  0.92918963769E+02  0.00000000000E+00 0. -1.
<mgrwt>
<rscale>  0 0.14893081E+03</rscale>
<asrwt>0</asrwt>
<pdfrwt beam="2">  1        4 0.53386302E-02 0.15567414E+03</pdfrwt>
<pdfrwt beam="1">  1       -4 0.90742348E-01 0.15567414E+03</pdfrwt>
<totfact> 0.39217886E+02</totfact>
</mgrwt>
</event>
<event>
 8    1  0.7550631E-006  0.1429888E+03  0.7546771E-02  0.1219549E+00
         -2   -1    0    0    0  501 -0.00000000000E+00  0.00000000000E+00  0.55802100851E+02  0.55802100851E+02  0.00000000000E+00 0.  1.
          2   -1    0    0  501    0  0.00000000000E+00 -0.00000000000E+00 -0.29871124117E+03  0.29871124117E+03  0.00000000000E+00 0. -1.
         23    2    1    2    0    0 -0.47062687630E+02  0.51049191251E+02 -0.10795583781E+03  0.15789647112E+03  0.91956055711E+02 0.  0.
         23    2    1    2    0    0  0.47062687630E+02 -0.51049191251E+02 -0.13495330251E+03  0.19661687090E+03  0.12499953427E+03 0.  0.
          5    1    4    4  502    0  0.26181228812E+02 -0.20533177625E+02 -0.15197107970E+03  0.15564179127E+03  0.47000000000E+01 0. -1.
         -5    1    4    4    0  502  0.20881458818E+02 -0.30516013626E+02  0.17017777187E+02  0.40975079627E+02  0.47000000000E+01 0. -1.
        -11    1    3    3    0    0 -0.12039003380E+02  0.65597990678E+02 -0.34176652183E+02  0.74940493311E+02  0.00000000000E+00 0.  1.
         11    1    3    3    0    0 -0.35023684250E+02 -0.14548799427E+02 -0.73779185623E+02  0.82955977810E+02  0.00000000000E+00 0. -1.
<mgrwt>
<rscale>  0 0.13547631E+03</rscale>
<asrwt>0</asrwt>
<pdfrwt beam="2">  1        2 0.45955576E-01 0.14298881E+03</pdfrwt>
<pdfrwt beam="1">  1       -2 0.85849385E-02 0.14298881E+03</pdfrwt>
<totfact> 0.88454225E+03</totfact>
</mgrwt>
</event>
<event>
 8    1  0.7550631E-006  0.1324527E+03  0.7546771E-02  0.1236849E+00
          1   -1    0    0  501    0  0.00000000000E+00  0.00000000000E+00  0.32402880362E+03  0.32402880362E+03  0.00000000000E+00 0. -1.
         -1   -1    0    0    0  501 -0.00000000000E+00 -0.00000000000E+00 -0.52899650745E+02  0.52899650745E+02  0.00000000000E+00 0.  1.
         23    2    1    2    0    0 -0.14426733526E+01 -0.43785243701E+02  0.36860818550E+02  0.10780883709E+03  0.91349857900E+02 0.  0.
         23    2    1    2    0    0  0.14426733526E+01  0.43785243701E+02  0.23426833433E+03  0.26911961728E+03  0.12499794823E+03 0.  0.
          5    1    4    4  502    0  0.52679884320E+02 -0.12977533283E+02  0.11686796737E+03  0.12893330981E+03  0.47000000000E+01 0.  1.
         -5    1    4    4    0  502 -0.51237210967E+02  0.56762776985E+02  0.11740036696E+03  0.14018630747E+03  0.47000000000E+01 0.  1.
        -11    1    3    3    0    0  0.53144006123E+01 -0.15932163649E+02 -0.30380613973E+02  0.34713951054E+02  0.00000000000E+00 0.  1.
         11    1    3    3    0    0 -0.67570739649E+01 -0.27853080052E+02  0.67241432523E+02  0.73094886037E+02  0.00000000000E+00 0. -1.
<mgrwt>
<rscale>  0 0.12386834E+03</rscale>
<asrwt>0</asrwt>
<pdfrwt beam="1">  1        1 0.49850584E-01 0.13245269E+03</pdfrwt>
<pdfrwt beam="2">  1       -1 0.81384080E-02 0.13245269E+03</pdfrwt>
<totfact> 0.63507868E+03</totfact>
</mgrwt>
</event>
<event>
 8    1  0.7550631E-006  0.1442586E+03  0.7546771E-02  0.1218033E+00
         -1   -1    0    0    0  501 -0.00000000000E+00  0.00000000000E+00  0.14880995307E+02  0.14880995307E+02  0.00000000000E+00 0.  1.
          1   -1    0    0  501    0  0.00000000000E+00 -0.00000000000E+00 -0.12713101002E+04  0.12713101002E+04  0.00000000000E+00 0. -1.
         23    2    1    2    0    0  0.55325682086E+02  0.46096283429E+02 -0.35863470625E+03  0.37688073291E+03  0.90743792455E+02 0.  0.
         23    2    1    2    0    0 -0.55325682086E+02 -0.46096283429E+02 -0.89779439867E+03  0.90931036262E+03  0.12499901937E+03 0.  0.
          5    1    4    4  502    0 -0.44210121738E+02 -0.34671585325E+02 -0.13454970473E+03  0.14588477212E+03  0.47000000000E+01 0.  1.
         -5    1    4    4    0  502 -0.11115560348E+02 -0.11424698104E+02 -0.76324469394E+03  0.76342559050E+03  0.47000000000E+01 0.  1.
        -11    1    3    3    0    0 -0.14282377189E+02  0.39072256340E+02 -0.18626408257E+03  0.19085317909E+03  0.00000000000E+00 0.  1.
         11    1    3    3    0    0  0.69608059275E+02  0.70240270891E+01 -0.17237062367E+03  0.18602755381E+03  0.00000000000E+00 0. -1.
<mgrwt>
<rscale>  0 0.13656090E+03</rscale>
<asrwt>0</asrwt>
<pdfrwt beam="2">  1        1 0.19558628E+00 0.14425863E+03</pdfrwt>
<pdfrwt beam="1">  1       -1 0.22893826E-02 0.14425863E+03</pdfrwt>
<totfact> 0.56313854E+03</totfact>
</mgrwt>
</event>
<event>
 7    1  0.7550631E-006  0.1531475E+03  0.7546771E-02  0.1236458E+00
         -2   -1    0    0    0  501 -0.00000000000E+00  0.00000000000E+00  0.94178815580E+02  0.94178815580E+02  0.00000000000E+00 0.  1.
          2   -1    0    0  501    0  0.00000000000E+00 -0.00000000000E+00 -0.16684139432E+03  0.16684139432E+03  0.00000000000E+00 0. -1.
         23    2    1    2    0    0  0.16491166681E+02 -0.18828671988E+02  0.34085514587E+02  0.74340537599E+02  0.61140949932E+02 0.  0.
          5    1    1    2  502    0  0.39095425642E+02  0.59730033403E+01 -0.12125062105E+03  0.12762418337E+03  0.47000000000E+01 0. -1.
         -5    1    1    2    0  502 -0.55586592323E+02  0.12855668647E+02  0.14502527726E+02  0.59055488932E+02  0.47000000000E+01 0.  1.
        -11    1    3    3    0    0  0.28693059018E+02 -0.34375980395E+02  0.30695331635E+02  0.54288148321E+02  0.00000000000E+00 0. -1.
         11    1    3    3    0    0 -0.12201892337E+02  0.15547308408E+02  0.33901829519E+01  0.20052389278E+02  0.00000000000E+00 0.  1.
<mgrwt>
<rscale>  0 0.12411566E+03</rscale>
<asrwt>0</asrwt>
<pdfrwt beam="2">  1        2 0.25667907E-01 0.15314746E+03</pdfrwt>
<pdfrwt beam="1">  1       -2 0.14489049E-01 0.15314746E+03</pdfrwt>
<totfact> 0.72400600E+03</totfact>
</mgrwt>
</event>
<event>
 8    1  0.7550631E-006  0.1884844E+03  0.7546771E-02  0.1164623E+00
         -2   -1    0    0    0  501 -0.00000000000E+00  0.00000000000E+00  0.43900478408E+02  0.43900478408E+02  0.00000000000E+00 0.  1.
          2   -1    0    0  501    0  0.00000000000E+00 -0.00000000000E+00 -0.74353912223E+03  0.74353912223E+03  0.00000000000E+00 0. -1.
         23    2    1    2    0    0  0.12736760347E+03  0.60665944214E+02 -0.27128851365E+03  0.31945436123E+03  0.92470363176E+02 0.  0.
         23    2    1    2    0    0 -0.12736760347E+03 -0.60665944214E+02 -0.42835013017E+03  0.46798523941E+03  0.12499394821E+03 0.  0.
          5    1    4    4  502    0 -0.50949159537E+02 -0.28675521246E+02 -0.34650943603E+03  0.35143844644E+03  0.47000000000E+01 0.  1.
         -5    1    4    4    0  502 -0.76418443935E+02 -0.31990422968E+02 -0.81840694138E+02  0.11654679297E+03  0.47000000000E+01 0.  1.
        -11    1    3    3    0    0  0.76258558360E+02  0.58056108061E+02 -0.24246366403E+03  0.26071921253E+03  0.00000000000E+00 0. -1.
         11    1    3    3    0    0  0.51109045112E+02  0.26098361536E+01 -0.28824849623E+02  0.58735148700E+02  0.00000000000E+00 0.  1.
<mgrwt>
<rscale>  0 0.18332584E+03</rscale>
<asrwt>0</asrwt>
<pdfrwt beam="2">  1        2 0.11439062E+00 0.18848435E+03</pdfrwt>
<pdfrwt beam="1">  1       -2 0.67539204E-02 0.18848435E+03</pdfrwt>
<totfact> 0.47208899E+03</totfact>
</mgrwt>
</event>
<event>
 8    1  0.7550631E-006  0.1265566E+03  0.7546771E-02  0.1246555E+00
         -2   -1    0    0    0  501 -0.00000000000E+00  0.00000000000E+00  0.35039267068E+02  0.35039267068E+02  0.00000000000E+00 0.  1.
          2   -1    0    0  501    0  0.00000000000E+00 -0.00000000000E+00 -0.49579549548E+03  0.49579549548E+03  0.00000000000E+00 0. -1.
         23    2    1    2    0    0 -0.11810452576E+02  0.15847198970E+02 -0.65297356319E+02  0.11561880590E+03  0.93345289272E+02 0.  0.
         23    2    1    2    0    0  0.11810452576E+02 -0.15847198970E+02 -0.39545887209E+03  0.41521595665E+03  0.12500380249E+03 0.  0.
          5    1    4    4  502    0 -0.49495217407E+02  0.16266804037E+02 -0.11554488232E+03  0.12683491353E+03  0.47000000000E+01 0.  1.
         -5    1    4    4    0  502  0.61305669983E+02 -0.32114003007E+02 -0.27991398978E+03  0.28838104312E+03  0.47000000000E+01 0.  1.
        -11    1    3    3    0    0 -0.23796520310E+02 -0.17094182538E+02  0.11282568082E+02  0.31397162261E+02  0.00000000000E+00 0.  1.
         11    1    3    3    0    0  0.11986067734E+02  0.32941381508E+02 -0.76579924401E+02  0.84221643635E+02  0.00000000000E+00 0. -1.
<mgrwt>
<rscale>  0 0.11792813E+03</rscale>
<asrwt>0</asrwt>
<pdfrwt beam="2">  1        2 0.76276230E-01 0.12655659E+03</pdfrwt>
<pdfrwt beam="1">  1       -2 0.53906565E-02 0.12655659E+03</pdfrwt>
<totfact> 0.10382735E+04</totfact>
</mgrwt>
</event>
<event>
 8    1  0.7550631E-006  0.1264748E+03  0.7546771E-02  0.1248617E+00
         -3   -1    0    0    0  501 -0.00000000000E+00  0.00000000000E+00  0.37157205288E+02  0.37157205288E+02  0.00000000000E+00 0.  1.
          3   -1    0    0  501    0  0.00000000000E+00 -0.00000000000E+00 -0.34489416333E+03  0.34489416333E+03  0.00000000000E+00 0. -1.
         23    2    1    2    0    0  0.16438519120E+02  0.92075652364E+01 -0.80741080576E+02  0.12219946049E+03  0.89769604443E+02 0.  0.
         23    2    1    2    0    0 -0.16438519120E+02 -0.92075652364E+01 -0.22699587746E+03  0.25985190813E+03  0.12506351029E+03 0.  0.
          5    1    4    4  502    0  0.16610946430E+02 -0.61061374568E+02 -0.96150239409E+02  0.11520144766E+03  0.47000000000E+01 0.  1.
         -5    1    4    4    0  502 -0.33049465549E+02  0.51853809332E+02 -0.13084563805E+03  0.14465046047E+03  0.47000000000E+01 0.  1.
        -11    1    3    3    0    0  0.21042595108E+01  0.45203280405E+02 -0.67479141103E+02  0.81247762748E+02  0.00000000000E+00 0. -1.
         11    1    3    3    0    0  0.14334259609E+02 -0.35995715168E+02 -0.13261939473E+02  0.40951697738E+02  0.00000000000E+00 0.  1.
<mgrwt>
<rscale>  0 0.11671475E+03</rscale>
<asrwt>0</asrwt>
<pdfrwt beam="2">  1        3 0.53060641E-01 0.12647484E+03</pdfrwt>
<pdfrwt beam="1">  1       -3 0.57164931E-02 0.12647484E+03</pdfrwt>
<totfact> 0.14818005E+03</totfact>
</mgrwt>
</event>
<event>
 8    1  0.7550631E-006  0.2048324E+03  0.7546771E-02  0.1149911E+00
         -2   -1    0    0    0  501 -0.00000000000E+00  0.00000000000E+00  0.55863777843E+02  0.55863777843E+02  0.00000000000E+00 0.  1.
          2   -1    0    0  501    0  0.00000000000E+00 -0.00000000000E+00 -0.70559695220E+03  0.70559695220E+03  0.00000000000E+00 0. -1.
         23    2    1    2    0    0 -0.13372708770E+03 -0.91913663510E+02 -0.23906737716E+03  0.30254603684E+03  0.89720889781E+02 0.  0.
         23    2    1    2    0    0  0.13372708770E+03  0.91913663510E+02 -0.41066579719E+03  0.45891469320E+03  0.12500097249E+03 0.  0.
          5    1    4    4  502    0  0.65223774099E+02  0.13989557525E+02 -0.29911447322E+03  0.30649862400E+03  0.47000000000E+01 0. -1.
         -5    1    4    4    0  502  0.68503313600E+02  0.77924105985E+02 -0.11155132398E+03  0.15241606919E+03  0.47000000000E+01 0. -1.
        -11    1    3    3    0    0 -0.13509331663E+03 -0.65016107553E+02 -0.16115261244E+03  0.22010784388E+03  0.00000000000E+00 0.  1.
         11    1    3    3    0    0  0.13662289351E+01 -0.26897555957E+02 -0.77914764719E+02  0.82438192964E+02  0.00000000000E+00 0. -1.
<mgrwt>
<rscale>  0 0.19979683E+03</rscale>
<asrwt>0</asrwt>
<pdfrwt beam="2">  1        2 0.10855338E+00 0.20483237E+03</pdfrwt>
<pdfrwt beam="1">  1       -2 0.85944272E-02 0.20483237E+03</pdfrwt>
<totfact> 0.34704016E+03</totfact>
</mgrwt>
</event>
<event>
 8    1  0.7550631E-006  0.1261876E+03  0.7546771E-02  0.1255795E+00
          1   -1    0    0  501    0  0.00000000000E+00  0.00000000000E+00  0.88799483035E+03  0.88799483035E+03  0.00000000000E+00 0. -1.
         -1   -1    0    0    0  501 -0.00000000000E+00 -0.00000000000E+00 -0.12907838427E+02  0.12907838427E+02  0.00000000000E+00 0.  1.
         23    2    1    2    0    0  0.13681267756E+02  0.10530487332E+02  0.22852569134E+03  0.24214260475E+03  0.78172764957E+02 0.  0.
         23    2    1    2    0    0 -0.13681267756E+02 -0.10530487332E+02  0.64656130058E+03  0.65876006402E+03  0.12500095318E+03 0.  0.
          5    1    4    4  502    0  0.43130431349E+02 -0.31316506358E+01  0.49090630041E+03  0.49282971413E+03  0.47000000000E+01 0.  1.
         -5    1    4    4    0  502 -0.56811699105E+02 -0.73988366966E+01  0.15565500017E+03  0.16593034990E+03  0.47000000000E+01 0.  1.
        -11    1    3    3    0    0  0.43375363129E+02 -0.46105220358E+01  0.16149368981E+03  0.16728087424E+03  0.00000000000E+00 0.  1.
         11    1    3    3    0    0 -0.29694095373E+02  0.15141009368E+02  0.67032001534E+02  0.74861730506E+02  0.00000000000E+00 0. -1.
<mgrwt>
<rscale>  0 0.11261900E+03</rscale>
<asrwt>0</asrwt>
<pdfrwt beam="1">  1        1 0.13661454E+00 0.12618758E+03</pdfrwt>
<pdfrwt beam="2">  1       -1 0.19858220E-02 0.12618758E+03</pdfrwt>
<totfact> 0.12894272E+04</totfact>
</mgrwt>
</event>
<event>
 8    1  0.7550631E-006  0.1470933E+03  0.7546771E-02  0.1212890E+00
         -3   -1    0    0    0  501 -0.00000000000E+00  0.00000000000E+00  0.24889038196E+03  0.24889038196E+03  0.00000000000E+00 0.  1.
          3   -1    0    0  501    0  0.00000000000E+00 -0.00000000000E+00 -0.89727577367E+02  0.89727577367E+02  0.00000000000E+00 0. -1.
         23    2    1    2    0    0 -0.73580371666E+02  0.24456339115E+02  0.14713787492E+03  0.19103396253E+03  0.93979981831E+02 0.  0.
         23    2    1    2    0    0  0.73580371666E+02 -0.24456339115E+02  0.12024929668E+02  0.14758399680E+03  0.12499701420E+03 0.  0.
          5    1    4    4  502    0  0.63020890476E+02 -0.39035826358E+02  0.60410806452E+02  0.95744367521E+02  0.47000000000E+01 0.  1.
         -5    1    4    4    0  502  0.10559481191E+02  0.14579487243E+02 -0.48385876784E+02  0.51839629276E+02  0.47000000000E+01 0.  1.
        -11    1    3    3    0    0 -0.98496945454E+01 -0.17139575539E+02 -0.54626459678E+01  0.20509071975E+02  0.00000000000E+00 0. -1.
         11    1    3    3    0    0 -0.63730677121E+02  0.41595914654E+02  0.15260052089E+03  0.17052489055E+03  0.00000000000E+00 0.  1.
<mgrwt>
<rscale>  0 0.14032662E+03</rscale>
<asrwt>0</asrwt>
<pdfrwt beam="2">  1        3 0.13804243E-01 0.14709329E+03</pdfrwt>
<pdfrwt beam="1">  1       -3 0.38290828E-01 0.14709329E+03</pdfrwt>
<totfact> 0.67737608E+02</totfact>
</mgrwt>
</event>
<event>
 8    1  0.7550631E-006  0.1373055E+03  0.7546771E-02  0.1228890E+00
          1   -1    0    0  501    0  0.00000000000E+00  0.00000000000E+00  0.28999761233E+02  0.28999761233E+02  0.00000000000E+00 0. -1.
         -1   -1    0    0    0  501 -0.00000000000E+00 -0.00000000000E+00 -0.56712211999E+03  0.56712211999E+03  0.00000000000E+00 0.  1.
         23    2    1    2    0    0  0.36064058042E+02 -0.43888593096E+02 -0.32862547004E+03  0.34563886511E+03  0.90800333871E+02 0.  0.
         23    2    1    2    0    0 -0.36064058042E+02  0.43888593096E+02 -0.20949688872E+03  0.25048301611E+03  0.12500388030E+03 0.  0.
          5    1    4    4  502    0 -0.76628286338E+02  0.55190530363E+02 -0.15309488705E+03  0.17993894340E+03  0.47000000000E+01 0. -1.
         -5    1    4    4    0  502  0.40564228295E+02 -0.11301937267E+02 -0.56402001662E+02  0.70544072711E+02  0.47000000000E+01 0. -1.
        -11    1    3    3    0    0  0.52739755162E+02 -0.51259428859E+01 -0.25785358464E+03  0.26324176753E+03  0.00000000000E+00 0.  1.
         11    1    3    3    0    0 -0.16675697119E+02 -0.38762650210E+02 -0.70771885403E+02  0.82397097577E+02  0.00000000000E+00 0. -1.
<mgrwt>
<rscale>  0 0.12903828E+03</rscale>
<asrwt>0</asrwt>
<pdfrwt beam="1">  1        1 0.44615022E-02 0.13730548E+03</pdfrwt>
<pdfrwt beam="2">  1       -1 0.87249547E-01 0.13730548E+03</pdfrwt>
<totfact> 0.25635493E+03</totfact>
</mgrwt>
</event>
<event>
 8    1  0.7550631E-006  0.1254350E+03  0.7546771E-02  0.1249093E+00
         -1   -1    0    0    0  501 -0.00000000000E+00  0.00000000000E+00  0.36778538091E+02  0.36778538091E+02  0.00000000000E+00 0.  1.
          1   -1    0    0  501    0  0.00000000000E+00 -0.00000000000E+00 -0.33871282720E+03  0.33871282720E+03  0.00000000000E+00 0. -1.
         23    2    1    2    0    0 -0.91896157871E+01 -0.48617973413E+01 -0.91833267468E+02  0.13079487321E+03  0.92551951535E+02 0.  0.
         23    2    1    2    0    0  0.91896157871E+01  0.48617973413E+01 -0.21010102164E+03  0.24469649208E+03  0.12500339127E+03 0.  0.
          5    1    4    4  502    0 -0.34098445671E+02  0.50766617485E+02 -0.89402011085E+02  0.10841938495E+03  0.47000000000E+01 0. -1.
         -5    1    4    4    0  502  0.43288061458E+02 -0.45904820143E+02 -0.12069901056E+03  0.13627710713E+03  0.47000000000E+01 0. -1.
        -11    1    3    3    0    0 -0.36134701948E+02 -0.97947789863E-01 -0.12364252447E+01  0.36155981885E+02  0.00000000000E+00 0.  1.
         11    1    3    3    0    0  0.26945086161E+02 -0.47638495515E+01 -0.90596842224E+02  0.94638891327E+02  0.00000000000E+00 0. -1.
<mgrwt>
<rscale>  0 0.11643703E+03</rscale>
<asrwt>0</asrwt>
<pdfrwt beam="2">  1        1 0.52109668E-01 0.12543498E+03</pdfrwt>
<pdfrwt beam="1">  1       -1 0.56582364E-02 0.12543498E+03</pdfrwt>
<totfact> 0.10311451E+04</totfact>
</mgrwt>
</event>
<event>
 8    1  0.7550631E-006  0.1312835E+03  0.7546771E-02  0.1238858E+00
          1   -1    0    0  501    0  0.00000000000E+00  0.00000000000E+00  0.39699782093E+03  0.39699782093E+03  0.00000000000E+00 0. -1.
         -1   -1    0    0    0  501 -0.00000000000E+00 -0.00000000000E+00 -0.34084406887E+02  0.34084406887E+02  0.00000000000E+00 0.  1.
         23    2    1    2    0    0  0.37628434877E+02 -0.13946625439E+02  0.13291456067E+03  0.16625240685E+03  0.91450395693E+02 0.  0.
         23    2    1    2    0    0 -0.37628434877E+02  0.13946625439E+02  0.22999885337E+03  0.26482982097E+03  0.12499981619E+03 0.  0.
          5    1    4    4  502    0  0.41168176664E+02 -0.42939194888E+01  0.12777558037E+03  0.13439473745E+03  0.47000000000E+01 0. -1.
         -5    1    4    4    0  502 -0.78796611541E+02  0.18240544928E+02  0.10222327300E+03  0.13043508352E+03  0.47000000000E+01 0. -1.
        -11    1    3    3    0    0  0.22516653546E+01  0.22386133904E+02 -0.15409358194E+01  0.22551795300E+02  0.00000000000E+00 0.  1.
         11    1    3    3    0    0  0.35376769522E+02 -0.36332759343E+02  0.13445549649E+03  0.14370061155E+03  0.00000000000E+00 0. -1.
<mgrwt>
<rscale>  0 0.12260666E+03</rscale>
<asrwt>0</asrwt>
<pdfrwt beam="1">  1        1 0.61076585E-01 0.13128352E+03</pdfrwt>
<pdfrwt beam="2">  1       -1 0.52437552E-02 0.13128352E+03</pdfrwt>
<totfact> 0.94981059E+03</totfact>
</mgrwt>
</event>
<event>
 8    1  0.7550631E-006  0.1524549E+03  0.7546771E-02  0.1206200E+00
         -2   -1    0    0    0  501 -0.00000000000E+00  0.00000000000E+00  0.33184077568E+02  0.33184077568E+02  0.00000000000E+00 0.  1.
          2   -1    0    0  501    0  0.00000000000E+00 -0.00000000000E+00 -0.60433345916E+03  0.60433345916E+03  0.00000000000E+00 0. -1.
         23    2    1    2    0    0  0.70541241510E+02 -0.51472343771E+02 -0.20307363704E+03  0.23911792518E+03  0.91175715807E+02 0.  0.
         23    2    1    2    0    0 -0.70541241510E+02  0.51472343771E+02 -0.36807574455E+03  0.39839961155E+03  0.12496810725E+03 0.  0.
          5    1    4    4  502    0  0.88429226185E+01  0.26118817559E+01  0.65993334205E+01  0.12274380161E+02  0.47000000000E+01 0. -1.
         -5    1    4    4    0  502 -0.79384164128E+02  0.48860462015E+02 -0.37467507797E+03  0.38612523139E+03  0.47000000000E+01 0. -1.
        -11    1    3    3    0    0  0.21828828275E+02 -0.68078354528E+02 -0.90450280714E+02  0.11529272909E+03  0.00000000000E+00 0.  1.
         11    1    3    3    0    0  0.48712413235E+02  0.16606010757E+02 -0.11262335633E+03  0.12382519609E+03  0.00000000000E+00 0. -1.
<mgrwt>
<rscale>  0 0.14543265E+03</rscale>
<asrwt>0</asrwt>
<pdfrwt beam="2">  1        2 0.92974365E-01 0.15245490E+03</pdfrwt>
<pdfrwt beam="1">  1       -2 0.51052434E-02 0.15245490E+03</pdfrwt>
<totfact> 0.91448547E+03</totfact>
</mgrwt>
</event>
<event>
 8    1  0.7550631E-006  0.1541523E+03  0.7546771E-02  0.1203421E+00
          2   -1    0    0  501    0  0.00000000000E+00  0.00000000000E+00  0.11093245338E+04  0.11093245338E+04  0.00000000000E+00 0. -1.
         -2   -1    0    0    0  501 -0.00000000000E+00 -0.00000000000E+00 -0.34044338772E+02  0.34044338772E+02  0.00000000000E+00 0.  1.
         23    2    1    2    0    0  0.87644808476E+02 -0.21363125235E+02  0.12308899282E+03  0.17878034605E+03  0.93131715378E+02 0.  0.
         23    2    1    2    0    0 -0.87644808476E+02  0.21363125235E+02  0.95219120226E+03  0.96458852657E+03  0.12499977743E+03 0.  0.
          5    1    4    4  502    0 -0.58777582789E+02  0.56274455208E+02  0.83323128475E+03  0.83720850595E+03  0.47000000000E+01 0. -1.
         -5    1    4    4    0  502 -0.28867225687E+02 -0.34911329972E+02  0.11895991750E+03  0.12738002061E+03  0.47000000000E+01 0. -1.
        -11    1    3    3    0    0  0.24828616593E+02 -0.11882248395E+02  0.11068098046E+03  0.11405230144E+03  0.00000000000E+00 0. -1.
         11    1    3    3    0    0  0.62816191883E+02 -0.94808768397E+01  0.12408012358E+02  0.64728044609E+02  0.00000000000E+00 0.  1.
<mgrwt>
<rscale>  0 0.14762619E+03</rscale>
<asrwt>0</asrwt>
<pdfrwt beam="1">  1        2 0.17066529E+00 0.15415233E+03</pdfrwt>
<pdfrwt beam="2">  1       -2 0.52375914E-02 0.15415233E+03</pdfrwt>
<totfact> 0.40555154E+03</totfact>
</mgrwt>
</event>
<event>
 8    1  0.7550631E-006  0.1861533E+03  0.7546771E-02  0.1166779E+00
         -2   -1    0    0    0  501 -0.00000000000E+00  0.00000000000E+00  0.33365177678E+02  0.33365177678E+02  0.00000000000E+00 0.  1.
          2   -1    0    0  501    0  0.00000000000E+00 -0.00000000000E+00 -0.10501968395E+04  0.10501968395E+04  0.00000000000E+00 0. -1.
         23    2    1    2    0    0 -0.12227261516E+02  0.13740436659E+03 -0.30222958787E+03  0.34511148627E+03  0.93433122018E+02 0.  0.
         23    2    1    2    0    0  0.12227261516E+02 -0.13740436659E+03 -0.71460207394E+03  0.73845053090E+03  0.12499438633E+03 0.  0.
          5    1    4    4  502    0  0.15695516945E+02 -0.36808996609E+02 -0.49722052269E+03  0.49885026778E+03  0.47000000000E+01 0. -1.
         -5    1    4    4    0  502 -0.34682554290E+01 -0.10059536999E+03 -0.21738155125E+03  0.23960026311E+03  0.47000000000E+01 0. -1.
        -11    1    3    3    0    0 -0.59961145690E+01  0.15062007457E+03 -0.28586338187E+03  0.32317214197E+03  0.00000000000E+00 0. -1.
         11    1    3    3    0    0 -0.62311469475E+01 -0.13215707974E+02 -0.16366206004E+02  0.21939344304E+02  0.00000000000E+00 0.  1.
<mgrwt>
<rscale>  0 0.18106270E+03</rscale>
<asrwt>0</asrwt>
<pdfrwt beam="2">  1        2 0.16156871E+00 0.18615333E+03</pdfrwt>
<pdfrwt beam="1">  1       -2 0.51331053E-02 0.18615333E+03</pdfrwt>
<totfact> 0.45497448E+03</totfact>
</mgrwt>
</event>
<event>
 8    1  0.7550631E-006  0.1628113E+03  0.7546771E-02  0.1193282E+00
          1   -1    0    0  501    0  0.00000000000E+00  0.00000000000E+00  0.16183437367E+03  0.16183437367E+03  0.00000000000E+00 0. -1.
         -1   -1    0    0    0  501 -0.00000000000E+00 -0.00000000000E+00 -0.15404394214E+03  0.15404394214E+03  0.00000000000E+00 0.  1.
         23    2    1    2    0    0  0.47831247749E+01 -0.10421448863E+03 -0.45459234888E+02  0.14458019825E+03  0.89181577495E+02 0.  0.
         23    2    1    2    0    0 -0.47831247749E+01  0.10421448863E+03  0.53249666415E+02  0.17129811756E+03  0.12499592066E+03 0.  0.
          5    1    4    4  502    0 -0.20294900333E+02  0.27546035169E+02  0.81088697186E+02  0.88137017447E+02  0.47000000000E+01 0.  1.
         -5    1    4    4    0  502  0.15511775558E+02  0.76668453466E+02 -0.27839030771E+02  0.83161100114E+02  0.47000000000E+01 0.  1.
        -11    1    3    3    0    0 -0.16658943183E+02  0.11003864562E+02 -0.48323192581E+01  0.20541585447E+02  0.00000000000E+00 0.  1.
         11    1    3    3    0    0  0.21442067958E+02 -0.11521835320E+03 -0.40626915630E+02  0.12403861280E+03  0.00000000000E+00 0. -1.
<mgrwt>
<rscale>  0 0.15600537E+03</rscale>
<asrwt>0</asrwt>
<pdfrwt beam="1">  1        1 0.24897596E-01 0.16281130E+03</pdfrwt>
<pdfrwt beam="2">  1       -1 0.23699068E-01 0.16281130E+03</pdfrwt>
<totfact> 0.28573903E+03</totfact>
</mgrwt>
</event>
<event>
 8    1  0.7550631E-006  0.1361025E+03  0.7546771E-02  0.1227924E+00
          2   -1    0    0  501    0  0.00000000000E+00  0.00000000000E+00  0.71801880624E+03  0.71801880624E+03  0.00000000000E+00 0. -1.
         -2   -1    0    0    0  501 -0.00000000000E+00 -0.00000000000E+00 -0.29437242576E+02  0.29437242576E+02  0.00000000000E+00 0.  1.
         23    2    1    2    0    0  0.41148923983E+02  0.34720896692E+02  0.12628320725E+03  0.16892053353E+03  0.98427250306E+02 0.  0.
         23    2    1    2    0    0 -0.41148923983E+02 -0.34720896692E+02  0.56229835641E+03  0.57853551528E+03  0.12500050483E+03 0.  0.
          5    1    4    4  502    0  0.29087423684E+02 -0.23297076544E+01  0.36072030491E+02  0.46634613090E+02  0.47000000000E+01 0.  1.
         -5    1    4    4    0  502 -0.70236347667E+02 -0.32391189038E+02  0.52622632592E+03  0.53190090219E+03  0.47000000000E+01 0.  1.
        -11    1    3    3    0    0  0.48536613412E+02 -0.23016512191E+02  0.54824297242E+02  0.76754584508E+02  0.00000000000E+00 0. -1.
         11    1    3    3    0    0 -0.73876894294E+01  0.57737408884E+02  0.71458910006E+02  0.92165949021E+02  0.00000000000E+00 0.  1.
<mgrwt>
<rscale>  0 0.12968467E+03</rscale>
<asrwt>0</asrwt>
<pdfrwt beam="1">  1        2 0.11046442E+00 0.13610254E+03</pdfrwt>
<pdfrwt beam="2">  1       -2 0.45288071E-02 0.13610254E+03</pdfrwt>
<totfact> 0.88870340E+03</totfact>
</mgrwt>
</event>
<event>
 8    1  0.7550631E-006  0.1491296E+03  0.7546771E-02  0.1211340E+00
          4   -1    0    0  501    0  0.00000000000E+00  0.00000000000E+00  0.37187854783E+02  0.37187854783E+02  0.00000000000E+00 0. -1.
         -4   -1    0    0    0  501 -0.00000000000E+00 -0.00000000000E+00 -0.53707759462E+03  0.53707759462E+03  0.00000000000E+00 0.  1.
         23    2    1    2    0    0 -0.26594970961E+02 -0.76862602900E+02 -0.31067559851E+03  0.33334715308E+03  0.89363553837E+02 0.  0.
         23    2    1    2    0    0  0.26594970961E+02  0.76862602900E+02 -0.18921414133E+03  0.24091829633E+03  0.12499792806E+03 0.  0.
          5    1    4    4  502    0  0.59910302704E+02  0.80572587189E+01 -0.38397140551E+02  0.71767640275E+02  0.47000000000E+01 0.  1.
         -5    1    4    4    0  502 -0.33315331743E+02  0.68805344181E+02 -0.15081700078E+03  0.16915065605E+03  0.47000000000E+01 0.  1.
        -11    1    3    3    0    0 -0.28664567981E+02 -0.94710864337E+02 -0.28730187344E+03  0.30386538428E+03  0.00000000000E+00 0.  1.
         11    1    3    3    0    0  0.20695970198E+01  0.17848261437E+02 -0.23373725063E+02  0.29481768798E+02  0.00000000000E+00 0. -1.
<mgrwt>
<rscale>  0 0.14148835E+03</rscale>
<asrwt>0</asrwt>
<pdfrwt beam="1">  1        4 0.57212085E-02 0.14912959E+03</pdfrwt>
<pdfrwt beam="2">  1       -4 0.82627322E-01 0.14912959E+03</pdfrwt>
<totfact> 0.42939109E+02</totfact>
</mgrwt>
</event>
<event>
 8    1  0.7550631E-006  0.2166412E+03  0.7546771E-02  0.1138898E+00
          1   -1    0    0  501    0  0.00000000000E+00  0.00000000000E+00  0.11204822514E+04  0.11204822514E+04  0.00000000000E+00 0. -1.
         -1   -1    0    0    0  501 -0.00000000000E+00 -0.00000000000E+00 -0.77084794813E+02  0.77084794813E+02  0.00000000000E+00 0.  1.
         23    2    1    2    0    0 -0.17564792775E+03 -0.21358385942E+02  0.95505496149E+02  0.22523348088E+03  0.10149111263E+03 0.  0.
         23    2    1    2    0    0  0.17564792775E+03  0.21358385942E+02  0.94789196044E+03  0.97233356533E+03  0.12500007372E+03 0.  0.
          5    1    4    4  502    0  0.90906517709E+02  0.69405399915E+02  0.61003028861E+03  0.62067716852E+03  0.47000000000E+01 0. -1.
         -5    1    4    4    0  502  0.84741410040E+02 -0.48047013973E+02  0.33786167183E+03  0.35165639681E+03  0.47000000000E+01 0. -1.
        -11    1    3    3    0    0 -0.33388778036E+02 -0.24549826118E+02 -0.16030250460E+02  0.44435046877E+02  0.00000000000E+00 0.  1.
         11    1    3    3    0    0 -0.14225914971E+03  0.31914401762E+01  0.11153574661E+03  0.18079843401E+03  0.00000000000E+00 0. -1.
<mgrwt>
<rscale>  0 0.21340467E+03</rscale>
<asrwt>0</asrwt>
<pdfrwt beam="1">  1        1 0.17238187E+00 0.21664116E+03</pdfrwt>
<pdfrwt beam="2">  1       -1 0.11859200E-01 0.21664116E+03</pdfrwt>
<totfact> 0.61358837E+02</totfact>
</mgrwt>
</event>
<event>
 8    1  0.7550631E-006  0.1989273E+03  0.7546771E-02  0.1155055E+00
          1   -1    0    0  501    0  0.00000000000E+00  0.00000000000E+00  0.26062670100E+03  0.26062670100E+03  0.00000000000E+00 0. -1.
         -1   -1    0    0    0  501 -0.00000000000E+00 -0.00000000000E+00 -0.14249247681E+03  0.14249247681E+03  0.00000000000E+00 0.  1.
         23    2    1    2    0    0  0.11861460985E+01  0.15474151113E+03  0.17384336239E+02  0.18013346473E+03  0.90551133407E+02 0.  0.
         23    2    1    2    0    0 -0.11861460985E+01 -0.15474151113E+03  0.10074988794E+03  0.22298571308E+03  0.12500298439E+03 0.  0.
          5    1    4    4  502    0 -0.56701939049E+02 -0.49631702636E+02  0.16699599343E+02  0.77326466470E+02  0.47000000000E+01 0. -1.
         -5    1    4    4    0  502  0.55515792950E+02 -0.10510980849E+03  0.84050288602E+02  0.14565924661E+03  0.47000000000E+01 0. -1.
        -11    1    3    3    0    0 -0.53563798973E+00  0.16695273745E+03  0.16591632917E+02  0.16777599868E+03  0.00000000000E+00 0. -1.
         11    1    3    3    0    0  0.17217840882E+01 -0.12211226321E+02  0.79270332153E+00  0.12357466054E+02  0.00000000000E+00 0.  1.
<mgrwt>
<rscale>  0 0.19382575E+03</rscale>
<asrwt>0</asrwt>
<pdfrwt beam="1">  1        1 0.40096416E-01 0.19892734E+03</pdfrwt>
<pdfrwt beam="2">  1       -1 0.21921920E-01 0.19892734E+03</pdfrwt>
<totfact> 0.17989264E+03</totfact>
</mgrwt>
</event>
<event>
 8    1  0.7550631E-006  0.1492597E+03  0.7546771E-02  0.1210372E+00
         -1   -1    0    0    0  501 -0.00000000000E+00  0.00000000000E+00  0.35614271236E+02  0.35614271236E+02  0.00000000000E+00 0.  1.
          1   -1    0    0  501    0  0.00000000000E+00 -0.00000000000E+00 -0.52811208912E+03  0.52811208912E+03  0.00000000000E+00 0. -1.
         23    2    1    2    0    0  0.77125227663E+02  0.26582770571E+02 -0.25664339458E+03  0.28461030593E+03  0.92099130443E+02 0.  0.
         23    2    1    2    0    0 -0.77125227663E+02 -0.26582770571E+02 -0.23585442331E+03  0.27911605443E+03  0.12499407351E+03 0.  0.
          5    1    4    4  502    0 -0.87911757694E+02 -0.31159829426E+02 -0.80633609310E+02  0.12338266110E+03  0.47000000000E+01 0.  1.
         -5    1    4    4    0  502  0.10786530031E+02  0.45770588554E+01 -0.15522081400E+03  0.15573339332E+03  0.47000000000E+01 0.  1.
        -11    1    3    3    0    0  0.89695220660E+02  0.95441396389E+01 -0.14344349378E+03  0.16944721632E+03  0.00000000000E+00 0.  1.
         11    1    3    3    0    0 -0.12569992997E+02  0.17038630932E+02 -0.11319990080E+03  0.11516308961E+03  0.00000000000E+00 0. -1.
<mgrwt>
<rscale>  0 0.14222064E+03</rscale>
<asrwt>0</asrwt>
<pdfrwt beam="2">  1        1 0.81248016E-01 0.14925972E+03</pdfrwt>
<pdfrwt beam="1">  1       -1 0.54791185E-02 0.14925972E+03</pdfrwt>
<totfact> 0.62134725E+03</totfact>
</mgrwt>
</event>
<event>
 8    1  0.7550631E-006  0.1842757E+03  0.7546771E-02  0.1168805E+00
          2   -1    0    0  501    0  0.00000000000E+00  0.00000000000E+00  0.76809439855E+02  0.76809439855E+02  0.00000000000E+00 0. -1.
         -2   -1    0    0    0  501 -0.00000000000E+00 -0.00000000000E+00 -0.39784505508E+03  0.39784505508E+03  0.00000000000E+00 0.  1.
         23    2    1    2    0    0  0.54602997257E+01  0.13529503596E+03 -0.17236288782E+03  0.23788220538E+03  0.92436015213E+02 0.  0.
         23    2    1    2    0    0 -0.54602997257E+01 -0.13529503596E+03 -0.14867272740E+03  0.23677228955E+03  0.12499190213E+03 0.  0.
          5    1    4    4  502    0  0.40208570919E+02 -0.88047554810E+02 -0.30705609580E+02  0.10165640926E+03  0.47000000000E+01 0. -1.
         -5    1    4    4    0  502 -0.45668870645E+02 -0.47247481154E+02 -0.11796711782E+03  0.13511588030E+03  0.47000000000E+01 0. -1.
        -11    1    3    3    0    0 -0.38960662667E+02  0.97891361270E+02 -0.12000092085E+03  0.15968992721E+03  0.00000000000E+00 0.  1.
         11    1    3    3    0    0  0.44420962393E+02  0.37403674693E+02 -0.52361966972E+02  0.78192278172E+02  0.00000000000E+00 0. -1.
<mgrwt>
<rscale>  0 0.17896894E+03</rscale>
<asrwt>0</asrwt>
<pdfrwt beam="1">  1        2 0.11816837E-01 0.18427571E+03</pdfrwt>
<pdfrwt beam="2">  1       -2 0.61206931E-01 0.18427571E+03</pdfrwt>
<totfact> 0.13021848E+03</totfact>
</mgrwt>
</event>
<event>
 8    1  0.7550631E-006  0.1329578E+03  0.7546771E-02  0.1235921E+00
         -1   -1    0    0    0  501 -0.00000000000E+00  0.00000000000E+00  0.67497921284E+02  0.67497921284E+02  0.00000000000E+00 0.  1.
          1   -1    0    0  501    0  0.00000000000E+00 -0.00000000000E+00 -0.20701562737E+03  0.20701562737E+03  0.00000000000E+00 0. -1.
         23    2    1    2    0    0  0.19269936586E+02  0.40992679760E+02 -0.46012537240E+02  0.11196815812E+03  0.91476688832E+02 0.  0.
         23    2    1    2    0    0 -0.19269936586E+02 -0.40992679760E+02 -0.93505168848E+02  0.16254539054E+03  0.12500422846E+03 0.  0.
          5    1    4    4  502    0 -0.65108449190E+02 -0.77049531622E+01 -0.18219270862E+02  0.68209297680E+02  0.47000000000E+01 0.  1.
         -5    1    4    4    0  502  0.45838512605E+02 -0.33287726598E+02 -0.75285897986E+02  0.94336092857E+02  0.47000000000E+01 0.  1.
        -11    1    3    3    0    0  0.15734405159E+02  0.44758698358E+01 -0.67498146291E+02  0.69452175410E+02  0.00000000000E+00 0. -1.
         11    1    3    3    0    0  0.35355314270E+01  0.36516809924E+02  0.21485609051E+02  0.42515982710E+02  0.00000000000E+00 0.  1.
<mgrwt>
<rscale>  0 0.12445646E+03</rscale>
<asrwt>0</asrwt>
<pdfrwt beam="2">  1        1 0.31848558E-01 0.13295784E+03</pdfrwt>
<pdfrwt beam="1">  1       -1 0.10384296E-01 0.13295784E+03</pdfrwt>
<totfact> 0.76365471E+03</totfact>
</mgrwt>
</event>
<event>
 8    1  0.7550631E-006  0.1393883E+03  0.7546771E-02  0.1225358E+00
          3   -1    0    0  501    0  0.00000000000E+00  0.00000000000E+00  0.87655969837E+02  0.87655969837E+02  0.00000000000E+00 0. -1.
         -3   -1    0    0    0  501 -0.00000000000E+00 -0.00000000000E+00 -0.17761074417E+03  0.17761074417E+03  0.00000000000E+00 0.  1.
         23    2    1    2    0    0  0.36196160713E+02  0.49939397732E+02 -0.39462103591E+02  0.11701491238E+03  0.91275005363E+02 0.  0.
         23    2    1    2    0    0 -0.36196160713E+02 -0.49939397732E+02 -0.50492670746E+02  0.14825180163E+03  0.12499992556E+03 0.  0.
          5    1    4    4  502    0 -0.37422269782E+02  0.36692363074E+02 -0.19274385835E+02  0.56038805598E+02  0.47000000000E+01 0.  1.
         -5    1    4    4    0  502  0.12261090688E+01 -0.86631760806E+02 -0.31218284911E+02  0.92212996029E+02  0.47000000000E+01 0.  1.
        -11    1    3    3    0    0  0.39378969957E+00 -0.25946900067E+02 -0.56955175666E+01  0.26567566952E+02  0.00000000000E+00 0.  1.
         11    1    3    3    0    0  0.35802371013E+02  0.75886297799E+02 -0.33766586024E+02  0.90447345431E+02  0.00000000000E+00 0. -1.
<mgrwt>
<rscale>  0 0.13142430E+03</rscale>
<asrwt>0</asrwt>
<pdfrwt beam="1">  1        3 0.13485534E-01 0.13938826E+03</pdfrwt>
<pdfrwt beam="2">  1       -3 0.27324729E-01 0.13938826E+03</pdfrwt>
<totfact> 0.13142458E+03</totfact>
</mgrwt>
</event>
<event>
 8    1  0.7550631E-006  0.1366857E+03  0.7546771E-02  0.1229727E+00
          2   -1    0    0  501    0  0.00000000000E+00  0.00000000000E+00  0.16987795282E+03  0.16987795282E+03  0.00000000000E+00 0. -1.
         -2   -1    0    0    0  501 -0.00000000000E+00 -0.00000000000E+00 -0.12999414751E+03  0.12999414751E+03  0.00000000000E+00 0.  1.
         23    2    1    2    0    0 -0.55282281843E+02  0.18947712353E+01 -0.67314502590E+02  0.12616410307E+03  0.91249207121E+02 0.  0.
         23    2    1    2    0    0  0.55282281843E+02 -0.18947712353E+01  0.10719830789E+03  0.17370799726E+03  0.12499308082E+03 0.  0.
          5    1    4    4  502    0  0.38280349223E+02 -0.53682790155E+02  0.98032576599E+02  0.11823579479E+03  0.47000000000E+01 0.  1.
         -5    1    4    4    0  502  0.17001932620E+02  0.51788018919E+02  0.91657312946E+01  0.55472202467E+02  0.47000000000E+01 0.  1.
        -11    1    3    3    0    0 -0.24566508288E+02  0.44721206225E+02 -0.47941951828E+02  0.70013786933E+02  0.00000000000E+00 0.  1.
         11    1    3    3    0    0 -0.30715773556E+02 -0.42826434990E+02 -0.19372550762E+02  0.56150316135E+02  0.00000000000E+00 0. -1.
<mgrwt>
<rscale>  0 0.12848116E+03</rscale>
<asrwt>0</asrwt>
<pdfrwt beam="1">  1        2 0.26135070E-01 0.13668574E+03</pdfrwt>
<pdfrwt beam="2">  1       -2 0.19999100E-01 0.13668574E+03</pdfrwt>
<totfact> 0.41261192E+03</totfact>
</mgrwt>
</event>
<event>
 8    1  0.7550631E-006  0.1318559E+03  0.7546771E-02  0.1235999E+00
          2   -1    0    0  501    0  0.00000000000E+00  0.00000000000E+00  0.32843204012E+03  0.32843204012E+03  0.00000000000E+00 0. -1.
         -2   -1    0    0    0  501 -0.00000000000E+00 -0.00000000000E+00 -0.43173686674E+02  0.43173686674E+02  0.00000000000E+00 0.  1.
         23    2    1    2    0    0 -0.41996668082E+02  0.62060132434E+00  0.10366368902E+03  0.14718961850E+03  0.95679245901E+02 0.  0.
         23    2    1    2    0    0  0.41996668082E+02 -0.62060132434E+00  0.18159466443E+03  0.22441610830E+03  0.12498744833E+03 0.  0.
          5    1    4    4  502    0  0.56438862199E+02  0.64858593561E+01  0.19486533303E+03  0.20303201609E+03  0.47000000000E+01 0.  1.
         -5    1    4    4    0  502 -0.14442194117E+02 -0.71064606804E+01 -0.13270668609E+02  0.21384092210E+02  0.47000000000E+01 0.  1.
        -11    1    3    3    0    0 -0.42415289321E+02 -0.22343033553E+02  0.77478763462E+01  0.48562305386E+02  0.00000000000E+00 0.  1.
         11    1    3    3    0    0  0.41862123973E+00  0.22963634877E+02  0.95915812675E+02  0.98627313112E+02  0.00000000000E+00 0. -1.
<mgrwt>
<rscale>  0 0.12440721E+03</rscale>
<asrwt>0</asrwt>
<pdfrwt beam="1">  1        2 0.50528005E-01 0.13185586E+03</pdfrwt>
<pdfrwt beam="2">  1       -2 0.66421059E-02 0.13185586E+03</pdfrwt>
<totfact> 0.11801451E+04</totfact>
</mgrwt>
</event>
<event>
 8    1  0.7550631E-006  0.1331500E+03  0.7546771E-02  0.1234765E+00
         -1   -1    0    0    0  501 -0.00000000000E+00  0.00000000000E+00  0.45231485013E+02  0.45231485013E+02  0.00000000000E+00 0.  1.
          1   -1    0    0  501    0  0.00000000000E+00 -0.00000000000E+00 -0.32079386680E+03  0.32079386680E+03  0.00000000000E+00 0. -1.
         23    2    1    2    0    0 -0.44885479166E+02 -0.95074900469E+01 -0.89703041783E+02  0.13739332178E+03  0.93408728492E+02 0.  0.
         23    2    1    2    0    0  0.44885479166E+02  0.95074900469E+01 -0.18585934000E+03  0.22863203003E+03  0.12499524904E+03 0.  0.
          5    1    4    4  502    0  0.14093020736E+02  0.38192533787E+02 -0.31735553275E+01  0.41102850558E+02  0.47000000000E+01 0. -1.
         -5    1    4    4    0  502  0.30792458429E+02 -0.28685043740E+02 -0.18268578467E+03  0.18752917947E+03  0.47000000000E+01 0. -1.
        -11    1    3    3    0    0  0.15737828072E+02 -0.10825058293E+02 -0.71610234259E+02  0.74114011969E+02  0.00000000000E+00 0.  1.
         11    1    3    3    0    0 -0.60623307237E+02  0.13175682464E+01 -0.18092807524E+02  0.63279309814E+02  0.00000000000E+00 0. -1.
<mgrwt>
<rscale>  0 0.12519465E+03</rscale>
<asrwt>0</asrwt>
<pdfrwt beam="2">  1        1 0.49352902E-01 0.13314996E+03</pdfrwt>
<pdfrwt beam="1">  1       -1 0.69586900E-02 0.13314996E+03</pdfrwt>
<totfact> 0.81401203E+03</totfact>
</mgrwt>
</event>
<event>
 7    1  0.7550631E-006  0.2531840E+03  0.7546771E-02  0.1152343E+00
          1   -1    0    0  501    0  0.00000000000E+00  0.00000000000E+00  0.28903332972E+03  0.28903332972E+03  0.00000000000E+00 0. -1.
         -1   -1    0    0    0  501 -0.00000000000E+00 -0.00000000000E+00 -0.11405890747E+03  0.11405890747E+03  0.00000000000E+00 0.  1.
         23    2    1    2    0    0 -0.92165216283E+01  0.18870338199E+02 -0.44097116736E+01  0.92800753737E+02  0.90285660005E+02 0.  0.
          5    1    1    2  502    0 -0.11446998544E+03  0.27286057037E+02  0.10965172534E+03  0.16091456536E+03  0.47000000000E+01 0. -1.
         -5    1    1    2    0  502  0.12368650707E+03 -0.46156395236E+02  0.69732408572E+02  0.14937691809E+03  0.47000000000E+01 0.  1.
        -11    1    3    3    0    0  0.17776984515E+02  0.18840612998E+02 -0.40291085188E+02  0.47899492922E+02  0.00000000000E+00 0.  1.
         11    1    3    3    0    0 -0.26993506144E+02  0.29725201152E-01  0.35881373514E+02  0.44901260815E+02  0.00000000000E+00 0. -1.
<mgrwt>
<rscale>  0 0.19694382E+03</rscale>
<asrwt>0</asrwt>
<pdfrwt beam="1">  1        1 0.44466666E-01 0.25318400E+03</pdfrwt>
<pdfrwt beam="2">  1       -1 0.17547524E-01 0.25318400E+03</pdfrwt>
<totfact> 0.22816286E+03</totfact>
</mgrwt>
</event>
<event>
 8    1  0.7550631E-006  0.1264785E+03  0.7546771E-02  0.1248470E+00
         -2   -1    0    0    0  501 -0.00000000000E+00  0.00000000000E+00  0.29777710359E+02  0.29777710359E+02  0.00000000000E+00 0.  1.
          2   -1    0    0  501    0  0.00000000000E+00 -0.00000000000E+00 -0.50406870222E+03  0.50406870222E+03  0.00000000000E+00 0. -1.
         23    2    1    2    0    0  0.16520440061E+02 -0.99452542573E+01 -0.87712996213E+02  0.12710404836E+03  0.89944629541E+02 0.  0.
         23    2    1    2    0    0 -0.16520440061E+02  0.99452542573E+01 -0.38657799565E+03  0.40674236422E+03  0.12499988443E+03 0.  0.
          5    1    4    4  502    0 -0.46645427048E+01  0.62349047246E+02 -0.28412087974E+03  0.29095691426E+03  0.47000000000E+01 0. -1.
         -5    1    4    4    0  502 -0.11855897356E+02 -0.52403792989E+02 -0.10245711591E+03  0.11578544996E+03  0.47000000000E+01 0. -1.
        -11    1    3    3    0    0  0.71931588386E+01 -0.24497806382E+02 -0.10170795500E+03  0.10486368371E+03  0.00000000000E+00 0. -1.
         11    1    3    3    0    0  0.93272812223E+01  0.14552552125E+02  0.13994958785E+02  0.22240364650E+02  0.00000000000E+00 0.  1.
<mgrwt>
<rscale>  0 0.11680078E+03</rscale>
<asrwt>0</asrwt>
<pdfrwt beam="2">  1        2 0.77549029E-01 0.12647847E+03</pdfrwt>
<pdfrwt beam="1">  1       -2 0.45811864E-02 0.12647847E+03</pdfrwt>
<totfact> 0.13010768E+04</totfact>
</mgrwt>
</event>
<event>
 8    1  0.7550631E-006  0.1440132E+03  0.7546771E-02  0.1218559E+00
         -2   -1    0    0    0  501 -0.00000000000E+00  0.00000000000E+00  0.31491468356E+02  0.31491468356E+02  0.00000000000E+00 0.  1.
          2   -1    0    0  501    0  0.00000000000E+00 -0.00000000000E+00 -0.57695715923E+03  0.57695715923E+03  0.00000000000E+00 0. -1.
         23    2    1    2    0    0  0.11410873749E+02 -0.70586867532E+02 -0.16139398694E+03  0.19826468292E+03  0.90267112309E+02 0.  0.
         23    2    1    2    0    0 -0.11410873749E+02  0.70586867532E+02 -0.38407170393E+03  0.41018394467E+03  0.12500832290E+03 0.  0.
          5    1    4    4  502    0 -0.26480301425E+02  0.10289856129E+03 -0.31218069736E+03  0.32980023967E+03  0.47000000000E+01 0. -1.
         -5    1    4    4    0  502  0.15069427676E+02 -0.32311693757E+02 -0.71891006573E+02  0.80383705003E+02  0.47000000000E+01 0. -1.
        -11    1    3    3    0    0  0.40832035830E+02 -0.35860729065E+02 -0.36835826850E+02  0.65651543613E+02  0.00000000000E+00 0.  1.
         11    1    3    3    0    0 -0.29421162081E+02 -0.34726138467E+02 -0.12455816009E+03  0.13261313931E+03  0.00000000000E+00 0. -1.
<mgrwt>
<rscale>  0 0.13618308E+03</rscale>
<asrwt>0</asrwt>
<pdfrwt beam="2">  1        2 0.88762641E-01 0.14401318E+03</pdfrwt>
<pdfrwt beam="1">  1       -2 0.48448412E-02 0.14401318E+03</pdfrwt>
<totfact> 0.10392221E+04</totfact>
</mgrwt>
</event>
<event>
 8    1  0.7550631E-006  0.1525489E+03  0.7546771E-02  0.1204024E+00
          2   -1    0    0  501    0  0.00000000000E+00  0.00000000000E+00  0.57820511675E+03  0.57820511675E+03  0.00000000000E+00 0. -1.
         -2   -1    0    0    0  501 -0.00000000000E+00 -0.00000000000E+00 -0.48224563862E+02  0.48224563862E+02  0.00000000000E+00 0.  1.
         23    2    1    2    0    0  0.85685522518E+00 -0.87438547640E+02  0.87565783204E+02  0.15845318116E+03  0.98961661358E+02 0.  0.
         23    2    1    2    0    0 -0.85685522518E+00  0.87438547640E+02  0.44241476968E+03  0.46797649945E+03  0.12499976715E+03 0.  0.
          5    1    4    4  502    0 -0.26176910641E+02 -0.20513268133E+02  0.17921597509E+03  0.18233617454E+03  0.47000000000E+01 0. -1.
         -5    1    4    4    0  502  0.25320055416E+02  0.10795181577E+03  0.26319879460E+03  0.28564032491E+03  0.47000000000E+01 0. -1.
        -11    1    3    3    0    0 -0.37333941023E+02 -0.28899045530E+02  0.73187153280E+02  0.87093842435E+02  0.00000000000E+00 0. -1.
         11    1    3    3    0    0  0.38190796248E+02 -0.58539502110E+02  0.14378629923E+02  0.71359338729E+02  0.00000000000E+00 0.  1.
<mgrwt>
<rscale>  0 0.14714621E+03</rscale>
<asrwt>0</asrwt>
<pdfrwt beam="1">  1        2 0.88954628E-01 0.15254893E+03</pdfrwt>
<pdfrwt beam="2">  1       -2 0.74191641E-02 0.15254893E+03</pdfrwt>
<totfact> 0.54421541E+03</totfact>
</mgrwt>
</event>
<event>
 8    1  0.7550631E-006  0.1620236E+03  0.7546771E-02  0.1193746E+00
         -2   -1    0    0    0  501 -0.00000000000E+00  0.00000000000E+00  0.28127208295E+02  0.28127208295E+02  0.00000000000E+00 0. -1.
          2   -1    0    0  501    0  0.00000000000E+00 -0.00000000000E+00 -0.88671428333E+03  0.88671428333E+03  0.00000000000E+00 0.  1.
         23    2    1    2    0    0 -0.89852467247E+02 -0.50554575002E+02 -0.25484660339E+03  0.28973813348E+03  0.91499528997E+02 0.  0.
         23    2    1    2    0    0  0.89852467247E+02  0.50554575002E+02 -0.60374047164E+03  0.62510335815E+03  0.12498968095E+03 0.  0.
          5    1    4    4  502    0  0.44098334992E+02  0.79411165121E+02 -0.49798654195E+03  0.50622473494E+03  0.47000000000E+01 0.  1.
         -5    1    4    4    0  502  0.45754132256E+02 -0.28856590119E+02 -0.10575392969E+03  0.11887862321E+03  0.47000000000E+01 0.  1.
        -11    1    3    3    0    0 -0.53853449667E+02 -0.75173789840E+02 -0.19359099308E+03  0.21454315492E+03  0.00000000000E+00 0.  1.
         11    1    3    3    0    0 -0.35999017581E+02  0.24619214838E+02 -0.61255610309E+02  0.75194978558E+02  0.00000000000E+00 0. -1.
<mgrwt>
<rscale>  0 0.15560800E+03</rscale>
<asrwt>0</asrwt>
<pdfrwt beam="2">  1        2 0.13641755E+00 0.16202361E+03</pdfrwt>
<pdfrwt beam="1">  1       -2 0.43272637E-02 0.16202361E+03</pdfrwt>
<totfact> 0.73774420E+03</totfact>
</mgrwt>
</event>
<event>
 8    1  0.7550631E-006  0.1694913E+03  0.7546771E-02  0.1184261E+00
          1   -1    0    0  501    0  0.00000000000E+00  0.00000000000E+00  0.35835727925E+03  0.35835727925E+03  0.00000000000E+00 0. -1.
         -1   -1    0    0    0  501 -0.00000000000E+00 -0.00000000000E+00 -0.92335558727E+02  0.92335558727E+02  0.00000000000E+00 0.  1.
         23    2    1    2    0    0 -0.11445810712E+03 -0.82030231898E-01  0.17072375236E+02  0.14952330361E+03  0.94684144987E+02 0.  0.
         23    2    1    2    0    0  0.11445810712E+03  0.82030231898E-01  0.24894934528E+03  0.30116953436E+03  0.12500658741E+03 0.  0.
          5    1    4    4  502    0  0.48947319684E+02  0.59802451785E+02  0.86808663318E+02  0.11631855987E+03  0.47000000000E+01 0. -1.
         -5    1    4    4    0  502  0.65510787438E+02 -0.59720421553E+02  0.16214068197E+03  0.18485097449E+03  0.47000000000E+01 0. -1.
        -11    1    3    3    0    0 -0.40314164686E+02 -0.54837049474E+01 -0.39037448206E+02  0.56384618973E+02  0.00000000000E+00 0.  1.
         11    1    3    3    0    0 -0.74143942436E+02  0.54016747155E+01  0.56109823442E+02  0.93138684640E+02  0.00000000000E+00 0. -1.
<mgrwt>
<rscale>  0 0.16399306E+03</rscale>
<asrwt>0</asrwt>
<pdfrwt beam="1">  1        1 0.55131889E-01 0.16949133E+03</pdfrwt>
<pdfrwt beam="2">  1       -1 0.14205471E-01 0.16949133E+03</pdfrwt>
<totfact> 0.24066367E+03</totfact>
</mgrwt>
</event>
<event>
 8    1  0.7550631E-006  0.1412884E+03  0.7546771E-02  0.1222256E+00
          2   -1    0    0  501    0  0.00000000000E+00  0.00000000000E+00  0.13554682748E+03  0.13554682748E+03  0.00000000000E+00 0. -1.
         -2   -1    0    0    0  501 -0.00000000000E+00 -0.00000000000E+00 -0.14422179861E+03  0.14422179861E+03  0.00000000000E+00 0.  1.
         23    2    1    2    0    0 -0.38430596038E+02  0.53475448579E+02 -0.61995374171E+02  0.12875383765E+03  0.91638365217E+02 0.  0.
         23    2    1    2    0    0  0.38430596038E+02 -0.53475448579E+02  0.53320403033E+02  0.15101478843E+03  0.12500346649E+03 0.  0.
          5    1    4    4  502    0 -0.38890408626E+02 -0.45505203308E+02  0.71101422052E+01  0.60463472720E+02  0.47000000000E+01 0. -1.
         -5    1    4    4    0  502  0.77321004663E+02 -0.79702452710E+01  0.46210260828E+02  0.90551315714E+02  0.47000000000E+01 0. -1.
        -11    1    3    3    0    0 -0.29247128650E+02  0.63286271338E+02 -0.80110104387E+02  0.10619875470E+03  0.00000000000E+00 0.  1.
         11    1    3    3    0    0 -0.91834673879E+01 -0.98108227591E+01  0.18114730216E+02  0.22555082959E+02  0.00000000000E+00 0. -1.
<mgrwt>
<rscale>  0 0.13356754E+03</rscale>
<asrwt>0</asrwt>
<pdfrwt beam="1">  1        2 0.20853358E-01 0.14128836E+03</pdfrwt>
<pdfrwt beam="2">  1       -2 0.22187969E-01 0.14128836E+03</pdfrwt>
<totfact> 0.44514595E+03</totfact>
</mgrwt>
</event>
<event>
 8    1  0.7550631E-006  0.1556981E+03  0.7546771E-02  0.1198363E+00
         -2   -1    0    0    0  501 -0.00000000000E+00  0.00000000000E+00  0.10027536145E+03  0.10027536145E+03  0.00000000000E+00 0.  1.
          2   -1    0    0  501    0  0.00000000000E+00 -0.00000000000E+00 -0.22383948794E+03  0.22383948794E+03  0.00000000000E+00 0. -1.
         23    2    1    2    0    0  0.54332875548E+01  0.92670626413E+02 -0.33946453589E+02  0.14446737515E+03  0.10536173479E+03 0.  0.
         23    2    1    2    0    0 -0.54332875548E+01 -0.92670626413E+02 -0.89617672901E+02  0.17964747424E+03  0.12499808835E+03 0.  0.
          5    1    4    4  502    0  0.53573109951E+02 -0.13625625650E+02 -0.20651965591E+02  0.59197377197E+02  0.47000000000E+01 0.  1.
         -5    1    4    4    0  502 -0.59006397506E+02 -0.79045000764E+02 -0.68965707310E+02  0.12045009704E+03  0.47000000000E+01 0.  1.
        -11    1    3    3    0    0  0.51248852731E+02  0.67216142620E+02 -0.36329195708E+02  0.92001441270E+02  0.00000000000E+00 0. -1.
         11    1    3    3    0    0 -0.45815565176E+02  0.25454483793E+02  0.23827421195E+01  0.52465933877E+02  0.00000000000E+00 0.  1.
<mgrwt>
<rscale>  0 0.15173003E+03</rscale>
<asrwt>0</asrwt>
<pdfrwt beam="2">  1        2 0.34436844E-01 0.15569807E+03</pdfrwt>
<pdfrwt beam="1">  1       -2 0.15426979E-01 0.15569807E+03</pdfrwt>
<totfact> 0.47488231E+03</totfact>
</mgrwt>
</event>
<event>
 8    1  0.7550631E-006  0.1491927E+03  0.7546771E-02  0.1210167E+00
         -3   -1    0    0    0  501 -0.00000000000E+00  0.00000000000E+00  0.47334562963E+02  0.47334562963E+02  0.00000000000E+00 0.  1.
          3   -1    0    0  501    0  0.00000000000E+00 -0.00000000000E+00 -0.46808785613E+03  0.46808785613E+03  0.00000000000E+00 0. -1.
         23    2    1    2    0    0 -0.28027382297E+02 -0.76467920527E+02 -0.91343616131E+02  0.15380219026E+03  0.93158899155E+02 0.  0.
         23    2    1    2    0    0  0.28027382297E+02  0.76467920527E+02 -0.32940967704E+03  0.36162022884E+03  0.12500231018E+03 0.  0.
          5    1    4    4  502    0 -0.45297937057E+02  0.18282801563E+02 -0.16749303845E+03  0.17453415673E+03  0.47000000000E+01 0.  1.
         -5    1    4    4    0  502  0.73325319354E+02  0.58185118964E+02 -0.16191663858E+03  0.18708607211E+03  0.47000000000E+01 0.  1.
        -11    1    3    3    0    0 -0.35040505628E+02 -0.48478308350E+01  0.25929720384E+01  0.35469169746E+02  0.00000000000E+00 0.  1.
         11    1    3    3    0    0  0.70131233312E+01 -0.71620089691E+02 -0.93936588170E+02  0.11833302051E+03  0.00000000000E+00 0. -1.
<mgrwt>
<rscale>  0 0.14237630E+03</rscale>
<asrwt>0</asrwt>
<pdfrwt beam="2">  1        3 0.72013515E-01 0.14919268E+03</pdfrwt>
<pdfrwt beam="1">  1       -3 0.72822406E-02 0.14919268E+03</pdfrwt>
<totfact> 0.54789161E+02</totfact>
</mgrwt>
</event>
<event>
 8    1  0.7550631E-006  0.1361267E+03  0.7546771E-02  0.1230538E+00
         -2   -1    0    0    0  501 -0.00000000000E+00  0.00000000000E+00  0.16100723530E+02  0.16100723530E+02  0.00000000000E+00 0.  1.
          2   -1    0    0  501    0  0.00000000000E+00 -0.00000000000E+00 -0.10372577134E+04  0.10372577134E+04  0.00000000000E+00 0. -1.
         23    2    1    2    0    0  0.30607588106E+01  0.53831723770E+02 -0.27343404294E+03  0.29334522515E+03  0.91531538548E+02 0.  0.
         23    2    1    2    0    0 -0.30607588106E+01 -0.53831723770E+02 -0.74772294696E+03  0.76001321181E+03  0.12499301578E+03 0.  0.
          5    1    4    4  502    0 -0.13154606811E+02 -0.38616370935E+02 -0.73735243944E+03  0.73849507631E+03  0.47000000000E+01 0.  1.
         -5    1    4    4    0  502  0.10093848000E+02 -0.15215352835E+02 -0.10370507518E+02  0.21518135503E+02  0.47000000000E+01 0.  1.
        -11    1    3    3    0    0 -0.42800920563E+02  0.22379596718E+02 -0.97081131097E+02  0.10843205783E+03  0.00000000000E+00 0. -1.
         11    1    3    3    0    0  0.45861679374E+02  0.31452127052E+02 -0.17635291184E+03  0.18491316732E+03  0.00000000000E+00 0.  1.
<mgrwt>
<rscale>  0 0.12794442E+03</rscale>
<asrwt>0</asrwt>
<pdfrwt beam="2">  1        2 0.15957808E+00 0.13612669E+03</pdfrwt>
<pdfrwt beam="1">  1       -2 0.24770348E-02 0.13612669E+03</pdfrwt>
<totfact> 0.13483198E+04</totfact>
</mgrwt>
</event>
<event>
 8    1  0.7550631E-006  0.1302068E+03  0.7546771E-02  0.1243150E+00
         -1   -1    0    0    0  501 -0.00000000000E+00  0.00000000000E+00  0.32920748131E+02  0.32920748131E+02  0.00000000000E+00 0.  1.
          1   -1    0    0  501    0  0.00000000000E+00 -0.00000000000E+00 -0.46598332519E+03  0.46598332519E+03  0.00000000000E+00 0. -1.
         23    2    1    2    0    0 -0.33908338517E+02  0.13392547848E+02 -0.82511244412E+02  0.12495215433E+03  0.86462706746E+02 0.  0.
         23    2    1    2    0    0  0.33908338517E+02 -0.13392547848E+02 -0.35055133264E+03  0.37395191899E+03  0.12499866055E+03 0.  0.
          5    1    4    4  502    0  0.64140419699E+02 -0.45024195300E+02 -0.28002707843E+03  0.29082370305E+03  0.47000000000E+01 0.  1.
         -5    1    4    4    0  502 -0.30232081182E+02  0.31631647452E+02 -0.70524254214E+02  0.83128215941E+02  0.47000000000E+01 0.  1.
        -11    1    3    3    0    0 -0.39418842259E+02 -0.18044803212E+02 -0.82610312781E+01  0.44132807364E+02  0.00000000000E+00 0.  1.
         11    1    3    3    0    0  0.55105037425E+01  0.31437351060E+02 -0.74250213134E+02  0.80819346963E+02  0.00000000000E+00 0. -1.
<mgrwt>
<rscale>  0 0.11996814E+03</rscale>
<asrwt>0</asrwt>
<pdfrwt beam="2">  1        1 0.71689737E-01 0.13020676E+03</pdfrwt>
<pdfrwt beam="1">  1       -1 0.50647308E-02 0.13020676E+03</pdfrwt>
<totfact> 0.81521539E+03</totfact>
</mgrwt>
</event>
<event>
 8    1  0.7550631E-006  0.1960715E+03  0.7546771E-02  0.1157670E+00
          2   -1    0    0  501    0  0.00000000000E+00  0.00000000000E+00  0.13844581083E+04  0.13844581083E+04  0.00000000000E+00 0. -1.
         -2   -1    0    0    0  501 -0.00000000000E+00 -0.00000000000E+00 -0.51895388995E+02  0.51895388995E+02  0.00000000000E+00 0.  1.
         23    2    1    2    0    0  0.37283029496E+02 -0.14637687674E+03  0.13254059090E+03  0.22041881780E+03  0.90560657429E+02 0.  0.
         23    2    1    2    0    0 -0.37283029496E+02  0.14637687674E+03  0.12000221284E+04  0.12159346795E+04  0.12501128666E+03 0.  0.
          5    1    4    4  502    0  0.76582042189E+01 -0.12197931763E+02  0.33471708870E+03  0.33505978138E+03  0.47000000000E+01 0. -1.
         -5    1    4    4    0  502 -0.44941233715E+02  0.15857480850E+03  0.86530503971E+03  0.88087489811E+03  0.47000000000E+01 0. -1.
        -11    1    3    3    0    0 -0.46815245971E+01 -0.65656329501E+02  0.10751239259E+03  0.12606182942E+03  0.00000000000E+00 0. -1.
         11    1    3    3    0    0  0.41964554093E+02 -0.80720547236E+02  0.25028198309E+02  0.94356988385E+02  0.00000000000E+00 0.  1.
<mgrwt>
<rscale>  0 0.19088053E+03</rscale>
<asrwt>0</asrwt>
<pdfrwt beam="1">  1        2 0.21299353E+00 0.19607151E+03</pdfrwt>
<pdfrwt beam="2">  1       -2 0.79839071E-02 0.19607151E+03</pdfrwt>
<totfact> 0.15002158E+03</totfact>
</mgrwt>
</event>
<event>
 8    1  0.7550631E-006  0.1365348E+03  0.7546771E-02  0.1228482E+00
          1   -1    0    0  501    0  0.00000000000E+00  0.00000000000E+00  0.73006806380E+02  0.73006806380E+02  0.00000000000E+00 0. -1.
         -1   -1    0    0    0  501 -0.00000000000E+00 -0.00000000000E+00 -0.20790765560E+03  0.20790765560E+03  0.00000000000E+00 0.  1.
         23    2    1    2    0    0  0.35814200592E+02  0.41660821021E+02 -0.61756011601E+02  0.12602122890E+03  0.95127620558E+02 0.  0.
         23    2    1    2    0    0 -0.35814200592E+02 -0.41660821021E+02 -0.73144837616E+02  0.15489323308E+03  0.12499386149E+03 0.  0.
          5    1    4    4  502    0  0.79991435760E+01  0.25794805330E+02 -0.68963684979E+02  0.74212115762E+02  0.47000000000E+01 0. -1.
         -5    1    4    4    0  502 -0.43813344168E+02 -0.67455626350E+02 -0.41811526369E+01  0.80681117313E+02  0.47000000000E+01 0. -1.
        -11    1    3    3    0    0 -0.24445690113E+02  0.75207497377E+00 -0.45103713531E+02  0.51307917090E+02  0.00000000000E+00 0.  1.
         11    1    3    3    0    0  0.60259890705E+02  0.40908746047E+02 -0.16652298070E+02  0.74713311812E+02  0.00000000000E+00 0. -1.
<mgrwt>
<rscale>  0 0.12931081E+03</rscale>
<asrwt>0</asrwt>
<pdfrwt beam="1">  1        1 0.11231816E-01 0.13653478E+03</pdfrwt>
<pdfrwt beam="2">  1       -1 0.31985793E-01 0.13653478E+03</pdfrwt>
<totfact> 0.47926614E+03</totfact>
</mgrwt>
</event>
<event>
 8    1  0.7550631E-006  0.1478503E+03  0.7546771E-02  0.1212323E+00
         -2   -1    0    0    0  501 -0.00000000000E+00  0.00000000000E+00  0.58723316697E+02  0.58723316697E+02  0.00000000000E+00 0. -1.
          2   -1    0    0  501    0  0.00000000000E+00 -0.00000000000E+00 -0.36791484133E+03  0.36791484133E+03  0.00000000000E+00 0.  1.
         23    2    1    2    0    0  0.73466245059E+02 -0.28939699490E+02 -0.56637614102E+02  0.13398960259E+03  0.92252907281E+02 0.  0.
         23    2    1    2    0    0 -0.73466245059E+02  0.28939699490E+02 -0.25255391053E+03  0.29264855544E+03  0.12499961562E+03 0.  0.
          5    1    4    4  502    0 -0.76047339074E+02  0.71587650852E+02 -0.17000215146E+03  0.19957657938E+03  0.47000000000E+01 0. -1.
         -5    1    4    4    0  502  0.25810940145E+01 -0.42647951362E+02 -0.82551759076E+02  0.93071976063E+02  0.47000000000E+01 0. -1.
        -11    1    3    3    0    0  0.77939582779E+02 -0.50872517043E+02 -0.27118741421E+02  0.96943373628E+02  0.00000000000E+00 0. -1.
         11    1    3    3    0    0 -0.44733377195E+01  0.21932817553E+02 -0.29518872680E+02  0.37046228964E+02  0.00000000000E+00 0.  1.
<mgrwt>
<rscale>  0 0.14075007E+03</rscale>
<asrwt>0</asrwt>
<pdfrwt beam="2">  1        2 0.56602284E-01 0.14785026E+03</pdfrwt>
<pdfrwt beam="1">  1       -2 0.90343564E-02 0.14785026E+03</pdfrwt>
<totfact> 0.65598405E+03</totfact>
</mgrwt>
</event>
<event>
 8    1  0.7550631E-006  0.1346375E+03  0.7546771E-02  0.1232330E+00
         -2   -1    0    0    0  501 -0.00000000000E+00  0.00000000000E+00  0.10154466191E+03  0.10154466191E+03  0.00000000000E+00 0.  1.
          2   -1    0    0  501    0  0.00000000000E+00 -0.00000000000E+00 -0.14238469323E+03  0.14238469323E+03  0.00000000000E+00 0. -1.
         23    2    1    2    0    0 -0.39648895893E+01 -0.49858894085E+02 -0.16013118478E+02  0.10702196174E+03  0.93250472724E+02 0.  0.
         23    2    1    2    0    0  0.39648895893E+01  0.49858894085E+02 -0.24826912846E+02  0.13690739340E+03  0.12500251637E+03 0.  0.
          5    1    4    4  502    0 -0.23467192708E+02  0.85843662039E+02 -0.17757572966E+02  0.90869493470E+02  0.47000000000E+01 0.  1.
         -5    1    4    4    0  502  0.27432082298E+02 -0.35984767953E+02 -0.70693398799E+01  0.46037899932E+02  0.47000000000E+01 0.  1.
        -11    1    3    3    0    0  0.41653581534E+02 -0.40897099984E+02 -0.17805241602E+01  0.58401745761E+02  0.00000000000E+00 0. -1.
         11    1    3    3    0    0 -0.45618471123E+02 -0.89617941014E+01 -0.14232594318E+02  0.48620215982E+02  0.00000000000E+00 0.  1.
<mgrwt>
<rscale>  0 0.12676916E+03</rscale>
<asrwt>0</asrwt>
<pdfrwt beam="2">  1        2 0.21905337E-01 0.13463751E+03</pdfrwt>
<pdfrwt beam="1">  1       -2 0.15622256E-01 0.13463751E+03</pdfrwt>
<totfact> 0.75643822E+03</totfact>
</mgrwt>
</event>
<event>
 8    1  0.7550631E-006  0.1255532E+03  0.7546771E-02  0.1249301E+00
         -2   -1    0    0    0  501 -0.00000000000E+00  0.00000000000E+00  0.38005142307E+02  0.38005142307E+02  0.00000000000E+00 0.  1.
          2   -1    0    0  501    0  0.00000000000E+00 -0.00000000000E+00 -0.50263285950E+03  0.50263285950E+03  0.00000000000E+00 0. -1.
         23    2    1    2    0    0  0.56819822471E+01  0.10391394532E+02 -0.45429749217E+02  0.10304166770E+03  0.91724899380E+02 0.  0.
         23    2    1    2    0    0 -0.56819822471E+01 -0.10391394532E+02 -0.41919796798E+03  0.43759633411E+03  0.12499339688E+03 0.  0.
          5    1    4    4  502    0  0.52564498449E+02 -0.22911207201E+02 -0.12809266780E+03  0.14041998240E+03  0.47000000000E+01 0.  1.
         -5    1    4    4    0  502 -0.58246480697E+02  0.12519812668E+02 -0.29110530018E+03  0.29717635171E+03  0.47000000000E+01 0.  1.
        -11    1    3    3    0    0  0.92718076402E+01 -0.11713915329E+02 -0.68958890800E+02  0.70558563262E+02  0.00000000000E+00 0. -1.
         11    1    3    3    0    0 -0.35898253932E+01  0.22105309861E+02  0.23529141583E+02  0.32483104440E+02  0.00000000000E+00 0.  1.
<mgrwt>
<rscale>  0 0.11631623E+03</rscale>
<asrwt>0</asrwt>
<pdfrwt beam="2">  1        2 0.77328128E-01 0.12555324E+03</pdfrwt>
<pdfrwt beam="1">  1       -2 0.58469453E-02 0.12555324E+03</pdfrwt>
<totfact> 0.90438642E+03</totfact>
</mgrwt>
</event>
<event>
 8    1  0.7550631E-006  0.1428238E+03  0.7546771E-02  0.1219831E+00
         -2   -1    0    0    0  501 -0.00000000000E+00  0.00000000000E+00  0.36113301134E+02  0.36113301134E+02  0.00000000000E+00 0.  1.
          2   -1    0    0  501    0  0.00000000000E+00 -0.00000000000E+00 -0.50188349435E+03  0.50188349435E+03  0.00000000000E+00 0. -1.
         23    2    1    2    0    0 -0.27617092401E+02 -0.63331744309E+02 -0.13247001272E+03  0.17538454070E+03  0.91857602942E+02 0.  0.
         23    2    1    2    0    0  0.27617092401E+02  0.63331744309E+02 -0.33330018050E+03  0.36261225478E+03  0.12500009347E+03 0.  0.
          5    1    4    4  502    0  0.47551093558E+02 -0.14631290809E+02 -0.20570250930E+03  0.21168560060E+03  0.47000000000E+01 0. -1.
         -5    1    4    4    0  502 -0.19934001157E+02  0.77963035118E+02 -0.12759767120E+03  0.15092665419E+03  0.47000000000E+01 0. -1.
        -11    1    3    3    0    0 -0.58906971090E+02 -0.56657080360E+02 -0.10606031374E+03  0.13389864132E+03  0.00000000000E+00 0. -1.
         11    1    3    3    0    0  0.31289878689E+02 -0.66746639487E+01 -0.26409698981E+02  0.41485899381E+02  0.00000000000E+00 0.  1.
<mgrwt>
<rscale>  0 0.13527551E+03</rscale>
<asrwt>0</asrwt>
<pdfrwt beam="2">  1        2 0.77212848E-01 0.14282380E+03</pdfrwt>
<pdfrwt beam="1">  1       -2 0.55558923E-02 0.14282380E+03</pdfrwt>
<totfact> 0.98710114E+03</totfact>
</mgrwt>
</event>
<event>
 8    1  0.7550631E-006  0.1502677E+03  0.7546771E-02  0.1208327E+00
         -1   -1    0    0    0  501 -0.00000000000E+00  0.00000000000E+00  0.11934264136E+02  0.11934264136E+02  0.00000000000E+00 0.  1.
          1   -1    0    0  501    0  0.00000000000E+00 -0.00000000000E+00 -0.28469588770E+04  0.28469588770E+04  0.00000000000E+00 0. -1.
         23    2    1    2    0    0  0.31254584366E+02  0.77329791409E+02 -0.40290717724E+03  0.42213800218E+03  0.94390432382E+02 0.  0.
         23    2    1    2    0    0 -0.31254584366E+02 -0.77329791409E+02 -0.24321174356E+04  0.24367551389E+04  0.12499456350E+03 0.  0.
          5    1    4    4  502    0 -0.17197352297E+02 -0.81591504009E+02 -0.76142888964E+03  0.76599540888E+03  0.47000000000E+01 0.  1.
         -5    1    4    4    0  502 -0.14057232068E+02  0.42617125995E+01 -0.16706885459E+04  0.16707597300E+04  0.47000000000E+01 0.  1.
        -11    1    3    3    0    0  0.27542427841E+02  0.10317273192E+02 -0.25857895745E+02  0.39161999820E+02  0.00000000000E+00 0.  1.
         11    1    3    3    0    0  0.37121565242E+01  0.67012518217E+02 -0.37704928150E+03  0.38297600236E+03  0.00000000000E+00 0. -1.
<mgrwt>
<rscale>  0 0.14378339E+03</rscale>
<asrwt>0</asrwt>
<pdfrwt beam="2">  1        1 0.43799428E+00 0.15026772E+03</pdfrwt>
<pdfrwt beam="1">  1       -1 0.18360381E-02 0.15026772E+03</pdfrwt>
<totfact> 0.73361463E+02</totfact>
</mgrwt>
</event>
<event>
 8    1  0.7550631E-006  0.1437821E+03  0.7546771E-02  0.1219695E+00
         -2   -1    0    0    0  501 -0.00000000000E+00  0.00000000000E+00  0.30378977903E+02  0.30378977903E+02  0.00000000000E+00 0.  1.
          2   -1    0    0  501    0  0.00000000000E+00 -0.00000000000E+00 -0.72352875546E+03  0.72352875546E+03  0.00000000000E+00 0. -1.
         23    2    1    2    0    0 -0.39936815452E+02  0.58769541948E+02 -0.12789068743E+03  0.17064866212E+03  0.87841503069E+02 0.  0.
         23    2    1    2    0    0  0.39936815452E+02 -0.58769541948E+02 -0.56525909013E+03  0.58325907125E+03  0.12499798771E+03 0.  0.
          5    1    4    4  502    0 -0.42295889043E+02 -0.26767268530E+02 -0.13589920067E+03  0.14490035071E+03  0.47000000000E+01 0.  1.
         -5    1    4    4    0  502  0.82232704495E+02 -0.32002273417E+02 -0.42935988946E+03  0.43835872054E+03  0.47000000000E+01 0.  1.
        -11    1    3    3    0    0 -0.51175862667E+02  0.22345950008E+02 -0.25491986914E+02  0.61385273465E+02  0.00000000000E+00 0.  1.
         11    1    3    3    0    0  0.11239047215E+02  0.36423591939E+02 -0.10239870052E+03  0.10926338865E+03  0.00000000000E+00 0. -1.
<mgrwt>
<rscale>  0 0.13537269E+03</rscale>
<asrwt>0</asrwt>
<pdfrwt beam="2">  1        2 0.11131211E+00 0.14378215E+03</pdfrwt>
<pdfrwt beam="1">  1       -2 0.46736890E-02 0.14378215E+03</pdfrwt>
<totfact> 0.84271732E+03</totfact>
</mgrwt>
</event>
<event>
 8    1  0.7550631E-006  0.1460115E+03  0.7546771E-02  0.1215016E+00
          2   -1    0    0  501    0  0.00000000000E+00  0.00000000000E+00  0.47679302604E+03  0.47679302604E+03  0.00000000000E+00 0. -1.
         -2   -1    0    0    0  501 -0.00000000000E+00 -0.00000000000E+00 -0.45279678011E+02  0.45279678011E+02  0.00000000000E+00 0.  1.
         23    2    1    2    0    0  0.57505159710E+02  0.48863937655E+02  0.85728410926E+02  0.14672410926E+03  0.92109044082E+02 0.  0.
         23    2    1    2    0    0 -0.57505159710E+02 -0.48863937655E+02  0.34578493711E+03  0.37534859479E+03  0.12499926835E+03 0.  0.
          5    1    4    4  502    0 -0.40519710403E+02  0.16813887332E+02  0.26977856126E+03  0.27336260874E+03  0.47000000000E+01 0.  1.
         -5    1    4    4    0  502 -0.16985449307E+02 -0.65677824987E+02  0.76006375845E+02  0.10198598606E+03  0.47000000000E+01 0.  1.
        -11    1    3    3    0    0  0.24821535192E+02  0.18094877252E+02 -0.16648544596E+02  0.34938620884E+02  0.00000000000E+00 0.  1.
         11    1    3    3    0    0  0.32683624518E+02  0.30769060403E+02  0.10237695552E+03  0.11178548838E+03  0.00000000000E+00 0. -1.
<mgrwt>
<rscale>  0 0.13875364E+03</rscale>
<asrwt>0</asrwt>
<pdfrwt beam="1">  1        2 0.73352770E-01 0.14601145E+03</pdfrwt>
<pdfrwt beam="2">  1       -2 0.69661046E-02 0.14601145E+03</pdfrwt>
<totfact> 0.74112716E+03</totfact>
</mgrwt>
</event>
<event>
 8    1  0.7550631E-006  0.1619503E+03  0.7546771E-02  0.1193083E+00
          1   -1    0    0  501    0  0.00000000000E+00  0.00000000000E+00  0.77588910319E+03  0.77588910319E+03  0.00000000000E+00 0. -1.
         -1   -1    0    0    0  501 -0.00000000000E+00 -0.00000000000E+00 -0.29388848864E+02  0.29388848864E+02  0.00000000000E+00 0.  1.
         23    2    1    2    0    0 -0.24785556394E+02 -0.99938498366E+02  0.34596540914E+03  0.37324084911E+03  0.94945457283E+02 0.  0.
         23    2    1    2    0    0  0.24785556394E+02  0.99938498366E+02  0.40053484519E+03  0.43203710295E+03  0.12500347537E+03 0.  0.
          5    1    4    4  502    0  0.68056562772E+02  0.53136807601E+02  0.14678300391E+03  0.17036007835E+03  0.47000000000E+01 0.  1.
         -5    1    4    4    0  502 -0.43271006378E+02  0.46801690765E+02  0.25375184128E+03  0.26167702460E+03  0.47000000000E+01 0.  1.
        -11    1    3    3    0    0 -0.54657530930E+02 -0.26566112472E+02  0.14446316559E+03  0.15672526992E+03  0.00000000000E+00 0.  1.
         11    1    3    3    0    0  0.29871974537E+02 -0.73372385893E+02  0.20150224356E+03  0.21651557919E+03  0.00000000000E+00 0. -1.
<mgrwt>
<rscale>  0 0.15617605E+03</rscale>
<asrwt>0</asrwt>
<pdfrwt beam="1">  1        1 0.11936754E+00 0.16195029E+03</pdfrwt>
<pdfrwt beam="2">  1       -1 0.45213620E-02 0.16195029E+03</pdfrwt>
<totfact> 0.48423584E+03</totfact>
</mgrwt>
</event>
<event>
 8    1  0.7550631E-006  0.1425954E+03  0.7546771E-02  0.1222290E+00
         -2   -1    0    0    0  501 -0.00000000000E+00  0.00000000000E+00  0.14782462064E+02  0.14782462064E+02  0.00000000000E+00 0.  1.
          2   -1    0    0  501    0  0.00000000000E+00 -0.00000000000E+00 -0.10816192437E+04  0.10816192437E+04  0.00000000000E+00 0. -1.
         23    2    1    2    0    0  0.64674010198E+02 -0.22938976967E+02 -0.50183871352E+03  0.51368714391E+03  0.85577235146E+02 0.  0.
         23    2    1    2    0    0 -0.64674010198E+02  0.22938976967E+02 -0.56499806812E+03  0.58271456185E+03  0.12499807742E+03 0.  0.
          5    1    4    4  502    0 -0.12957609451E+02  0.59124789680E+02 -0.13422273636E+03  0.14731419943E+03  0.47000000000E+01 0. -1.
         -5    1    4    4    0  502 -0.51716400747E+02 -0.36185812714E+02 -0.43077533175E+03  0.43540036242E+03  0.47000000000E+01 0. -1.
        -11    1    3    3    0    0  0.33025921008E+02  0.32188434020E+02 -0.21424843197E+03  0.21915564639E+03  0.00000000000E+00 0.  1.
         11    1    3    3    0    0  0.31648089190E+02 -0.55127410986E+02 -0.28759028155E+03  0.29453149753E+03  0.00000000000E+00 0. -1.
<mgrwt>
<rscale>  0 0.13354360E+03</rscale>
<asrwt>0</asrwt>
<pdfrwt beam="2">  1        2 0.16640297E+00 0.14259538E+03</pdfrwt>
<pdfrwt beam="1">  1       -2 0.22742248E-02 0.14259538E+03</pdfrwt>
<totfact> 0.14432557E+04</totfact>
</mgrwt>
</event>
<event>
 7    1  0.7550631E-006  0.1432682E+03  0.7546771E-02  0.1231911E+00
          2   -1    0    0  501    0  0.00000000000E+00  0.00000000000E+00  0.15155560869E+04  0.15155560869E+04  0.00000000000E+00 0. -1.
         -2   -1    0    0    0  501 -0.00000000000E+00 -0.00000000000E+00 -0.10917578164E+02  0.10917578164E+02  0.00000000000E+00 0.  1.
         23    2    1    2    0    0 -0.28044708903E+02  0.64116577096E+02  0.12196382889E+04  0.12280241583E+04  0.12501334470E+03 0.  0.
          5    1    3    3  502    0 -0.72603318562E+02  0.10943210198E+02  0.59794158864E+03  0.60245101804E+03  0.47000000000E+01 0.  1.
         -5    1    3    3    0  502  0.44558609659E+02  0.53173366898E+02  0.62169670030E+03  0.62557314026E+03  0.47000000000E+01 0.  1.
        -11    1    1    2    0    0  0.32046098904E+02 -0.53631579909E+02  0.27862265344E+03  0.28554138374E+03  0.00000000000E+00 0. -1.
         11    1    1    2    0    0 -0.40013900010E+01 -0.10484997186E+02  0.63775663904E+01  0.12908123063E+02  0.00000000000E+00 0.  1.
<mgrwt>
<rscale>  0 0.12704284E+03</rscale>
<asrwt>0</asrwt>
<pdfrwt beam="1">  1        2 0.23316231E+00 0.14326820E+03</pdfrwt>
<pdfrwt beam="2">  1       -2 0.16796286E-02 0.14326820E+03</pdfrwt>
<totfact> 0.13027531E+04</totfact>
</mgrwt>
</event>
<event>
 8    1  0.7550631E-006  0.1782048E+03  0.7546771E-02  0.1175632E+00
          1   -1    0    0  501    0  0.00000000000E+00  0.00000000000E+00  0.19835719307E+03  0.19835719307E+03  0.00000000000E+00 0. -1.
         -1   -1    0    0    0  501 -0.00000000000E+00 -0.00000000000E+00 -0.16087229710E+03  0.16087229710E+03  0.00000000000E+00 0.  1.
         23    2    1    2    0    0 -0.12290822682E+03 -0.32049627947E+02 -0.46838427065E+02  0.16208135477E+03  0.89123041020E+02 0.  0.
         23    2    1    2    0    0  0.12290822682E+03  0.32049627947E+02  0.84323323037E+02  0.19714813540E+03  0.12499341428E+03 0.  0.
          5    1    4    4  502    0 -0.20160645874E+02 -0.25660263245E+01  0.36972792096E+02  0.42451307265E+02  0.47000000000E+01 0. -1.
         -5    1    4    4    0  502  0.14306887270E+03  0.34615654272E+02  0.47350530942E+02  0.15469682814E+03  0.47000000000E+01 0. -1.
        -11    1    3    3    0    0 -0.48187039478E+02 -0.11782326934E+02  0.25804100754E+02  0.55916595187E+02  0.00000000000E+00 0. -1.
         11    1    3    3    0    0 -0.74721187345E+02 -0.20267301013E+02 -0.72642527819E+02  0.10616475958E+03  0.00000000000E+00 0.  1.
<mgrwt>
<rscale>  0 0.17214279E+03</rscale>
<asrwt>0</asrwt>
<pdfrwt beam="1">  1        1 0.30516491E-01 0.17820484E+03</pdfrwt>
<pdfrwt beam="2">  1       -1 0.24749584E-01 0.17820484E+03</pdfrwt>
<totfact> 0.20669530E+03</totfact>
</mgrwt>
</event>
<event>
 8    1  0.7550631E-006  0.1394691E+03  0.7546771E-02  0.1225031E+00
          2   -1    0    0  501    0  0.00000000000E+00  0.00000000000E+00  0.46160290533E+03  0.46160290533E+03  0.00000000000E+00 0. -1.
         -2   -1    0    0    0  501 -0.00000000000E+00 -0.00000000000E+00 -0.53977053484E+02  0.53977053484E+02  0.00000000000E+00 0.  1.
         23    2    1    2    0    0  0.39698297787E+02  0.47441489225E+02  0.32536323191E+02  0.11540026994E+03  0.91825705710E+02 0.  0.
         23    2    1    2    0    0 -0.39698297787E+02 -0.47441489225E+02  0.37508952866E+03  0.40017968887E+03  0.12499991652E+03 0.  0.
          5    1    4    4  502    0 -0.30348945174E+02 -0.63808447044E+02  0.90427403828E+02  0.11485548202E+03  0.47000000000E+01 0.  1.
         -5    1    4    4    0  502 -0.93493526132E+01  0.16366957819E+02  0.28466212483E+03  0.28532420685E+03  0.47000000000E+01 0.  1.
        -11    1    3    3    0    0  0.27432263889E+02 -0.56489377815E+01 -0.23997111143E+02  0.36882257839E+02  0.00000000000E+00 0.  1.
         11    1    3    3    0    0  0.12266033899E+02  0.53090427006E+02  0.56533434334E+02  0.78518012105E+02  0.00000000000E+00 0. -1.
<mgrwt>
<rscale>  0 0.13164781E+03</rscale>
<asrwt>0</asrwt>
<pdfrwt beam="1">  1        2 0.71015829E-01 0.13946910E+03</pdfrwt>
<pdfrwt beam="2">  1       -2 0.83041624E-02 0.13946910E+03</pdfrwt>
<totfact> 0.58409823E+03</totfact>
</mgrwt>
</event>
<event>
 8    1  0.7550631E-006  0.1630177E+03  0.7546771E-02  0.1192562E+00
          1   -1    0    0  501    0  0.00000000000E+00  0.00000000000E+00  0.57854605477E+03  0.57854605477E+03  0.00000000000E+00 0. -1.
         -1   -1    0    0    0  501 -0.00000000000E+00 -0.00000000000E+00 -0.40800025036E+02  0.40800025036E+02  0.00000000000E+00 0.  1.
         23    2    1    2    0    0  0.71605170930E+02  0.76305886793E+02  0.19079043511E+03  0.23600165902E+03  0.91355919703E+02 0.  0.
         23    2    1    2    0    0 -0.71605170930E+02 -0.76305886793E+02  0.34695559462E+03  0.38334442079E+03  0.12499948580E+03 0.  0.
          5    1    4    4  502    0  0.17554602460E+02 -0.10164401346E+02  0.18944524719E+03  0.19058612438E+03  0.47000000000E+01 0. -1.
         -5    1    4    4    0  502 -0.89159773390E+02 -0.66141485447E+02  0.15751034743E+03  0.19275829641E+03  0.47000000000E+01 0. -1.
        -11    1    3    3    0    0  0.85344363057E+02  0.55798542072E+02  0.18405906394E+03  0.21041596095E+03  0.00000000000E+00 0. -1.
         11    1    3    3    0    0 -0.13739192127E+02  0.20507344721E+02  0.67313711729E+01  0.25585698069E+02  0.00000000000E+00 0.  1.
<mgrwt>
<rscale>  0 0.15662419E+03</rscale>
<asrwt>0</asrwt>
<pdfrwt beam="1">  1        1 0.89007079E-01 0.16301767E+03</pdfrwt>
<pdfrwt beam="2">  1       -1 0.62769274E-02 0.16301767E+03</pdfrwt>
<totfact> 0.45080375E+03</totfact>
</mgrwt>
</event>
<event>
 8    1  0.7550631E-006  0.1602337E+03  0.7546771E-02  0.1196255E+00
          4   -1    0    0  501    0  0.00000000000E+00  0.00000000000E+00  0.84042356181E+02  0.84042356181E+02  0.00000000000E+00 0. -1.
         -4   -1    0    0    0  501 -0.00000000000E+00 -0.00000000000E+00 -0.32892293444E+03  0.32892293444E+03  0.00000000000E+00 0.  1.
         23    2    1    2    0    0 -0.60385185172E+02 -0.80039709704E+02 -0.20901565828E+03  0.24876679793E+03  0.90247707060E+02 0.  0.
         23    2    1    2    0    0  0.60385185172E+02  0.80039709704E+02 -0.35864919977E+02  0.16419849269E+03  0.12498850666E+03 0.  0.
          5    1    4    4  502    0  0.49102199776E+02  0.84990558202E+02  0.25427031408E+02  0.10150391585E+03  0.47000000000E+01 0. -1.
         -5    1    4    4    0  502  0.11282985396E+02 -0.49508484978E+01 -0.61291951385E+02  0.62694576838E+02  0.47000000000E+01 0. -1.
        -11    1    3    3    0    0 -0.62652885885E+02 -0.52124026337E+02 -0.71470093292E+02  0.10839867373E+03  0.00000000000E+00 0. -1.
         11    1    3    3    0    0  0.22677007130E+01 -0.27915683368E+02 -0.13754556499E+03  0.14036812420E+03  0.00000000000E+00 0.  1.
<mgrwt>
<rscale>  0 0.15348523E+03</rscale>
<asrwt>0</asrwt>
<pdfrwt beam="1">  1        4 0.12929594E-01 0.16023374E+03</pdfrwt>
<pdfrwt beam="2">  1       -4 0.50603527E-01 0.16023374E+03</pdfrwt>
<totfact> 0.31706239E+02</totfact>
</mgrwt>
</event>
<event>
 8    1  0.7550631E-006  0.1673200E+03  0.7546771E-02  0.1187132E+00
          4   -1    0    0  501    0  0.00000000000E+00  0.00000000000E+00  0.22589813766E+02  0.22589813766E+02  0.00000000000E+00 0. -1.
         -4   -1    0    0    0  501 -0.00000000000E+00 -0.00000000000E+00 -0.11615447180E+04  0.11615447180E+04  0.00000000000E+00 0.  1.
         23    2    1    2    0    0  0.33295953174E+02  0.10612407577E+03 -0.68939228020E+03  0.70444450626E+03  0.92786887255E+02 0.  0.
         23    2    1    2    0    0 -0.33295953174E+02 -0.10612407577E+03 -0.44956262402E+03  0.47969002549E+03  0.12500011074E+03 0.  0.
          5    1    4    4  502    0 -0.78381544288E+02 -0.45400726672E+02 -0.22081901048E+03  0.23872163257E+03  0.47000000000E+01 0.  1.
         -5    1    4    4    0  502  0.45085591114E+02 -0.60723349098E+02 -0.22874361354E+03  0.24096839292E+03  0.47000000000E+01 0.  1.
        -11    1    3    3    0    0  0.61351740881E+02  0.40604201930E+02 -0.34911100416E+03  0.35677896596E+03  0.00000000000E+00 0.  1.
         11    1    3    3    0    0 -0.28055787707E+02  0.65519873840E+02 -0.34028127604E+03  0.34766554030E+03  0.00000000000E+00 0. -1.
<mgrwt>
<rscale>  0 0.16139400E+03</rscale>
<asrwt>0</asrwt>
<pdfrwt beam="1">  1        4 0.34753558E-02 0.16731996E+03</pdfrwt>
<pdfrwt beam="2">  1       -4 0.17869919E+00 0.16731996E+03</pdfrwt>
<totfact> 0.14827239E+02</totfact>
</mgrwt>
</event>
<event>
 8    1  0.7550631E-006  0.1424981E+03  0.7546771E-02  0.1220701E+00
         -3   -1    0    0    0  501 -0.00000000000E+00  0.00000000000E+00  0.28254975923E+02  0.28254975923E+02  0.00000000000E+00 0.  1.
          3   -1    0    0  501    0  0.00000000000E+00 -0.00000000000E+00 -0.58593373776E+03  0.58593373776E+03  0.00000000000E+00 0. -1.
         23    2    1    2    0    0 -0.67090948057E+02 -0.13466603676E+02 -0.21827008547E+03  0.24608007973E+03  0.90725027975E+02 0.  0.
         23    2    1    2    0    0  0.67090948057E+02  0.13466603676E+02 -0.33940867636E+03  0.36810863395E+03  0.12499268808E+03 0.  0.
          5    1    4    4  502    0  0.17492721135E+01 -0.43201241616E+02 -0.19434603466E+03  0.19915290211E+03  0.47000000000E+01 0. -1.
         -5    1    4    4    0  502  0.65341675943E+02  0.56667845292E+02 -0.14506264170E+03  0.16895573184E+03  0.47000000000E+01 0. -1.
        -11    1    3    3    0    0 -0.71502790795E+02 -0.36671536713E+02 -0.20200340769E+03  0.21740015505E+03  0.00000000000E+00 0. -1.
         11    1    3    3    0    0  0.44118427385E+01  0.23204933038E+02 -0.16266677785E+02  0.28679924682E+02  0.00000000000E+00 0.  1.
<mgrwt>
<rscale>  0 0.13465971E+03</rscale>
<asrwt>0</asrwt>
<pdfrwt beam="2">  1        3 0.90143647E-01 0.14249813E+03</pdfrwt>
<pdfrwt beam="1">  1       -3 0.43469196E-02 0.14249813E+03</pdfrwt>
<totfact> 0.76060985E+02</totfact>
</mgrwt>
</event>
<event>
 8    1  0.7550631E-006  0.1368560E+03  0.7546771E-02  0.1229173E+00
         -2   -1    0    0    0  501 -0.00000000000E+00  0.00000000000E+00  0.23925667524E+03  0.23925667524E+03  0.00000000000E+00 0. -1.
          2   -1    0    0  501    0  0.00000000000E+00 -0.00000000000E+00 -0.65091365645E+02  0.65091365645E+02  0.00000000000E+00 0.  1.
         23    2    1    2    0    0 -0.29726409778E+02  0.46950303195E+02  0.10775171726E+03  0.15222855349E+03  0.92060358019E+02 0.  0.
         23    2    1    2    0    0  0.29726409778E+02 -0.46950303195E+02  0.66413592335E+02  0.15211948739E+03  0.12506631356E+03 0.  0.
          5    1    4    4  502    0 -0.48478874342E+02 -0.92048549320E+01  0.19131345159E+02  0.53132184026E+02  0.47000000000E+01 0. -1.
         -5    1    4    4    0  502  0.78205284120E+02 -0.37745448263E+02  0.47282247176E+02  0.98987303362E+02  0.47000000000E+01 0. -1.
        -11    1    3    3    0    0 -0.15030214879E+02  0.16814161635E+02  0.11561181624E+03  0.11779098202E+03  0.00000000000E+00 0. -1.
         11    1    3    3    0    0 -0.14696194899E+02  0.30136141560E+02 -0.78600989877E+01  0.34437571470E+02  0.00000000000E+00 0.  1.
<mgrwt>
<rscale>  0 0.12884935E+03</rscale>
<asrwt>0</asrwt>
<pdfrwt beam="2">  1        2 0.10014056E-01 0.13685603E+03</pdfrwt>
<pdfrwt beam="1">  1       -2 0.36808719E-01 0.13685603E+03</pdfrwt>
<totfact> 0.42634294E+03</totfact>
</mgrwt>
</event>
<event>
 8    1  0.7550631E-006  0.1558360E+03  0.7546771E-02  0.1201774E+00
          3   -1    0    0  501    0  0.00000000000E+00  0.00000000000E+00  0.49029566850E+02  0.49029566850E+02  0.00000000000E+00 0. -1.
         -3   -1    0    0    0  501 -0.00000000000E+00 -0.00000000000E+00 -0.45952601419E+03  0.45952601419E+03  0.00000000000E+00 0.  1.
         23    2    1    2    0    0 -0.28985451661E+01 -0.92958097039E+02 -0.26575557817E+03  0.29587091482E+03  0.90906333867E+02 0.  0.
         23    2    1    2    0    0  0.28985451661E+01  0.92958097039E+02 -0.14474086917E+03  0.21268466622E+03  0.12504094797E+03 0.  0.
          5    1    4    4  502    0  0.17806705368E+02  0.82271526294E+02 -0.20175174749E+02  0.86688006500E+02  0.47000000000E+01 0.  1.
         -5    1    4    4    0  502 -0.14908160202E+02  0.10686570745E+02 -0.12456569442E+03  0.12599665972E+03  0.47000000000E+01 0.  1.
        -11    1    3    3    0    0 -0.25684728857E+02 -0.95646204079E+01 -0.16365878897E+02  0.31922237580E+02  0.00000000000E+00 0. -1.
         11    1    3    3    0    0  0.22786183691E+02 -0.83393476631E+02 -0.24938969928E+03  0.26394867724E+03  0.00000000000E+00 0.  1.
<mgrwt>
<rscale>  0 0.14894646E+03</rscale>
<asrwt>0</asrwt>
<pdfrwt beam="1">  1        3 0.75430103E-02 0.15583597E+03</pdfrwt>
<pdfrwt beam="2">  1       -3 0.70696310E-01 0.15583597E+03</pdfrwt>
<totfact> 0.54092849E+02</totfact>
</mgrwt>
</event>
<event>
 8    1  0.7550631E-006  0.1788146E+03  0.7546771E-02  0.1174347E+00
          2   -1    0    0  501    0  0.00000000000E+00  0.00000000000E+00  0.10394388712E+04  0.10394388712E+04  0.00000000000E+00 0. -1.
         -2   -1    0    0    0  501 -0.00000000000E+00 -0.00000000000E+00 -0.29027639450E+02  0.29027639450E+02  0.00000000000E+00 0.  1.
         23    2    1    2    0    0  0.12677730458E+03 -0.16618411469E+02  0.34611466480E+03  0.38052422667E+03  0.93030475334E+02 0.  0.
         23    2    1    2    0    0 -0.12677730458E+03  0.16618411469E+02  0.66429656693E+03  0.68794228396E+03  0.12500400259E+03 0.  0.
          5    1    4    4  502    0 -0.12772661042E+03  0.53161379470E+02  0.46111760969E+03  0.48144756645E+03  0.47000000000E+01 0.  1.
         -5    1    4    4    0  502  0.94930583728E+00 -0.36542968001E+02  0.20317895724E+03  0.20649471751E+03  0.47000000000E+01 0.  1.
        -11    1    3    3    0    0  0.78770676807E+02  0.13484330463E+02  0.10020494024E+03  0.12817049872E+03  0.00000000000E+00 0.  1.
         11    1    3    3    0    0  0.48006627772E+02 -0.30102741932E+02  0.24590972455E+03  0.25235372795E+03  0.00000000000E+00 0. -1.
<mgrwt>
<rscale>  0 0.17340113E+03</rscale>
<asrwt>0</asrwt>
<pdfrwt beam="1">  1        2 0.15991364E+00 0.17881459E+03</pdfrwt>
<pdfrwt beam="2">  1       -2 0.44657915E-02 0.17881459E+03</pdfrwt>
<totfact> 0.56898420E+03</totfact>
</mgrwt>
</event>
<event>
 8    1  0.7550631E-006  0.2084453E+03  0.7546771E-02  0.1146266E+00
         -1   -1    0    0    0  501 -0.00000000000E+00  0.00000000000E+00  0.57107991966E+02  0.57107991966E+02  0.00000000000E+00 0.  1.
          1   -1    0    0  501    0  0.00000000000E+00 -0.00000000000E+00 -0.94799403168E+03  0.94799403168E+03  0.00000000000E+00 0. -1.
         23    2    1    2    0    0 -0.14819400798E+03  0.76542989484E+02 -0.17571163255E+03  0.26016988380E+03  0.94834051805E+02 0.  0.
         23    2    1    2    0    0  0.14819400798E+03 -0.76542989484E+02 -0.71517440716E+03  0.74493213985E+03  0.12501666720E+03 0.  0.
          5    1    4    4  502    0  0.15066684448E+03 -0.70610906576E+02 -0.71756469350E+03  0.73661901789E+03  0.47000000000E+01 0. -1.
         -5    1    4    4    0  502 -0.24728365005E+01 -0.59320829075E+01  0.23902863371E+01  0.83131219619E+01  0.47000000000E+01 0. -1.
        -11    1    3    3    0    0 -0.59048216364E+02  0.10880666790E+01 -0.11325018480E+03  0.12772423459E+03  0.00000000000E+00 0. -1.
         11    1    3    3    0    0 -0.89145791615E+02  0.75454922805E+02 -0.62461447747E+02  0.13244564920E+03  0.00000000000E+00 0.  1.
<mgrwt>
<rscale>  0 0.20417166E+03</rscale>
<asrwt>0</asrwt>
<pdfrwt beam="2">  1        1 0.14584523E+00 0.20844534E+03</pdfrwt>
<pdfrwt beam="1">  1       -1 0.87858452E-02 0.20844534E+03</pdfrwt>
<totfact> 0.13064532E+03</totfact>
</mgrwt>
</event>
<event>
 8    1  0.7550631E-006  0.1324153E+03  0.7546771E-02  0.1237235E+00
          2   -1    0    0  501    0  0.00000000000E+00  0.00000000000E+00  0.14150571860E+04  0.14150571860E+04  0.00000000000E+00 0. -1.
         -2   -1    0    0    0  501 -0.00000000000E+00 -0.00000000000E+00 -0.11729762725E+02  0.11729762725E+02  0.00000000000E+00 0.  1.
         23    2    1    2    0    0  0.17111269475E+02 -0.40185098899E+02  0.32113841278E+03  0.33652694626E+03  0.90624873391E+02 0.  0.
         23    2    1    2    0    0 -0.17111269475E+02  0.40185098899E+02  0.10821890105E+04  0.10902600024E+04  0.12500472323E+03 0.  0.
          5    1    4    4  502    0 -0.36043273288E+02  0.26986567949E+02  0.10466288978E+04  0.10476075277E+04  0.47000000000E+01 0.  1.
         -5    1    4    4    0  502  0.18932003814E+02  0.13198530950E+02  0.35560112640E+02  0.42652474707E+02  0.47000000000E+01 0.  1.
        -11    1    3    3    0    0 -0.32395549690E+02 -0.25863170598E+02  0.81814825685E+02  0.91717179061E+02  0.00000000000E+00 0.  1.
         11    1    3    3    0    0  0.49506819164E+02 -0.14321928301E+02  0.23932358710E+03  0.24480976720E+03  0.00000000000E+00 0. -1.
<mgrwt>
<rscale>  0 0.12362433E+03</rscale>
<asrwt>0</asrwt>
<pdfrwt beam="1">  1        2 0.21770097E+00 0.13241533E+03</pdfrwt>
<pdfrwt beam="2">  1       -2 0.18045800E-02 0.13241533E+03</pdfrwt>
<totfact> 0.13203098E+04</totfact>
</mgrwt>
</event>
<event>
 8    1  0.7550631E-006  0.1684925E+03  0.7546771E-02  0.1186223E+00
          2   -1    0    0  501    0  0.00000000000E+00  0.00000000000E+00  0.12179355059E+04  0.12179355059E+04  0.00000000000E+00 0. -1.
         -2   -1    0    0    0  501 -0.00000000000E+00 -0.00000000000E+00 -0.23070161325E+02  0.23070161325E+02  0.00000000000E+00 0.  1.
         23    2    1    2    0    0  0.62025342573E+02 -0.94428465033E+02  0.33726881309E+03  0.36701394251E+03  0.90471562296E+02 0.  0.
         23    2    1    2    0    0 -0.62025342573E+02  0.94428465033E+02  0.85759653148E+03  0.87399172471E+03  0.12500338365E+03 0.  0.
          5    1    4    4  502    0 -0.68923141772E+02  0.85297336675E+02  0.36280677397E+03  0.37904733260E+03  0.47000000000E+01 0.  1.
         -5    1    4    4    0  502  0.68977991988E+01  0.91311283580E+01  0.49478975752E+03  0.49494439211E+03  0.47000000000E+01 0.  1.
        -11    1    3    3    0    0  0.24510621278E+02 -0.98852818993E+01  0.12322625368E+02  0.29160528967E+02  0.00000000000E+00 0.  1.
         11    1    3    3    0    0  0.37514721295E+02 -0.84543183134E+02  0.32494618772E+03  0.33785341354E+03  0.00000000000E+00 0. -1.
<mgrwt>
<rscale>  0 0.16221119E+03</rscale>
<asrwt>0</asrwt>
<pdfrwt beam="1">  1        2 0.18737464E+00 0.16849250E+03</pdfrwt>
<pdfrwt beam="2">  1       -2 0.35492565E-02 0.16849250E+03</pdfrwt>
<totfact> 0.63245268E+03</totfact>
</mgrwt>
</event>
<event>
 8    1  0.7550631E-006  0.1857529E+03  0.7546771E-02  0.1167594E+00
          2   -1    0    0  501    0  0.00000000000E+00  0.00000000000E+00  0.19821872221E+03  0.19821872221E+03  0.00000000000E+00 0. -1.
         -2   -1    0    0    0  501 -0.00000000000E+00 -0.00000000000E+00 -0.15709989692E+03  0.15709989692E+03  0.00000000000E+00 0.  1.
         23    2    1    2    0    0 -0.99556192692E+02  0.94793389420E+02 -0.21543889780E+01  0.16459183752E+03  0.90490935490E+02 0.  0.
         23    2    1    2    0    0  0.99556192692E+02 -0.94793389420E+02  0.43273214267E+02  0.19072678162E+03  0.12492762694E+03 0.  0.
          5    1    4    4  502    0  0.10648037815E+03 -0.54964195452E+02 -0.13708918635E+02  0.12070276783E+03  0.47000000000E+01 0.  1.
         -5    1    4    4    0  502 -0.69241854561E+01 -0.39829193968E+02  0.56982132903E+02  0.70024013784E+02  0.47000000000E+01 0.  1.
        -11    1    3    3    0    0 -0.49698459370E+02  0.59437957897E+02  0.42990586664E+02  0.88605858974E+02  0.00000000000E+00 0.  1.
         11    1    3    3    0    0 -0.49857733322E+02  0.35355431523E+02 -0.45144975642E+02  0.75985978548E+02  0.00000000000E+00 0. -1.
<mgrwt>
<rscale>  0 0.18021646E+03</rscale>
<asrwt>0</asrwt>
<pdfrwt beam="1">  1        2 0.30495188E-01 0.18575288E+03</pdfrwt>
<pdfrwt beam="2">  1       -2 0.24169215E-01 0.18575288E+03</pdfrwt>
<totfact> 0.25535741E+03</totfact>
</mgrwt>
</event>
<event>
 8    1  0.7550631E-006  0.1477366E+03  0.7546771E-02  0.1212684E+00
         -1   -1    0    0    0  501 -0.00000000000E+00  0.00000000000E+00  0.18303022705E+02  0.18303022705E+02  0.00000000000E+00 0.  1.
          1   -1    0    0  501    0  0.00000000000E+00 -0.00000000000E+00 -0.11132129579E+04  0.11132129579E+04  0.00000000000E+00 0. -1.
         23    2    1    2    0    0 -0.31432663490E+02 -0.72207040929E+02 -0.30756475994E+03  0.33043014186E+03  0.91575804677E+02 0.  0.
         23    2    1    2    0    0  0.31432663490E+02  0.72207040929E+02 -0.78734517529E+03  0.80108583878E+03  0.12499690772E+03 0.  0.
          5    1    4    4  502    0 -0.27480521071E+02  0.76283965321E+02 -0.32657583145E+03  0.33652382693E+03  0.47000000000E+01 0.  1.
         -5    1    4    4    0  502  0.58913184561E+02 -0.40769243919E+01 -0.46076934384E+03  0.46456201184E+03  0.47000000000E+01 0.  1.
        -11    1    3    3    0    0 -0.43260425113E+02 -0.13330578741E+02 -0.21763354857E+03  0.22229154319E+03  0.00000000000E+00 0.  1.
         11    1    3    3    0    0  0.11827761623E+02 -0.58876462189E+02 -0.89931211367E+02  0.10813859867E+03  0.00000000000E+00 0. -1.
<mgrwt>
<rscale>  0 0.14048032E+03</rscale>
<asrwt>0</asrwt>
<pdfrwt beam="2">  1        1 0.17126353E+00 0.14773658E+03</pdfrwt>
<pdfrwt beam="1">  1       -1 0.28158497E-02 0.14773658E+03</pdfrwt>
<totfact> 0.53596367E+03</totfact>
</mgrwt>
</event>
<event>
 8    1  0.7550631E-006  0.1348991E+03  0.7546771E-02  0.1233742E+00
         -2   -1    0    0    0  501 -0.00000000000E+00  0.00000000000E+00  0.82423777590E+02  0.82423777590E+02  0.00000000000E+00 0. -1.
          2   -1    0    0  501    0  0.00000000000E+00 -0.00000000000E+00 -0.18662346799E+03  0.18662346799E+03  0.00000000000E+00 0.  1.
         23    2    1    2    0    0  0.20402360774E+02 -0.46437452044E+02 -0.63414266554E+01  0.10239188535E+03  0.88719734079E+02 0.  0.
         23    2    1    2    0    0 -0.20402360774E+02  0.46437452044E+02 -0.97858263745E+02  0.16665536023E+03  0.12500030414E+03 0.  0.
          5    1    4    4  502    0 -0.38132108932E+02  0.18714280165E+02 -0.11955224712E+03  0.12696106413E+03  0.47000000000E+01 0. -1.
         -5    1    4    4    0  502  0.17729748159E+02  0.27723171880E+02  0.21693983372E+02  0.39694296106E+02  0.47000000000E+01 0. -1.
        -11    1    3    3    0    0 -0.28911617626E+02 -0.68591220293E+01  0.17880533672E+02  0.34679138876E+02  0.00000000000E+00 0.  1.
         11    1    3    3    0    0  0.49313978400E+02 -0.39578330015E+02 -0.24221960327E+02  0.67712746470E+02  0.00000000000E+00 0. -1.
<mgrwt>
<rscale>  0 0.12585329E+03</rscale>
<asrwt>0</asrwt>
<pdfrwt beam="2">  1        2 0.28711303E-01 0.13489911E+03</pdfrwt>
<pdfrwt beam="1">  1       -2 0.12680581E-01 0.13489911E+03</pdfrwt>
<totfact> 0.78759209E+03</totfact>
</mgrwt>
</event>
<event>
 8    1  0.7550631E-006  0.1269937E+03  0.7546771E-02  0.1256234E+00
         -2   -1    0    0    0  501 -0.00000000000E+00  0.00000000000E+00  0.28305421469E+02  0.28305421469E+02  0.00000000000E+00 0. -1.
          2   -1    0    0  501    0  0.00000000000E+00 -0.00000000000E+00 -0.49563008692E+03  0.49563008692E+03  0.00000000000E+00 0.  1.
         23    2    1    2    0    0 -0.72068405167E+01 -0.21230493253E+02 -0.63068796649E+02  0.10020185789E+03  0.74565855587E+02 0.  0.
         23    2    1    2    0    0  0.72068405167E+01  0.21230493253E+02 -0.40425586880E+03  0.42373365050E+03  0.12499890684E+03 0.  0.
          5    1    4    4  502    0 -0.27627125209E+02 -0.41533207647E+02 -0.11100615298E+03  0.12178966041E+03  0.47000000000E+01 0. -1.
         -5    1    4    4    0  502  0.34833965726E+02  0.62763700900E+02 -0.29324971583E+03  0.30194399009E+03  0.47000000000E+01 0. -1.
        -11    1    3    3    0    0 -0.37883927019E+02 -0.13560227603E+02 -0.53928993216E+02  0.67286016440E+02  0.00000000000E+00 0.  1.
         11    1    3    3    0    0  0.30677086503E+02 -0.76702656500E+01 -0.91398034331E+01  0.32915841448E+02  0.00000000000E+00 0. -1.
<mgrwt>
<rscale>  0 0.11237514E+03</rscale>
<asrwt>0</asrwt>
<pdfrwt beam="2">  1        2 0.76250781E-01 0.12699370E+03</pdfrwt>
<pdfrwt beam="1">  1       -2 0.43546803E-02 0.12699370E+03</pdfrwt>
<totfact> 0.14298923E+04</totfact>
</mgrwt>
</event>
<event>
 8    1  0.7550631E-006  0.1253549E+03  0.7546771E-02  0.1249959E+00
          2   -1    0    0  501    0  0.00000000000E+00  0.00000000000E+00  0.11019625213E+03  0.11019625213E+03  0.00000000000E+00 0. -1.
         -2   -1    0    0    0  501 -0.00000000000E+00 -0.00000000000E+00 -0.11149498326E+03  0.11149498326E+03  0.00000000000E+00 0.  1.
         23    2    1    2    0    0  0.94481959181E+01 -0.12333377347E+01 -0.22807930533E+02  0.94504414714E+02  0.91214544767E+02 0.  0.
         23    2    1    2    0    0 -0.94481959181E+01  0.12333377347E+01  0.21509199408E+02  0.12718682067E+03  0.12499220842E+03 0.  0.
          5    1    4    4  502    0 -0.41338643703E+01 -0.59939004959E+02  0.25582151730E+02  0.65469913985E+02  0.47000000000E+01 0.  1.
         -5    1    4    4    0  502 -0.53143315478E+01  0.61172342694E+02 -0.40729523219E+01  0.61716906687E+02  0.47000000000E+01 0.  1.
        -11    1    3    3    0    0  0.29728071766E+02  0.24832080540E+02  0.17407293888E+02  0.42466508631E+02  0.00000000000E+00 0. -1.
         11    1    3    3    0    0 -0.20279875848E+02 -0.26065418274E+02 -0.40215224421E+02  0.52037906082E+02  0.00000000000E+00 0.  1.
<mgrwt>
<rscale>  0 0.11593407E+03</rscale>
<asrwt>0</asrwt>
<pdfrwt beam="1">  1        2 0.16953270E-01 0.12535486E+03</pdfrwt>
<pdfrwt beam="2">  1       -2 0.17153074E-01 0.12535486E+03</pdfrwt>
<totfact> 0.86238746E+03</totfact>
</mgrwt>
</event>
<event>
 8    1  0.7550631E-006  0.1240284E+03  0.7546771E-02  0.1242852E+00
         -1   -1    0    0    0  501 -0.00000000000E+00  0.00000000000E+00  0.64137669399E+02  0.64137669399E+02  0.00000000000E+00 0.  1.
          1   -1    0    0  501    0  0.00000000000E+00 -0.00000000000E+00 -0.22375841415E+03  0.22375841415E+03  0.00000000000E+00 0. -1.
         23    2    1    2    0    0  0.16517312129E+02 -0.52667859383E+02 -0.42170820657E+02  0.11708178696E+03  0.94249889707E+02 0.  0.
         23    2    1    2    0    0 -0.16517312129E+02  0.52667859383E+02 -0.11744992409E+03  0.17081429659E+03  0.11106896163E+03 0.  0.
          5    1    4    4  502    0  0.47436148089E+02  0.25508398264E+02 -0.45251607702E+02  0.70502939847E+02  0.47000000000E+01 0. -1.
         -5    1    4    4    0  502 -0.63953460218E+02  0.27159461119E+02 -0.72198316389E+02  0.10031135674E+03  0.47000000000E+01 0.  1.
        -11    1    3    3    0    0  0.30206134004E+02  0.10070555054E+02 -0.42203440394E+02  0.52867352796E+02  0.00000000000E+00 0.  1.
         11    1    3    3    0    0 -0.13688821875E+02 -0.62738414437E+02  0.32619736999E-01  0.64214434160E+02  0.00000000000E+00 0. -1.
<mgrwt>
<rscale>  0 0.12014890E+03</rscale>
<asrwt>0</asrwt>
<pdfrwt beam="2">  1        1 0.34424372E-01 0.12402838E+03</pdfrwt>
<pdfrwt beam="1">  1       -1 0.98673337E-02 0.12402838E+03</pdfrwt>
<totfact> 0.74594643E+03</totfact>
</mgrwt>
</event>
<event>
 8    1  0.6764308E-005  0.4567362E+03  0.7546771E-02  0.1026350E+00
         -2   -1    0    0    0  501 -0.00000000000E+00  0.00000000000E+00  0.24947675945E+03  0.24947675945E+03  0.00000000000E+00 0.  1.
          2   -1    0    0  501    0  0.00000000000E+00 -0.00000000000E+00 -0.88092949183E+03  0.88092949183E+03  0.00000000000E+00 0. -1.
         23    2    1    2    0    0 -0.21599062705E+03 -0.38253465430E+03 -0.16552179332E+03  0.47794968331E+03  0.89742537285E+02 0.  0.
         23    2    1    2    0    0  0.21599062705E+03  0.38253465430E+03 -0.46593093907E+03  0.65245656797E+03  0.12499288134E+03 0.  0.
          5    1    4    4  502    0  0.60632174270E+02  0.76230976769E+02 -0.18336372824E+03  0.20768189428E+03  0.47000000000E+01 0. -1.
         -5    1    4    4    0  502  0.15535845278E+03  0.30630367753E+03 -0.28256721082E+03  0.44477467369E+03  0.47000000000E+01 0. -1.
        -11    1    3    3    0    0 -0.72440124682E+02 -0.21516066324E+03 -0.98617027218E+02  0.24752171769E+03  0.00000000000E+00 0.  1.
         11    1    3    3    0    0 -0.14355050237E+03 -0.16737399106E+03 -0.66904766103E+02  0.23042796563E+03  0.00000000000E+00 0. -1.
<mgrwt>
<rscale>  0 0.45463089E+03</rscale>
<asrwt>0</asrwt>
<pdfrwt beam="2">  1        2 0.13552761E+00 0.45673617E+03</pdfrwt>
<pdfrwt beam="1">  1       -2 0.38381040E-01 0.45673617E+03</pdfrwt>
<totfact> 0.19958925E+02</totfact>
</mgrwt>
</event>
<event>
 8    1  0.7550631E-006  0.1259647E+03  0.7546771E-02  0.1247813E+00
         -2   -1    0    0    0  501 -0.00000000000E+00  0.00000000000E+00  0.12888392438E+03  0.12888392438E+03  0.00000000000E+00 0.  1.
          2   -1    0    0  501    0  0.00000000000E+00 -0.00000000000E+00 -0.11720580514E+03  0.11720580514E+03  0.00000000000E+00 0. -1.
         23    2    1    2    0    0  0.12270411987E+02 -0.95318076870E+01  0.59280427519E+02  0.11143055429E+03  0.93065466064E+02 0.  0.
         23    2    1    2    0    0 -0.12270411987E+02  0.95318076870E+01 -0.47602308276E+02  0.13465917523E+03  0.12500278138E+03 0.  0.
          5    1    4    4  502    0  0.21527183149E+02  0.13932497263E+02 -0.81978135664E+02  0.86023478315E+02  0.47000000000E+01 0. -1.
         -5    1    4    4    0  502 -0.33797595136E+02 -0.44006895763E+01  0.34375827388E+02  0.48635696914E+02  0.47000000000E+01 0. -1.
        -11    1    3    3    0    0  0.41589145450E+02 -0.35018175023E+02  0.25949591996E+02  0.60243762548E+02  0.00000000000E+00 0. -1.
         11    1    3    3    0    0 -0.29318733463E+02  0.25486367336E+02  0.33330835523E+02  0.51186791739E+02  0.00000000000E+00 0.  1.
<mgrwt>
<rscale>  0 0.11718616E+03</rscale>
<asrwt>0</asrwt>
<pdfrwt beam="2">  1        2 0.18031662E-01 0.12596473E+03</pdfrwt>
<pdfrwt beam="1">  1       -2 0.19828296E-01 0.12596473E+03</pdfrwt>
<totfact> 0.63088993E+03</totfact>
</mgrwt>
</event>
<event>
 8    1  0.7550631E-006  0.1268906E+03  0.7546771E-02  0.1249562E+00
         -1   -1    0    0    0  501 -0.00000000000E+00  0.00000000000E+00  0.14645087695E+03  0.14645087695E+03  0.00000000000E+00 0.  1.
          1   -1    0    0  501    0  0.00000000000E+00 -0.00000000000E+00 -0.14520208037E+03  0.14520208037E+03  0.00000000000E+00 0. -1.
         23    2    1    2    0    0  0.20474149071E+02 -0.76171290602E+01  0.97715836272E+02  0.13225685443E+03  0.86407635370E+02 0.  0.
         23    2    1    2    0    0 -0.20474149071E+02  0.76171290602E+01 -0.96467039686E+02  0.15939610289E+03  0.12499606567E+03 0.  0.
          5    1    4    4  502    0  0.52626070990E+02  0.59337589698E+01 -0.47258514055E+02  0.71134871857E+02  0.47000000000E+01 0.  1.
         -5    1    4    4    0  502 -0.73100220062E+02  0.16833700904E+01 -0.49208525631E+02  0.88261231029E+02  0.47000000000E+01 0.  1.
        -11    1    3    3    0    0 -0.18481456664E+02  0.15101553332E+02 -0.83161464975E+00  0.23881221417E+02  0.00000000000E+00 0.  1.
         11    1    3    3    0    0  0.38955605735E+02 -0.22718682392E+02  0.98547450922E+02  0.10837563301E+03  0.00000000000E+00 0. -1.
<mgrwt>
<rscale>  0 0.11616453E+03</rscale>
<asrwt>0</asrwt>
<pdfrwt beam="2">  1        1 0.22338782E-01 0.12689061E+03</pdfrwt>
<pdfrwt beam="1">  1       -1 0.22530904E-01 0.12689061E+03</pdfrwt>
<totfact> 0.35145790E+03</totfact>
</mgrwt>
</event>
<event>
 7    1  0.7550631E-006  0.1562317E+03  0.7546771E-02  0.1206233E+00
         -1   -1    0    0    0  501 -0.00000000000E+00  0.00000000000E+00  0.29065763798E+03  0.29065763798E+03  0.00000000000E+00 0.  1.
          1   -1    0    0  501    0  0.00000000000E+00 -0.00000000000E+00 -0.39780611299E+03  0.39780611299E+03  0.00000000000E+00 0. -1.
         23    2    1    2    0    0 -0.47925637685E+02  0.55807843790E+02  0.26231887308E+03  0.28732228882E+03  0.91277183924E+02 0.  0.
          5    1    1    2  502    0  0.49616458768E+01 -0.45202726330E+02 -0.34930630223E+03  0.35228523553E+03  0.47000000000E+01 0. -1.
         -5    1    1    2    0  502  0.42963991808E+02 -0.10605117460E+02 -0.20161045869E+02  0.48856226614E+02  0.47000000000E+01 0.  1.
        -11    1    3    3    0    0  0.30173430295E+00  0.24330151878E+02  0.66178390096E+01  0.25215930027E+02  0.00000000000E+00 0. -1.
         11    1    3    3    0    0 -0.48227371988E+02  0.31477691912E+02  0.25570103407E+03  0.26210635880E+03  0.00000000000E+00 0.  1.
<mgrwt>
<rscale>  0 0.14540748E+03</rscale>
<asrwt>0</asrwt>
<pdfrwt beam="2">  1        1 0.61200941E-01 0.15623172E+03</pdfrwt>
<pdfrwt beam="1">  1       -1 0.44716560E-01 0.15623172E+03</pdfrwt>
<totfact> 0.31363456E+02</totfact>
</mgrwt>
</event>
<event>
 8    1  0.7550631E-006  0.1746344E+03  0.7546771E-02  0.1179360E+00
          2   -1    0    0  501    0  0.00000000000E+00  0.00000000000E+00  0.70422647388E+03  0.70422647388E+03  0.00000000000E+00 0. -1.
         -2   -1    0    0    0  501 -0.00000000000E+00 -0.00000000000E+00 -0.38069391786E+02  0.38069391786E+02  0.00000000000E+00 0.  1.
         23    2    1    2    0    0  0.40467071321E+02 -0.11505127642E+03  0.34228436938E+03  0.37434108409E+03  0.89990430904E+02 0.  0.
         23    2    1    2    0    0 -0.40467071321E+02  0.11505127642E+03  0.32387271271E+03  0.36795478157E+03  0.12499122838E+03 0.  0.
          5    1    4    4  502    0 -0.68026337249E+02  0.46810343983E+02  0.87758619640E+02  0.12059210664E+03  0.47000000000E+01 0. -1.
         -5    1    4    4    0  502  0.27559265929E+02  0.68240932438E+02  0.23611409307E+03  0.24736267493E+03  0.47000000000E+01 0. -1.
        -11    1    3    3    0    0 -0.79600551726E+01 -0.79089463662E+02  0.26281152361E+03  0.27456948607E+03  0.00000000000E+00 0. -1.
         11    1    3    3    0    0  0.48427126493E+02 -0.35961812759E+02  0.79472845765E+02  0.99771598020E+02  0.00000000000E+00 0.  1.
<mgrwt>
<rscale>  0 0.16855779E+03</rscale>
<asrwt>0</asrwt>
<pdfrwt beam="1">  1        2 0.10834252E+00 0.17463444E+03</pdfrwt>
<pdfrwt beam="2">  1       -2 0.58568301E-02 0.17463444E+03</pdfrwt>
<totfact> 0.62526783E+03</totfact>
</mgrwt>
</event>
<event>
 8    1  0.7550631E-006  0.1691748E+03  0.7546771E-02  0.1185032E+00
         -2   -1    0    0    0  501 -0.00000000000E+00  0.00000000000E+00  0.96857917398E+02  0.96857917398E+02  0.00000000000E+00 0.  1.
          2   -1    0    0  501    0  0.00000000000E+00 -0.00000000000E+00 -0.38457555633E+03  0.38457555633E+03  0.00000000000E+00 0. -1.
         23    2    1    2    0    0 -0.35602439095E+01 -0.11393455249E+03  0.96054355373E+00  0.14683638764E+03  0.92554008577E+02 0.  0.
         23    2    1    2    0    0  0.35602439095E+01  0.11393455249E+03 -0.28867818249E+03  0.33459708609E+03  0.12500543743E+03 0.  0.
          5    1    4    4  502    0  0.72766514629E+01  0.12815902367E+03 -0.16087554730E+03  0.20586577356E+03  0.47000000000E+01 0.  1.
         -5    1    4    4    0  502 -0.37164075534E+01 -0.14224471178E+02 -0.12780263519E+03  0.12873131253E+03  0.47000000000E+01 0.  1.
        -11    1    3    3    0    0  0.24815315032E+02 -0.27277098718E+02  0.33696892850E+02  0.49953183706E+02  0.00000000000E+00 0. -1.
         11    1    3    3    0    0 -0.28375558942E+02 -0.86657453771E+02 -0.32736349296E+02  0.96883203934E+02  0.00000000000E+00 0.  1.
<mgrwt>
<rscale>  0 0.16328936E+03</rscale>
<asrwt>0</asrwt>
<pdfrwt beam="2">  1        2 0.59165471E-01 0.16917481E+03</pdfrwt>
<pdfrwt beam="1">  1       -2 0.14901218E-01 0.16917481E+03</pdfrwt>
<totfact> 0.28292370E+03</totfact>
</mgrwt>
</event>
<event>
 8    1  0.7550631E-006  0.2008327E+03  0.7546771E-02  0.1153234E+00
         -1   -1    0    0    0  501 -0.00000000000E+00  0.00000000000E+00  0.41584581808E+02  0.41584581808E+02  0.00000000000E+00 0.  1.
          1   -1    0    0  501    0  0.00000000000E+00 -0.00000000000E+00 -0.10733587685E+04  0.10733587685E+04  0.00000000000E+00 0. -1.
         23    2    1    2    0    0 -0.86588453452E+02  0.13119341012E+03 -0.25882534174E+03  0.31632973818E+03  0.91458595015E+02 0.  0.
         23    2    1    2    0    0  0.86588453452E+02 -0.13119341012E+03 -0.77294884493E+03  0.79861361210E+03  0.12499805370E+03 0.  0.
          5    1    4    4  502    0  0.91037546718E+02 -0.50632133090E+02 -0.58195612406E+03  0.59122454968E+03  0.47000000000E+01 0.  1.
         -5    1    4    4    0  502 -0.44490932669E+01 -0.80561277030E+02 -0.19099272087E+03  0.20738906242E+03  0.47000000000E+01 0.  1.
        -11    1    3    3    0    0 -0.39811952746E+02  0.10695159529E+03 -0.11020210847E+03  0.15864469745E+03  0.00000000000E+00 0.  1.
         11    1    3    3    0    0 -0.46776500705E+02  0.24241814830E+02 -0.14862323327E+03  0.15768504074E+03  0.00000000000E+00 0. -1.
<mgrwt>
<rscale>  0 0.19591226E+03</rscale>
<asrwt>0</asrwt>
<pdfrwt beam="2">  1        1 0.16513210E+00 0.20083273E+03</pdfrwt>
<pdfrwt beam="1">  1       -1 0.63976288E-02 0.20083273E+03</pdfrwt>
<totfact> 0.17082526E+03</totfact>
</mgrwt>
</event>
<event>
 8    1  0.7550631E-006  0.1771439E+03  0.7546771E-02  0.1176748E+00
          1   -1    0    0  501    0  0.00000000000E+00  0.00000000000E+00  0.77495373550E+03  0.77495373550E+03  0.00000000000E+00 0. -1.
         -1   -1    0    0    0  501 -0.00000000000E+00 -0.00000000000E+00 -0.37477961913E+02  0.37477961913E+02  0.00000000000E+00 0.  1.
         23    2    1    2    0    0  0.12410796639E+03  0.18919183416E+02  0.24858814065E+03  0.29244027617E+03  0.89244207829E+02 0.  0.
         23    2    1    2    0    0 -0.12410796639E+03 -0.18919183416E+02  0.48888763293E+03  0.51999142124E+03  0.12497694871E+03 0.  0.
          5    1    4    4  502    0 -0.58890416884E+02  0.49293755723E+02  0.28617662627E+03  0.29633951302E+03  0.47000000000E+01 0. -1.
         -5    1    4    4    0  502 -0.65217549502E+02 -0.68212939139E+02  0.20271100667E+03  0.22365190822E+03  0.47000000000E+01 0. -1.
        -11    1    3    3    0    0  0.79740297485E+02 -0.31265484999E+02  0.11973491108E+03  0.14721580936E+03  0.00000000000E+00 0. -1.
         11    1    3    3    0    0  0.44367668901E+02  0.50184668415E+02  0.12885322957E+03  0.14522446681E+03  0.00000000000E+00 0.  1.
<mgrwt>
<rscale>  0 0.17105903E+03</rscale>
<asrwt>0</asrwt>
<pdfrwt beam="1">  1        1 0.11922364E+00 0.17714390E+03</pdfrwt>
<pdfrwt beam="2">  1       -1 0.57658408E-02 0.17714390E+03</pdfrwt>
<totfact> 0.33883664E+03</totfact>
</mgrwt>
</event>
<event>
 8    1  0.7550631E-006  0.1548885E+03  0.7546771E-02  0.1203415E+00
         -1   -1    0    0    0  501 -0.00000000000E+00  0.00000000000E+00  0.15040704566E+02  0.15040704566E+02  0.00000000000E+00 0.  1.
          1   -1    0    0  501    0  0.00000000000E+00 -0.00000000000E+00 -0.13303275456E+04  0.13303275456E+04  0.00000000000E+00 0. -1.
         23    2    1    2    0    0  0.32556440507E+02  0.85473053865E+02 -0.57063600904E+03  0.58477945183E+03  0.89308385516E+02 0.  0.
         23    2    1    2    0    0 -0.32556440507E+02 -0.85473053865E+02 -0.74465083198E+03  0.76058879831E+03  0.12499957518E+03 0.  0.
          5    1    4    4  502    0 -0.67146501788E+02 -0.96348149859E+02 -0.53317672605E+03  0.54597722469E+03  0.47000000000E+01 0.  1.
         -5    1    4    4    0  502  0.34590061281E+02  0.10875095994E+02 -0.21147410593E+03  0.21461157362E+03  0.47000000000E+01 0.  1.
        -11    1    3    3    0    0 -0.29337191296E+02  0.36934135581E+02 -0.16609013473E+03  0.17265785246E+03  0.00000000000E+00 0.  1.
         11    1    3    3    0    0  0.61893631803E+02  0.48538918284E+02 -0.40454587431E+03  0.41212159937E+03  0.00000000000E+00 0. -1.
<mgrwt>
<rscale>  0 0.14763051E+03</rscale>
<asrwt>0</asrwt>
<pdfrwt beam="2">  1        1 0.20466592E+00 0.15488854E+03</pdfrwt>
<pdfrwt beam="1">  1       -1 0.23139529E-02 0.15488854E+03</pdfrwt>
<totfact> 0.50738175E+03</totfact>
</mgrwt>
</event>
<event>
 8    1  0.7550631E-006  0.1853626E+03  0.7546771E-02  0.1167930E+00
         -2   -1    0    0    0  501 -0.00000000000E+00  0.00000000000E+00  0.57189843092E+02  0.57189843092E+02  0.00000000000E+00 0.  1.
          2   -1    0    0  501    0  0.00000000000E+00 -0.00000000000E+00 -0.66083693819E+03  0.66083693819E+03  0.00000000000E+00 0. -1.
         23    2    1    2    0    0  0.13552785343E+03  0.19150022035E+02 -0.13046723501E+03  0.20983540058E+03  0.90965232505E+02 0.  0.
         23    2    1    2    0    0 -0.13552785343E+03 -0.19150022035E+02 -0.47317986009E+03  0.50819138070E+03  0.12499910813E+03 0.  0.
          5    1    4    4  502    0 -0.10166053394E+03 -0.64517489787E+02 -0.24475797450E+03  0.27281115581E+03  0.47000000000E+01 0. -1.
         -5    1    4    4    0  502 -0.33867319485E+02  0.45367467752E+02 -0.22842188558E+03  0.23538022490E+03  0.47000000000E+01 0. -1.
        -11    1    3    3    0    0  0.11087642493E+01  0.19709249494E+02  0.35093437406E+01  0.20049921877E+02  0.00000000000E+00 0.  1.
         11    1    3    3    0    0  0.13441908918E+03 -0.55922745980E+00 -0.13397657875E+03  0.18978547870E+03  0.00000000000E+00 0. -1.
<mgrwt>
<rscale>  0 0.17986869E+03</rscale>
<asrwt>0</asrwt>
<pdfrwt beam="2">  1        2 0.10166722E+00 0.18536262E+03</pdfrwt>
<pdfrwt beam="1">  1       -2 0.87984373E-02 0.18536262E+03</pdfrwt>
<totfact> 0.36066069E+03</totfact>
</mgrwt>
</event>
<event>
 8    1  0.7550631E-006  0.1493381E+03  0.7546771E-02  0.1211817E+00
         -2   -1    0    0    0  501 -0.00000000000E+00  0.00000000000E+00  0.85291294680E+03  0.85291294680E+03  0.00000000000E+00 0. -1.
          2   -1    0    0  501    0  0.00000000000E+00 -0.00000000000E+00 -0.21141264968E+02  0.21141264968E+02  0.00000000000E+00 0.  1.
         23    2    1    2    0    0  0.75608157878E+02 -0.31003408478E+02  0.38162317762E+03  0.39978051504E+03  0.86662596521E+02 0.  0.
         23    2    1    2    0    0 -0.75608157878E+02  0.31003408478E+02  0.45014850421E+03  0.47427369673E+03  0.12499623469E+03 0.  0.
          5    1    4    4  502    0  0.13658260946E+02 -0.10589514463E+01  0.27469774647E+00  0.14485680139E+02  0.47000000000E+01 0. -1.
         -5    1    4    4    0  502 -0.89266418824E+02  0.32062359924E+02  0.44987380647E+03  0.45978801659E+03  0.47000000000E+01 0. -1.
        -11    1    3    3    0    0  0.18618137407E+02  0.90896550334E+01  0.12627477943E+02  0.24263348251E+02  0.00000000000E+00 0.  1.
         11    1    3    3    0    0  0.56990020471E+02 -0.40093063512E+02  0.36899569968E+03  0.37551716679E+03  0.00000000000E+00 0. -1.
<mgrwt>
<rscale>  0 0.14112985E+03</rscale>
<asrwt>0</asrwt>
<pdfrwt beam="2">  1        2 0.32525030E-02 0.14933808E+03</pdfrwt>
<pdfrwt beam="1">  1       -2 0.13121735E+00 0.14933808E+03</pdfrwt>
<totfact> 0.12135435E+03</totfact>
</mgrwt>
</event>
<event>
 8    1  0.7550631E-006  0.1291272E+03  0.7546771E-02  0.1243354E+00
         -2   -1    0    0    0  501 -0.00000000000E+00  0.00000000000E+00  0.12270691432E+03  0.12270691432E+03  0.00000000000E+00 0.  1.
          2   -1    0    0  501    0  0.00000000000E+00 -0.00000000000E+00 -0.19252760764E+03  0.19252760764E+03  0.00000000000E+00 0. -1.
         23    2    1    2    0    0  0.32182119666E+02 -0.33795403829E+01  0.74655900344E+02  0.12146319579E+03  0.90181452388E+02 0.  0.
         23    2    1    2    0    0 -0.32182119666E+02  0.33795403829E+01 -0.14447659366E+03  0.19377132617E+03  0.12500692225E+03 0.  0.
          5    1    4    4  502    0 -0.40672524586E+02 -0.53216846188E+02 -0.10293372129E+03  0.12289722516E+03  0.47000000000E+01 0.  1.
         -5    1    4    4    0  502  0.84904049198E+01  0.56596386571E+02 -0.41542872372E+02  0.70874101007E+02  0.47000000000E+01 0.  1.
        -11    1    3    3    0    0 -0.11906459829E+02  0.19931118403E+02  0.67124319558E+02  0.71025963862E+02  0.00000000000E+00 0.  1.
         11    1    3    3    0    0  0.44088579495E+02 -0.23310658785E+02  0.75315807860E+01  0.50437231923E+02  0.00000000000E+00 0. -1.
<mgrwt>
<rscale>  0 0.11984435E+03</rscale>
<asrwt>0</asrwt>
<pdfrwt beam="2">  1        2 0.29619632E-01 0.12912723E+03</pdfrwt>
<pdfrwt beam="1">  1       -2 0.18877987E-01 0.12912723E+03</pdfrwt>
<totfact> 0.39545326E+03</totfact>
</mgrwt>
</event>
<event>
 8    1  0.7550631E-006  0.1257601E+03  0.7546771E-02  0.1246447E+00
         -2   -1    0    0    0  501 -0.00000000000E+00  0.00000000000E+00  0.69906633578E+03  0.69906633578E+03  0.00000000000E+00 0.  1.
          2   -1    0    0  501    0  0.00000000000E+00 -0.00000000000E+00 -0.17875703269E+02  0.17875703269E+02  0.00000000000E+00 0. -1.
         23    2    1    2    0    0  0.93799686227E+01 -0.10066266116E+02  0.31780734870E+03  0.33241244834E+03  0.96473889730E+02 0.  0.
         23    2    1    2    0    0 -0.93799686227E+01  0.10066266116E+02  0.36338328381E+03  0.38452959071E+03  0.12500512650E+03 0.  0.
          5    1    4    4  502    0 -0.10448857704E+01 -0.57407935597E+02  0.16731916072E+03  0.17695918852E+03  0.47000000000E+01 0.  1.
         -5    1    4    4    0  502 -0.83350828523E+01  0.67474201712E+02  0.19606412309E+03  0.20757040219E+03  0.47000000000E+01 0.  1.
        -11    1    3    3    0    0  0.34375168015E+02 -0.43664918183E+02  0.18032739375E+03  0.18869617429E+03  0.00000000000E+00 0. -1.
         11    1    3    3    0    0 -0.24995199392E+02  0.33598652067E+02  0.13747995495E+03  0.14371627405E+03  0.00000000000E+00 0.  1.
<mgrwt>
<rscale>  0 0.11799203E+03</rscale>
<asrwt>0</asrwt>
<pdfrwt beam="2">  1        2 0.27501087E-02 0.12576007E+03</pdfrwt>
<pdfrwt beam="1">  1       -2 0.10754865E+00 0.12576007E+03</pdfrwt>
<totfact> 0.24224019E+03</totfact>
</mgrwt>
</event>
<event>
 8    1  0.7550631E-006  0.1423934E+03  0.7546771E-02  0.1221411E+00
          2   -1    0    0  501    0  0.00000000000E+00  0.00000000000E+00  0.71456156533E+03  0.71456156533E+03  0.00000000000E+00 0. -1.
         -2   -1    0    0    0  501 -0.00000000000E+00 -0.00000000000E+00 -0.24188806721E+02  0.24188806721E+02  0.00000000000E+00 0.  1.
         23    2    1    2    0    0  0.19561164711E+02  0.65332336639E+02  0.21512461597E+03  0.24262873118E+03  0.89101893483E+02 0.  0.
         23    2    1    2    0    0 -0.19561164711E+02 -0.65332336639E+02  0.47524814264E+03  0.49612164087E+03  0.12499972833E+03 0.  0.
          5    1    4    4  502    0 -0.16593683023E+02 -0.88775807340E+02  0.45709386260E+03  0.46595427192E+03  0.47000000000E+01 0. -1.
         -5    1    4    4    0  502 -0.29674816887E+01  0.23443470702E+02  0.18154280031E+02  0.30167368953E+02  0.47000000000E+01 0. -1.
        -11    1    3    3    0    0 -0.29608292076E+02  0.39063291760E+02  0.58169535223E+02  0.76067644572E+02  0.00000000000E+00 0.  1.
         11    1    3    3    0    0  0.49169456787E+02  0.26269044879E+02  0.15695508075E+03  0.16656108661E+03  0.00000000000E+00 0. -1.
<mgrwt>
<rscale>  0 0.13415939E+03</rscale>
<asrwt>0</asrwt>
<pdfrwt beam="1">  1        2 0.10993253E+00 0.14239342E+03</pdfrwt>
<pdfrwt beam="2">  1       -2 0.37213554E-02 0.14239342E+03</pdfrwt>
<totfact> 0.12007493E+04</totfact>
</mgrwt>
</event>
<event>
 8    1  0.7550631E-006  0.2030309E+03  0.7546771E-02  0.1151007E+00
          2   -1    0    0  501    0  0.00000000000E+00  0.00000000000E+00  0.74959676660E+02  0.74959676660E+02  0.00000000000E+00 0. -1.
         -2   -1    0    0    0  501 -0.00000000000E+00 -0.00000000000E+00 -0.59061574430E+03  0.59061574430E+03  0.00000000000E+00 0.  1.
         23    2    1    2    0    0  0.87813124727E+02  0.13373620302E+03 -0.37561326704E+03  0.41893090294E+03  0.93921553388E+02 0.  0.
         23    2    1    2    0    0 -0.87813124727E+02 -0.13373620302E+03 -0.14004280060E+03  0.24664451802E+03  0.12500006158E+03 0.  0.
          5    1    4    4  502    0 -0.57147934890E+02  0.80216676402E+01 -0.38431780799E+02  0.69493347806E+02  0.47000000000E+01 0.  1.
         -5    1    4    4    0  502 -0.30665189837E+02 -0.14175787066E+03 -0.10161101980E+03  0.17715117021E+03  0.47000000000E+01 0.  1.
        -11    1    3    3    0    0  0.21637131929E+02  0.11393463589E+03 -0.24964077988E+03  0.27526312088E+03  0.00000000000E+00 0. -1.
         11    1    3    3    0    0  0.66175992797E+02  0.19801567132E+02 -0.12597248715E+03  0.14366778206E+03  0.00000000000E+00 0.  1.
<mgrwt>
<rscale>  0 0.19850406E+03</rscale>
<asrwt>0</asrwt>
<pdfrwt beam="1">  1        2 0.11532258E-01 0.20303087E+03</pdfrwt>
<pdfrwt beam="2">  1       -2 0.90863961E-01 0.20303087E+03</pdfrwt>
<totfact> 0.57117615E+02</totfact>
</mgrwt>
</event>
<event>
 8    1  0.7550631E-006  0.1481781E+03  0.7546771E-02  0.1212994E+00
          1   -1    0    0  501    0  0.00000000000E+00  0.00000000000E+00  0.46715483836E+03  0.46715483836E+03  0.00000000000E+00 0. -1.
         -1   -1    0    0    0  501 -0.00000000000E+00 -0.00000000000E+00 -0.41734225892E+02  0.41734225892E+02  0.00000000000E+00 0.  1.
         23    2    1    2    0    0  0.73576104544E+02  0.30305146705E+02  0.11752639908E+03  0.16719386904E+03  0.88371320501E+02 0.  0.
         23    2    1    2    0    0 -0.73576104544E+02 -0.30305146705E+02  0.30789421339E+03  0.34169519521E+03  0.12499965886E+03 0.  0.
          5    1    4    4  502    0 -0.58720581905E+02 -0.42485648073E+02  0.31296163642E+03  0.32127902655E+03  0.47000000000E+01 0. -1.
         -5    1    4    4    0  502 -0.14855522639E+02  0.12180501368E+02 -0.50674230342E+01  0.20416168658E+02  0.47000000000E+01 0. -1.
        -11    1    3    3    0    0  0.31403853784E+02 -0.23981241481E+02  0.79150068504E+02  0.88464881843E+02  0.00000000000E+00 0. -1.
         11    1    3    3    0    0  0.42172250761E+02  0.54286388186E+02  0.38376330577E+02  0.78728987197E+02  0.00000000000E+00 0.  1.
<mgrwt>
<rscale>  0 0.14024888E+03</rscale>
<asrwt>0</asrwt>
<pdfrwt beam="1">  1        1 0.71869972E-01 0.14817814E+03</pdfrwt>
<pdfrwt beam="2">  1       -1 0.64206505E-02 0.14817814E+03</pdfrwt>
<totfact> 0.57543894E+03</totfact>
</mgrwt>
</event>
<event>
 8    1  0.7550631E-006  0.1645975E+03  0.7546771E-02  0.1190743E+00
         -2   -1    0    0    0  501 -0.00000000000E+00  0.00000000000E+00  0.11853463003E+03  0.11853463003E+03  0.00000000000E+00 0.  1.
          2   -1    0    0  501    0  0.00000000000E+00 -0.00000000000E+00 -0.21476669125E+03  0.21476669125E+03  0.00000000000E+00 0. -1.
         23    2    1    2    0    0  0.24998390737E+02  0.10412579464E+03  0.41177645277E+01  0.14052572846E+03  0.90903375770E+02 0.  0.
         23    2    1    2    0    0 -0.24998390737E+02 -0.10412579464E+03 -0.10034982575E+03  0.19277559282E+03  0.12500096404E+03 0.  0.
          5    1    4    4  502    0 -0.95187678814E+01 -0.12791349761E+03 -0.56285470934E+02  0.14015211040E+03  0.47000000000E+01 0.  1.
         -5    1    4    4    0  502 -0.15479622856E+02  0.23787702974E+02 -0.44064354812E+02  0.52623482416E+02  0.47000000000E+01 0.  1.
        -11    1    3    3    0    0 -0.96334432896E+01  0.64562821515E+02 -0.35855640951E+02  0.74476762414E+02  0.00000000000E+00 0. -1.
         11    1    3    3    0    0  0.34631834027E+02  0.39562973120E+02  0.39973405478E+02  0.66048966046E+02  0.00000000000E+00 0.  1.
<mgrwt>
<rscale>  0 0.15820120E+03</rscale>
<asrwt>0</asrwt>
<pdfrwt beam="2">  1        2 0.33041029E-01 0.16459751E+03</pdfrwt>
<pdfrwt beam="1">  1       -2 0.18236097E-01 0.16459751E+03</pdfrwt>
<totfact> 0.37719502E+03</totfact>
</mgrwt>
</event>
<event>
 8    1  0.7550631E-006  0.1432377E+03  0.7546771E-02  0.1219397E+00
          4   -1    0    0  501    0  0.00000000000E+00  0.00000000000E+00  0.48463580467E+02  0.48463580467E+02  0.00000000000E+00 0. -1.
         -4   -1    0    0    0  501 -0.00000000000E+00 -0.00000000000E+00 -0.34517871091E+03  0.34517871091E+03  0.00000000000E+00 0.  1.
         23    2    1    2    0    0 -0.18094120515E+01 -0.69915184131E+02 -0.12066046256E+03  0.16667908870E+03  0.91277403775E+02 0.  0.
         23    2    1    2    0    0  0.18094120515E+01  0.69915184131E+02 -0.17605466789E+03  0.22696320268E+03  0.12500256935E+03 0.  0.
          5    1    4    4  502    0  0.24048236763E+02  0.28776880126E+02  0.65919553939E+01  0.38366266395E+02  0.47000000000E+01 0. -1.
         -5    1    4    4    0  502 -0.22238824712E+02  0.41138304006E+02 -0.18264662328E+03  0.18859693629E+03  0.47000000000E+01 0. -1.
        -11    1    3    3    0    0 -0.40498583013E+01 -0.91121713794E+02 -0.10981606919E+03  0.14275551523E+03  0.00000000000E+00 0.  1.
         11    1    3    3    0    0  0.22404462498E+01  0.21206529663E+02 -0.10844393368E+02  0.23923573464E+02  0.00000000000E+00 0. -1.
<mgrwt>
<rscale>  0 0.13558424E+03</rscale>
<asrwt>0</asrwt>
<pdfrwt beam="1">  1        4 0.74559353E-02 0.14323774E+03</pdfrwt>
<pdfrwt beam="2">  1       -4 0.53104419E-01 0.14323774E+03</pdfrwt>
<totfact> 0.71183073E+02</totfact>
</mgrwt>
</event>
<event>
 8    1  0.7550631E-006  0.2160442E+03  0.7546771E-02  0.1140316E+00
          2   -1    0    0  501    0  0.00000000000E+00  0.00000000000E+00  0.36043162755E+03  0.36043162755E+03  0.00000000000E+00 0. -1.
         -2   -1    0    0    0  501 -0.00000000000E+00 -0.00000000000E+00 -0.13132162411E+03  0.13132162411E+03  0.00000000000E+00 0.  1.
         23    2    1    2    0    0  0.22192320030E+02  0.17480785861E+03  0.36009799973E+02  0.20198989253E+03  0.91939787321E+02 0.  0.
         23    2    1    2    0    0 -0.22192320030E+02 -0.17480785861E+03  0.19310020346E+03  0.28976335913E+03  0.12499931686E+03 0.  0.
          5    1    4    4  502    0  0.21471168787E+02 -0.13366470315E+03  0.18462995841E+03  0.22899252280E+03  0.47000000000E+01 0.  1.
         -5    1    4    4    0  502 -0.43663488817E+02 -0.41143155457E+02  0.84702450571E+01  0.60770836327E+02  0.47000000000E+01 0.  1.
        -11    1    3    3    0    0 -0.18623411325E+02  0.45898948253E+02 -0.22811470372E+02  0.54533550046E+02  0.00000000000E+00 0.  1.
         11    1    3    3    0    0  0.40815731356E+02  0.12890891035E+03  0.58821270345E+02  0.14745634249E+03  0.00000000000E+00 0. -1.
<mgrwt>
<rscale>  0 0.21158558E+03</rscale>
<asrwt>0</asrwt>
<pdfrwt beam="1">  1        2 0.55451019E-01 0.21604424E+03</pdfrwt>
<pdfrwt beam="2">  1       -2 0.20203327E-01 0.21604424E+03</pdfrwt>
<totfact> 0.18357125E+03</totfact>
</mgrwt>
</event>
<event>
 8    1  0.7550631E-006  0.1280933E+03  0.7546771E-02  0.1246947E+00
         -2   -1    0    0    0  501 -0.00000000000E+00  0.00000000000E+00  0.10080255107E+02  0.10080255107E+02  0.00000000000E+00 0.  1.
          2   -1    0    0  501    0  0.00000000000E+00 -0.00000000000E+00 -0.12089026030E+04  0.12089026030E+04  0.00000000000E+00 0. -1.
         23    2    1    2    0    0  0.27997890595E+02  0.10950964581E+01 -0.43288187287E+03  0.44240530619E+03  0.86894522129E+02 0.  0.
         23    2    1    2    0    0 -0.27997890595E+02 -0.10950964581E+01 -0.76594047498E+03  0.77657755187E+03  0.12499120665E+03 0.  0.
          5    1    4    4  502    0 -0.41221898056E+01 -0.23740200514E+01 -0.74325419981E+03  0.74328428205E+03  0.47000000000E+01 0.  1.
         -5    1    4    4    0  502 -0.23875700789E+02  0.12789235933E+01 -0.22686275177E+02  0.33293269817E+02  0.47000000000E+01 0.  1.
        -11    1    3    3    0    0 -0.31443775393E+02  0.37472717416E+01 -0.16192653845E+03  0.16499380871E+03  0.00000000000E+00 0.  1.
         11    1    3    3    0    0  0.59441665988E+02 -0.26521752834E+01 -0.27095533442E+03  0.27741149749E+03  0.00000000000E+00 0. -1.
<mgrwt>
<rscale>  0 0.11769628E+03</rscale>
<asrwt>0</asrwt>
<pdfrwt beam="2">  1        2 0.18598504E+00 0.12809326E+03</pdfrwt>
<pdfrwt beam="1">  1       -2 0.15508083E-02 0.12809326E+03</pdfrwt>
<totfact> 0.21163487E+04</totfact>
</mgrwt>
</event>
<event>
 7    1  0.7550631E-006  0.1772821E+03  0.7546771E-02  0.1196259E+00
          2   -1    0    0  501    0  0.00000000000E+00  0.00000000000E+00  0.11410527356E+04  0.11410527356E+04  0.00000000000E+00 0. -1.
         -2   -1    0    0    0  501 -0.00000000000E+00 -0.00000000000E+00 -0.20034141616E+03  0.20034141616E+03  0.00000000000E+00 0.  1.
         23    2    1    2    0    0 -0.16866893182E+02 -0.37934096493E+02 -0.18055418521E+03  0.20620021485E+03  0.90527493299E+02 0.  0.
          5    1    1    2  502    0 -0.45851510599E+01  0.65466697867E+02  0.10751847067E+04  0.10771959690E+04  0.47000000000E+01 0. -1.
         -5    1    1    2    0  502  0.21452044242E+02 -0.27532601374E+02  0.46080797996E+02  0.57997967934E+02  0.47000000000E+01 0.  1.
        -11    1    3    3    0    0  0.33191700210E+02  0.19791795850E+01 -0.84070366504E+02  0.90407038657E+02  0.00000000000E+00 0. -1.
         11    1    3    3    0    0 -0.50058593392E+02 -0.39913276078E+02 -0.96483818710E+02  0.11579317619E+03  0.00000000000E+00 0.  1.
<mgrwt>
<rscale>  0 0.15348134E+03</rscale>
<asrwt>0</asrwt>
<pdfrwt beam="1">  1        2 0.17554657E+00 0.17728210E+03</pdfrwt>
<pdfrwt beam="2">  1       -2 0.30821757E-01 0.17728210E+03</pdfrwt>
<totfact> 0.21626557E+02</totfact>
</mgrwt>
</event>
<event>
 8    1  0.7550631E-006  0.1284910E+03  0.7546771E-02  0.1244022E+00
          1   -1    0    0  501    0  0.00000000000E+00  0.00000000000E+00  0.14090321272E+04  0.14090321272E+04  0.00000000000E+00 0. -1.
         -1   -1    0    0    0  501 -0.00000000000E+00 -0.00000000000E+00 -0.95939445974E+01  0.95939445974E+01  0.00000000000E+00 0.  1.
         23    2    1    2    0    0 -0.27595989773E+02 -0.11393961317E+02  0.42137688121E+03  0.43216074001E+03  0.91176028584E+02 0.  0.
         23    2    1    2    0    0  0.27595989773E+02  0.11393961317E+02  0.97806130138E+03  0.98646533176E+03  0.12497431942E+03 0.  0.
          5    1    4    4  502    0  0.47169657377E+02  0.13663179187E+02  0.14508923601E+03  0.15324697534E+03  0.47000000000E+01 0. -1.
         -5    1    4    4    0  502 -0.19573667604E+02 -0.22692178704E+01  0.83297206536E+03  0.83321835643E+03  0.47000000000E+01 0. -1.
        -11    1    3    3    0    0 -0.59359044977E+02  0.11326528873E+01  0.21809947038E+03  0.22603574519E+03  0.00000000000E+00 0.  1.
         11    1    3    3    0    0  0.31763055204E+02 -0.12526614204E+02  0.20327741083E+03  0.20612499483E+03  0.00000000000E+00 0. -1.
<mgrwt>
<rscale>  0 0.11944121E+03</rscale>
<asrwt>0</asrwt>
<pdfrwt beam="1">  1        1 0.21677401E+00 0.12849102E+03</pdfrwt>
<pdfrwt beam="2">  1       -1 0.14759926E-02 0.12849102E+03</pdfrwt>
<totfact> 0.85451918E+03</totfact>
</mgrwt>
</event>
<event>
 8    1  0.7550631E-006  0.1942534E+03  0.7546771E-02  0.1159035E+00
         -2   -1    0    0    0  501 -0.00000000000E+00  0.00000000000E+00  0.67530635421E+02  0.67530635421E+02  0.00000000000E+00 0. -1.
          2   -1    0    0  501    0  0.00000000000E+00 -0.00000000000E+00 -0.51744125455E+03  0.51744125455E+03  0.00000000000E+00 0.  1.
         23    2    1    2    0    0  0.13454300451E+03 -0.63303749928E+02 -0.17018288462E+03  0.24441057697E+03  0.93086685944E+02 0.  0.
         23    2    1    2    0    0 -0.13454300451E+03  0.63303749928E+02 -0.27972773452E+03  0.34056131301E+03  0.12500087057E+03 0.  0.
          5    1    4    4  502    0 -0.12194588843E+02 -0.21441211220E+02 -0.11833386437E+03  0.12096870253E+03  0.47000000000E+01 0.  1.
         -5    1    4    4    0  502 -0.12234841566E+03  0.84744961148E+02 -0.16139387015E+03  0.21959261048E+03  0.47000000000E+01 0.  1.
        -11    1    3    3    0    0  0.69240452040E+02  0.10711719091E+02 -0.10462369644E+03  0.12591703213E+03  0.00000000000E+00 0.  1.
         11    1    3    3    0    0  0.65302552467E+02 -0.74015469019E+02 -0.65559188178E+02  0.11849354483E+03  0.00000000000E+00 0. -1.
<mgrwt>
<rscale>  0 0.18936517E+03</rscale>
<asrwt>0</asrwt>
<pdfrwt beam="2">  1        2 0.79606346E-01 0.19425345E+03</pdfrwt>
<pdfrwt beam="1">  1       -2 0.10389329E-01 0.19425345E+03</pdfrwt>
<totfact> 0.36795638E+03</totfact>
</mgrwt>
</event>
<event>
 8    1  0.7550631E-006  0.2159962E+03  0.7546771E-02  0.1139609E+00
         -2   -1    0    0    0  501 -0.00000000000E+00  0.00000000000E+00  0.13596945965E+03  0.13596945965E+03  0.00000000000E+00 0.  1.
          2   -1    0    0  501    0  0.00000000000E+00 -0.00000000000E+00 -0.32173198041E+03  0.32173198041E+03  0.00000000000E+00 0. -1.
         23    2    1    2    0    0  0.11072088219E+03 -0.13700343603E+03 -0.89102690679E+02  0.22106354680E+03  0.99502497469E+02 0.  0.
         23    2    1    2    0    0 -0.11072088219E+03  0.13700343603E+03 -0.96659830073E+02  0.23663789326E+03  0.12500125815E+03 0.  0.
          5    1    4    4  502    0 -0.62814113982E+02  0.93011732707E+02  0.87646752663E+01  0.11267521852E+03  0.47000000000E+01 0. -1.
         -5    1    4    4    0  502 -0.47906768210E+02  0.43991703318E+02 -0.10542450534E+03  0.12396267473E+03  0.47000000000E+01 0. -1.
        -11    1    3    3    0    0  0.21367254686E+02 -0.63022599286E+02  0.11474755654E+02  0.67528346721E+02  0.00000000000E+00 0.  1.
         11    1    3    3    0    0  0.89353627505E+02 -0.73980836739E+02 -0.10057744633E+03  0.15353520008E+03  0.00000000000E+00 0. -1.
<mgrwt>
<rscale>  0 0.21249053E+03</rscale>
<asrwt>0</asrwt>
<pdfrwt beam="2">  1        2 0.49497228E-01 0.21599623E+03</pdfrwt>
<pdfrwt beam="1">  1       -2 0.20918378E-01 0.21599623E+03</pdfrwt>
<totfact> 0.19545723E+03</totfact>
</mgrwt>
</event>
<event>
 7    1  0.7550631E-006  0.1485893E+03  0.7546771E-02  0.1225244E+00
         -1   -1    0    0    0  501 -0.00000000000E+00  0.00000000000E+00  0.28822828919E+03  0.28822828919E+03  0.00000000000E+00 0.  1.
          1   -1    0    0  501    0  0.00000000000E+00 -0.00000000000E+00 -0.50029904238E+02  0.50029904238E+02  0.00000000000E+00 0. -1.
         23    2    1    2    0    0 -0.21991966312E+02  0.24289594632E+02  0.10044551046E+03  0.13563876198E+03  0.85058463366E+02 0.  0.
          5    1    1    2  502    0 -0.47443500180E+02 -0.51634878759E+02  0.44881360989E+02  0.83387486939E+02  0.47000000000E+01 0. -1.
         -5    1    1    2    0  502  0.69435466492E+02  0.27345284128E+02  0.92871513500E+02  0.11923194451E+03  0.47000000000E+01 0.  1.
        -11    1    3    3    0    0 -0.36448568482E+02  0.48491645052E+02  0.53523644002E+02  0.80899432949E+02  0.00000000000E+00 0.  1.
         11    1    3    3    0    0  0.14456602169E+02 -0.24202050421E+02  0.46921866457E+02  0.54739329030E+02  0.00000000000E+00 0. -1.
<mgrwt>
<rscale>  0 0.13150173E+03</rscale>
<asrwt>0</asrwt>
<pdfrwt beam="2">  1        1 0.76969085E-02 0.14858930E+03</pdfrwt>
<pdfrwt beam="1">  1       -1 0.44342813E-01 0.14858930E+03</pdfrwt>
<totfact> 0.45176103E+03</totfact>
</mgrwt>
</event>
<event>
 7    1  0.7550631E-006  0.1993487E+03  0.7546771E-02  0.1177409E+00
          2   -1    0    0  501    0  0.00000000000E+00  0.00000000000E+00  0.19934058150E+03  0.19934058150E+03  0.00000000000E+00 0. -1.
         -2   -1    0    0    0  501 -0.00000000000E+00 -0.00000000000E+00 -0.32861367164E+03  0.32861367164E+03  0.00000000000E+00 0.  1.
         23    2    1    2    0    0 -0.41886156337E+02  0.30828599383E+02 -0.26580151738E+03  0.28633487904E+03  0.92910514369E+02 0.  0.
          5    1    1    2  502    0  0.14309250393E+02  0.68227851240E+02  0.11785296601E+03  0.13700805060E+03  0.47000000000E+01 0. -1.
         -5    1    1    2    0  502  0.27576905944E+02 -0.99056450623E+02  0.18675461235E+02  0.10461132350E+03  0.47000000000E+01 0.  1.
        -11    1    3    3    0    0  0.17963006816E+02 -0.54094225384E+01 -0.10247035660E+02  0.21375996021E+02  0.00000000000E+00 0. -1.
         11    1    3    3    0    0 -0.59849163154E+02  0.36238021922E+02 -0.25555448172E+03  0.26495888302E+03  0.00000000000E+00 0.  1.
<mgrwt>
<rscale>  0 0.17042111E+03</rscale>
<asrwt>0</asrwt>
<pdfrwt beam="1">  1        2 0.30667782E-01 0.19934872E+03</pdfrwt>
<pdfrwt beam="2">  1       -2 0.50555949E-01 0.19934872E+03</pdfrwt>
<totfact> 0.64259532E+02</totfact>
</mgrwt>
</event>
<event>
 8    1  0.7550631E-006  0.1282896E+03  0.7546771E-02  0.1243003E+00
         -4   -1    0    0    0  501 -0.00000000000E+00  0.00000000000E+00  0.19872900185E+03  0.19872900185E+03  0.00000000000E+00 0.  1.
          4   -1    0    0  501    0  0.00000000000E+00 -0.00000000000E+00 -0.68071373739E+02  0.68071373739E+02  0.00000000000E+00 0. -1.
         23    2    1    2    0    0  0.74601032940E+01  0.27875797713E+02  0.86835492548E+02  0.13123268467E+03  0.94068600074E+02 0.  0.
         23    2    1    2    0    0 -0.74601032940E+01 -0.27875797713E+02  0.43822135560E+02  0.13556769092E+03  0.12500202405E+03 0.  0.
          5    1    4    4  502    0  0.31329863915E+02 -0.20372959824E+02 -0.32336471151E+02  0.49642272626E+02  0.47000000000E+01 0. -1.
         -5    1    4    4    0  502 -0.38789967210E+02 -0.75028378896E+01  0.76158606711E+02  0.85925418292E+02  0.47000000000E+01 0. -1.
        -11    1    3    3    0    0 -0.25461738587E+02  0.11531482050E+02  0.90096394102E+02  0.94332578892E+02  0.00000000000E+00 0.  1.
         11    1    3    3    0    0  0.32921841881E+02  0.16344315663E+02 -0.32609015547E+01  0.36900105776E+02  0.00000000000E+00 0. -1.
<mgrwt>
<rscale>  0 0.12005688E+03</rscale>
<asrwt>0</asrwt>
<pdfrwt beam="2">  1        4 0.10472519E-01 0.12828959E+03</pdfrwt>
<pdfrwt beam="1">  1       -4 0.30573692E-01 0.12828959E+03</pdfrwt>
<totfact> 0.11722137E+03</totfact>
</mgrwt>
</event>
<event>
 8    1  0.7550631E-006  0.1819613E+03  0.7546771E-02  0.1172982E+00
          2   -1    0    0  501    0  0.00000000000E+00  0.00000000000E+00  0.64650369140E+03  0.64650369140E+03  0.00000000000E+00 0. -1.
         -2   -1    0    0    0  501 -0.00000000000E+00 -0.00000000000E+00 -0.61736469249E+02  0.61736469249E+02  0.00000000000E+00 0.  1.
         23    2    1    2    0    0  0.11030654518E+03  0.72924364754E+02  0.85469490792E+02  0.17681928210E+03  0.80464450414E+02 0.  0.
         23    2    1    2    0    0 -0.11030654518E+03 -0.72924364754E+02  0.49929773136E+03  0.53142087855E+03  0.12499771492E+03 0.  0.
          5    1    4    4  502    0  0.15478727093E+02  0.13857104842E+02  0.23759543501E+02  0.31909501005E+02  0.47000000000E+01 0. -1.
         -5    1    4    4    0  502 -0.12578527228E+03 -0.86781469596E+02  0.47553818786E+03  0.49951137755E+03  0.47000000000E+01 0. -1.
        -11    1    3    3    0    0  0.22460243124E+02  0.34291617234E+01 -0.14276213471E+02  0.26833410935E+02  0.00000000000E+00 0.  1.
         11    1    3    3    0    0  0.87846302058E+02  0.69495203031E+02  0.99745704263E+02  0.14998587116E+03  0.00000000000E+00 0. -1.
<mgrwt>
<rscale>  0 0.17475123E+03</rscale>
<asrwt>0</asrwt>
<pdfrwt beam="1">  1        2 0.99462102E-01 0.18196133E+03</pdfrwt>
<pdfrwt beam="2">  1       -2 0.94979188E-02 0.18196133E+03</pdfrwt>
<totfact> 0.32797963E+03</totfact>
</mgrwt>
</event>
<event>
 8    1  0.7550631E-006  0.2885445E+03  0.7546771E-02  0.1092843E+00
          1   -1    0    0  501    0  0.00000000000E+00  0.00000000000E+00  0.48421120335E+03  0.48421120335E+03  0.00000000000E+00 0. -1.
         -1   -1    0    0    0  501 -0.00000000000E+00 -0.00000000000E+00 -0.16702949518E+03  0.16702949518E+03  0.00000000000E+00 0.  1.
         23    2    1    2    0    0 -0.22857083006E+03 -0.12405045001E+03  0.11390787910E+03  0.29828437963E+03  0.91462712124E+02 0.  0.
         23    2    1    2    0    0  0.22857083006E+03  0.12405045001E+03  0.20327382907E+03  0.35295631890E+03  0.12499909986E+03 0.  0.
          5    1    4    4  502    0  0.21927402541E+03  0.74015322844E+02  0.19170975912E+03  0.30055629752E+03  0.47000000000E+01 0.  1.
         -5    1    4    4    0  502  0.92968046503E+01  0.50035127166E+02  0.11564069951E+02  0.52400021384E+02  0.47000000000E+01 0.  1.
        -11    1    3    3    0    0 -0.18500574163E+03 -0.10357187712E+03  0.49240315506E+02  0.21766687125E+03  0.00000000000E+00 0.  1.
         11    1    3    3    0    0 -0.43565088430E+02 -0.20478572890E+02  0.64667563591E+02  0.80617508386E+02  0.00000000000E+00 0. -1.
<mgrwt>
<rscale>  0 0.28527272E+03</rscale>
<asrwt>0</asrwt>
<pdfrwt beam="1">  1        1 0.74494030E-01 0.28854447E+03</pdfrwt>
<pdfrwt beam="2">  1       -1 0.25696846E-01 0.28854447E+03</pdfrwt>
<totfact> 0.62901794E+02</totfact>
</mgrwt>
</event>
<event>
 8    1  0.7550631E-006  0.1382702E+03  0.7546771E-02  0.1227253E+00
          2   -1    0    0  501    0  0.00000000000E+00  0.00000000000E+00  0.39921880127E+03  0.39921880127E+03  0.00000000000E+00 0. -1.
         -2   -1    0    0    0  501 -0.00000000000E+00 -0.00000000000E+00 -0.38151876566E+02  0.38151876566E+02  0.00000000000E+00 0.  1.
         23    2    1    2    0    0 -0.31843416432E+02 -0.49792510521E+02  0.15390452959E+03  0.18830261230E+03  0.90983362738E+02 0.  0.
         23    2    1    2    0    0  0.31843416432E+02  0.49792510521E+02  0.20716239511E+03  0.24906806554E+03  0.12500138419E+03 0.  0.
          5    1    4    4  502    0  0.17575387474E+02 -0.28715570592E+01  0.19111528262E+03  0.19200073265E+03  0.47000000000E+01 0.  1.
         -5    1    4    4    0  502  0.14268028957E+02  0.52664067580E+02  0.16047112491E+02  0.57067332895E+02  0.47000000000E+01 0.  1.
        -11    1    3    3    0    0  0.20746586488E+02 -0.27101458613E+02  0.11267309571E+03  0.11772908055E+03  0.00000000000E+00 0. -1.
         11    1    3    3    0    0 -0.52590002919E+02 -0.22691051908E+02  0.41231433884E+02  0.70573531751E+02  0.00000000000E+00 0.  1.
<mgrwt>
<rscale>  0 0.13013656E+03</rscale>
<asrwt>0</asrwt>
<pdfrwt beam="1">  1        2 0.61418274E-01 0.13827018E+03</pdfrwt>
<pdfrwt beam="2">  1       -2 0.58695197E-02 0.13827018E+03</pdfrwt>
<totfact> 0.11613204E+04</totfact>
</mgrwt>
</event>
<event>
 8    1  0.7550631E-006  0.2370489E+03  0.7546771E-02  0.1124682E+00
         -1   -1    0    0    0  501 -0.00000000000E+00  0.00000000000E+00  0.17352587472E+03  0.17352587472E+03  0.00000000000E+00 0.  1.
          1   -1    0    0  501    0  0.00000000000E+00 -0.00000000000E+00 -0.34765526780E+03  0.34765526780E+03  0.00000000000E+00 0. -1.
         23    2    1    2    0    0 -0.13561779730E+03 -0.14891472162E+03  0.10421777881E+02  0.22076257199E+03  0.89775934848E+02 0.  0.
         23    2    1    2    0    0  0.13561779730E+03  0.14891472162E+03 -0.18455117096E+03  0.30041857053E+03  0.12499760623E+03 0.  0.
          5    1    4    4  502    0  0.10476590499E+03  0.31299520148E+02 -0.54309728756E+02  0.12217688590E+03  0.47000000000E+01 0. -1.
         -5    1    4    4    0  502  0.30851892305E+02  0.11761520147E+03 -0.13024144220E+03  0.17824168464E+03  0.47000000000E+01 0. -1.
        -11    1    3    3    0    0 -0.86606508611E+02 -0.29940901891E+02 -0.37690283315E+00  0.91636712051E+02  0.00000000000E+00 0. -1.
         11    1    3    3    0    0 -0.49011288686E+02 -0.11897381973E+03  0.10798680714E+02  0.12912585993E+03  0.00000000000E+00 0.  1.
<mgrwt>
<rscale>  0 0.23280307E+03</rscale>
<asrwt>0</asrwt>
<pdfrwt beam="2">  1        1 0.53485426E-01 0.23704890E+03</pdfrwt>
<pdfrwt beam="1">  1       -1 0.26696288E-01 0.23704890E+03</pdfrwt>
<totfact> 0.90615795E+02</totfact>
</mgrwt>
</event>
<event>
 8    1  0.7550631E-006  0.2391602E+03  0.7546771E-02  0.1122943E+00
         -2   -1    0    0    0  501 -0.00000000000E+00  0.00000000000E+00  0.33965859506E+03  0.33965859506E+03  0.00000000000E+00 0. -1.
          2   -1    0    0  501    0  0.00000000000E+00 -0.00000000000E+00 -0.20464702620E+03  0.20464702620E+03  0.00000000000E+00 0.  1.
         23    2    1    2    0    0  0.17991432958E+03  0.95928328699E+02  0.19566142969E+03  0.29757501472E+03  0.93252796635E+02 0.  0.
         23    2    1    2    0    0 -0.17991432958E+03 -0.95928328699E+02 -0.60649860830E+02  0.24673060654E+03  0.12500470530E+03 0.  0.
          5    1    4    4  502    0 -0.46856656455E+02 -0.28413306754E+02  0.38842912795E+02  0.67332934952E+02  0.47000000000E+01 0. -1.
         -5    1    4    4    0  502 -0.13305767313E+03 -0.67515021944E+02 -0.99492773624E+02  0.17939767158E+03  0.47000000000E+01 0. -1.
        -11    1    3    3    0    0  0.55772404038E+02  0.81979420515E+02  0.81585693927E+02  0.12840331730E+03  0.00000000000E+00 0. -1.
         11    1    3    3    0    0  0.12414192555E+03  0.13948908184E+02  0.11407573576E+03  0.16917169742E+03  0.00000000000E+00 0.  1.
<mgrwt>
<rscale>  0 0.23533013E+03</rscale>
<asrwt>0</asrwt>
<pdfrwt beam="2">  1        2 0.31484158E-01 0.23916017E+03</pdfrwt>
<pdfrwt beam="1">  1       -2 0.52255169E-01 0.23916017E+03</pdfrwt>
<totfact> 0.58531045E+02</totfact>
</mgrwt>
</event>
<event>
 8    1  0.7550631E-006  0.1428567E+03  0.7546771E-02  0.1219921E+00
         -1   -1    0    0    0  501 -0.00000000000E+00  0.00000000000E+00  0.14743008442E+03  0.14743008442E+03  0.00000000000E+00 0.  1.
          1   -1    0    0  501    0  0.00000000000E+00 -0.00000000000E+00 -0.11302407222E+03  0.11302407222E+03  0.00000000000E+00 0. -1.
         23    2    1    2    0    0  0.11574033260E+02  0.68185055074E+02  0.60101143606E+01  0.11480267308E+03  0.91435071441E+02 0.  0.
         23    2    1    2    0    0 -0.11574033260E+02 -0.68185055074E+02  0.28395897835E+02  0.14565148357E+03  0.12499947068E+03 0.  0.
          5    1    4    4  502    0  0.17010928511E+02  0.28374194232E+02  0.29885060742E+02  0.44829381466E+02  0.47000000000E+01 0. -1.
         -5    1    4    4    0  502 -0.28584961771E+02 -0.96559249306E+02 -0.14891629067E+01  0.10082210210E+03  0.47000000000E+01 0. -1.
        -11    1    3    3    0    0  0.16297559239E+01  0.64852601131E+02 -0.34138204522E+02  0.73307114156E+02  0.00000000000E+00 0. -1.
         11    1    3    3    0    0  0.99442773362E+01  0.33324539431E+01  0.40148318883E+02  0.41495558921E+02  0.00000000000E+00 0.  1.
<mgrwt>
<rscale>  0 0.13521174E+03</rscale>
<asrwt>0</asrwt>
<pdfrwt beam="2">  1        1 0.17388319E-01 0.14285667E+03</pdfrwt>
<pdfrwt beam="1">  1       -1 0.22681551E-01 0.14285667E+03</pdfrwt>
<totfact> 0.48143562E+03</totfact>
</mgrwt>
</event>
<event>
 8    1  0.7550631E-006  0.1260851E+03  0.7546771E-02  0.1248586E+00
          1   -1    0    0  501    0  0.00000000000E+00  0.00000000000E+00  0.84369215500E+03  0.84369215500E+03  0.00000000000E+00 0. -1.
         -1   -1    0    0    0  501 -0.00000000000E+00 -0.00000000000E+00 -0.16540693785E+02  0.16540693785E+02  0.00000000000E+00 0.  1.
         23    2    1    2    0    0  0.18652351530E+02 -0.80678821074E+01  0.19836891534E+03  0.21893343389E+03  0.90380423558E+02 0.  0.
         23    2    1    2    0    0 -0.18652351530E+02  0.80678821074E+01  0.62878254587E+03  0.64129941489E+03  0.12443652441E+03 0.  0.
          5    1    4    4  502    0  0.20325821206E+02  0.39686755332E+02  0.51379428835E+03  0.51574687425E+03  0.47000000000E+01 0. -1.
         -5    1    4    4    0  502 -0.38978172736E+02 -0.31618873225E+02  0.11498825752E+03  0.12555254064E+03  0.47000000000E+01 0.  1.
        -11    1    3    3    0    0  0.36602927334E+02 -0.26367635985E+02  0.46019073126E+02  0.64442079484E+02  0.00000000000E+00 0.  1.
         11    1    3    3    0    0 -0.17950575804E+02  0.18299753877E+02  0.15234984221E+03  0.15449135441E+03  0.00000000000E+00 0. -1.
<mgrwt>
<rscale>  0 0.11673309E+03</rscale>
<asrwt>0</asrwt>
<pdfrwt beam="1">  1        1 0.12979876E+00 0.12608509E+03</pdfrwt>
<pdfrwt beam="2">  1       -1 0.25447228E-02 0.12608509E+03</pdfrwt>
<totfact> 0.97619701E+03</totfact>
</mgrwt>
</event>
<event>
 8    1  0.7550631E-006  0.1666390E+03  0.7546771E-02  0.1188394E+00
         -2   -1    0    0    0  501 -0.00000000000E+00  0.00000000000E+00  0.39730782405E+02  0.39730782405E+02  0.00000000000E+00 0.  1.
          2   -1    0    0  501    0  0.00000000000E+00 -0.00000000000E+00 -0.60442363766E+03  0.60442363766E+03  0.00000000000E+00 0. -1.
         23    2    1    2    0    0 -0.61609511173E+02  0.91369420163E+02 -0.23873505944E+03  0.27807104541E+03  0.90470851004E+02 0.  0.
         23    2    1    2    0    0  0.61609511173E+02 -0.91369420163E+02 -0.32595779581E+03  0.36608337466E+03  0.12499779894E+03 0.  0.
          5    1    4    4  502    0 -0.10294033561E+02 -0.12358293496E+01  0.72251327510E+01  0.13482838885E+02  0.47000000000E+01 0. -1.
         -5    1    4    4    0  502  0.71903544734E+02 -0.90133590813E+02 -0.33318292857E+03  0.35260053577E+03  0.47000000000E+01 0. -1.
        -11    1    3    3    0    0 -0.25695445875E+02  0.94887276264E+02 -0.12667888723E+03  0.16034772093E+03  0.00000000000E+00 0.  1.
         11    1    3    3    0    0 -0.35914065298E+02 -0.35178561006E+01 -0.11205617221E+03  0.11772332449E+03  0.00000000000E+00 0. -1.
<mgrwt>
<rscale>  0 0.16026813E+03</rscale>
<asrwt>0</asrwt>
<pdfrwt beam="2">  1        2 0.92988256E-01 0.16663899E+03</pdfrwt>
<pdfrwt beam="1">  1       -2 0.61124278E-02 0.16663899E+03</pdfrwt>
<totfact> 0.69940059E+03</totfact>
</mgrwt>
</event>
<event>
 8    1  0.7550631E-006  0.1438540E+03  0.7546771E-02  0.1217842E+00
         -1   -1    0    0    0  501 -0.00000000000E+00  0.00000000000E+00  0.41476990667E+02  0.41476990667E+02  0.00000000000E+00 0.  1.
          1   -1    0    0  501    0  0.00000000000E+00 -0.00000000000E+00 -0.41114391380E+03  0.41114391380E+03  0.00000000000E+00 0. -1.
         23    2    1    2    0    0 -0.29634341357E+01 -0.71133767962E+02 -0.16908483914E+03  0.20578667905E+03  0.93218450767E+02 0.  0.
         23    2    1    2    0    0  0.29634341357E+01  0.71133767962E+02 -0.20058208400E+03  0.24683422542E+03  0.12500067012E+03 0.  0.
          5    1    4    4  502    0 -0.33503696265E+01  0.14032018504E+02  0.16390693588E+02  0.22335338731E+02  0.47000000000E+01 0.  1.
         -5    1    4    4    0  502  0.63138037622E+01  0.57101749458E+02 -0.21697277759E+03  0.22449888669E+03  0.47000000000E+01 0.  1.
        -11    1    3    3    0    0  0.16072210626E+02  0.18644721118E+02 -0.46977750497E+02  0.53036314180E+02  0.00000000000E+00 0.  1.
         11    1    3    3    0    0 -0.19035644762E+02 -0.89778489080E+02 -0.12210708864E+03  0.15275036487E+03  0.00000000000E+00 0. -1.
<mgrwt>
<rscale>  0 0.13669816E+03</rscale>
<asrwt>0</asrwt>
<pdfrwt beam="2">  1        1 0.63252908E-01 0.14385396E+03</pdfrwt>
<pdfrwt beam="1">  1       -1 0.63810756E-02 0.14385396E+03</pdfrwt>
<totfact> 0.68267134E+03</totfact>
</mgrwt>
</event>
<event>
 8    1  0.7550631E-006  0.1467101E+03  0.7546771E-02  0.1212499E+00
          1   -1    0    0  501    0  0.00000000000E+00  0.00000000000E+00  0.36911908556E+02  0.36911908556E+02  0.00000000000E+00 0. -1.
         -1   -1    0    0    0  501 -0.00000000000E+00 -0.00000000000E+00 -0.50191739785E+03  0.50191739785E+03  0.00000000000E+00 0.  1.
         23    2    1    2    0    0 -0.50572256804E+02 -0.57744531107E+02 -0.18315625940E+03  0.22108280417E+03  0.97156610228E+02 0.  0.
         23    2    1    2    0    0  0.50572256804E+02  0.57744531107E+02 -0.28184922990E+03  0.31774650224E+03  0.12502746603E+03 0.  0.
          5    1    4    4  502    0  0.56090854255E+02  0.52670013114E+02 -0.65330131455E+02  0.10104667381E+03  0.47000000000E+01 0.  1.
         -5    1    4    4    0  502 -0.55185974517E+01  0.50745179928E+01 -0.21651909844E+03  0.21669982843E+03  0.47000000000E+01 0.  1.
        -11    1    3    3    0    0 -0.38397450538E+02 -0.30551304131E+02 -0.16476645453E+02  0.51761242617E+02  0.00000000000E+00 0. -1.
         11    1    3    3    0    0 -0.12174806266E+02 -0.27193226976E+02 -0.16667961395E+03  0.16932156155E+03  0.00000000000E+00 0.  1.
<mgrwt>
<rscale>  0 0.14061857E+03</rscale>
<asrwt>0</asrwt>
<pdfrwt beam="1">  1        1 0.56787552E-02 0.14671009E+03</pdfrwt>
<pdfrwt beam="2">  1       -1 0.77218061E-01 0.14671009E+03</pdfrwt>
<totfact> 0.23794137E+03</totfact>
</mgrwt>
</event>
<event>
 7    1  0.7550631E-006  0.1599700E+03  0.7546771E-02  0.1198208E+00
         -1   -1    0    0    0  501 -0.00000000000E+00  0.00000000000E+00  0.51989002687E+03  0.51989002687E+03  0.00000000000E+00 0.  1.
          1   -1    0    0  501    0  0.00000000000E+00 -0.00000000000E+00 -0.57552352252E+02  0.57552352252E+02  0.00000000000E+00 0. -1.
         23    2    1    2    0    0 -0.21967242370E+02 -0.88743259900E+02  0.37132733737E+03  0.39339538497E+03  0.92293074078E+02 0.  0.
          5    1    1    2  502    0  0.26699101518E+02  0.11742492713E+03  0.43447214448E+02  0.12810622926E+03  0.47000000000E+01 0. -1.
         -5    1    1    2    0  502 -0.47318591486E+01 -0.28681667226E+02  0.47563122801E+02  0.55940764890E+02  0.47000000000E+01 0.  1.
        -11    1    3    3    0    0 -0.42556851031E+02 -0.37286644897E+02  0.87447241131E+02  0.10415565006E+03  0.00000000000E+00 0.  1.
         11    1    3    3    0    0  0.20589608661E+02 -0.51456615003E+02  0.28388009623E+03  0.28923973491E+03  0.00000000000E+00 0. -1.
<mgrwt>
<rscale>  0 0.15185793E+03</rscale>
<asrwt>0</asrwt>
<pdfrwt beam="2">  1        1 0.88542083E-02 0.15997004E+03</pdfrwt>
<pdfrwt beam="1">  1       -1 0.79983078E-01 0.15997004E+03</pdfrwt>
<totfact> 0.12183773E+03</totfact>
</mgrwt>
</event>
<event>
 8    1  0.7550631E-006  0.1332289E+03  0.7546771E-02  0.1234777E+00
         -1   -1    0    0    0  501 -0.00000000000E+00  0.00000000000E+00  0.20066740226E+02  0.20066740226E+02  0.00000000000E+00 0.  1.
          1   -1    0    0  501    0  0.00000000000E+00 -0.00000000000E+00 -0.70040970730E+03  0.70040970730E+03  0.00000000000E+00 0. -1.
         23    2    1    2    0    0  0.32956259957E+02  0.32207131936E+02 -0.29353793434E+03  0.31137002637E+03  0.93077172303E+02 0.  0.
         23    2    1    2    0    0 -0.32956259957E+02 -0.32207131936E+02 -0.38680503273E+03  0.40910642116E+03  0.12500606413E+03 0.  0.
          5    1    4    4  502    0  0.20389019569E+02 -0.50923020896E+02 -0.30265060242E+03  0.30761720258E+03  0.47000000000E+01 0. -1.
         -5    1    4    4    0  502 -0.53345279526E+02  0.18715888960E+02 -0.84154430307E+02  0.10148921858E+03  0.47000000000E+01 0. -1.
        -11    1    3    3    0    0  0.40603889678E+02 -0.23038835473E+02 -0.15949498782E+03  0.16618698787E+03  0.00000000000E+00 0. -1.
         11    1    3    3    0    0 -0.76476297207E+01  0.55245967409E+02 -0.13404294652E+03  0.14518303849E+03  0.00000000000E+00 0.  1.
<mgrwt>
<rscale>  0 0.12518728E+03</rscale>
<asrwt>0</asrwt>
<pdfrwt beam="2">  1        1 0.10775533E+00 0.13322887E+03</pdfrwt>
<pdfrwt beam="1">  1       -1 0.30871911E-02 0.13322887E+03</pdfrwt>
<totfact> 0.97473235E+03</totfact>
</mgrwt>
</event>
<event>
 7    1  0.7550631E-006  0.3348780E+03  0.7546771E-02  0.1068999E+00
          2   -1    0    0  501    0  0.00000000000E+00  0.00000000000E+00  0.13124192934E+04  0.13124192934E+04  0.00000000000E+00 0. -1.
         -2   -1    0    0    0  501 -0.00000000000E+00 -0.00000000000E+00 -0.21361943059E+02  0.21361943059E+02  0.00000000000E+00 0.  1.
         23    2    1    2    0    0  0.56767090182E+02 -0.35036343401E+02  0.31355922152E+03  0.33358185263E+03  0.92235671602E+02 0.  0.
          5    1    1    2  502    0  0.65868521454E+02 -0.28817917876E+02  0.39320883124E+03  0.39975543708E+03  0.47000000000E+01 0. -1.
         -5    1    1    2    0  502 -0.12263561164E+03  0.63854261277E+02  0.58428929760E+03  0.60044394677E+03  0.47000000000E+01 0.  1.
        -11    1    3    3    0    0  0.35396532170E+02  0.29265261444E+02  0.13495485646E+03  0.14255589535E+03  0.00000000000E+00 0.  1.
         11    1    3    3    0    0  0.21370558012E+02 -0.64301604845E+02  0.17860436506E+03  0.19102595728E+03  0.00000000000E+00 0. -1.
<mgrwt>
<rscale>  0 0.33487804E+03</rscale>
<asrwt>0</asrwt>
<pdfrwt beam="1">  1        2 0.20191060E+00 0.33487804E+03</pdfrwt>
<pdfrwt beam="2">  1       -2 0.32864538E-02 0.33487804E+03</pdfrwt>
<totfact> 0.64016568E+03</totfact>
</mgrwt>
</event>
<event>
 8    1  0.7550631E-006  0.2271575E+03  0.7546771E-02  0.1131621E+00
         -1   -1    0    0    0  501 -0.00000000000E+00  0.00000000000E+00  0.56743065922E+03  0.56743065922E+03  0.00000000000E+00 0.  1.
          1   -1    0    0  501    0  0.00000000000E+00 -0.00000000000E+00 -0.85108700486E+02  0.85108700486E+02  0.00000000000E+00 0. -1.
         23    2    1    2    0    0 -0.11030151754E+03 -0.15429966788E+03  0.20888979080E+03  0.29705984517E+03  0.92923595674E+02 0.  0.
         23    2    1    2    0    0  0.11030151754E+03  0.15429966788E+03  0.27343216794E+03  0.35547951454E+03  0.12500289002E+03 0.  0.
          5    1    4    4  502    0  0.13529640126E+03  0.12684457856E+03  0.19834953149E+03  0.27158661592E+03  0.47000000000E+01 0.  1.
         -5    1    4    4    0  502 -0.24994883727E+02  0.27455089323E+02  0.75082636446E+02  0.83892898615E+02  0.47000000000E+01 0.  1.
        -11    1    3    3    0    0 -0.32815883771E+02 -0.11955081985E+03  0.10198576326E+03  0.16053154413E+03  0.00000000000E+00 0. -1.
         11    1    3    3    0    0 -0.77485633767E+02 -0.34748848033E+02  0.10690402754E+03  0.13652830104E+03  0.00000000000E+00 0.  1.
<mgrwt>
<rscale>  0 0.22306112E+03</rscale>
<asrwt>0</asrwt>
<pdfrwt beam="2">  1        1 0.13093647E-01 0.22715751E+03</pdfrwt>
<pdfrwt beam="1">  1       -1 0.87297022E-01 0.22715751E+03</pdfrwt>
<totfact> 0.60586109E+02</totfact>
</mgrwt>
</event>
<event>
 8    1  0.7550631E-006  0.1939001E+03  0.7546771E-02  0.1157872E+00
         -1   -1    0    0    0  501 -0.00000000000E+00  0.00000000000E+00  0.60270841078E+02  0.60270841078E+02  0.00000000000E+00 0.  1.
          1   -1    0    0  501    0  0.00000000000E+00 -0.00000000000E+00 -0.62089876585E+03  0.62089876585E+03  0.00000000000E+00 0. -1.
         23    2    1    2    0    0 -0.14684723911E+03 -0.20168332491E+02 -0.18814395846E+03  0.26123920926E+03  0.10429238745E+03 0.  0.
         23    2    1    2    0    0  0.14684723911E+03  0.20168332491E+02 -0.37248396631E+03  0.41993039767E+03  0.12500544169E+03 0.  0.
          5    1    4    4  502    0  0.80927812485E+02  0.71460959968E+02 -0.17828718643E+03  0.20848115137E+03  0.47000000000E+01 0.  1.
         -5    1    4    4    0  502  0.65919426628E+02 -0.51292627477E+02 -0.19419677989E+03  0.21144924629E+03  0.47000000000E+01 0.  1.
        -11    1    3    3    0    0 -0.45141235461E+02 -0.17181095168E+02 -0.11023089906E+01  0.48312899470E+02  0.00000000000E+00 0.  1.
         11    1    3    3    0    0 -0.10170600365E+03 -0.29872373227E+01 -0.18704164947E+03  0.21292630979E+03  0.00000000000E+00 0. -1.
<mgrwt>
<rscale>  0 0.19065434E+03</rscale>
<asrwt>0</asrwt>
<pdfrwt beam="2">  1        1 0.95522895E-01 0.19390006E+03</pdfrwt>
<pdfrwt beam="1">  1       -1 0.92724363E-02 0.19390006E+03</pdfrwt>
<totfact> 0.22775926E+03</totfact>
</mgrwt>
</event>
<event>
 7    1  0.7550631E-006  0.1213832E+03  0.7546771E-02  0.1299694E+00
         -2   -1    0    0    0  501 -0.00000000000E+00  0.00000000000E+00  0.72728969340E+02  0.72728969340E+02  0.00000000000E+00 0.  1.
          2   -1    0    0  501    0  0.00000000000E+00 -0.00000000000E+00 -0.20289906958E+03  0.20289906958E+03  0.00000000000E+00 0. -1.
         23    2    1    2    0    0 -0.15437059547E+02 -0.10117124233E+02 -0.17708733668E+03  0.21469470000E+03  0.11997178996E+03 0.  0.
          5    1    3    3  502    0 -0.24883193975E+02  0.28330846162E+02 -0.17000661236E+03  0.17420145933E+03  0.47000000000E+01 0. -1.
         -5    1    3    3    0  502  0.94461344283E+01 -0.38447970395E+02 -0.70807243204E+01  0.40493240671E+02  0.47000000000E+01 0.  1.
        -11    1    1    2    0    0 -0.16213716876E+00  0.19340901744E+02  0.32311301051E+02  0.37657893520E+02  0.00000000000E+00 0. -1.
         11    1    1    2    0    0  0.15599196716E+02 -0.92237775108E+01  0.14605935391E+02  0.23275445397E+02  0.00000000000E+00 0.  1.
<mgrwt>
<rscale>  0 0.91316707E+02</rscale>
<asrwt>0</asrwt>
<pdfrwt beam="2">  1        2 0.31215241E-01 0.12138323E+03</pdfrwt>
<pdfrwt beam="1">  1       -2 0.11189072E-01 0.12138323E+03</pdfrwt>
<totfact> 0.87129397E+03</totfact>
</mgrwt>
</event>
<event>
 8    1  0.7550631E-006  0.1449873E+03  0.7546771E-02  0.1217035E+00
          1   -1    0    0  501    0  0.00000000000E+00  0.00000000000E+00  0.29041236102E+03  0.29041236102E+03  0.00000000000E+00 0. -1.
         -1   -1    0    0    0  501 -0.00000000000E+00 -0.00000000000E+00 -0.11476025376E+03  0.11476025376E+03  0.00000000000E+00 0.  1.
         23    2    1    2    0    0 -0.71448718253E+02  0.13400032591E+02 -0.58016725267E+02  0.13017726248E+03  0.91080728160E+02 0.  0.
         23    2    1    2    0    0  0.71448718253E+02 -0.13400032591E+02  0.23366883252E+03  0.27499535230E+03  0.12544656345E+03 0.  0.
          5    1    4    4  502    0  0.85404710117E+02 -0.36612872214E+02  0.92582252106E+02  0.13125559160E+03  0.47000000000E+01 0. -1.
         -5    1    4    4    0  502 -0.13955991864E+02  0.23212839623E+02  0.14108658042E+03  0.14373976070E+03  0.47000000000E+01 0. -1.
        -11    1    3    3    0    0 -0.70500436169E+02 -0.19071328114E+02 -0.64044369533E+02  0.97137574218E+02  0.00000000000E+00 0.  1.
         11    1    3    3    0    0 -0.94828208390E+00  0.32471360705E+02  0.60276442653E+01  0.33039688260E+02  0.00000000000E+00 0. -1.
<mgrwt>
<rscale>  0 0.13728108E+03</rscale>
<asrwt>0</asrwt>
<pdfrwt beam="1">  1        1 0.44678824E-01 0.14498731E+03</pdfrwt>
<pdfrwt beam="2">  1       -1 0.17655424E-01 0.14498731E+03</pdfrwt>
<totfact> 0.22073496E+03</totfact>
</mgrwt>
</event>
<event>
 8    1  0.7550631E-006  0.2008645E+03  0.7546771E-02  0.1154749E+00
         -1   -1    0    0    0  501 -0.00000000000E+00  0.00000000000E+00  0.30951619935E+03  0.30951619935E+03  0.00000000000E+00 0.  1.
          1   -1    0    0  501    0  0.00000000000E+00 -0.00000000000E+00 -0.11600060966E+03  0.11600060966E+03  0.00000000000E+00 0. -1.
         23    2    1    2    0    0  0.80933282986E+02  0.13473692202E+03  0.11555853313E+03  0.21005486404E+03  0.77878346652E+02 0.  0.
         23    2    1    2    0    0 -0.80933282986E+02 -0.13473692202E+03  0.77957056557E+02  0.21546194496E+03  0.12506923127E+03 0.  0.
          5    1    4    4  502    0 -0.29925141421E+02  0.19280261341E+02  0.12295638407E+01  0.35928323001E+02  0.47000000000E+01 0. -1.
         -5    1    4    4    0  502 -0.51008141565E+02 -0.15401718336E+03  0.76727492716E+02  0.17953362196E+03  0.47000000000E+01 0. -1.
        -11    1    3    3    0    0  0.67837209331E+02  0.49253693632E+02  0.82068797381E+02  0.11731624274E+03  0.00000000000E+00 0.  1.
         11    1    3    3    0    0  0.13096073655E+02  0.85483228387E+02  0.33489735751E+02  0.92738621304E+02  0.00000000000E+00 0. -1.
<mgrwt>
<rscale>  0 0.19417443E+03</rscale>
<asrwt>0</asrwt>
<pdfrwt beam="2">  1        1 0.17846248E-01 0.20086450E+03</pdfrwt>
<pdfrwt beam="1">  1       -1 0.47617877E-01 0.20086450E+03</pdfrwt>
<totfact> 0.13231974E+03</totfact>
</mgrwt>
</event>
<event>
 8    1  0.7550631E-006  0.1389267E+03  0.7546771E-02  0.1225806E+00
         -2   -1    0    0    0  501 -0.00000000000E+00  0.00000000000E+00  0.31672504309E+02  0.31672504309E+02  0.00000000000E+00 0.  1.
          2   -1    0    0  501    0  0.00000000000E+00 -0.00000000000E+00 -0.49893673718E+03  0.49893673718E+03  0.00000000000E+00 0. -1.
         23    2    1    2    0    0 -0.19857008501E+02 -0.57211793625E+02 -0.17193964370E+03  0.20423944456E+03  0.92103308963E+02 0.  0.
         23    2    1    2    0    0  0.19857008501E+02  0.57211793625E+02 -0.29532458917E+03  0.32636979693E+03  0.12503256081E+03 0.  0.
          5    1    4    4  502    0 -0.10813313668E+02 -0.30597456436E+02 -0.15162969961E+03  0.15513474110E+03  0.47000000000E+01 0. -1.
         -5    1    4    4    0  502  0.30670322169E+02  0.87809250061E+02 -0.14369488955E+03  0.17123505582E+03  0.47000000000E+01 0. -1.
        -11    1    3    3    0    0 -0.47016807232E+02 -0.64940566937E+02 -0.14209655007E+03  0.16315418149E+03  0.00000000000E+00 0. -1.
         11    1    3    3    0    0  0.27159798731E+02  0.77287733125E+01 -0.29843093639E+02  0.41085263075E+02  0.00000000000E+00 0.  1.
<mgrwt>
<rscale>  0 0.13111840E+03</rscale>
<asrwt>0</asrwt>
<pdfrwt beam="2">  1        2 0.76759499E-01 0.13892671E+03</pdfrwt>
<pdfrwt beam="1">  1       -2 0.48726929E-02 0.13892671E+03</pdfrwt>
<totfact> 0.12082421E+04</totfact>
</mgrwt>
</event>
<event>
 7    1  0.7550631E-006  0.2152515E+03  0.7546771E-02  0.1143235E+00
          1   -1    0    0  501    0  0.00000000000E+00  0.00000000000E+00  0.30429561382E+03  0.30429561382E+03  0.00000000000E+00 0. -1.
         -1   -1    0    0    0  501 -0.00000000000E+00 -0.00000000000E+00 -0.14116647769E+03  0.14116647769E+03  0.00000000000E+00 0.  1.
         23    2    1    2    0    0  0.11948453327E+03 -0.11101336177E+03  0.23305309424E+02  0.18878344204E+03  0.92171201358E+02 0.  0.
          5    1    1    2  502    0 -0.13107987553E+03  0.31690598281E+02  0.88846630894E+02  0.16156126271E+03  0.47000000000E+01 0. -1.
         -5    1    1    2    0  502  0.11595342258E+02  0.79322763489E+02  0.50977195811E+02  0.95117386751E+02  0.47000000000E+01 0.  1.
        -11    1    3    3    0    0  0.12818275419E+03 -0.79125573450E+02  0.43912899512E+01  0.15070155365E+03  0.00000000000E+00 0.  1.
         11    1    3    3    0    0 -0.86982209158E+01 -0.31887788320E+02  0.18914019473E+02  0.38081888394E+02  0.00000000000E+00 0. -1.
<mgrwt>
<rscale>  0 0.20790598E+03</rscale>
<asrwt>0</asrwt>
<pdfrwt beam="1">  1        1 0.46814710E-01 0.21525154E+03</pdfrwt>
<pdfrwt beam="2">  1       -1 0.21717920E-01 0.21525154E+03</pdfrwt>
<totfact> 0.15071824E+03</totfact>
</mgrwt>
</event>
<event>
 8    1  0.7550631E-006  0.1300749E+03  0.7546771E-02  0.1240709E+00
         -2   -1    0    0    0  501 -0.00000000000E+00  0.00000000000E+00  0.64384933256E+02  0.64384933256E+02  0.00000000000E+00 0.  1.
          2   -1    0    0  501    0  0.00000000000E+00 -0.00000000000E+00 -0.10583964202E+04  0.10583964202E+04  0.00000000000E+00 0. -1.
         23    2    1    2    0    0 -0.23409930136E+02 -0.27308458847E+02  0.19639159278E+02  0.10081897286E+03  0.92114016073E+02 0.  0.
         23    2    1    2    0    0  0.23409930136E+02  0.27308458847E+02 -0.10136506462E+04  0.10219623806E+04  0.12500279205E+03 0.  0.
          5    1    4    4  502    0  0.49969330128E+02  0.65740830803E+02 -0.68481488029E+03  0.68979149100E+03  0.47000000000E+01 0. -1.
         -5    1    4    4    0  502 -0.26559399992E+02 -0.38432371955E+02 -0.32883576588E+03  0.33217088955E+03  0.47000000000E+01 0. -1.
        -11    1    3    3    0    0 -0.54968133707E+00 -0.57369744356E+02  0.25168798672E+02  0.62650284466E+02  0.00000000000E+00 0.  1.
         11    1    3    3    0    0 -0.22860248799E+02  0.30061285509E+02 -0.55296393938E+01  0.38168688390E+02  0.00000000000E+00 0. -1.
<mgrwt>
<rscale>  0 0.12145925E+03</rscale>
<asrwt>0</asrwt>
<pdfrwt beam="2">  1        2 0.16283021E+00 0.13007488E+03</pdfrwt>
<pdfrwt beam="1">  1       -2 0.99053751E-02 0.13007488E+03</pdfrwt>
<totfact> 0.16254359E+03</totfact>
</mgrwt>
</event>
<event>
 8    1  0.7550631E-006  0.1277378E+03  0.7546771E-02  0.1245428E+00
          1   -1    0    0  501    0  0.00000000000E+00  0.00000000000E+00  0.23925710545E+03  0.23925710545E+03  0.00000000000E+00 0. -1.
         -1   -1    0    0    0  501 -0.00000000000E+00 -0.00000000000E+00 -0.52725757510E+02  0.52725757510E+02  0.00000000000E+00 0.  1.
         23    2    1    2    0    0  0.15986875052E+02 -0.20900981557E+02  0.60643912622E+02  0.11263798991E+03  0.91198692035E+02 0.  0.
         23    2    1    2    0    0 -0.15986875052E+02  0.20900981557E+02  0.12588743531E+03  0.17934487305E+03  0.12499802364E+03 0.  0.
          5    1    4    4  502    0 -0.13897295440E+02 -0.87623984822E+01 -0.22320169855E+02  0.28110397188E+02  0.47000000000E+01 0.  1.
         -5    1    4    4    0  502 -0.20895796114E+01  0.29663380039E+02  0.14820760517E+03  0.15123447586E+03  0.47000000000E+01 0.  1.
        -11    1    3    3    0    0  0.16335790809E+02  0.26169953890E+02 -0.56186105055E+01  0.31357508383E+02  0.00000000000E+00 0.  1.
         11    1    3    3    0    0 -0.34891575697E+00 -0.47070935447E+02  0.66262523128E+02  0.81280481527E+02  0.00000000000E+00 0. -1.
<mgrwt>
<rscale>  0 0.11859814E+03</rscale>
<asrwt>0</asrwt>
<pdfrwt beam="1">  1        1 0.36808785E-01 0.12773777E+03</pdfrwt>
<pdfrwt beam="2">  1       -1 0.81116551E-02 0.12773777E+03</pdfrwt>
<totfact> 0.92594729E+03</totfact>
</mgrwt>
</event>
<event>
 8    1  0.7550631E-006  0.2025661E+03  0.7546771E-02  0.1151739E+00
          2   -1    0    0  501    0  0.00000000000E+00  0.00000000000E+00  0.58878693014E+03  0.58878693014E+03  0.00000000000E+00 0. -1.
         -2   -1    0    0    0  501 -0.00000000000E+00 -0.00000000000E+00 -0.70330822762E+02  0.70330822762E+02  0.00000000000E+00 0.  1.
         23    2    1    2    0    0 -0.54913809718E+02  0.14964629081E+03  0.14380185206E+03  0.23320831866E+03  0.91091209148E+02 0.  0.
         23    2    1    2    0    0  0.54913809718E+02 -0.14964629081E+03  0.37465425531E+03  0.42590943424E+03  0.12499398505E+03 0.  0.
          5    1    4    4  502    0 -0.15101664456E+02 -0.12490692425E+03  0.26507033478E+03  0.29345216370E+03  0.47000000000E+01 0. -1.
         -5    1    4    4    0  502  0.70015474174E+02 -0.24739366562E+02  0.10958392053E+03  0.13245727054E+03  0.47000000000E+01 0. -1.
        -11    1    3    3    0    0 -0.35794622512E+02  0.31552648956E+02  0.21031089422E+01  0.47762409112E+02  0.00000000000E+00 0.  1.
         11    1    3    3    0    0 -0.19119187205E+02  0.11809364186E+03  0.14169874312E+03  0.18544590955E+03  0.00000000000E+00 0. -1.
<mgrwt>
<rscale>  0 0.19764706E+03</rscale>
<asrwt>0</asrwt>
<pdfrwt beam="1">  1        2 0.90582601E-01 0.20256613E+03</pdfrwt>
<pdfrwt beam="2">  1       -2 0.10820127E-01 0.20256613E+03</pdfrwt>
<totfact> 0.29830471E+03</totfact>
</mgrwt>
</event>
<event>
 8    1  0.7550631E-006  0.1673754E+03  0.7546771E-02  0.1187573E+00
         -1   -1    0    0    0  501 -0.00000000000E+00  0.00000000000E+00  0.20041591434E+03  0.20041591434E+03  0.00000000000E+00 0.  1.
          1   -1    0    0  501    0  0.00000000000E+00 -0.00000000000E+00 -0.13339908847E+03  0.13339908847E+03  0.00000000000E+00 0. -1.
         23    2    1    2    0    0 -0.29271024661E+02  0.10738945568E+03  0.83139485511E+02  0.16566483679E+03  0.90240656150E+02 0.  0.
         23    2    1    2    0    0  0.29271024661E+02 -0.10738945568E+03 -0.16122659639E+02  0.16815016601E+03  0.12500100039E+03 0.  0.
          5    1    4    4  502    0  0.35425323636E+02 -0.82764960467E+02  0.45760160620E+02  0.10109933005E+03  0.47000000000E+01 0. -1.
         -5    1    4    4    0  502 -0.61542989753E+01 -0.24624495217E+02 -0.61882820259E+02  0.67050835967E+02  0.47000000000E+01 0. -1.
        -11    1    3    3    0    0 -0.50717785312E+02  0.22077229588E+02  0.33097391132E+02  0.64460337519E+02  0.00000000000E+00 0.  1.
         11    1    3    3    0    0  0.21446760652E+02  0.85312226096E+02  0.50042094378E+02  0.10120449928E+03  0.00000000000E+00 0. -1.
<mgrwt>
<rscale>  0 0.16099948E+03</rscale>
<asrwt>0</asrwt>
<pdfrwt beam="2">  1        1 0.20522937E-01 0.16737544E+03</pdfrwt>
<pdfrwt beam="1">  1       -1 0.30833218E-01 0.16737544E+03</pdfrwt>
<totfact> 0.23577743E+03</totfact>
</mgrwt>
</event>
<event>
 8    1  0.7550631E-006  0.2664474E+03  0.7546771E-02  0.1105440E+00
          4   -1    0    0  501    0  0.00000000000E+00  0.00000000000E+00  0.11369071657E+03  0.11369071657E+03  0.00000000000E+00 0. -1.
         -4   -1    0    0    0  501 -0.00000000000E+00 -0.00000000000E+00 -0.59398310803E+03  0.59398310803E+03  0.00000000000E+00 0.  1.
         23    2    1    2    0    0  0.79294164709E+02  0.22154385562E+03 -0.21259004385E+03  0.32997188507E+03  0.91201281100E+02 0.  0.
         23    2    1    2    0    0 -0.79294164709E+02 -0.22154385562E+03 -0.26770234761E+03  0.37770193953E+03  0.12499985477E+03 0.  0.
          5    1    4    4  502    0 -0.92113986688E+02 -0.75530095121E+02 -0.10767808763E+03  0.16064383701E+03  0.47000000000E+01 0.  1.
         -5    1    4    4    0  502  0.12819821979E+02 -0.14601376050E+03 -0.16002425997E+03  0.21705810252E+03  0.47000000000E+01 0.  1.
        -11    1    3    3    0    0  0.52798193375E+02  0.33672998906E+02 -0.54064022440E+02  0.82731122326E+02  0.00000000000E+00 0.  1.
         11    1    3    3    0    0  0.26495971335E+02  0.18787085671E+03 -0.15852602141E+03  0.24724076274E+03  0.00000000000E+00 0. -1.
<mgrwt>
<rscale>  0 0.26285417E+03</rscale>
<asrwt>0</asrwt>
<pdfrwt beam="1">  1        4 0.17490879E-01 0.26644738E+03</pdfrwt>
<pdfrwt beam="2">  1       -4 0.91382018E-01 0.26644738E+03</pdfrwt>
<totfact> 0.55466121E+01</totfact>
</mgrwt>
</event>
<event>
 8    1  0.7550631E-006  0.1780773E+03  0.7546771E-02  0.1175466E+00
          1   -1    0    0  501    0  0.00000000000E+00  0.00000000000E+00  0.49543790434E+03  0.49543790434E+03  0.00000000000E+00 0. -1.
         -1   -1    0    0    0  501 -0.00000000000E+00 -0.00000000000E+00 -0.69122825092E+02  0.69122825092E+02  0.00000000000E+00 0.  1.
         23    2    1    2    0    0 -0.18527238556E+01 -0.12682593440E+03  0.80576922433E+02  0.17565661747E+03  0.90963490527E+02 0.  0.
         23    2    1    2    0    0  0.18527238556E+01  0.12682593440E+03  0.34573815681E+03  0.38890411196E+03  0.12499313982E+03 0.  0.
          5    1    4    4  502    0  0.88712316297E+01  0.79493776045E+00 -0.82729269063E+01  0.13033111534E+02  0.47000000000E+01 0. -1.
         -5    1    4    4    0  502 -0.70185077741E+01  0.12603099664E+03  0.35401108372E+03  0.37587100043E+03  0.47000000000E+01 0. -1.
        -11    1    3    3    0    0 -0.11239864289E+02 -0.11794490012E+03  0.28308196047E+02  0.12181415343E+03  0.00000000000E+00 0.  1.
         11    1    3    3    0    0  0.93871404330E+01 -0.88810342851E+01  0.52268726386E+02  0.53842464036E+02  0.00000000000E+00 0. -1.
<mgrwt>
<rscale>  0 0.17230463E+03</rscale>
<asrwt>0</asrwt>
<pdfrwt beam="1">  1        1 0.76221214E-01 0.17807733E+03</pdfrwt>
<pdfrwt beam="2">  1       -1 0.10634281E-01 0.17807733E+03</pdfrwt>
<totfact> 0.24966532E+03</totfact>
</mgrwt>
</event>
<event>
 8    1  0.7550631E-006  0.1440008E+03  0.7546771E-02  0.1216745E+00
          1   -1    0    0  501    0  0.00000000000E+00  0.00000000000E+00  0.13731821544E+03  0.13731821544E+03  0.00000000000E+00 0. -1.
         -1   -1    0    0    0  501 -0.00000000000E+00 -0.00000000000E+00 -0.12851220756E+03  0.12851220756E+03  0.00000000000E+00 0.  1.
         23    2    1    2    0    0 -0.70488103484E+02  0.12041245871E+02 -0.12240540492E+02  0.12029966874E+03  0.95961529442E+02 0.  0.
         23    2    1    2    0    0  0.70488103484E+02 -0.12041245871E+02  0.21046548372E+02  0.14553075426E+03  0.12499071526E+03 0.  0.
          5    1    4    4  502    0 -0.23609624028E+00  0.18859571431E+01  0.62192354377E+02  0.62398649975E+02  0.47000000000E+01 0.  1.
         -5    1    4    4    0  502  0.70724199724E+02 -0.13927203014E+02 -0.41145806005E+02  0.83132104281E+02  0.47000000000E+01 0.  1.
        -11    1    3    3    0    0  0.28127526300E+01 -0.26716938055E+02 -0.24649199250E+02  0.36459421005E+02  0.00000000000E+00 0.  1.
         11    1    3    3    0    0 -0.73300856114E+02  0.38758183925E+02  0.12408658758E+02  0.83840247736E+02  0.00000000000E+00 0. -1.
<mgrwt>
<rscale>  0 0.13749121E+03</rscale>
<asrwt>0</asrwt>
<pdfrwt beam="1">  1        1 0.21125879E-01 0.14400084E+03</pdfrwt>
<pdfrwt beam="2">  1       -1 0.19771109E-01 0.14400084E+03</pdfrwt>
<totfact> 0.46906058E+03</totfact>
</mgrwt>
</event>
<event>
 8    1  0.7550631E-006  0.1323571E+03  0.7546771E-02  0.1236429E+00
         -1   -1    0    0    0  501 -0.00000000000E+00  0.00000000000E+00  0.17223456552E+03  0.17223456552E+03  0.00000000000E+00 0.  1.
          1   -1    0    0  501    0  0.00000000000E+00 -0.00000000000E+00 -0.99562619971E+02  0.99562619971E+02  0.00000000000E+00 0. -1.
         23    2    1    2    0    0 -0.19336757906E+02 -0.38996536851E+02  0.92459472414E+02  0.13796916254E+03  0.92693557923E+02 0.  0.
         23    2    1    2    0    0  0.19336757906E+02  0.38996536851E+02 -0.19787526867E+02  0.13382802295E+03  0.12499501356E+03 0.  0.
          5    1    4    4  502    0  0.22340911344E+02 -0.46136628614E+01 -0.66032111980E+02  0.70019511689E+02  0.47000000000E+01 0. -1.
         -5    1    4    4    0  502 -0.30041534380E+01  0.43610199712E+02  0.46244585113E+02  0.63808511259E+02  0.47000000000E+01 0. -1.
        -11    1    3    3    0    0 -0.45565932299E+02 -0.32967041522E+02  0.18405607443E+02  0.59176400688E+02  0.00000000000E+00 0. -1.
         11    1    3    3    0    0  0.26229174393E+02 -0.60294953287E+01  0.74053864971E+02  0.78792761853E+02  0.00000000000E+00 0.  1.
<mgrwt>
<rscale>  0 0.12413390E+03</rscale>
<asrwt>0</asrwt>
<pdfrwt beam="2">  1        1 0.15317326E-01 0.13235707E+03</pdfrwt>
<pdfrwt beam="1">  1       -1 0.26497625E-01 0.13235707E+03</pdfrwt>
<totfact> 0.43727083E+03</totfact>
</mgrwt>
</event>
<event>
 7    1  0.7550631E-006  0.5126587E+03  0.7546771E-02  0.1010527E+00
          2   -1    0    0  501    0  0.00000000000E+00  0.00000000000E+00  0.12359298049E+04  0.12359298049E+04  0.00000000000E+00 0. -1.
         -2   -1    0    0    0  501 -0.00000000000E+00 -0.00000000000E+00 -0.53162181868E+02  0.53162181868E+02  0.00000000000E+00 0.  1.
         23    2    1    2    0    0  0.94657671888E+02 -0.10336025233E+03  0.15274428311E+03  0.22726646123E+03  0.93144037758E+02 0.  0.
          5    1    1    2  502    0 -0.20622683558E+02 -0.32187065315E+02  0.27160429182E+02  0.47128347775E+02  0.47000000000E+01 0. -1.
         -5    1    1    2    0  502 -0.74034988331E+02  0.13554731764E+03  0.10028629107E+04  0.10146971778E+04  0.47000000000E+01 0.  1.
        -11    1    3    3    0    0  0.73412905330E+02 -0.32962337267E+02  0.12501828927E+03  0.14867932943E+03  0.00000000000E+00 0.  1.
         11    1    3    3    0    0  0.21244766559E+02 -0.70397915058E+02  0.27725993839E+02  0.78587131803E+02  0.00000000000E+00 0. -1.
<mgrwt>
<rscale>  0 0.51265866E+03</rscale>
<asrwt>0</asrwt>
<pdfrwt beam="1">  1        2 0.19014303E+00 0.51265866E+03</pdfrwt>
<pdfrwt beam="2">  1       -2 0.81787981E-02 0.51265866E+03</pdfrwt>
<totfact> 0.17333474E+03</totfact>
</mgrwt>
</event>
<event>
 8    1  0.7550631E-006  0.1725647E+03  0.7546771E-02  0.1181543E+00
         -3   -1    0    0    0  501 -0.00000000000E+00  0.00000000000E+00  0.37155121525E+02  0.37155121525E+02  0.00000000000E+00 0.  1.
          3   -1    0    0  501    0  0.00000000000E+00 -0.00000000000E+00 -0.70154913057E+03  0.70154913057E+03  0.00000000000E+00 0. -1.
         23    2    1    2    0    0  0.10442800986E+03 -0.56996990461E+02 -0.28325911193E+03  0.32032356367E+03  0.90650950257E+02 0.  0.
         23    2    1    2    0    0 -0.10442800986E+03  0.56996990461E+02 -0.38113489711E+03  0.41838068843E+03  0.12499889794E+03 0.  0.
          5    1    4    4  502    0 -0.52272201863E+02 -0.37081508179E+02 -0.16012043531E+03  0.17253424338E+03  0.47000000000E+01 0. -1.
         -5    1    4    4    0  502 -0.52155807999E+02  0.94078498640E+02 -0.22101446181E+03  0.24584644505E+03  0.47000000000E+01 0. -1.
        -11    1    3    3    0    0  0.79748870717E+02 -0.41217608010E+02 -0.27587686490E+03  0.29011518088E+03  0.00000000000E+00 0. -1.
         11    1    3    3    0    0  0.24679139145E+02 -0.15779382452E+02 -0.73822470365E+01  0.30208382790E+02  0.00000000000E+00 0.  1.
<mgrwt>
<rscale>  0 0.16650445E+03</rscale>
<asrwt>0</asrwt>
<pdfrwt beam="2">  1        3 0.10793063E+00 0.17256474E+03</pdfrwt>
<pdfrwt beam="1">  1       -3 0.57161730E-02 0.17256474E+03</pdfrwt>
<totfact> 0.33595026E+02</totfact>
</mgrwt>
</event>
<event>
 8    1  0.7550631E-006  0.1514138E+03  0.7546771E-02  0.1206704E+00
          4   -1    0    0  501    0  0.00000000000E+00  0.00000000000E+00  0.86170026028E+02  0.86170026028E+02  0.00000000000E+00 0.  1.
         -4   -1    0    0    0  501 -0.00000000000E+00 -0.00000000000E+00 -0.23837903846E+03  0.23837903846E+03  0.00000000000E+00 0. -1.
         23    2    1    2    0    0 -0.14415323865E+02  0.84218746800E+02 -0.32585506359E+02  0.13158298142E+03  0.94613249074E+02 0.  0.
         23    2    1    2    0    0  0.14415323865E+02 -0.84218746800E+02 -0.11962350607E+03  0.19296608306E+03  0.12500210852E+03 0.  0.
          5    1    4    4  502    0  0.53860468561E+02 -0.69808498140E+02 -0.28936490039E+02  0.92917097145E+02  0.47000000000E+01 0. -1.
         -5    1    4    4    0  502 -0.39445144696E+02 -0.14410248660E+02 -0.90687016031E+02  0.10004898592E+03  0.47000000000E+01 0. -1.
        -11    1    3    3    0    0  0.37852470923E+02  0.15310471744E+02 -0.73485327608E+01  0.41487600964E+02  0.00000000000E+00 0. -1.
         11    1    3    3    0    0 -0.52267794789E+02  0.68908275057E+02 -0.25236973598E+02  0.90095380457E+02  0.00000000000E+00 0.  1.
<mgrwt>
<rscale>  0 0.14504015E+03</rscale>
<asrwt>0</asrwt>
<pdfrwt beam="1">  1        4 0.13256927E-01 0.15141376E+03</pdfrwt>
<pdfrwt beam="2">  1       -4 0.36673698E-01 0.15141376E+03</pdfrwt>
<totfact> 0.57144592E+02</totfact>
</mgrwt>
</event>
<event>
 8    1  0.7550631E-006  0.1286295E+03  0.7546771E-02  0.1242302E+00
          2   -1    0    0  501    0  0.00000000000E+00  0.00000000000E+00  0.89069154812E+03  0.89069154812E+03  0.00000000000E+00 0. -1.
         -2   -1    0    0    0  501 -0.00000000000E+00 -0.00000000000E+00 -0.15328965405E+02  0.15328965405E+02  0.00000000000E+00 0.  1.
         23    2    1    2    0    0 -0.24108988493E+02 -0.18730881580E+02  0.28203128258E+03  0.29890637188E+03  0.94187502065E+02 0.  0.
         23    2    1    2    0    0  0.24108988493E+02  0.18730881580E+02  0.59333130013E+03  0.60711414164E+03  0.12495383154E+03 0.  0.
          5    1    4    4  502    0 -0.18050867010E+02  0.63802280002E+02  0.28786226318E+03  0.29543753536E+03  0.47000000000E+01 0.  1.
         -5    1    4    4    0  502  0.42159855503E+02 -0.45071398422E+02  0.30546903695E+03  0.31167660629E+03  0.47000000000E+01 0.  1.
        -11    1    3    3    0    0 -0.32648527849E+02  0.32133511280E+02  0.10600493897E+03  0.11547959129E+03  0.00000000000E+00 0.  1.
         11    1    3    3    0    0  0.85395393562E+01 -0.50864392861E+02  0.17602634361E+03  0.18342678059E+03  0.00000000000E+00 0. -1.
<mgrwt>
<rscale>  0 0.12048345E+03</rscale>
<asrwt>0</asrwt>
<pdfrwt beam="1">  1        2 0.13702943E+00 0.12862950E+03</pdfrwt>
<pdfrwt beam="2">  1       -2 0.23583031E-02 0.12862950E+03</pdfrwt>
<totfact> 0.17717268E+04</totfact>
</mgrwt>
</event>
<event>
 8    1  0.7550631E-006  0.1278635E+03  0.7546771E-02  0.1248595E+00
         -1   -1    0    0    0  501 -0.00000000000E+00  0.00000000000E+00  0.26662671217E+03  0.26662671217E+03  0.00000000000E+00 0.  1.
          1   -1    0    0  501    0  0.00000000000E+00 -0.00000000000E+00 -0.50873273839E+02  0.50873273839E+02  0.00000000000E+00 0. -1.
         23    2    1    2    0    0  0.21561633096E+01 -0.26856796205E+02  0.14849607870E+03  0.17302636769E+03  0.84623294571E+02 0.  0.
         23    2    1    2    0    0 -0.21561633096E+01  0.26856796205E+02  0.67257359636E+02  0.14447361832E+03  0.12499254947E+03 0.  0.
          5    1    4    4  502    0 -0.17973848504E+02  0.68509493691E+02  0.69861471570E+02  0.99595808977E+02  0.47000000000E+01 0. -1.
         -5    1    4    4    0  502  0.15817685195E+02 -0.41652697486E+02 -0.26041119334E+01  0.44877809347E+02  0.47000000000E+01 0. -1.
        -11    1    3    3    0    0  0.34056177619E+01 -0.57197437460E+02  0.83285607033E+02  0.10109222237E+03  0.00000000000E+00 0.  1.
         11    1    3    3    0    0 -0.12494544523E+01  0.30340641255E+02  0.65210471665E+02  0.71934145320E+02  0.00000000000E+00 0. -1.
<mgrwt>
<rscale>  0 0.11672777E+03</rscale>
<asrwt>0</asrwt>
<pdfrwt beam="2">  1        1 0.78266577E-02 0.12786350E+03</pdfrwt>
<pdfrwt beam="1">  1       -1 0.41019493E-01 0.12786350E+03</pdfrwt>
<totfact> 0.50221693E+03</totfact>
</mgrwt>
</event>
<event>
 8    1  0.7550631E-006  0.1930394E+03  0.7546771E-02  0.1160469E+00
         -2   -1    0    0    0  501 -0.00000000000E+00  0.00000000000E+00  0.17553335686E+03  0.17553335686E+03  0.00000000000E+00 0. -1.
          2   -1    0    0  501    0  0.00000000000E+00 -0.00000000000E+00 -0.20472486745E+03  0.20472486745E+03  0.00000000000E+00 0.  1.
         23    2    1    2    0    0  0.11253539786E+03  0.94731970515E+02  0.35830947475E+02  0.17656209330E+03  0.90840266309E+02 0.  0.
         23    2    1    2    0    0 -0.11253539786E+03 -0.94731970515E+02 -0.65022458065E+02  0.20369613100E+03  0.12500332685E+03 0.  0.
          5    1    4    4  502    0 -0.31178306220E+02  0.17446729139E+01  0.31607838880E+02  0.44679706143E+02  0.47000000000E+01 0. -1.
         -5    1    4    4    0  502 -0.81357091643E+02 -0.96476643429E+02 -0.96630296945E+02  0.15901642486E+03  0.47000000000E+01 0. -1.
        -11    1    3    3    0    0  0.17368615033E+02  0.92746361091E+01 -0.27511735388E+02  0.33831689984E+02  0.00000000000E+00 0.  1.
         11    1    3    3    0    0  0.95166782831E+02  0.85457334406E+02  0.63342682863E+02  0.14273040331E+03  0.00000000000E+00 0. -1.
<mgrwt>
<rscale>  0 0.18779141E+03</rscale>
<asrwt>0</asrwt>
<pdfrwt beam="2">  1        2 0.31496133E-01 0.19303936E+03</pdfrwt>
<pdfrwt beam="1">  1       -2 0.27005132E-01 0.19303936E+03</pdfrwt>
<totfact> 0.20298318E+03</totfact>
</mgrwt>
</event>
<event>
 8    1  0.7550631E-006  0.1366805E+03  0.7546771E-02  0.1228804E+00
          1   -1    0    0  501    0  0.00000000000E+00  0.00000000000E+00  0.36848973943E+03  0.36848973943E+03  0.00000000000E+00 0. -1.
         -1   -1    0    0    0  501 -0.00000000000E+00 -0.00000000000E+00 -0.46601371104E+02  0.46601371104E+02  0.00000000000E+00 0.  1.
         23    2    1    2    0    0 -0.53910039004E+02 -0.12270447124E+02  0.72554936176E+02  0.13075199693E+03  0.93675022073E+02 0.  0.
         23    2    1    2    0    0  0.53910039004E+02  0.12270447124E+02  0.24933343215E+03  0.28433911360E+03  0.12499885983E+03 0.  0.
          5    1    4    4  502    0 -0.24734657532E+02  0.44650431471E+02  0.10196471037E+03  0.11412430273E+03  0.47000000000E+01 0. -1.
         -5    1    4    4    0  502  0.78644696537E+02 -0.32379984347E+02  0.14736872178E+03  0.17021481087E+03  0.47000000000E+01 0. -1.
        -11    1    3    3    0    0 -0.31886230687E+02  0.12326184274E+02 -0.14885592990E+02  0.37286021574E+02  0.00000000000E+00 0.  1.
         11    1    3    3    0    0 -0.22023808318E+02 -0.24596631398E+02  0.87440529166E+02  0.93465975359E+02  0.00000000000E+00 0. -1.
<mgrwt>
<rscale>  0 0.12909567E+03</rscale>
<asrwt>0</asrwt>
<pdfrwt beam="1">  1        1 0.56690727E-01 0.13668054E+03</pdfrwt>
<pdfrwt beam="2">  1       -1 0.71694420E-02 0.13668054E+03</pdfrwt>
<totfact> 0.65604001E+03</totfact>
</mgrwt>
</event>
<event>
 8    1  0.7550631E-006  0.1259824E+03  0.7546771E-02  0.1247395E+00
          1   -1    0    0  501    0  0.00000000000E+00  0.00000000000E+00  0.18721204976E+02  0.18721204976E+02  0.00000000000E+00 0. -1.
         -1   -1    0    0    0  501 -0.00000000000E+00 -0.00000000000E+00 -0.70772323040E+03  0.70772323040E+03  0.00000000000E+00 0.  1.
         23    2    1    2    0    0 -0.64505594527E+01 -0.14373694614E+02 -0.40045103352E+03  0.41159010074E+03  0.93793219182E+02 0.  0.
         23    2    1    2    0    0  0.64505594527E+01  0.14373694614E+02 -0.28855099190E+03  0.31485433464E+03  0.12499345702E+03 0.  0.
          5    1    4    4  502    0 -0.29165018246E+01  0.50367949081E+02 -0.26668179269E+03  0.27145295141E+03  0.47000000000E+01 0. -1.
         -5    1    4    4    0  502  0.93670612773E+01 -0.35994254467E+02 -0.21869199212E+02  0.43401383224E+02  0.47000000000E+01 0. -1.
        -11    1    3    3    0    0  0.51386952222E+01 -0.52001683262E+02 -0.17170333981E+03  0.17947874011E+03  0.00000000000E+00 0. -1.
         11    1    3    3    0    0 -0.11589254675E+02  0.37627988649E+02 -0.22874769371E+03  0.23211136062E+03  0.00000000000E+00 0.  1.
<mgrwt>
<rscale>  0 0.11743185E+03</rscale>
<asrwt>0</asrwt>
<pdfrwt beam="1">  1        1 0.28801858E-02 0.12598245E+03</pdfrwt>
<pdfrwt beam="2">  1       -1 0.10888048E+00 0.12598245E+03</pdfrwt>
<totfact> 0.28780230E+03</totfact>
</mgrwt>
</event>
<event>
 8    1  0.7550631E-006  0.2059057E+03  0.7546771E-02  0.1148813E+00
         -1   -1    0    0    0  501 -0.00000000000E+00  0.00000000000E+00  0.36939701393E+03  0.36939701393E+03  0.00000000000E+00 0.  1.
          1   -1    0    0  501    0  0.00000000000E+00 -0.00000000000E+00 -0.13759181137E+03  0.13759181137E+03  0.00000000000E+00 0. -1.
         23    2    1    2    0    0 -0.40049906440E+02  0.15864247168E+03  0.23564549340E+03  0.30104735157E+03  0.91264891916E+02 0.  0.
         23    2    1    2    0    0  0.40049906440E+02 -0.15864247168E+03 -0.38402908475E+01  0.20594147373E+03  0.12500285573E+03 0.  0.
          5    1    4    4  502    0  0.64971826228E+01 -0.16953281251E+03  0.27711802804E+01  0.16974497736E+03  0.47000000000E+01 0.  1.
         -5    1    4    4    0  502  0.33552723818E+02  0.10890340826E+02 -0.66114711279E+01  0.36196496369E+02  0.47000000000E+01 0.  1.
        -11    1    3    3    0    0 -0.55320273423E+02  0.59977683619E+02  0.69356211096E+02  0.10708846437E+03  0.00000000000E+00 0. -1.
         11    1    3    3    0    0  0.15270366983E+02  0.98664788066E+02  0.16628928231E+03  0.19395888720E+03  0.00000000000E+00 0.  1.
<mgrwt>
<rscale>  0 0.20110168E+03</rscale>
<asrwt>0</asrwt>
<pdfrwt beam="2">  1        1 0.21167971E-01 0.20590566E+03</pdfrwt>
<pdfrwt beam="1">  1       -1 0.56830309E-01 0.20590566E+03</pdfrwt>
<totfact> 0.76482145E+02</totfact>
</mgrwt>
</event>
<event>
 8    1  0.7550631E-006  0.1556615E+03  0.7546771E-02  0.1202771E+00
         -1   -1    0    0    0  501 -0.00000000000E+00  0.00000000000E+00  0.44437076572E+03  0.44437076572E+03  0.00000000000E+00 0.  1.
          1   -1    0    0  501    0  0.00000000000E+00 -0.00000000000E+00 -0.56737745019E+02  0.56737745019E+02  0.00000000000E+00 0. -1.
         23    2    1    2    0    0  0.63685253981E+02 -0.67445017696E+02  0.29126657902E+03  0.31803205628E+03  0.87769737289E+02 0.  0.
         23    2    1    2    0    0 -0.63685253981E+02  0.67445017696E+02  0.96366441688E+02  0.18307645446E+03  0.12500342038E+03 0.  0.
          5    1    4    4  502    0 -0.21097997583E+02  0.98518065764E+02  0.76310850875E+02  0.12647675970E+03  0.47000000000E+01 0.  1.
         -5    1    4    4    0  502 -0.42587256398E+02 -0.31073048068E+02  0.20055590812E+02  0.56599694757E+02  0.47000000000E+01 0.  1.
        -11    1    3    3    0    0  0.35921860994E+02 -0.10875956530E+02  0.21881589146E+03  0.22201139809E+03  0.00000000000E+00 0.  1.
         11    1    3    3    0    0  0.27763392987E+02 -0.56569061166E+02  0.72450687554E+02  0.96020658186E+02  0.00000000000E+00 0. -1.
<mgrwt>
<rscale>  0 0.14814484E+03</rscale>
<asrwt>0</asrwt>
<pdfrwt beam="2">  1        1 0.87288842E-02 0.15566148E+03</pdfrwt>
<pdfrwt beam="1">  1       -1 0.68364731E-01 0.15566148E+03</pdfrwt>
<totfact> 0.17009169E+03</totfact>
</mgrwt>
</event>
<event>
 8    1  0.7550631E-006  0.1650192E+03  0.7546771E-02  0.1189329E+00
         -2   -1    0    0    0  501 -0.00000000000E+00  0.00000000000E+00  0.53459896468E+02  0.53459896468E+02  0.00000000000E+00 0.  1.
          2   -1    0    0  501    0  0.00000000000E+00 -0.00000000000E+00 -0.44617475124E+03  0.44617475124E+03  0.00000000000E+00 0. -1.
         23    2    1    2    0    0  0.80904647080E+02  0.71139950929E+02 -0.18740858485E+03  0.23623001715E+03  0.95269033732E+02 0.  0.
         23    2    1    2    0    0 -0.80904647080E+02 -0.71139950929E+02 -0.20530626992E+03  0.26340463056E+03  0.12499952158E+03 0.  0.
          5    1    4    4  502    0 -0.83035620340E+02  0.80293405229E+01 -0.84174054103E+02  0.11860331335E+03  0.47000000000E+01 0.  1.
         -5    1    4    4    0  502  0.21309732593E+01 -0.79169291452E+02 -0.12113221582E+03  0.14480131721E+03  0.47000000000E+01 0.  1.
        -11    1    3    3    0    0  0.10279619103E+03  0.58119803171E+02 -0.14856567083E+03  0.18978073390E+03  0.00000000000E+00 0.  1.
         11    1    3    3    0    0 -0.21891543953E+02  0.13020147758E+02 -0.38842914023E+02  0.46449283246E+02  0.00000000000E+00 0. -1.
<mgrwt>
<rscale>  0 0.15944159E+03</rscale>
<asrwt>0</asrwt>
<pdfrwt beam="2">  1        2 0.68642273E-01 0.16501920E+03</pdfrwt>
<pdfrwt beam="1">  1       -2 0.82245991E-02 0.16501920E+03</pdfrwt>
<totfact> 0.62093816E+03</totfact>
</mgrwt>
</event>
<event>
 8    1  0.7550631E-006  0.1499958E+03  0.7546771E-02  0.1209707E+00
          2   -1    0    0  501    0  0.00000000000E+00  0.00000000000E+00  0.12895966142E+04  0.12895966142E+04  0.00000000000E+00 0. -1.
         -2   -1    0    0    0  501 -0.00000000000E+00 -0.00000000000E+00 -0.19687702490E+02  0.19687702490E+02  0.00000000000E+00 0.  1.
         23    2    1    2    0    0 -0.32613016647E+02 -0.76232107525E+02  0.25218031430E+03  0.28056169236E+03  0.90802033186E+02 0.  0.
         23    2    1    2    0    0  0.32613016647E+02  0.76232107525E+02  0.10177285974E+04  0.10287226243E+04  0.12499518685E+03 0.  0.
          5    1    4    4  502    0  0.65884789744E+02  0.69531824282E+02  0.92334437837E+03  0.92831159164E+03  0.47000000000E+01 0. -1.
         -5    1    4    4    0  502 -0.33271773097E+02  0.67002832423E+01  0.94384219034E+02  0.10041103268E+03  0.47000000000E+01 0. -1.
        -11    1    3    3    0    0 -0.53836673134E+02 -0.80860880241E+02  0.22921405209E+03  0.24894969573E+03  0.00000000000E+00 0. -1.
         11    1    3    3    0    0  0.21223656487E+02  0.46287727165E+01  0.22966262207E+02  0.31611996636E+02  0.00000000000E+00 0.  1.
<mgrwt>
<rscale>  0 0.14272601E+03</rscale>
<asrwt>0</asrwt>
<pdfrwt beam="1">  1        2 0.19839941E+00 0.14999580E+03</pdfrwt>
<pdfrwt beam="2">  1       -2 0.30288783E-02 0.14999580E+03</pdfrwt>
<totfact> 0.72745859E+03</totfact>
</mgrwt>
</event>
<event>
 8    1  0.7550631E-006  0.1537109E+03  0.7546771E-02  0.1204451E+00
         -1   -1    0    0    0  501 -0.00000000000E+00  0.00000000000E+00  0.15655439222E+03  0.15655439222E+03  0.00000000000E+00 0.  1.
          1   -1    0    0  501    0  0.00000000000E+00 -0.00000000000E+00 -0.13180671296E+03  0.13180671296E+03  0.00000000000E+00 0. -1.
         23    2    1    2    0    0  0.24794023304E+02 -0.85946855589E+02  0.39703498007E+02  0.13392434702E+03  0.91420771122E+02 0.  0.
         23    2    1    2    0    0 -0.24794023304E+02  0.85946855589E+02 -0.14955818745E+02  0.15443675816E+03  0.12500172071E+03 0.  0.
          5    1    4    4  502    0 -0.14587585260E+02  0.11430784545E+03 -0.31739834474E+02  0.11961851140E+03  0.47000000000E+01 0.  1.
         -5    1    4    4    0  502 -0.10206438044E+02 -0.28360989866E+02  0.16784015728E+02  0.34818246763E+02  0.47000000000E+01 0.  1.
        -11    1    3    3    0    0  0.47007098216E+02 -0.64248946272E+02  0.57436325159E+02  0.98165807833E+02  0.00000000000E+00 0.  1.
         11    1    3    3    0    0 -0.22213074912E+02 -0.21697909318E+02 -0.17732827152E+02  0.35758539184E+02  0.00000000000E+00 0. -1.
<mgrwt>
<rscale>  0 0.14680784E+03</rscale>
<asrwt>0</asrwt>
<pdfrwt beam="2">  1        1 0.20277956E-01 0.15371088E+03</pdfrwt>
<pdfrwt beam="1">  1       -1 0.24085291E-01 0.15371088E+03</pdfrwt>
<totfact> 0.35998809E+03</totfact>
</mgrwt>
</event>
<event>
 8    1  0.7550631E-006  0.1330298E+03  0.7546771E-02  0.1235972E+00
         -1   -1    0    0    0  501 -0.00000000000E+00  0.00000000000E+00  0.96815616453E+02  0.96815616453E+02  0.00000000000E+00 0.  1.
          1   -1    0    0  501    0  0.00000000000E+00 -0.00000000000E+00 -0.15104181905E+03  0.15104181905E+03  0.00000000000E+00 0. -1.
         23    2    1    2    0    0  0.27449458199E+01 -0.45446928745E+02  0.56722818198E+01  0.10196451081E+03  0.91058380309E+02 0.  0.
         23    2    1    2    0    0 -0.27449458199E+01  0.45446928745E+02 -0.59898484414E+02  0.14589292469E+03  0.12499583585E+03 0.  0.
          5    1    4    4  502    0  0.32942550629E+02  0.13728514950E+02 -0.84593446516E+02  0.91933807482E+02  0.47000000000E+01 0. -1.
         -5    1    4    4    0  502 -0.35687496449E+02  0.31718413795E+02  0.24694962102E+02  0.53959117206E+02  0.47000000000E+01 0. -1.
        -11    1    3    3    0    0 -0.43872260026E+02 -0.20228321432E+02  0.77180664029E+01  0.48923703219E+02  0.00000000000E+00 0.  1.
         11    1    3    3    0    0  0.46617205845E+02 -0.25218607313E+02 -0.20457845832E+01  0.53040807594E+02  0.00000000000E+00 0. -1.
<mgrwt>
<rscale>  0 0.12442441E+03</rscale>
<asrwt>0</asrwt>
<pdfrwt beam="2">  1        1 0.23237203E-01 0.13302976E+03</pdfrwt>
<pdfrwt beam="1">  1       -1 0.14894710E-01 0.13302976E+03</pdfrwt>
<totfact> 0.64820500E+03</totfact>
</mgrwt>
</event>
<event>
 8    1  0.7550631E-006  0.1722718E+03  0.7546771E-02  0.1181343E+00
          1   -1    0    0  501    0  0.00000000000E+00  0.00000000000E+00  0.11465437606E+04  0.11465437606E+04  0.00000000000E+00 0. -1.
         -1   -1    0    0    0  501 -0.00000000000E+00 -0.00000000000E+00 -0.22789341385E+02  0.22789341385E+02  0.00000000000E+00 0.  1.
         23    2    1    2    0    0 -0.26844414237E+01 -0.11851294377E+03  0.52109678206E+03  0.54253664628E+03  0.93550158869E+02 0.  0.
         23    2    1    2    0    0  0.26844414237E+01  0.11851294377E+03  0.60265763719E+03  0.62679645573E+03  0.12500018075E+03 0.  0.
          5    1    4    4  502    0 -0.32244598187E+01  0.10464049530E+03  0.21867276985E+03  0.24248690825E+03  0.47000000000E+01 0.  1.
         -5    1    4    4    0  502  0.59089012423E+01  0.13872448466E+02  0.38398486734E+03  0.38430954749E+03  0.47000000000E+01 0.  1.
        -11    1    3    3    0    0  0.40892533647E+02 -0.89795760582E+02  0.32902691079E+03  0.34350281796E+03  0.00000000000E+00 0.  1.
         11    1    3    3    0    0 -0.43576975070E+02 -0.28717183188E+02  0.19206987127E+03  0.19903382832E+03  0.00000000000E+00 0. -1.
<mgrwt>
<rscale>  0 0.16669109E+03</rscale>
<asrwt>0</asrwt>
<pdfrwt beam="1">  1        1 0.17639130E+00 0.17227179E+03</pdfrwt>
<pdfrwt beam="2">  1       -1 0.35060534E-02 0.17227179E+03</pdfrwt>
<totfact> 0.37016910E+03</totfact>
</mgrwt>
</event>
<event>
 8    1  0.7550631E-006  0.1259663E+03  0.7546771E-02  0.1247429E+00
         -1   -1    0    0    0  501 -0.00000000000E+00  0.00000000000E+00  0.34745418989E+03  0.34745418989E+03  0.00000000000E+00 0.  1.
          1   -1    0    0  501    0  0.00000000000E+00 -0.00000000000E+00 -0.35173412367E+02  0.35173412367E+02  0.00000000000E+00 0. -1.
         23    2    1    2    0    0 -0.48500166997E+01  0.14869789673E+02  0.13012206351E+03  0.16115683876E+03  0.93782418196E+02 0.  0.
         23    2    1    2    0    0  0.48500166997E+01 -0.14869789673E+02  0.18215871402E+03  0.22147076349E+03  0.12499147444E+03 0.  0.
          5    1    4    4  502    0  0.58023527358E+02 -0.34586099751E+02  0.11490660267E+03  0.13337370565E+03  0.47000000000E+01 0. -1.
         -5    1    4    4    0  502 -0.53173510658E+02  0.19716310078E+02  0.67252111349E+02  0.88097057838E+02  0.47000000000E+01 0. -1.
        -11    1    3    3    0    0  0.27635696630E+02  0.42710004082E+02  0.84353142610E+02  0.98505476219E+02  0.00000000000E+00 0.  1.
         11    1    3    3    0    0 -0.32485713330E+02 -0.27840214408E+02  0.45768920896E+02  0.62651362546E+02  0.00000000000E+00 0. -1.
<mgrwt>
<rscale>  0 0.11741144E+03</rscale>
<asrwt>0</asrwt>
<pdfrwt beam="2">  1        1 0.54112945E-02 0.12596627E+03</pdfrwt>
<pdfrwt beam="1">  1       -1 0.53454488E-01 0.12596627E+03</pdfrwt>
<totfact> 0.51269531E+03</totfact>
</mgrwt>
</event>
<event>
 8    1  0.7550631E-006  0.1397037E+03  0.7546771E-02  0.1225046E+00
         -4   -1    0    0    0  501 -0.00000000000E+00  0.00000000000E+00  0.99941662412E+02  0.99941662412E+02  0.00000000000E+00 0.  1.
          4   -1    0    0  501    0  0.00000000000E+00 -0.00000000000E+00 -0.16070035144E+03  0.16070035144E+03  0.00000000000E+00 0. -1.
         23    2    1    2    0    0  0.16798857683E+02 -0.60078811749E+02 -0.50602725666E+01  0.11024439354E+03  0.90755466540E+02 0.  0.
         23    2    1    2    0    0 -0.16798857683E+02  0.60078811749E+02 -0.55698416459E+02  0.15039762031E+03  0.12500186142E+03 0.  0.
          5    1    4    4  502    0  0.48823527659E+02  0.55003303284E+02 -0.28079739803E+02  0.78864833815E+02  0.47000000000E+01 0. -1.
         -5    1    4    4    0  502 -0.65622385342E+02  0.50755084653E+01 -0.27618676656E+02  0.71532786500E+02  0.47000000000E+01 0. -1.
        -11    1    3    3    0    0  0.32758131448E+02 -0.28571212945E+02  0.35744793393E+02  0.56276990323E+02  0.00000000000E+00 0.  1.
         11    1    3    3    0    0 -0.15959273765E+02 -0.31507598804E+02 -0.40805065960E+02  0.53967403213E+02  0.00000000000E+00 0. -1.
<mgrwt>
<rscale>  0 0.13163780E+03</rscale>
<asrwt>0</asrwt>
<pdfrwt beam="2">  1        4 0.24723131E-01 0.13970372E+03</pdfrwt>
<pdfrwt beam="1">  1       -4 0.15375641E-01 0.13970372E+03</pdfrwt>
<totfact> 0.91710794E+02</totfact>
</mgrwt>
</event>
<event>
 7    1  0.7550631E-006  0.1495100E+03  0.7546771E-02  0.1225379E+00
          2   -1    0    0  501    0  0.00000000000E+00  0.00000000000E+00  0.11069730771E+04  0.11069730771E+04  0.00000000000E+00 0. -1.
         -2   -1    0    0    0  501 -0.00000000000E+00 -0.00000000000E+00 -0.15712881731E+02  0.15712881731E+02  0.00000000000E+00 0.  1.
         23    2    1    2    0    0 -0.94519706951E+01  0.75977282748E+01  0.20038974544E+03  0.21935689580E+03  0.88398712849E+02 0.  0.
          5    1    1    2  502    0  0.27538341792E+02  0.65332653007E+01  0.87397064013E+03  0.87444142950E+03  0.47000000000E+01 0. -1.
         -5    1    1    2    0  502 -0.18086371097E+02 -0.14130993576E+02  0.16899809774E+02  0.28887633501E+02  0.47000000000E+01 0.  1.
        -11    1    3    3    0    0  0.19132818858E+02 -0.33685455594E+02  0.95858033578E+02  0.10339021848E+03  0.00000000000E+00 0.  1.
         11    1    3    3    0    0 -0.28584789553E+02  0.41283183868E+02  0.10453171186E+03  0.11596667732E+03  0.00000000000E+00 0. -1.
<mgrwt>
<rscale>  0 0.13140937E+03</rscale>
<asrwt>0</asrwt>
<pdfrwt beam="1">  1        2 0.17030349E+00 0.14950999E+03</pdfrwt>
<pdfrwt beam="2">  1       -2 0.24173673E-02 0.14950999E+03</pdfrwt>
<totfact> 0.12800635E+04</totfact>
</mgrwt>
</event>
<event>
 8    1  0.7550631E-006  0.1296278E+03  0.7546771E-02  0.1241732E+00
         -2   -1    0    0    0  501 -0.00000000000E+00  0.00000000000E+00  0.13157725236E+02  0.13157725236E+02  0.00000000000E+00 0.  1.
          2   -1    0    0  501    0  0.00000000000E+00 -0.00000000000E+00 -0.98760009359E+03  0.98760009359E+03  0.00000000000E+00 0. -1.
         23    2    1    2    0    0  0.14575931172E+02  0.31028875510E+02 -0.38679977546E+03  0.39898777015E+03  0.91662018029E+02 0.  0.
         23    2    1    2    0    0 -0.14575931172E+02 -0.31028875510E+02 -0.58764259289E+03  0.60177004867E+03  0.12501250183E+03 0.  0.
          5    1    4    4  502    0  0.10593855766E+02 -0.76533070042E+02 -0.34748041926E+03  0.35599757353E+03  0.47000000000E+01 0. -1.
         -5    1    4    4    0  502 -0.25169786938E+02  0.45504194532E+02 -0.24016217364E+03  0.24577247515E+03  0.47000000000E+01 0. -1.
        -11    1    3    3    0    0 -0.34491372457E+02  0.75703452940E+01 -0.80609988965E+02  0.88005313605E+02  0.00000000000E+00 0. -1.
         11    1    3    3    0    0  0.49067303629E+02  0.23458530216E+02 -0.30618978650E+03  0.31098245655E+03  0.00000000000E+00 0.  1.
<mgrwt>
<rscale>  0 0.12083100E+03</rscale>
<asrwt>0</asrwt>
<pdfrwt beam="2">  1        2 0.15193850E+00 0.12962783E+03</pdfrwt>
<pdfrwt beam="1">  1       -2 0.20242651E-02 0.12962783E+03</pdfrwt>
<totfact> 0.19294094E+04</totfact>
</mgrwt>
</event>
<event>
 8    1  0.7550631E-006  0.2343524E+03  0.7546771E-02  0.1126472E+00
          2   -1    0    0  501    0  0.00000000000E+00  0.00000000000E+00  0.16334074724E+04  0.16334074724E+04  0.00000000000E+00 0. -1.
         -2   -1    0    0    0  501 -0.00000000000E+00 -0.00000000000E+00 -0.32302230352E+02  0.32302230352E+02  0.00000000000E+00 0.  1.
         23    2    1    2    0    0 -0.11576160657E+03 -0.16091499281E+03  0.91494911730E+03  0.94063640254E+03  0.91490819542E+02 0.  0.
         23    2    1    2    0    0  0.11576160657E+03  0.16091499281E+03  0.68615612478E+03  0.72507330025E+03  0.12500671460E+03 0.  0.
          5    1    4    4  502    0  0.10328352098E+03  0.47388992517E+02  0.42583990193E+03  0.44076628092E+03  0.47000000000E+01 0.  1.
         -5    1    4    4    0  502  0.12478085589E+02  0.11352600029E+03  0.26031622284E+03  0.28430701933E+03  0.47000000000E+01 0.  1.
        -11    1    3    3    0    0 -0.69804949739E+02 -0.14970321101E+03  0.78881491083E+03  0.80592353603E+03  0.00000000000E+00 0.  1.
         11    1    3    3    0    0 -0.45956656827E+02 -0.11211781803E+02  0.12613420648E+03  0.13471286651E+03  0.00000000000E+00 0. -1.
<mgrwt>
<rscale>  0 0.23023800E+03</rscale>
<asrwt>0</asrwt>
<pdfrwt beam="1">  1        2 0.25129339E+00 0.23435243E+03</pdfrwt>
<pdfrwt beam="2">  1       -2 0.49695752E-02 0.23435243E+03</pdfrwt>
<totfact> 0.22912807E+03</totfact>
</mgrwt>
</event>
<event>
 8    1  0.7550631E-006  0.1293735E+03  0.7546771E-02  0.1241139E+00
         -4   -1    0    0    0  501 -0.00000000000E+00  0.00000000000E+00  0.19813576659E+03  0.19813576659E+03  0.00000000000E+00 0. -1.
          4   -1    0    0  501    0  0.00000000000E+00 -0.00000000000E+00 -0.76344447413E+02  0.76344447413E+02  0.00000000000E+00 0.  1.
         23    2    1    2    0    0 -0.25383276231E+02  0.21626532838E+02  0.10377197865E+03  0.14385784568E+03  0.93885241522E+02 0.  0.
         23    2    1    2    0    0  0.25383276231E+02 -0.21626532838E+02  0.18019340528E+02  0.13062236832E+03  0.12500195534E+03 0.  0.
          5    1    4    4  502    0  0.45569454864E+02  0.23720967622E+01  0.61551796203E+02  0.76765328603E+02  0.47000000000E+01 0.  1.
         -5    1    4    4    0  502 -0.20186178633E+02 -0.23998629600E+02 -0.43532455675E+02  0.53857039722E+02  0.47000000000E+01 0.  1.
        -11    1    3    3    0    0 -0.34380383778E+01 -0.29523389867E+02  0.76102081004E+02  0.81700534822E+02  0.00000000000E+00 0. -1.
         11    1    3    3    0    0 -0.21945237853E+02  0.51149922705E+02  0.27669897646E+02  0.62157310857E+02  0.00000000000E+00 0.  1.
<mgrwt>
<rscale>  0 0.12119461E+03</rscale>
<asrwt>0</asrwt>
<pdfrwt beam="2">  1        4 0.11745300E-01 0.12937352E+03</pdfrwt>
<pdfrwt beam="1">  1       -4 0.30482425E-01 0.12937352E+03</pdfrwt>
<totfact> 0.97211750E+02</totfact>
</mgrwt>
</event>
<event>
 8    1  0.7550631E-006  0.3545710E+03  0.7546771E-02  0.1061648E+00
         -2   -1    0    0    0  501 -0.00000000000E+00  0.00000000000E+00  0.25562526411E+03  0.25562526411E+03  0.00000000000E+00 0.  1.
          2   -1    0    0  501    0  0.00000000000E+00 -0.00000000000E+00 -0.76605259087E+03  0.76605259087E+03  0.00000000000E+00 0. -1.
         23    2    1    2    0    0 -0.16735191133E+03 -0.28651105189E+03  0.59051761499E+02  0.35083733423E+03  0.97490919945E+02 0.  0.
         23    2    1    2    0    0  0.16735191133E+03  0.28651105189E+03 -0.56947908826E+03  0.67084052075E+03  0.12500130894E+03 0.  0.
          5    1    4    4  502    0  0.14753462126E+03  0.29003201605E+03 -0.48639510618E+03  0.58522416570E+03  0.47000000000E+01 0. -1.
         -5    1    4    4    0  502  0.19817290063E+02 -0.35209641566E+01 -0.83083982072E+02  0.85616355044E+02  0.47000000000E+01 0. -1.
        -11    1    3    3    0    0 -0.11272209041E+03 -0.25885868913E+03  0.32866048129E+02  0.28424332485E+03  0.00000000000E+00 0.  1.
         11    1    3    3    0    0 -0.54629820920E+02 -0.27652362762E+02  0.26185713370E+02  0.66594009376E+02  0.00000000000E+00 0. -1.
<mgrwt>
<rscale>  0 0.35236572E+03</rscale>
<asrwt>0</asrwt>
<pdfrwt beam="2">  1        2 0.11785424E+00 0.35457097E+03</pdfrwt>
<pdfrwt beam="1">  1       -2 0.39326964E-01 0.35457097E+03</pdfrwt>
<totfact> 0.23092752E+02</totfact>
</mgrwt>
</event>
<event>
 6    1  0.7550631E-006  0.1609022E+03  0.7546771E-02  0.1229269E+00
          2   -1    0    0  501    0  0.00000000000E+00  0.00000000000E+00  0.11818712967E+03  0.11818712967E+03  0.00000000000E+00 0. -1.
         -2   -1    0    0    0  501 -0.00000000000E+00 -0.00000000000E+00 -0.12495860648E+03  0.12495860648E+03  0.00000000000E+00 0.  1.
          5    1    1    2  502    0  0.75640437243E+01  0.50055969078E+02  0.57656846963E+02  0.76871430321E+02  0.47000000000E+01 0. -1.
         -5    1    1    2    0  502 -0.33304378497E+02 -0.78106646379E+02 -0.22201233878E+02  0.87890924568E+02  0.47000000000E+01 0.  1.
        -11    1    1    2    0    0  0.24094174135E+02 -0.29482575886E+01  0.19924333423E+01  0.24355517664E+02  0.00000000000E+00 0. -1.
         11    1    1    2    0    0  0.16461606382E+01  0.30998934889E+02 -0.44219523235E+02  0.54027863591E+02  0.00000000000E+00 0.  1.
<mgrwt>
<rscale>  0 0.12878571E+03</rscale>
<asrwt>0</asrwt>
<pdfrwt beam="1">  1        2 0.18182635E-01 0.16090225E+03</pdfrwt>
<pdfrwt beam="2">  1       -2 0.19224401E-01 0.16090225E+03</pdfrwt>
<totfact> 0.66979079E+03</totfact>
</mgrwt>
</event>
<event>
 8    1  0.7550631E-006  0.1323016E+03  0.7546771E-02  0.1237301E+00
          2   -1    0    0  501    0  0.00000000000E+00  0.00000000000E+00  0.66500652164E+02  0.66500652164E+02  0.00000000000E+00 0. -1.
         -2   -1    0    0    0  501 -0.00000000000E+00 -0.00000000000E+00 -0.24299005977E+03  0.24299005977E+03  0.00000000000E+00 0.  1.
         23    2    1    2    0    0  0.13426814375E+02  0.41221628259E+02 -0.13959745391E+03  0.17214180623E+03  0.90916721977E+02 0.  0.
         23    2    1    2    0    0 -0.13426814375E+02 -0.41221628259E+02 -0.36891953691E+02  0.13734890569E+03  0.12499681463E+03 0.  0.
          5    1    4    4  502    0  0.17915422960E+02  0.38686012560E+02 -0.27323217293E+02  0.50854873423E+02  0.47000000000E+01 0. -1.
         -5    1    4    4    0  502 -0.31342237334E+02 -0.79907640819E+02 -0.95687363981E+01  0.86494032272E+02  0.47000000000E+01 0. -1.
        -11    1    3    3    0    0  0.36744950650E+02 -0.14101239017E+02 -0.69302685645E+02  0.79698799099E+02  0.00000000000E+00 0. -1.
         11    1    3    3    0    0 -0.23318136276E+02  0.55322867276E+02 -0.70294768265E+02  0.92443007136E+02  0.00000000000E+00 0.  1.
<mgrwt>
<rscale>  0 0.12358255E+03</rscale>
<asrwt>0</asrwt>
<pdfrwt beam="1">  1        2 0.10230869E-01 0.13230157E+03</pdfrwt>
<pdfrwt beam="2">  1       -2 0.37383087E-01 0.13230157E+03</pdfrwt>
<totfact> 0.40259091E+03</totfact>
</mgrwt>
</event>
<event>
 8    1  0.7550631E-006  0.1302027E+03  0.7546771E-02  0.1240840E+00
         -1   -1    0    0    0  501 -0.00000000000E+00  0.00000000000E+00  0.68877115474E+03  0.68877115474E+03  0.00000000000E+00 0.  1.
          1   -1    0    0  501    0  0.00000000000E+00 -0.00000000000E+00 -0.21107208858E+02  0.21107208858E+02  0.00000000000E+00 0. -1.
         23    2    1    2    0    0  0.11938671370E+02  0.34446384893E+02  0.40430252141E+03  0.41608933201E+03  0.91327531911E+02 0.  0.
         23    2    1    2    0    0 -0.11938671370E+02 -0.34446384893E+02  0.26336142447E+03  0.29378903159E+03  0.12499467939E+03 0.  0.
          5    1    4    4  502    0 -0.13028353400E+02  0.19678781068E+02 -0.81881386109E+00  0.24078057912E+02  0.47000000000E+01 0. -1.
         -5    1    4    4    0  502  0.10896820304E+01 -0.54125165961E+02  0.26418023833E+03  0.26971097367E+03  0.47000000000E+01 0. -1.
        -11    1    3    3    0    0  0.18913914555E+01  0.65509061573E+02  0.25877477201E+03  0.26694455818E+03  0.00000000000E+00 0. -1.
         11    1    3    3    0    0  0.10047279914E+02 -0.31062676680E+02  0.14552774940E+03  0.14914477383E+03  0.00000000000E+00 0.  1.
<mgrwt>
<rscale>  0 0.12137865E+03</rscale>
<asrwt>0</asrwt>
<pdfrwt beam="2">  1        1 0.32472634E-02 0.13020275E+03</pdfrwt>
<pdfrwt beam="1">  1       -1 0.10596478E+00 0.13020275E+03</pdfrwt>
<totfact> 0.25969504E+03</totfact>
</mgrwt>
</event>
<event>
 8    1  0.7550631E-006  0.1147678E+03  0.7546771E-02  0.1262729E+00
         -2   -1    0    0    0  501 -0.00000000000E+00  0.00000000000E+00  0.14855376788E+02  0.14855376788E+02  0.00000000000E+00 0.  1.
          2   -1    0    0  501    0  0.00000000000E+00 -0.00000000000E+00 -0.27806315685E+04  0.27806315685E+04  0.00000000000E+00 0. -1.
         23    2    1    2    0    0 -0.12823344016E+02 -0.12287210586E+01 -0.14484220450E+03  0.17204138339E+03  0.91940336574E+02 0.  0.
         23    2    1    2    0    0  0.12823344016E+02  0.12287210586E+01 -0.26209339872E+04  0.26234455619E+04  0.11404254898E+03 0.  0.
          5    1    4    4  502    0  0.30422394111E+01  0.21949648034E+02 -0.25085960379E+04  0.25086983106E+04  0.47000000000E+01 0. -1.
         -5    1    4    4    0  502  0.97811046053E+01 -0.20720926976E+02 -0.11233794933E+03  0.11474725130E+03  0.47000000000E+01 0.  1.
        -11    1    3    3    0    0 -0.15866438775E+02 -0.42388722909E+02 -0.44189641508E+02  0.63255609442E+02  0.00000000000E+00 0.  1.
         11    1    3    3    0    0  0.30430947587E+01  0.41160001851E+02 -0.10065256299E+03  0.10878577395E+03  0.00000000000E+00 0. -1.
<mgrwt>
<rscale>  0 0.10884213E+03</rscale>
<asrwt>0</asrwt>
<pdfrwt beam="2">  1        2 0.42778947E+00 0.11476781E+03</pdfrwt>
<pdfrwt beam="1">  1       -2 0.22854426E-02 0.11476781E+03</pdfrwt>
<totfact> 0.18193541E+03</totfact>
</mgrwt>
</event>
<event>
 8    1  0.7550631E-006  0.2183992E+03  0.7546771E-02  0.1138560E+00
          1   -1    0    0  501    0  0.00000000000E+00  0.00000000000E+00  0.12522725829E+03  0.12522725829E+03  0.00000000000E+00 0. -1.
         -1   -1    0    0    0  501 -0.00000000000E+00 -0.00000000000E+00 -0.54557849681E+03  0.54557849681E+03  0.00000000000E+00 0.  1.
         23    2    1    2    0    0  0.14928002260E+03 -0.98920230627E+02 -0.40482117954E+03  0.45185505845E+03  0.90681140627E+02 0.  0.
         23    2    1    2    0    0 -0.14928002260E+03  0.98920230627E+02 -0.15530058979E+02  0.21895069665E+03  0.12501394985E+03 0.  0.
          5    1    4    4  502    0 -0.64184070887E+02 -0.23722783926E+02 -0.11516293757E+02  0.69549122603E+02  0.47000000000E+01 0.  1.
         -5    1    4    4    0  502 -0.85095951710E+02  0.12264301455E+03 -0.40137652214E+01  0.14940157405E+03  0.47000000000E+01 0.  1.
        -11    1    3    3    0    0  0.83513090501E+02 -0.33708126760E+02 -0.29369920034E+03  0.30719683328E+03  0.00000000000E+00 0. -1.
         11    1    3    3    0    0  0.65766932097E+02 -0.65212103867E+02 -0.11112197920E+03  0.14465822517E+03  0.00000000000E+00 0.  1.
<mgrwt>
<rscale>  0 0.21384139E+03</rscale>
<asrwt>0</asrwt>
<pdfrwt beam="1">  1        1 0.19265732E-01 0.21839923E+03</pdfrwt>
<pdfrwt beam="2">  1       -1 0.83935152E-01 0.21839923E+03</pdfrwt>
<totfact> 0.39729136E+02</totfact>
</mgrwt>
</event>
<event>
 8    1  0.7550631E-006  0.1811973E+03  0.7546771E-02  0.1172108E+00
          1   -1    0    0  501    0  0.00000000000E+00  0.00000000000E+00  0.40054700679E+03  0.40054700679E+03  0.00000000000E+00 0. -1.
         -1   -1    0    0    0  501 -0.00000000000E+00 -0.00000000000E+00 -0.91074808631E+02  0.91074808631E+02  0.00000000000E+00 0.  1.
         23    2    1    2    0    0  0.13030121915E+03 -0.15144916492E+02  0.36559477230E+02  0.16403392698E+03  0.91448114350E+02 0.  0.
         23    2    1    2    0    0 -0.13030121915E+03  0.15144916492E+02  0.27291272093E+03  0.32758788843E+03  0.12499878078E+03 0.  0.
          5    1    4    4  502    0 -0.23700187648E+02  0.16094848874E+02  0.19065958687E+03  0.19285722989E+03  0.47000000000E+01 0.  1.
         -5    1    4    4    0  502 -0.10660103151E+03 -0.94993238178E+00  0.82253134053E+02  0.13473065854E+03  0.47000000000E+01 0.  1.
        -11    1    3    3    0    0  0.12532699901E+03  0.20081706394E+01  0.22603030009E+01  0.12536346517E+03  0.00000000000E+00 0.  1.
         11    1    3    3    0    0  0.49742201457E+01 -0.17153087132E+02  0.34299174229E+02  0.38670461815E+02  0.00000000000E+00 0. -1.
<mgrwt>
<rscale>  0 0.17562297E+03</rscale>
<asrwt>0</asrwt>
<pdfrwt beam="1">  1        1 0.61622615E-01 0.18119733E+03</pdfrwt>
<pdfrwt beam="2">  1       -1 0.14011509E-01 0.18119733E+03</pdfrwt>
<totfact> 0.21404781E+03</totfact>
</mgrwt>
</event>
<event>
 7    1  0.7550631E-006  0.1663261E+03  0.7546771E-02  0.1205704E+00
          1   -1    0    0  501    0  0.00000000000E+00  0.00000000000E+00  0.25504602568E+03  0.25504602568E+03  0.00000000000E+00 0. -1.
         -1   -1    0    0    0  501 -0.00000000000E+00 -0.00000000000E+00 -0.88224691538E+02  0.88224691538E+02  0.00000000000E+00 0.  1.
         23    2    1    2    0    0 -0.28840083928E+02 -0.21385319452E+02 -0.12068527526E+02  0.99004545854E+02  0.91472227555E+02 0.  0.
          5    1    1    2  502    0 -0.19613613934E+02  0.84259191725E+02  0.98779121403E+02  0.13139143833E+03  0.47000000000E+01 0. -1.
         -5    1    1    2    0  502  0.48453697863E+02 -0.62873872273E+02  0.80110740261E+02  0.11287473303E+03  0.47000000000E+01 0.  1.
        -11    1    3    3    0    0 -0.34085387377E+02  0.30441247578E+02 -0.79273982533E+00  0.45706800623E+02  0.00000000000E+00 0. -1.
         11    1    3    3    0    0  0.52453034482E+01 -0.51826567031E+02 -0.11275787701E+02  0.53297745231E+02  0.00000000000E+00 0.  1.
<mgrwt>
<rscale>  0 0.14582145E+03</rscale>
<asrwt>0</asrwt>
<pdfrwt beam="1">  1        1 0.39237850E-01 0.16632613E+03</pdfrwt>
<pdfrwt beam="2">  1       -1 0.13573030E-01 0.16632613E+03</pdfrwt>
<totfact> 0.39481296E+03</totfact>
</mgrwt>
</event>
<event>
 8    1  0.7550631E-006  0.1369668E+03  0.7546771E-02  0.1229853E+00
         -1   -1    0    0    0  501 -0.00000000000E+00  0.00000000000E+00  0.72781382604E+02  0.72781382604E+02  0.00000000000E+00 0. -1.
          1   -1    0    0  501    0  0.00000000000E+00 -0.00000000000E+00 -0.20664242145E+03  0.20664242145E+03  0.00000000000E+00 0.  1.
         23    2    1    2    0    0  0.18315105754E+02  0.52951894674E+02 -0.78367334446E+02  0.13164202310E+03  0.89715310221E+02 0.  0.
         23    2    1    2    0    0 -0.18315105754E+02 -0.52951894674E+02 -0.55493704405E+02  0.14778178096E+03  0.12498222797E+03 0.  0.
          5    1    4    4  502    0  0.10616231655E+02  0.35188545520E+02 -0.38349822887E+02  0.53326700871E+02  0.47000000000E+01 0. -1.
         -5    1    4    4    0  502 -0.28931337409E+02 -0.88140440194E+02 -0.17143881518E+02  0.94455080093E+02  0.47000000000E+01 0. -1.
        -11    1    3    3    0    0 -0.31162134232E+02  0.16385270436E+02 -0.44757488610E+01  0.35490675184E+02  0.00000000000E+00 0. -1.
         11    1    3    3    0    0  0.49477239986E+02  0.36566624237E+02 -0.73891585585E+02  0.96151347911E+02  0.00000000000E+00 0.  1.
<mgrwt>
<rscale>  0 0.12839746E+03</rscale>
<asrwt>0</asrwt>
<pdfrwt beam="2">  1        1 0.31791142E-01 0.13696680E+03</pdfrwt>
<pdfrwt beam="1">  1       -1 0.11197136E-01 0.13696680E+03</pdfrwt>
<totfact> 0.68326068E+03</totfact>
</mgrwt>
</event>
<event>
 8    1  0.7550631E-006  0.1254676E+03  0.7546771E-02  0.1246939E+00
          2   -1    0    0  501    0  0.00000000000E+00  0.00000000000E+00  0.12571185095E+03  0.12571185095E+03  0.00000000000E+00 0. -1.
         -2   -1    0    0    0  501 -0.00000000000E+00 -0.00000000000E+00 -0.99313443862E+02  0.99313443862E+02  0.00000000000E+00 0.  1.
         23    2    1    2    0    0  0.27284152560E+01 -0.10360391015E+02  0.18848686106E+01  0.97185431035E+02  0.96574703334E+02 0.  0.
         23    2    1    2    0    0 -0.27284152560E+01  0.10360391015E+02  0.24513538475E+02  0.12783986377E+03  0.12500934065E+03 0.  0.
          5    1    4    4  502    0 -0.22115907189E+02  0.11444669186E+02 -0.47103931090E+02  0.53487981152E+02  0.47000000000E+01 0. -1.
         -5    1    4    4    0  502  0.19387491933E+02 -0.10842781701E+01  0.71617469565E+02  0.74351882622E+02  0.47000000000E+01 0. -1.
        -11    1    3    3    0    0 -0.65124399167E+01 -0.43485407485E+02  0.29610526990E+02  0.53011091730E+02  0.00000000000E+00 0. -1.
         11    1    3    3    0    0  0.92408551727E+01  0.33125016470E+02 -0.27725658380E+02  0.44174339305E+02  0.00000000000E+00 0.  1.
<mgrwt>
<rscale>  0 0.11770056E+03</rscale>
<asrwt>0</asrwt>
<pdfrwt beam="1">  1        2 0.19340285E-01 0.12546759E+03</pdfrwt>
<pdfrwt beam="2">  1       -2 0.15278991E-01 0.12546759E+03</pdfrwt>
<totfact> 0.89756229E+03</totfact>
</mgrwt>
</event>
<event>
 8    1  0.7550631E-006  0.1299595E+03  0.7546771E-02  0.1241731E+00
         -2   -1    0    0    0  501 -0.00000000000E+00  0.00000000000E+00  0.29889575405E+02  0.29889575405E+02  0.00000000000E+00 0.  1.
          2   -1    0    0  501    0  0.00000000000E+00 -0.00000000000E+00 -0.51554168445E+03  0.51554168445E+03  0.00000000000E+00 0. -1.
         23    2    1    2    0    0  0.35313136446E+02 -0.41052391650E+01 -0.10416845370E+03  0.14241853924E+03  0.90377557931E+02 0.  0.
         23    2    1    2    0    0 -0.35313136446E+02  0.41052391650E+01 -0.38148365535E+03  0.40301272062E+03  0.12500241235E+03 0.  0.
          5    1    4    4  502    0  0.31631171045E+02  0.42010481001E+02 -0.16243755664E+03  0.17080240427E+03  0.47000000000E+01 0. -1.
         -5    1    4    4    0  502 -0.66944307491E+02 -0.37905241836E+02 -0.21904609870E+03  0.23221031635E+03  0.47000000000E+01 0. -1.
        -11    1    3    3    0    0  0.56139699453E+02 -0.16429734587E+02 -0.10268017477E+03  0.11817284089E+03  0.00000000000E+00 0. -1.
         11    1    3    3    0    0 -0.20826563007E+02  0.12324495422E+02 -0.14882789308E+01  0.24245698346E+02  0.00000000000E+00 0.  1.
<mgrwt>
<rscale>  0 0.12083183E+03</rscale>
<asrwt>0</asrwt>
<pdfrwt beam="2">  1        2 0.79314100E-01 0.12995951E+03</pdfrwt>
<pdfrwt beam="1">  1       -2 0.45983965E-02 0.12995951E+03</pdfrwt>
<totfact> 0.12648553E+04</totfact>
</mgrwt>
</event>
<event>
 8    1  0.7550631E-006  0.1363433E+03  0.7546771E-02  0.1236915E+00
         -2   -1    0    0    0  501 -0.00000000000E+00  0.00000000000E+00  0.12515749303E+02  0.12515749303E+02  0.00000000000E+00 0.  1.
          2   -1    0    0  501    0  0.00000000000E+00 -0.00000000000E+00 -0.11975095817E+04  0.11975095817E+04  0.00000000000E+00 0. -1.
         23    2    1    2    0    0  0.20280705723E+02 -0.50537013902E+02 -0.28375374801E+03  0.29853030220E+03  0.75092309982E+02 0.  0.
         23    2    1    2    0    0 -0.20280705723E+02  0.50537013902E+02 -0.90124008440E+03  0.91149502882E+03  0.12499680413E+03 0.  0.
          5    1    4    4  502    0 -0.15340245012E+02  0.28210311314E+02 -0.48035091963E+02  0.57970724003E+02  0.47000000000E+01 0.  1.
         -5    1    4    4    0  502 -0.49404607108E+01  0.22326702587E+02 -0.85320499244E+03  0.85352430482E+03  0.47000000000E+01 0.  1.
        -11    1    3    3    0    0  0.20709698115E+02 -0.64338368706E+02 -0.27238130404E+03  0.28064192857E+03  0.00000000000E+00 0. -1.
         11    1    3    3    0    0 -0.42899239197E+00  0.13801354804E+02 -0.11372443977E+02  0.17888373624E+02  0.00000000000E+00 0.  1.
<mgrwt>
<rscale>  0 0.12382658E+03</rscale>
<asrwt>0</asrwt>
<pdfrwt beam="2">  1        2 0.18423227E+00 0.13634331E+03</pdfrwt>
<pdfrwt beam="1">  1       -2 0.19254996E-02 0.13634331E+03</pdfrwt>
<totfact> 0.15769112E+04</totfact>
</mgrwt>
</event>
<event>
 8    1  0.7550631E-006  0.1995760E+03  0.7546771E-02  0.1154788E+00
         -2   -1    0    0    0  501 -0.00000000000E+00  0.00000000000E+00  0.24088633984E+02  0.24088633984E+02  0.00000000000E+00 0.  1.
          2   -1    0    0  501    0  0.00000000000E+00 -0.00000000000E+00 -0.22129980810E+04  0.22129980810E+04  0.00000000000E+00 0. -1.
         23    2    1    2    0    0  0.10319395079E+03 -0.11641794534E+03 -0.41290693827E+03  0.44990583357E+03  0.87869163759E+02 0.  0.
         23    2    1    2    0    0 -0.10319395079E+03  0.11641794534E+03 -0.17760025087E+04  0.17871808814E+04  0.12501384851E+03 0.  0.
          5    1    4    4  502    0 -0.47879451908E+02  0.10877704804E+03 -0.72552840523E+03  0.73521319689E+03  0.47000000000E+01 0. -1.
         -5    1    4    4    0  502 -0.55314498882E+02  0.76408972996E+01 -0.10504741035E+04  0.10519676845E+04  0.47000000000E+01 0. -1.
        -11    1    3    3    0    0 -0.10138978395E+02  0.31961543968E+01 -0.99541648095E+01  0.14563642500E+02  0.00000000000E+00 0.  1.
         11    1    3    3    0    0  0.11333292918E+03 -0.11961409973E+03 -0.40295277346E+03  0.43534219107E+03  0.00000000000E+00 0. -1.
<mgrwt>
<rscale>  0 0.19413080E+03</rscale>
<asrwt>0</asrwt>
<pdfrwt beam="2">  1        2 0.34046115E+00 0.19957603E+03</pdfrwt>
<pdfrwt beam="1">  1       -2 0.37059447E-02 0.19957603E+03</pdfrwt>
<totfact> 0.17788141E+03</totfact>
</mgrwt>
</event>
<event>
 8    1  0.7550631E-006  0.1687305E+03  0.7546771E-02  0.1185824E+00
         -2   -1    0    0    0  501 -0.00000000000E+00  0.00000000000E+00  0.16876219309E+02  0.16876219309E+02  0.00000000000E+00 0.  1.
          2   -1    0    0  501    0  0.00000000000E+00 -0.00000000000E+00 -0.15981305296E+04  0.15981305296E+04  0.00000000000E+00 0. -1.
         23    2    1    2    0    0  0.44464005466E+01  0.11326175843E+03 -0.50175991391E+03  0.52240519835E+03  0.91083388438E+02 0.  0.
         23    2    1    2    0    0 -0.44464005466E+01 -0.11326175843E+03 -0.10794943964E+04  0.10926015505E+04  0.12498799973E+03 0.  0.
          5    1    4    4  502    0  0.56234443536E+02 -0.30932047440E+02 -0.50112424853E+03  0.50523925685E+03  0.47000000000E+01 0. -1.
         -5    1    4    4    0  502 -0.60680844083E+02 -0.82329710993E+02 -0.57837014783E+03  0.58736229369E+03  0.47000000000E+01 0. -1.
        -11    1    3    3    0    0  0.44029170006E+02  0.85301779506E+02 -0.30412247642E+03  0.31891290670E+03  0.00000000000E+00 0.  1.
         11    1    3    3    0    0 -0.39582769460E+02  0.27959978927E+02 -0.19763743749E+03  0.20349229164E+03  0.00000000000E+00 0. -1.
<mgrwt>
<rscale>  0 0.16257140E+03</rscale>
<asrwt>0</asrwt>
<pdfrwt beam="2">  1        2 0.24586619E+00 0.16873054E+03</pdfrwt>
<pdfrwt beam="1">  1       -2 0.25963419E-02 0.16873054E+03</pdfrwt>
<totfact> 0.62878894E+03</totfact>
</mgrwt>
</event>
<event>
 8    1  0.7550631E-006  0.1713112E+03  0.7546771E-02  0.1182870E+00
          3   -1    0    0  501    0  0.00000000000E+00  0.00000000000E+00  0.70278158893E+03  0.70278158893E+03  0.00000000000E+00 0. -1.
         -3   -1    0    0    0  501 -0.00000000000E+00 -0.00000000000E+00 -0.44723241283E+02  0.44723241283E+02  0.00000000000E+00 0.  1.
         23    2    1    2    0    0  0.98668647051E+02 -0.63141747956E+02  0.14858623455E+03  0.21000195137E+03  0.91107454347E+02 0.  0.
         23    2    1    2    0    0 -0.98668647051E+02  0.63141747956E+02  0.50947211310E+03  0.53750287884E+03  0.12500051395E+03 0.  0.
          5    1    4    4  502    0 -0.87679079858E+01 -0.15453571392E+02  0.49685767323E+01  0.19038535499E+02  0.47000000000E+01 0.  1.
         -5    1    4    4    0  502 -0.89900739065E+02  0.78595319348E+02  0.50450353636E+03  0.51846434334E+03  0.47000000000E+01 0.  1.
        -11    1    3    3    0    0  0.49943404562E+02  0.27102362053E+01  0.13146685798E+02  0.51715804036E+02  0.00000000000E+00 0.  1.
         11    1    3    3    0    0  0.48725242488E+02 -0.65851984161E+02  0.13543954875E+03  0.15828614734E+03  0.00000000000E+00 0. -1.
<mgrwt>
<rscale>  0 0.16527176E+03</rscale>
<asrwt>0</asrwt>
<pdfrwt beam="1">  1        3 0.10812024E+00 0.17131115E+03</pdfrwt>
<pdfrwt beam="2">  1       -3 0.68804992E-02 0.17131115E+03</pdfrwt>
<totfact> 0.24802587E+02</totfact>
</mgrwt>
</event>
<event>
 8    1  0.7550631E-006  0.1266702E+03  0.7546771E-02  0.1246399E+00
          1   -1    0    0  501    0  0.00000000000E+00  0.00000000000E+00  0.42128974360E+03  0.42128974360E+03  0.00000000000E+00 0. -1.
         -1   -1    0    0    0  501 -0.00000000000E+00 -0.00000000000E+00 -0.31845826734E+02  0.31845826734E+02  0.00000000000E+00 0.  1.
         23    2    1    2    0    0 -0.20406948062E+02  0.19356314828E+01  0.10583411331E+03  0.14252351438E+03  0.93230372804E+02 0.  0.
         23    2    1    2    0    0  0.20406948062E+02 -0.19356314828E+01  0.28360980356E+03  0.31061205596E+03  0.12500055372E+03 0.  0.
          5    1    4    4  502    0  0.60672457621E+02 -0.28930737910E+02  0.22243534675E+03  0.23241709962E+03  0.47000000000E+01 0. -1.
         -5    1    4    4    0  502 -0.40265509559E+02  0.26995106428E+02  0.61174456813E+02  0.78194956343E+02  0.47000000000E+01 0. -1.
        -11    1    3    3    0    0 -0.83100851177E+01  0.40216482500E+02  0.90798989067E+02  0.99653797695E+02  0.00000000000E+00 0. -1.
         11    1    3    3    0    0 -0.12096862944E+02 -0.38280851017E+02  0.15035124239E+02  0.42869716684E+02  0.00000000000E+00 0.  1.
<mgrwt>
<rscale>  0 0.11802065E+03</rscale>
<asrwt>0</asrwt>
<pdfrwt beam="1">  1        1 0.64813803E-01 0.12667016E+03</pdfrwt>
<pdfrwt beam="2">  1       -1 0.48993583E-02 0.12667016E+03</pdfrwt>
<totfact> 0.97174948E+03</totfact>
</mgrwt>
</event>
<event>
 8    1  0.7550631E-006  0.1364510E+03  0.7546771E-02  0.1230529E+00
         -1   -1    0    0    0  501 -0.00000000000E+00  0.00000000000E+00  0.16807565682E+02  0.16807565682E+02  0.00000000000E+00 0.  1.
          1   -1    0    0  501    0  0.00000000000E+00 -0.00000000000E+00 -0.16228098004E+04  0.16228098004E+04  0.00000000000E+00 0. -1.
         23    2    1    2    0    0  0.43397499897E+02 -0.33326879259E+02 -0.19223315125E+03  0.21927871157E+03  0.90197256216E+02 0.  0.
         23    2    1    2    0    0 -0.43397499897E+02  0.33326879259E+02 -0.14137690835E+04  0.14203386546E+04  0.12499939304E+03 0.  0.
          5    1    4    4  502    0  0.30789654956E+02 -0.18802784354E+02 -0.68020005447E+03  0.68117233624E+03  0.47000000000E+01 0. -1.
         -5    1    4    4    0  502 -0.74187154853E+02  0.52129663613E+02 -0.73356902905E+03  0.73916631833E+03  0.47000000000E+01 0. -1.
        -11    1    3    3    0    0  0.57161056983E+02 -0.36829753616E+02 -0.19342217225E+03  0.20502671510E+03  0.00000000000E+00 0. -1.
         11    1    3    3    0    0 -0.13763557086E+02  0.35028743570E+01  0.11890209986E+01  0.14251996469E+02  0.00000000000E+00 0.  1.
<mgrwt>
<rscale>  0 0.12795059E+03</rscale>
<asrwt>0</asrwt>
<pdfrwt beam="2">  1        1 0.24966308E+00 0.13645099E+03</pdfrwt>
<pdfrwt beam="1">  1       -1 0.25857790E-02 0.13645099E+03</pdfrwt>
<totfact> 0.27750251E+03</totfact>
</mgrwt>
</event>
<event>
 7    1  0.7550631E-006  0.4006276E+03  0.7546771E-02  0.1043563E+00
          2   -1    0    0  501    0  0.00000000000E+00  0.00000000000E+00  0.11204840237E+04  0.11204840237E+04  0.00000000000E+00 0.  1.
         -2   -1    0    0    0  501 -0.00000000000E+00 -0.00000000000E+00 -0.35810975748E+02  0.35810975748E+02  0.00000000000E+00 0. -1.
         23    2    1    2    0    0 -0.35336905012E+02  0.82235540829E+02  0.64873596591E+03  0.66670584838E+03  0.12500781486E+03 0.  0.
          5    1    3    3  502    0  0.30373729651E+02  0.69156226954E+02  0.21794017614E+03  0.23070578136E+03  0.47000000000E+01 0.  1.
         -5    1    3    3    0  502 -0.65710634663E+02  0.13079313874E+02  0.43079578977E+03  0.43600006702E+03  0.47000000000E+01 0.  1.
        -11    1    1    2    0    0 -0.82431120553E+02 -0.21416837928E+02  0.12169135716E+03  0.14853402637E+03  0.00000000000E+00 0.  1.
         11    1    1    2    0    0  0.11776802557E+03 -0.60818702900E+02  0.31424572484E+03  0.34105512465E+03  0.00000000000E+00 0. -1.
<mgrwt>
<rscale>  0 0.40062764E+03</rscale>
<asrwt>0</asrwt>
<pdfrwt beam="1">  1        2 0.17238213E+00 0.40062764E+03</pdfrwt>
<pdfrwt beam="2">  1       -2 0.55093817E-02 0.40062764E+03</pdfrwt>
<totfact> 0.37635134E+03</totfact>
</mgrwt>
</event>
<event>
 8    1  0.7550631E-006  0.1291850E+03  0.7546771E-02  0.1242050E+00
          2   -1    0    0  501    0  0.00000000000E+00  0.00000000000E+00  0.40806981891E+03  0.40806981891E+03  0.00000000000E+00 0. -1.
         -2   -1    0    0    0  501 -0.00000000000E+00 -0.00000000000E+00 -0.32269726921E+02  0.32269726921E+02  0.00000000000E+00 0.  1.
         23    2    1    2    0    0  0.90852930643E+01 -0.31337892633E+02  0.13347045813E+03  0.16572632551E+03  0.92661997119E+02 0.  0.
         23    2    1    2    0    0 -0.90852930643E+01  0.31337892633E+02  0.24232963386E+03  0.27461322032E+03  0.12499665300E+03 0.  0.
          5    1    4    4  502    0  0.49733831331E+02  0.80108822826E+01  0.17470051882E+03  0.18187905181E+03  0.47000000000E+01 0.  1.
         -5    1    4    4    0  502 -0.58819124396E+02  0.23327010351E+02  0.67629115042E+02  0.92734168503E+02  0.47000000000E+01 0.  1.
        -11    1    3    3    0    0 -0.15870595774E+02 -0.51090403729E+02  0.11957683038E+03  0.13099894475E+03  0.00000000000E+00 0. -1.
         11    1    3    3    0    0  0.24955888839E+02  0.19752511096E+02  0.13893627752E+02  0.34727380760E+02  0.00000000000E+00 0.  1.
<mgrwt>
<rscale>  0 0.12063680E+03</rscale>
<asrwt>0</asrwt>
<pdfrwt beam="1">  1        2 0.62779968E-01 0.12918502E+03</pdfrwt>
<pdfrwt beam="2">  1       -2 0.49645737E-02 0.12918502E+03</pdfrwt>
<totfact> 0.14522357E+04</totfact>
</mgrwt>
</event>
<event>
 7    1  0.7550631E-006  0.3406464E+03  0.7546771E-02  0.1081763E+00
          1   -1    0    0  501    0  0.00000000000E+00  0.00000000000E+00  0.78113663102E+02  0.78113663102E+02  0.00000000000E+00 0. -1.
         -1   -1    0    0    0  501 -0.00000000000E+00 -0.00000000000E+00 -0.13122219660E+04  0.13122219660E+04  0.00000000000E+00 0.  1.
         23    2    1    2    0    0 -0.16155745862E+03 -0.12639072837E+03 -0.83916750171E+03  0.86878198193E+03  0.92220429068E+02 0.  0.
          5    1    1    2  502    0  0.84132301255E+02  0.20572524668E+03 -0.20960683775E+03  0.30554580290E+03  0.47000000000E+01 0. -1.
         -5    1    1    2    0  502  0.77425157364E+02 -0.79334518314E+02 -0.18533396346E+03  0.21600784431E+03  0.47000000000E+01 0.  1.
        -11    1    3    3    0    0 -0.73425371018E+02 -0.41732644812E+02 -0.18594327764E+03  0.20422487912E+03  0.00000000000E+00 0. -1.
         11    1    3    3    0    0 -0.88132087602E+02 -0.84658083555E+02 -0.65322422407E+03  0.66455710280E+03  0.00000000000E+00 0.  1.
<mgrwt>
<rscale>  0 0.30706141E+03</rscale>
<asrwt>0</asrwt>
<pdfrwt beam="1">  1        1 0.12017487E-01 0.34064640E+03</pdfrwt>
<pdfrwt beam="2">  1       -1 0.20188029E+00 0.34064640E+03</pdfrwt>
<totfact> 0.80677248E+01</totfact>
</mgrwt>
</event>
<event>
 8    1  0.7550631E-006  0.1566607E+03  0.7546771E-02  0.1200637E+00
         -1   -1    0    0    0  501 -0.00000000000E+00  0.00000000000E+00  0.21627719760E+03  0.21627719760E+03  0.00000000000E+00 0.  1.
          1   -1    0    0  501    0  0.00000000000E+00 -0.00000000000E+00 -0.10136807451E+03  0.10136807451E+03  0.00000000000E+00 0. -1.
         23    2    1    2    0    0  0.93691605231E+02 -0.11843466539E+02  0.89789260433E+02  0.15898340251E+03  0.91078133453E+02 0.  0.
         23    2    1    2    0    0 -0.93691605231E+02  0.11843466539E+02  0.25119862657E+02  0.15866186959E+03  0.12499678705E+03 0.  0.
          5    1    4    4  502    0  0.17343664922E+02 -0.26100794676E+02  0.26364166029E+02  0.41221516785E+02  0.47000000000E+01 0.  1.
         -5    1    4    4    0  502 -0.11103527015E+03  0.37944261215E+02 -0.12443033717E+01  0.11744035281E+03  0.47000000000E+01 0.  1.
        -11    1    3    3    0    0  0.16929200529E+02 -0.10485764978E+02  0.78980039405E+02  0.81451799993E+02  0.00000000000E+00 0.  1.
         11    1    3    3    0    0  0.76762404702E+02 -0.13577015610E+01  0.10809221028E+02  0.77531602515E+02  0.00000000000E+00 0. -1.
<mgrwt>
<rscale>  0 0.14986634E+03</rscale>
<asrwt>0</asrwt>
<pdfrwt beam="2">  1        1 0.15595088E-01 0.15666072E+03</pdfrwt>
<pdfrwt beam="1">  1       -1 0.33273415E-01 0.15666072E+03</pdfrwt>
<totfact> 0.29403943E+03</totfact>
</mgrwt>
</event>
<event>
 8    1  0.7550631E-006  0.2020184E+03  0.7546771E-02  0.1152004E+00
         -2   -1    0    0    0  501 -0.00000000000E+00  0.00000000000E+00  0.87607593185E+02  0.87607593185E+02  0.00000000000E+00 0.  1.
          2   -1    0    0  501    0  0.00000000000E+00 -0.00000000000E+00 -0.42663078487E+03  0.42663078487E+03  0.00000000000E+00 0. -1.
         23    2    1    2    0    0  0.25628094442E+02 -0.15660017585E+03 -0.14615226103E+03  0.23493454761E+03  0.93023351650E+02 0.  0.
         23    2    1    2    0    0 -0.25628094442E+02  0.15660017585E+03 -0.19287093066E+03  0.27930383045E+03  0.12502407572E+03 0.  0.
          5    1    4    4  502    0 -0.16178468557E+02  0.61692632483E+02 -0.16925578825E+03  0.18093461693E+03  0.47000000000E+01 0. -1.
         -5    1    4    4    0  502 -0.94496258850E+01  0.94907543372E+02 -0.23615142409E+02  0.98369213524E+02  0.47000000000E+01 0. -1.
        -11    1    3    3    0    0 -0.89455431425E+01 -0.29629732015E+02  0.82810165283E+01  0.32039335139E+02  0.00000000000E+00 0.  1.
         11    1    3    3    0    0  0.34573637585E+02 -0.12697044384E+03 -0.15443327756E+03  0.20289521247E+03  0.00000000000E+00 0. -1.
<mgrwt>
<rscale>  0 0.19733857E+03</rscale>
<asrwt>0</asrwt>
<pdfrwt beam="2">  1        2 0.65635504E-01 0.20201840E+03</pdfrwt>
<pdfrwt beam="1">  1       -2 0.13478091E-01 0.20201840E+03</pdfrwt>
<totfact> 0.29989091E+03</totfact>
</mgrwt>
</event>
<event>
 8    1  0.7550631E-006  0.1252960E+03  0.7546771E-02  0.1250011E+00
         -4   -1    0    0    0  501 -0.00000000000E+00  0.00000000000E+00  0.29540247923E+02  0.29540247923E+02  0.00000000000E+00 0.  1.
          4   -1    0    0  501    0  0.00000000000E+00 -0.00000000000E+00 -0.47890320172E+03  0.47890320172E+03  0.00000000000E+00 0. -1.
         23    2    1    2    0    0 -0.19128839175E+01 -0.82865439934E+01 -0.92750289179E+02  0.13045973858E+03  0.91349884032E+02 0.  0.
         23    2    1    2    0    0  0.19128839175E+01  0.82865439934E+01 -0.35661266461E+03  0.37798371105E+03  0.12500706909E+03 0.  0.
          5    1    4    4  502    0  0.53849657590E+02  0.29806150340E+02 -0.12254538698E+03  0.13721389904E+03  0.47000000000E+01 0.  1.
         -5    1    4    4    0  502 -0.51936773673E+02 -0.21519606347E+02 -0.23406727763E+03  0.24076981201E+03  0.47000000000E+01 0.  1.
        -11    1    3    3    0    0 -0.42966426710E+02 -0.12465076407E+02 -0.70717005809E+02  0.83680265683E+02  0.00000000000E+00 0.  1.
         11    1    3    3    0    0  0.41053542793E+02  0.41785324139E+01 -0.22033283370E+02  0.46779472902E+02  0.00000000000E+00 0. -1.
<mgrwt>
<rscale>  0 0.11590401E+03</rscale>
<asrwt>0</asrwt>
<pdfrwt beam="2">  1        4 0.73677421E-01 0.12529602E+03</pdfrwt>
<pdfrwt beam="1">  1       -4 0.45446532E-02 0.12529602E+03</pdfrwt>
<totfact> 0.77363104E+02</totfact>
</mgrwt>
</event>
<event>
 8    1  0.1092281E-004  0.5409298E+03  0.7546771E-02  0.1003963E+00
          1   -1    0    0  501    0  0.00000000000E+00  0.00000000000E+00  0.12023705674E+04  0.12023705674E+04  0.00000000000E+00 0. -1.
         -1   -1    0    0    0  501 -0.00000000000E+00 -0.00000000000E+00 -0.24285845682E+03  0.24285845682E+03  0.00000000000E+00 0.  1.
         23    2    1    2    0    0 -0.48820188099E+03  0.19656870645E+03  0.54478865751E+03  0.76361286263E+03  0.96589801059E+02 0.  0.
         23    2    1    2    0    0  0.48820188099E+03 -0.19656870645E+03  0.41472345308E+03  0.68161616159E+03  0.12499886504E+03 0.  0.
          5    1    4    4  502    0  0.28472582837E+03 -0.17787256550E+03  0.27551140193E+03  0.43432254085E+03  0.47000000000E+01 0. -1.
         -5    1    4    4    0  502  0.20347605262E+03 -0.18696140942E+02  0.13921205115E+03  0.24729362074E+03  0.47000000000E+01 0. -1.
        -11    1    3    3    0    0 -0.41118595019E+03  0.18572246127E+03  0.41907100044E+03  0.61578179712E+03  0.00000000000E+00 0.  1.
         11    1    3    3    0    0 -0.77015930791E+02  0.10846245181E+02  0.12571765707E+03  0.14783106550E+03  0.00000000000E+00 0. -1.
<mgrwt>
<rscale>  0 0.53946122E+03</rscale>
<asrwt>0</asrwt>
<pdfrwt beam="1">  1        1 0.18498008E+00 0.54092980E+03</pdfrwt>
<pdfrwt beam="2">  1       -1 0.37362840E-01 0.54092980E+03</pdfrwt>
<totfact> 0.76778754E+01</totfact>
</mgrwt>
</event>
<event>
 8    1  0.7550631E-006  0.1251166E+03  0.7546771E-02  0.1247200E+00
         -1   -1    0    0    0  501 -0.00000000000E+00  0.00000000000E+00  0.40958858009E+03  0.40958858009E+03  0.00000000000E+00 0.  1.
          1   -1    0    0  501    0  0.00000000000E+00 -0.00000000000E+00 -0.30335200464E+02  0.30335200464E+02  0.00000000000E+00 0. -1.
         23    2    1    2    0    0 -0.24792356812E+01  0.32206637610E+02  0.15406527362E+03  0.18231194709E+03  0.91968056419E+02 0.  0.
         23    2    1    2    0    0  0.24792356812E+01 -0.32206637610E+02  0.22518810601E+03  0.25761183346E+03  0.12087497482E+03 0.  0.
          5    1    4    4  502    0 -0.77754006635E+01  0.79748706313E+01 -0.11849618041E+02  0.16928049645E+02  0.47000000000E+01 0. -1.
         -5    1    4    4    0  502  0.10254636345E+02 -0.40181508241E+02  0.23703772405E+03  0.24068378382E+03  0.47000000000E+01 0.  1.
        -11    1    3    3    0    0 -0.22646664279E+02 -0.25905518333E+02  0.40378300817E+02  0.53050678223E+02  0.00000000000E+00 0.  1.
         11    1    3    3    0    0  0.20167428598E+02  0.58112155943E+02  0.11368697280E+03  0.12926126887E+03  0.00000000000E+00 0. -1.
<mgrwt>
<rscale>  0 0.11754673E+03</rscale>
<asrwt>0</asrwt>
<pdfrwt beam="2">  1        1 0.46669542E-02 0.12511664E+03</pdfrwt>
<pdfrwt beam="1">  1       -1 0.63013624E-01 0.12511664E+03</pdfrwt>
<totfact> 0.46009413E+03</totfact>
</mgrwt>
</event>
<event>
 8    1  0.7550631E-006  0.1336115E+03  0.7546771E-02  0.1233835E+00
         -1   -1    0    0    0  501 -0.00000000000E+00  0.00000000000E+00  0.92678775671E+01  0.92678775671E+01  0.00000000000E+00 0.  1.
          1   -1    0    0  501    0  0.00000000000E+00 -0.00000000000E+00 -0.19290992570E+04  0.19290992570E+04  0.00000000000E+00 0. -1.
         23    2    1    2    0    0  0.19218577005E+02  0.43088349675E+02 -0.43296908484E+03  0.44551365524E+03  0.93777550613E+02 0.  0.
         23    2    1    2    0    0 -0.19218577005E+02 -0.43088349675E+02 -0.14868622946E+04  0.14928534793E+04  0.12500427223E+03 0.  0.
          5    1    4    4  502    0  0.49511118558E+02  0.82425878762E+00 -0.43827428226E+03  0.44108782204E+03  0.47000000000E+01 0. -1.
         -5    1    4    4    0  502 -0.68729695563E+02 -0.43912608463E+02 -0.10485880124E+04  0.10517656573E+04  0.47000000000E+01 0. -1.
        -11    1    3    3    0    0  0.46214580538E+02 -0.54879258035E+01 -0.24984858515E+03  0.25414606093E+03  0.00000000000E+00 0. -1.
         11    1    3    3    0    0 -0.26996003533E+02  0.48576275479E+02 -0.18312049969E+03  0.19136759431E+03  0.00000000000E+00 0.  1.
<mgrwt>
<rscale>  0 0.12579300E+03</rscale>
<asrwt>0</asrwt>
<pdfrwt beam="2">  1        1 0.29678452E+00 0.13361148E+03</pdfrwt>
<pdfrwt beam="1">  1       -1 0.14258272E-02 0.13361148E+03</pdfrwt>
<totfact> 0.41750887E+03</totfact>
</mgrwt>
</event>
<event>
 8    1  0.7550631E-006  0.1751831E+03  0.7546771E-02  0.1178688E+00
         -2   -1    0    0    0  501 -0.00000000000E+00  0.00000000000E+00  0.31370552591E+03  0.31370552591E+03  0.00000000000E+00 0.  1.
          2   -1    0    0  501    0  0.00000000000E+00 -0.00000000000E+00 -0.97963038958E+02  0.97963038958E+02  0.00000000000E+00 0. -1.
         23    2    1    2    0    0 -0.21115337507E+01  0.12271241676E+03  0.17448089068E+03  0.23169178099E+03  0.90414071699E+02 0.  0.
         23    2    1    2    0    0  0.21115337507E+01 -0.12271241676E+03  0.41261596264E+02  0.17997678388E+03  0.12500531031E+03 0.  0.
          5    1    4    4  502    0  0.83866503414E+01 -0.14771982303E+03  0.28199120172E+02  0.15069426797E+03  0.47000000000E+01 0.  1.
         -5    1    4    4    0  502 -0.62751165907E+01  0.25007406266E+02  0.13062476092E+02  0.29282515910E+02  0.47000000000E+01 0.  1.
        -11    1    3    3    0    0 -0.69097499553E+01  0.60109310360E+02  0.15430424506E+03  0.16574279435E+03  0.00000000000E+00 0.  1.
         11    1    3    3    0    0  0.47982162045E+01  0.62603106402E+02  0.20176645628E+02  0.65948986639E+02  0.00000000000E+00 0. -1.
<mgrwt>
<rscale>  0 0.16919708E+03</rscale>
<asrwt>0</asrwt>
<pdfrwt beam="2">  1        2 0.15071237E-01 0.17518311E+03</pdfrwt>
<pdfrwt beam="1">  1       -2 0.48262388E-01 0.17518311E+03</pdfrwt>
<totfact> 0.15709674E+03</totfact>
</mgrwt>
</event>
<event>
 7    1  0.7550631E-006  0.4931053E+03  0.7546771E-02  0.1019508E+00
          2   -1    0    0  501    0  0.00000000000E+00  0.00000000000E+00  0.12714645108E+04  0.12714645108E+04  0.00000000000E+00 0. -1.
         -2   -1    0    0    0  501 -0.00000000000E+00 -0.00000000000E+00 -0.19866626478E+03  0.19866626478E+03  0.00000000000E+00 0.  1.
         23    2    1    2    0    0  0.42418451206E+03  0.56145733244E+02  0.23208512410E+03  0.49547629473E+03  0.92457612884E+02 0.  0.
          5    1    1    2  502    0 -0.41922792822E+03  0.16954159981E+02  0.70877891494E+03  0.82366810040E+03  0.47000000000E+01 0. -1.
         -5    1    1    2    0  502 -0.49565838392E+01 -0.73099893225E+02  0.13193420700E+03  0.15098638047E+03  0.47000000000E+01 0.  1.
        -11    1    3    3    0    0  0.35812561021E+03  0.18502410619E+02  0.21297948442E+03  0.41708099054E+03  0.00000000000E+00 0.  1.
         11    1    3    3    0    0  0.66058901851E+02  0.37643322624E+02  0.19105639684E+02  0.78395304194E+02  0.00000000000E+00 0. -1.
<mgrwt>
<rscale>  0 0.47864507E+03</rscale>
<asrwt>0</asrwt>
<pdfrwt beam="1">  1        2 0.19560992E+00 0.49310527E+03</pdfrwt>
<pdfrwt beam="2">  1       -2 0.30564042E-01 0.49310527E+03</pdfrwt>
<totfact> 0.17616048E+02</totfact>
</mgrwt>
</event>
<event>
 7    1  0.7550631E-006  0.1449639E+03  0.7546771E-02  0.1223389E+00
          1   -1    0    0  501    0  0.00000000000E+00  0.00000000000E+00  0.38567463490E+03  0.38567463490E+03  0.00000000000E+00 0. -1.
         -1   -1    0    0    0  501 -0.00000000000E+00 -0.00000000000E+00 -0.39578151676E+02  0.39578151676E+02  0.00000000000E+00 0.  1.
         23    2    1    2    0    0  0.30731318116E+02 -0.33384109050E+02  0.13703377433E+03  0.17084811319E+03  0.91388783910E+02 0.  0.
          5    1    1    2  502    0 -0.49687432331E+02 -0.13893372208E+02  0.15322389487E+02  0.54025293544E+02  0.47000000000E+01 0. -1.
         -5    1    1    2    0  502  0.18956114215E+02  0.47277481258E+02  0.19374031941E+03  0.20037937984E+03  0.47000000000E+01 0.  1.
        -11    1    3    3    0    0 -0.21581373645E+02 -0.18953236003E+02  0.64505510724E+01  0.29437908426E+02  0.00000000000E+00 0.  1.
         11    1    3    3    0    0  0.52312691760E+02 -0.14430873048E+02  0.13058322326E+03  0.14141020477E+03  0.00000000000E+00 0. -1.
<mgrwt>
<rscale>  0 0.13277932E+03</rscale>
<asrwt>0</asrwt>
<pdfrwt beam="1">  1        1 0.59334557E-01 0.14496386E+03</pdfrwt>
<pdfrwt beam="2">  1       -1 0.60889467E-02 0.14496386E+03</pdfrwt>
<totfact> 0.79415675E+03</totfact>
</mgrwt>
</event>
<event>
 8    1  0.7550631E-006  0.1503865E+03  0.7546771E-02  0.1209136E+00
         -1   -1    0    0    0  501 -0.00000000000E+00  0.00000000000E+00  0.46719118194E+03  0.46719118194E+03  0.00000000000E+00 0.  1.
          1   -1    0    0  501    0  0.00000000000E+00 -0.00000000000E+00 -0.40606359290E+02  0.40606359290E+02  0.00000000000E+00 0. -1.
         23    2    1    2    0    0 -0.16906026996E+01  0.83585339768E+02  0.21959075149E+03  0.25194086514E+03  0.90910583676E+02 0.  0.
         23    2    1    2    0    0  0.16906026996E+01 -0.83585339768E+02  0.20699407116E+03  0.25585667609E+03  0.12500690399E+03 0.  0.
          5    1    4    4  502    0 -0.33392392408E+02 -0.44398284509E+02  0.19347401603E+03  0.20134682619E+03  0.47000000000E+01 0.  1.
         -5    1    4    4    0  502  0.35082995108E+02 -0.39187055259E+02  0.13520055128E+02  0.54509849902E+02  0.47000000000E+01 0.  1.
        -11    1    3    3    0    0 -0.24574675608E+02  0.87486003409E+02  0.12498239375E+03  0.15452609560E+03  0.00000000000E+00 0.  1.
         11    1    3    3    0    0  0.22884072908E+02 -0.39006636410E+01  0.94608357742E+02  0.97414769539E+02  0.00000000000E+00 0. -1.
<mgrwt>
<rscale>  0 0.14316271E+03</rscale>
<asrwt>0</asrwt>
<pdfrwt beam="2">  1        1 0.62471325E-02 0.15038648E+03</pdfrwt>
<pdfrwt beam="1">  1       -1 0.71875562E-01 0.15038648E+03</pdfrwt>
<totfact> 0.24164532E+03</totfact>
</mgrwt>
</event>
<event>
 7    1  0.7550631E-006  0.1575639E+03  0.7546771E-02  0.1206975E+00
          2   -1    0    0  501    0  0.00000000000E+00  0.00000000000E+00  0.63772938550E+02  0.63772938550E+02  0.00000000000E+00 0. -1.
         -2   -1    0    0    0  501 -0.00000000000E+00 -0.00000000000E+00 -0.28599348091E+03  0.28599348091E+03  0.00000000000E+00 0.  1.
         23    2    1    2    0    0  0.34041017890E+02 -0.56963078775E+02 -0.96323178823E+02  0.14808222785E+03  0.90810837364E+02 0.  0.
          5    1    1    2  502    0  0.48875238711E+02  0.34587309235E+02 -0.90628782348E+02  0.10872321329E+03  0.47000000000E+01 0. -1.
         -5    1    1    2    0  502 -0.82916256601E+02  0.22375769540E+02 -0.35268581193E+02  0.92960978322E+02  0.47000000000E+01 0.  1.
        -11    1    3    3    0    0 -0.27656463481E+02 -0.38620728522E+02 -0.33397923276E+02  0.58067735646E+02  0.00000000000E+00 0.  1.
         11    1    3    3    0    0  0.61697481371E+02 -0.18342350253E+02 -0.62925255547E+02  0.90014492200E+02  0.00000000000E+00 0. -1.
<mgrwt>
<rscale>  0 0.14482868E+03</rscale>
<asrwt>0</asrwt>
<pdfrwt beam="1">  1        2 0.98112214E-02 0.15756385E+03</pdfrwt>
<pdfrwt beam="2">  1       -2 0.43998997E-01 0.15756385E+03</pdfrwt>
<totfact> 0.31437020E+03</totfact>
</mgrwt>
</event>
<event>
 8    1  0.7550631E-006  0.1401219E+03  0.7546771E-02  0.1223923E+00
          1   -1    0    0  501    0  0.00000000000E+00  0.00000000000E+00  0.31002023407E+03  0.31002023407E+03  0.00000000000E+00 0. -1.
         -1   -1    0    0    0  501 -0.00000000000E+00 -0.00000000000E+00 -0.67185937340E+02  0.67185937340E+02  0.00000000000E+00 0.  1.
         23    2    1    2    0    0  0.62259026065E+02  0.11494579332E+02  0.19299377895E+02  0.11338426708E+03  0.92060927393E+02 0.  0.
         23    2    1    2    0    0 -0.62259026065E+02 -0.11494579332E+02  0.22353491883E+03  0.26382190433E+03  0.12500330231E+03 0.  0.
          5    1    4    4  502    0 -0.67663483598E+02  0.36693353680E+02  0.18893834850E+03  0.20406993593E+03  0.47000000000E+01 0. -1.
         -5    1    4    4    0  502  0.54044575331E+01 -0.48187933012E+02  0.34596570335E+02  0.59751968404E+02  0.47000000000E+01 0. -1.
        -11    1    3    3    0    0 -0.12311023023E+01 -0.31532855811E+02 -0.69630524643E+01  0.32315951295E+02  0.00000000000E+00 0.  1.
         11    1    3    3    0    0  0.63490128367E+02  0.43027435143E+02  0.26262430360E+02  0.81068315780E+02  0.00000000000E+00 0. -1.
<mgrwt>
<rscale>  0 0.13241025E+03</rscale>
<asrwt>0</asrwt>
<pdfrwt beam="1">  1        1 0.47695420E-01 0.14012187E+03</pdfrwt>
<pdfrwt beam="2">  1       -1 0.10336298E-01 0.14012187E+03</pdfrwt>
<totfact> 0.46807401E+03</totfact>
</mgrwt>
</event>
<event>
 8    1  0.7550631E-006  0.2066215E+03  0.7546771E-02  0.1148270E+00
         -1   -1    0    0    0  501 -0.00000000000E+00  0.00000000000E+00  0.34305450335E+02  0.34305450335E+02  0.00000000000E+00 0.  1.
          1   -1    0    0  501    0  0.00000000000E+00 -0.00000000000E+00 -0.14403416431E+04  0.14403416431E+04  0.00000000000E+00 0. -1.
         23    2    1    2    0    0  0.11819989300E+03  0.11444406154E+03 -0.33678803027E+03  0.38561812944E+03  0.90589770357E+02 0.  0.
         23    2    1    2    0    0 -0.11819989300E+03 -0.11444406154E+03 -0.10692481625E+04  0.10890289640E+04  0.12499517389E+03 0.  0.
          5    1    4    4  502    0 -0.13166347355E+03 -0.56508567609E+02 -0.83994813396E+03  0.85209356659E+03  0.47000000000E+01 0. -1.
         -5    1    4    4    0  502  0.13463580548E+02 -0.57935493927E+02 -0.22930002858E+03  0.23693539744E+03  0.47000000000E+01 0. -1.
        -11    1    3    3    0    0 -0.11273374148E+02 -0.27681171619E+01 -0.11116916956E+02  0.16072874040E+02  0.00000000000E+00 0.  1.
         11    1    3    3    0    0  0.12947326715E+03  0.11721217870E+03 -0.32567111332E+03  0.36954525540E+03  0.00000000000E+00 0. -1.
<mgrwt>
<rscale>  0 0.20175081E+03</rscale>
<asrwt>0</asrwt>
<pdfrwt beam="2">  1        1 0.22159099E+00 0.20662152E+03</pdfrwt>
<pdfrwt beam="1">  1       -1 0.52777625E-02 0.20662152E+03</pdfrwt>
<totfact> 0.12761748E+03</totfact>
</mgrwt>
</event>
<event>
 7    1  0.7550631E-006  0.2139814E+03  0.7546771E-02  0.1162517E+00
         -2   -1    0    0    0  501 -0.00000000000E+00  0.00000000000E+00  0.25934285488E+02  0.25934285488E+02  0.00000000000E+00 0.  1.
          2   -1    0    0  501    0  0.00000000000E+00 -0.00000000000E+00 -0.24172538833E+04  0.24172538833E+04  0.00000000000E+00 0. -1.
         23    2    1    2    0    0  0.83584020027E+01  0.78375509833E+02 -0.15502844505E+03  0.19668284712E+03  0.91857172569E+02 0.  0.
          5    1    1    2  502    0 -0.51038586102E+02 -0.13124745359E+03 -0.17159936841E+04  0.17217686387E+04  0.47000000000E+01 0. -1.
         -5    1    1    2    0  502  0.42680184099E+02  0.52871943753E+02 -0.52029746863E+03  0.52473668293E+03  0.47000000000E+01 0.  1.
        -11    1    3    3    0    0 -0.21434303733E+02  0.23341912365E+02 -0.12174525617E+03  0.12580215280E+03  0.00000000000E+00 0. -1.
         11    1    3    3    0    0  0.29792705735E+02  0.55033597467E+02 -0.33283188873E+02  0.70880694316E+02  0.00000000000E+00 0.  1.
<mgrwt>
<rscale>  0 0.18557220E+03</rscale>
<asrwt>0</asrwt>
<pdfrwt beam="2">  1        2 0.37188515E+00 0.21398140E+03</pdfrwt>
<pdfrwt beam="1">  1       -2 0.39898907E-02 0.21398140E+03</pdfrwt>
<totfact> 0.12376050E+03</totfact>
</mgrwt>
</event>
<event>
 8    1  0.7550631E-006  0.1465207E+03  0.7546771E-02  0.1214470E+00
         -1   -1    0    0    0  501 -0.00000000000E+00  0.00000000000E+00  0.57311295387E+02  0.57311295387E+02  0.00000000000E+00 0.  1.
          1   -1    0    0  501    0  0.00000000000E+00 -0.00000000000E+00 -0.31784123311E+03  0.31784123311E+03  0.00000000000E+00 0. -1.
         23    2    1    2    0    0  0.50492373722E+02  0.57363692441E+02 -0.15010048082E+03  0.19167780878E+03  0.91488551318E+02 0.  0.
         23    2    1    2    0    0 -0.50492373722E+02 -0.57363692441E+02 -0.11042945691E+03  0.18347471972E+03  0.12501293857E+03 0.  0.
          5    1    4    4  502    0 -0.27569756591E+01  0.54908840744E+01  0.25266546384E+02  0.26424214064E+02  0.47000000000E+01 0. -1.
         -5    1    4    4    0  502 -0.47735398063E+02 -0.62854576515E+02 -0.13569600329E+03  0.15705050566E+03  0.47000000000E+01 0. -1.
        -11    1    3    3    0    0 -0.13232173147E+02 -0.16772689965E+02 -0.29727802886E+02  0.36608138430E+02  0.00000000000E+00 0.  1.
         11    1    3    3    0    0  0.63724546869E+02  0.74136382406E+02 -0.12037267793E+03  0.15506967035E+03  0.00000000000E+00 0. -1.
<mgrwt>
<rscale>  0 0.13915516E+03</rscale>
<asrwt>0</asrwt>
<pdfrwt beam="2">  1        1 0.48898650E-01 0.14652067E+03</pdfrwt>
<pdfrwt beam="1">  1       -1 0.88171226E-02 0.14652067E+03</pdfrwt>
<totfact> 0.57972195E+03</totfact>
</mgrwt>
</event>
<event>
 8    1  0.7550631E-006  0.1333463E+03  0.7546771E-02  0.1250338E+00
         -2   -1    0    0    0  501 -0.00000000000E+00  0.00000000000E+00  0.27059212125E+02  0.27059212125E+02  0.00000000000E+00 0.  1.
          2   -1    0    0  501    0  0.00000000000E+00 -0.00000000000E+00 -0.42503854814E+03  0.42503854814E+03  0.00000000000E+00 0. -1.
         23    2    1    2    0    0  0.26083380256E+02 -0.38389372009E+02 -0.19590156523E+03  0.20998898117E+03  0.59698093302E+02 0.  0.
         23    2    1    2    0    0 -0.26083380256E+02  0.38389372009E+02 -0.20207777079E+03  0.24210877910E+03  0.12500859515E+03 0.  0.
          5    1    4    4  502    0 -0.34900237668E+02 -0.27375768974E+02 -0.15320294591E+03  0.15956406849E+03  0.47000000000E+01 0.  1.
         -5    1    4    4    0  502  0.88168574115E+01  0.65765140983E+02 -0.48874824876E+02  0.82544710611E+02  0.47000000000E+01 0.  1.
        -11    1    3    3    0    0 -0.11121792276E+02  0.82742857727E+01 -0.59660828913E+02  0.61250082246E+02  0.00000000000E+00 0.  1.
         11    1    3    3    0    0  0.37205172532E+02 -0.46663657782E+02 -0.13624073632E+03  0.14873889892E+03  0.00000000000E+00 0. -1.
<mgrwt>
<rscale>  0 0.11571529E+03</rscale>
<asrwt>0</asrwt>
<pdfrwt beam="2">  1        2 0.65390543E-01 0.13334630E+03</pdfrwt>
<pdfrwt beam="1">  1       -2 0.41629559E-02 0.13334630E+03</pdfrwt>
<totfact> 0.18133118E+04</totfact>
</mgrwt>
</event>
<event>
 7    1  0.7550631E-006  0.3503378E+03  0.7546771E-02  0.1087698E+00
          1   -1    0    0  501    0  0.00000000000E+00  0.00000000000E+00  0.88942195660E+03  0.88942195660E+03  0.00000000000E+00 0. -1.
         -1   -1    0    0    0  501 -0.00000000000E+00 -0.00000000000E+00 -0.82843093638E+02  0.82843093638E+02  0.00000000000E+00 0.  1.
         23    2    1    2    0    0  0.86375107107E+01  0.15002501459E+03  0.16662369012E+03  0.24269038400E+03  0.92482737740E+02 0.  0.
          5    1    1    2  502    0  0.10991257438E+03 -0.20853034581E+02  0.47768451035E+03  0.49063245356E+03  0.47000000000E+01 0. -1.
         -5    1    1    2    0  502 -0.11855008509E+03 -0.12917198001E+03  0.16227066249E+03  0.23894221268E+03  0.47000000000E+01 0.  1.
        -11    1    3    3    0    0  0.41003442169E+02  0.78827023490E+02  0.12705326875E+03  0.15504036572E+03  0.00000000000E+00 0.  1.
         11    1    3    3    0    0 -0.32365931458E+02  0.71197991105E+02  0.39570421364E+02  0.87650018274E+02  0.00000000000E+00 0. -1.
<mgrwt>
<rscale>  0 0.29513563E+03</rscale>
<asrwt>0</asrwt>
<pdfrwt beam="1">  1        1 0.13683414E+00 0.35033779E+03</pdfrwt>
<pdfrwt beam="2">  1       -1 0.12745092E-01 0.35033779E+03</pdfrwt>
<totfact> 0.81044318E+02</totfact>
</mgrwt>
</event>
<event>
 8    1  0.7550631E-006  0.1760930E+03  0.7546771E-02  0.1177740E+00
          1   -1    0    0  501    0  0.00000000000E+00  0.00000000000E+00  0.85374871462E+03  0.85374871462E+03  0.00000000000E+00 0. -1.
         -1   -1    0    0    0  501 -0.00000000000E+00 -0.00000000000E+00 -0.32503773737E+02  0.32503773737E+02  0.00000000000E+00 0.  1.
         23    2    1    2    0    0 -0.65057564646E+01  0.12388263350E+03  0.31680413291E+03  0.35195922848E+03  0.90117745939E+02 0.  0.
         23    2    1    2    0    0  0.65057564646E+01 -0.12388263350E+03  0.50444080797E+03  0.53429325987E+03  0.12497810628E+03 0.  0.
          5    1    4    4  502    0  0.16291559137E+02 -0.12755399950E+03  0.50655248470E+03  0.52264036148E+03  0.47000000000E+01 0. -1.
         -5    1    4    4    0  502 -0.97858026727E+01  0.36713660037E+01 -0.21116767358E+01  0.11652898391E+02  0.47000000000E+01 0. -1.
        -11    1    3    3    0    0  0.33003575744E+02  0.25380391698E+02  0.51563669437E+02  0.66273767815E+02  0.00000000000E+00 0.  1.
         11    1    3    3    0    0 -0.39509332209E+02  0.98502241803E+02  0.26524046348E+03  0.28568546067E+03  0.00000000000E+00 0. -1.
<mgrwt>
<rscale>  0 0.17010389E+03</rscale>
<asrwt>0</asrwt>
<pdfrwt beam="1">  1        1 0.13134594E+00 0.17609304E+03</pdfrwt>
<pdfrwt beam="2">  1       -1 0.50005812E-02 0.17609304E+03</pdfrwt>
<totfact> 0.36120580E+03</totfact>
</mgrwt>
</event>
<event>
 8    1  0.7550631E-006  0.1458081E+03  0.7546771E-02  0.1214707E+00
         -2   -1    0    0    0  501 -0.00000000000E+00  0.00000000000E+00  0.99479863238E+02  0.99479863238E+02  0.00000000000E+00 0.  1.
          2   -1    0    0  501    0  0.00000000000E+00 -0.00000000000E+00 -0.18133412609E+03  0.18133412609E+03  0.00000000000E+00 0. -1.
         23    2    1    2    0    0 -0.40886855959E+02 -0.62957251503E+02 -0.18233042928E+02  0.12173019540E+03  0.94076809629E+02 0.  0.
         23    2    1    2    0    0  0.40886855959E+02  0.62957251503E+02 -0.63621219925E+02  0.15908379393E+03  0.12499857343E+03 0.  0.
          5    1    4    4  502    0  0.42586215131E+02  0.78704815196E+02 -0.90611366069E+02  0.12743839027E+03  0.47000000000E+01 0.  1.
         -5    1    4    4    0  502 -0.16993591712E+01 -0.15747563694E+02  0.26990146145E+02  0.31645403660E+02  0.47000000000E+01 0.  1.
        -11    1    3    3    0    0 -0.24594295238E+02 -0.47107527464E+02  0.35146635232E+02  0.63712514235E+02  0.00000000000E+00 0.  1.
         11    1    3    3    0    0 -0.16292560721E+02 -0.15849724038E+02 -0.53379678160E+02  0.58017681162E+02  0.00000000000E+00 0. -1.
<mgrwt>
<rscale>  0 0.13898053E+03</rscale>
<asrwt>0</asrwt>
<pdfrwt beam="2">  1        2 0.27897558E-01 0.14580807E+03</pdfrwt>
<pdfrwt beam="1">  1       -2 0.15304594E-01 0.14580807E+03</pdfrwt>
<totfact> 0.60209818E+03</totfact>
</mgrwt>
</event>
<event>
 8    1  0.7550631E-006  0.1255098E+03  0.7546771E-02  0.1250847E+00
          2   -1    0    0  501    0  0.00000000000E+00  0.00000000000E+00  0.42734856511E+03  0.42734856511E+03  0.00000000000E+00 0.  1.
         -2   -1    0    0    0  501 -0.00000000000E+00 -0.00000000000E+00 -0.38892268238E+02  0.38892268238E+02  0.00000000000E+00 0. -1.
         23    2    1    2    0    0  0.10927234337E+02 -0.29547597088E+01  0.44684399419E+02  0.10027386117E+03  0.89050640804E+02 0.  0.
         23    2    1    2    0    0 -0.10927234337E+02  0.29547597088E+01  0.34377189745E+03  0.36596697217E+03  0.12499828875E+03 0.  0.
          5    1    4    4  502    0  0.28227190503E+02  0.24275636118E+02  0.27474180109E+02  0.46508078495E+02  0.47000000000E+01 0. -1.
         -5    1    4    4    0  502 -0.39154424840E+02 -0.21320876409E+02  0.31629771734E+03  0.31945889368E+03  0.47000000000E+01 0. -1.
        -11    1    3    3    0    0  0.18000903826E+02 -0.31719127557E+02 -0.10231055098E+02  0.37878886994E+02  0.00000000000E+00 0. -1.
         11    1    3    3    0    0 -0.70736694888E+01  0.28764367848E+02  0.54915454517E+02  0.62394974177E+02  0.00000000000E+00 0.  1.
<mgrwt>
<rscale>  0 0.11542174E+03</rscale>
<asrwt>0</asrwt>
<pdfrwt beam="1">  1        2 0.65745930E-01 0.12550979E+03</pdfrwt>
<pdfrwt beam="2">  1       -2 0.59834262E-02 0.12550979E+03</pdfrwt>
<totfact> 0.10411619E+04</totfact>
</mgrwt>
</event>
<event>
 8    1  0.7550631E-006  0.1373460E+03  0.7546771E-02  0.1228539E+00
          1   -1    0    0  501    0  0.00000000000E+00  0.00000000000E+00  0.95353411040E+02  0.95353411040E+02  0.00000000000E+00 0. -1.
         -1   -1    0    0    0  501 -0.00000000000E+00 -0.00000000000E+00 -0.15758762270E+03  0.15758762270E+03  0.00000000000E+00 0.  1.
         23    2    1    2    0    0  0.55095790720E+02 -0.14417811026E+02 -0.25392102347E+02  0.11073956687E+03  0.91515427006E+02 0.  0.
         23    2    1    2    0    0 -0.55095790720E+02  0.14417811026E+02 -0.36842109309E+02  0.14220146686E+03  0.12498198562E+03 0.  0.
          5    1    4    4  502    0 -0.98412785812E+01 -0.53485465616E+02 -0.23297808130E+02  0.59350009772E+02  0.47000000000E+01 0.  1.
         -5    1    4    4    0  502 -0.45254512139E+02  0.67903276642E+02 -0.13544301179E+02  0.82851457090E+02  0.47000000000E+01 0.  1.
        -11    1    3    3    0    0  0.29193215792E+01 -0.45815048541E+02 -0.35459409537E+01  0.46044704457E+02  0.00000000000E+00 0. -1.
         11    1    3    3    0    0  0.52176469141E+02  0.31397237516E+02 -0.21846161393E+02  0.64694862417E+02  0.00000000000E+00 0.  1.
<mgrwt>
<rscale>  0 0.12927236E+03</rscale>
<asrwt>0</asrwt>
<pdfrwt beam="1">  1        1 0.14669756E-01 0.13734597E+03</pdfrwt>
<pdfrwt beam="2">  1       -1 0.24244249E-01 0.13734597E+03</pdfrwt>
<totfact> 0.53643174E+03</totfact>
</mgrwt>
</event>
<event>
 8    1  0.7550631E-006  0.1312581E+03  0.7546771E-02  0.1234837E+00
          2   -1    0    0  501    0  0.00000000000E+00  0.00000000000E+00  0.29771787073E+03  0.29771787073E+03  0.00000000000E+00 0. -1.
         -2   -1    0    0    0  501 -0.00000000000E+00 -0.00000000000E+00 -0.48428094528E+02  0.48428094528E+02  0.00000000000E+00 0.  1.
         23    2    1    2    0    0 -0.34641664938E+02 -0.20093634940E+02  0.10268448632E+03  0.14936741048E+03  0.10081031925E+03 0.  0.
         23    2    1    2    0    0  0.34641664938E+02  0.20093634940E+02  0.14660528988E+03  0.19677855478E+03  0.12499955794E+03 0.  0.
          5    1    4    4  502    0 -0.16489781518E+01  0.56299206349E+02  0.19740104738E+02  0.59867198862E+02  0.47000000000E+01 0.  1.
         -5    1    4    4    0  502  0.36290643090E+02 -0.36205571409E+02  0.12686518515E+03  0.13691135592E+03  0.47000000000E+01 0.  1.
        -11    1    3    3    0    0 -0.54131632673E+02 -0.47140942600E+02  0.51741414508E+02  0.88485456999E+02  0.00000000000E+00 0.  1.
         11    1    3    3    0    0  0.19489967736E+02  0.27047307660E+02  0.50943071811E+02  0.60881953480E+02  0.00000000000E+00 0. -1.
<mgrwt>
<rscale>  0 0.12514848E+03</rscale>
<asrwt>0</asrwt>
<pdfrwt beam="1">  1        2 0.45802748E-01 0.13125810E+03</pdfrwt>
<pdfrwt beam="2">  1       -2 0.74504763E-02 0.13125810E+03</pdfrwt>
<totfact> 0.10980097E+04</totfact>
</mgrwt>
</event>
<event>
 8    1  0.7550631E-006  0.1257908E+03  0.7546771E-02  0.1248675E+00
         -1   -1    0    0    0  501 -0.00000000000E+00  0.00000000000E+00  0.27016916740E+02  0.27016916740E+02  0.00000000000E+00 0.  1.
          1   -1    0    0  501    0  0.00000000000E+00 -0.00000000000E+00 -0.50486670834E+03  0.50486670834E+03  0.00000000000E+00 0. -1.
         23    2    1    2    0    0 -0.70058978984E+01  0.12197985823E+02 -0.11576240141E+03  0.14856835888E+03  0.92052975049E+02 0.  0.
         23    2    1    2    0    0  0.70058978984E+01 -0.12197985823E+02 -0.36208739019E+03  0.38331526620E+03  0.12500176681E+03 0.  0.
          5    1    4    4  502    0  0.63590438723E+02 -0.12944428475E+02 -0.24008808510E+03  0.24874822759E+03  0.47000000000E+01 0. -1.
         -5    1    4    4    0  502 -0.56584540825E+02  0.74644265225E+00 -0.12199930510E+03  0.13456703861E+03  0.47000000000E+01 0. -1.
        -11    1    3    3    0    0  0.27459511849E+02 -0.26844676932E+02 -0.66997915925E+02  0.77222938359E+02  0.00000000000E+00 0. -1.
         11    1    3    3    0    0 -0.34465409747E+02  0.39042662755E+02 -0.48764485486E+02  0.71345420517E+02  0.00000000000E+00 0.  1.
<mgrwt>
<rscale>  0 0.11668072E+03</rscale>
<asrwt>0</asrwt>
<pdfrwt beam="2">  1        1 0.77671800E-01 0.12579076E+03</pdfrwt>
<pdfrwt beam="1">  1       -1 0.41564488E-02 0.12579076E+03</pdfrwt>
<totfact> 0.98082780E+03</totfact>
</mgrwt>
</event>
<event>
 8    1  0.7550631E-006  0.1492548E+03  0.7546771E-02  0.1210441E+00
          2   -1    0    0  501    0  0.00000000000E+00  0.00000000000E+00  0.19144959700E+03  0.19144959700E+03  0.00000000000E+00 0. -1.
         -2   -1    0    0    0  501 -0.00000000000E+00 -0.00000000000E+00 -0.14722086018E+03  0.14722086018E+03  0.00000000000E+00 0.  1.
         23    2    1    2    0    0  0.80583527104E+02  0.12588675939E+02 -0.78190148459E+02  0.14563321975E+03  0.91886646341E+02 0.  0.
         23    2    1    2    0    0 -0.80583527104E+02 -0.12588675939E+02  0.12241888529E+03  0.19303723743E+03  0.12499924783E+03 0.  0.
          5    1    4    4  502    0 -0.59439942493E+02 -0.53528316478E+02  0.23007136857E+02  0.83365495110E+02  0.47000000000E+01 0.  1.
         -5    1    4    4    0  502 -0.21143584611E+02  0.40939640539E+02  0.99411748428E+02  0.10967174232E+03  0.47000000000E+01 0.  1.
        -11    1    3    3    0    0  0.68835321731E+02  0.43339571310E+02 -0.78024735146E+02  0.11271414842E+03  0.00000000000E+00 0.  1.
         11    1    3    3    0    0  0.11748205373E+02 -0.30750895371E+02 -0.16541331302E+00  0.32919071329E+02  0.00000000000E+00 0. -1.
<mgrwt>
<rscale>  0 0.14216790E+03</rscale>
<asrwt>0</asrwt>
<pdfrwt beam="1">  1        2 0.29453784E-01 0.14925479E+03</pdfrwt>
<pdfrwt beam="2">  1       -2 0.22649363E-01 0.14925479E+03</pdfrwt>
<totfact> 0.29407510E+03</totfact>
</mgrwt>
</event>
<event>
 8    1  0.7550631E-006  0.2633643E+03  0.7546771E-02  0.1107310E+00
         -1   -1    0    0    0  501 -0.00000000000E+00  0.00000000000E+00  0.45236251079E+03  0.45236251079E+03  0.00000000000E+00 0.  1.
          1   -1    0    0  501    0  0.00000000000E+00 -0.00000000000E+00 -0.14657115412E+03  0.14657115412E+03  0.00000000000E+00 0. -1.
         23    2    1    2    0    0  0.19947328276E+03  0.11809419133E+03  0.17829733971E+03  0.30633241828E+03  0.91179935201E+02 0.  0.
         23    2    1    2    0    0 -0.19947328276E+03 -0.11809419133E+03  0.12749401697E+03  0.29260124663E+03  0.12499974642E+03 0.  0.
          5    1    4    4  502    0 -0.14362330694E+03 -0.13624473875E+03  0.69312726986E+02  0.20980139956E+03  0.47000000000E+01 0.  1.
         -5    1    4    4    0  502 -0.55849975814E+02  0.18150547425E+02  0.58181289984E+02  0.82799847068E+02  0.47000000000E+01 0.  1.
        -11    1    3    3    0    0  0.44414977808E+02  0.41865126864E+01  0.88533053641E+00  0.44620633706E+02  0.00000000000E+00 0. -1.
         11    1    3    3    0    0  0.15505830495E+03  0.11390767864E+03  0.17741200917E+03  0.26171178457E+03  0.00000000000E+00 0.  1.
<mgrwt>
<rscale>  0 0.25972280E+03</rscale>
<asrwt>0</asrwt>
<pdfrwt beam="2">  1        1 0.22549409E-01 0.26336432E+03</pdfrwt>
<pdfrwt beam="1">  1       -1 0.69594232E-01 0.26336432E+03</pdfrwt>
<totfact> 0.47562712E+02</totfact>
</mgrwt>
</event>
<event>
 8    1  0.7550631E-006  0.1310832E+03  0.7546771E-02  0.1239014E+00
         -1   -1    0    0    0  501 -0.00000000000E+00  0.00000000000E+00  0.30986441341E+02  0.30986441341E+02  0.00000000000E+00 0.  1.
          1   -1    0    0  501    0  0.00000000000E+00 -0.00000000000E+00 -0.43501238231E+03  0.43501238231E+03  0.00000000000E+00 0. -1.
         23    2    1    2    0    0  0.30742694600E+02  0.24750472404E+02 -0.15254469462E+03  0.18240469683E+03  0.91890643768E+02 0.  0.
         23    2    1    2    0    0 -0.30742694600E+02 -0.24750472404E+02 -0.25148124635E+03  0.28359412683E+03  0.12500044939E+03 0.  0.
          5    1    4    4  502    0 -0.70063322540E+02 -0.36962990068E+02 -0.21196561115E+03  0.22633303362E+03  0.47000000000E+01 0. -1.
         -5    1    4    4    0  502  0.39320627940E+02  0.12212517664E+02 -0.39515635206E+02  0.57261093205E+02  0.47000000000E+01 0. -1.
        -11    1    3    3    0    0 -0.20650850879E+01  0.47883027283E+02 -0.12458059051E+03  0.13348173063E+03  0.00000000000E+00 0. -1.
         11    1    3    3    0    0  0.32807779687E+02 -0.23132554879E+02 -0.27964104105E+02  0.48922966198E+02  0.00000000000E+00 0.  1.
<mgrwt>
<rscale>  0 0.12250927E+03</rscale>
<asrwt>0</asrwt>
<pdfrwt beam="2">  1        1 0.66924973E-01 0.13108322E+03</pdfrwt>
<pdfrwt beam="1">  1       -1 0.47671455E-02 0.13108322E+03</pdfrwt>
<totfact> 0.97390446E+03</totfact>
</mgrwt>
</event>
<event>
 7    1  0.7550631E-006  0.5002483E+03  0.7546771E-02  0.1055161E+00
         -3   -1    0    0    0  501 -0.00000000000E+00  0.00000000000E+00  0.10490381689E+03  0.10490381689E+03  0.00000000000E+00 0.  1.
          3   -1    0    0  501    0  0.00000000000E+00 -0.00000000000E+00 -0.10136335657E+04  0.10136335657E+04  0.00000000000E+00 0. -1.
         23    2    1    2    0    0  0.30844319351E+02  0.11347640086E+03 -0.26359006876E+03  0.30217128616E+03  0.89439902966E+02 0.  0.
          5    1    1    2  502    0 -0.21146770266E+03  0.10403984398E+02 -0.11112215392E+03  0.23915905848E+03  0.47000000000E+01 0. -1.
         -5    1    1    2    0  502  0.18062338331E+03 -0.12388038526E+03 -0.53401752612E+03  0.57720703794E+03  0.47000000000E+01 0.  1.
        -11    1    3    3    0    0  0.37423970284E+02  0.40710895470E+02 -0.43762543462E+02  0.70520144441E+02  0.00000000000E+00 0.  1.
         11    1    3    3    0    0 -0.65796509326E+01  0.72765505388E+02 -0.21982752530E+03  0.23165114172E+03  0.00000000000E+00 0. -1.
<mgrwt>
<rscale>  0 0.36877833E+03</rscale>
<asrwt>0</asrwt>
<pdfrwt beam="2">  1        3 0.15594363E+00 0.50024833E+03</pdfrwt>
<pdfrwt beam="1">  1       -3 0.16139048E-01 0.50024833E+03</pdfrwt>
<totfact> 0.25874644E+01</totfact>
</mgrwt>
</event>
<event>
 7    1  0.7550631E-006  0.1181694E+03  0.7546771E-02  0.1329546E+00
         -2   -1    0    0    0  501 -0.00000000000E+00  0.00000000000E+00  0.57444864893E+01  0.57444864893E+01  0.00000000000E+00 0.  1.
          2   -1    0    0  501    0  0.00000000000E+00 -0.00000000000E+00 -0.88887867204E+03  0.88887867204E+03  0.00000000000E+00 0. -1.
         23    2    1    2    0    0  0.27720984312E-01  0.20176406338E+02 -0.74523232095E+03  0.75454305209E+03  0.11643417508E+03 0.  0.
          5    1    3    3  502    0  0.14154393118E+02  0.38671497939E+02 -0.71453074194E+03  0.71573186514E+03  0.47000000000E+01 0. -1.
         -5    1    3    3    0  502 -0.14126672134E+02 -0.18495091601E+02 -0.30701579016E+02  0.38811186957E+02  0.47000000000E+01 0.  1.
        -11    1    1    2    0    0  0.69724749419E+01 -0.98534000458E+01 -0.62793515918E+02  0.63943182128E+02  0.00000000000E+00 0. -1.
         11    1    1    2    0    0 -0.70001959262E+01 -0.10323006292E+02 -0.75108348680E+02  0.76136924310E+02  0.00000000000E+00 0.  1.
<mgrwt>
<rscale>  0 0.79825949E+02</rscale>
<asrwt>0</asrwt>
<pdfrwt beam="2">  1        2 0.13675057E+00 0.11816939E+03</pdfrwt>
<pdfrwt beam="1">  1       -2 0.88376711E-03 0.11816939E+03</pdfrwt>
<totfact> 0.72278075E+04</totfact>
</mgrwt>
</event>
<event>
 8    1  0.7550631E-006  0.1830023E+03  0.7546771E-02  0.1170198E+00
         -1   -1    0    0    0  501 -0.00000000000E+00  0.00000000000E+00  0.24997084879E+02  0.24997084879E+02  0.00000000000E+00 0.  1.
          1   -1    0    0  501    0  0.00000000000E+00 -0.00000000000E+00 -0.11975987599E+04  0.11975987599E+04  0.00000000000E+00 0. -1.
         23    2    1    2    0    0  0.11126480559E+03  0.74059737231E+02 -0.50703424736E+03  0.53232788707E+03  0.91785345861E+02 0.  0.
         23    2    1    2    0    0 -0.11126480559E+03 -0.74059737231E+02 -0.66556742768E+03  0.69026795773E+03  0.12500060413E+03 0.  0.
          5    1    4    4  502    0 -0.10247727154E+03  0.53570826130E+01 -0.39144016451E+03  0.40469467739E+03  0.47000000000E+01 0.  1.
         -5    1    4    4    0  502 -0.87875340543E+01 -0.79416819844E+02 -0.27412726317E+03  0.28557328034E+03  0.47000000000E+01 0.  1.
        -11    1    3    3    0    0  0.51016848717E+02  0.56264233346E+02 -0.40829024323E+03  0.41529423970E+03  0.00000000000E+00 0.  1.
         11    1    3    3    0    0  0.60247956877E+02  0.17795503885E+02 -0.98744004127E+02  0.11703364737E+03  0.00000000000E+00 0. -1.
<mgrwt>
<rscale>  0 0.17754757E+03</rscale>
<asrwt>0</asrwt>
<pdfrwt beam="2">  1        1 0.18424601E+00 0.18300233E+03</pdfrwt>
<pdfrwt beam="1">  1       -1 0.38457044E-02 0.18300233E+03</pdfrwt>
<totfact> 0.29798651E+03</totfact>
</mgrwt>
</event>
<event>
 8    1  0.7550631E-006  0.1265937E+03  0.7546771E-02  0.1243575E+00
          2   -1    0    0  501    0  0.00000000000E+00  0.00000000000E+00  0.15723699909E+04  0.15723699909E+04  0.00000000000E+00 0. -1.
         -2   -1    0    0    0  501 -0.00000000000E+00 -0.00000000000E+00 -0.10791194352E+02  0.10791194352E+02  0.00000000000E+00 0.  1.
         23    2    1    2    0    0  0.20182893657E+02  0.45491041909E+02  0.33216433949E+03  0.34724618846E+03  0.88147506360E+02 0.  0.
         23    2    1    2    0    0 -0.20182893657E+02 -0.45491041909E+02  0.12294144571E+04  0.12359149968E+04  0.11640097935E+03 0.  0.
          5    1    4    4  502    0 -0.18904554400E+02 -0.69464635327E+02  0.11613339404E+04  0.11635726573E+04  0.47000000000E+01 0. -1.
         -5    1    4    4    0  502 -0.12783392577E+01  0.23973593418E+02  0.68080516679E+02  0.72342339497E+02  0.47000000000E+01 0.  1.
        -11    1    3    3    0    0 -0.19990693205E+02 -0.14567105041E+02  0.13525767088E+03  0.13750078507E+03  0.00000000000E+00 0. -1.
         11    1    3    3    0    0  0.40173586862E+02  0.60058146950E+02  0.19690666861E+03  0.20974540338E+03  0.00000000000E+00 0.  1.
<mgrwt>
<rscale>  0 0.11971057E+03</rscale>
<asrwt>0</asrwt>
<pdfrwt beam="1">  1        2 0.24190289E+00 0.12659373E+03</pdfrwt>
<pdfrwt beam="2">  1       -2 0.16601850E-02 0.12659373E+03</pdfrwt>
<totfact> 0.12307572E+04</totfact>
</mgrwt>
</event>
<event>
 8    1  0.7550631E-006  0.1414521E+03  0.7546771E-02  0.1219879E+00
          1   -1    0    0  501    0  0.00000000000E+00  0.00000000000E+00  0.16550272452E+03  0.16550272452E+03  0.00000000000E+00 0. -1.
         -1   -1    0    0    0  501 -0.00000000000E+00 -0.00000000000E+00 -0.11396243734E+03  0.11396243734E+03  0.00000000000E+00 0.  1.
         23    2    1    2    0    0 -0.59112958028E+02  0.29815312943E+02 -0.21705583797E+02  0.12017402312E+03  0.97915110036E+02 0.  0.
         23    2    1    2    0    0  0.59112958028E+02 -0.29815312943E+02  0.73245870980E+02  0.15929113873E+03  0.12500165827E+03 0.  0.
          5    1    4    4  502    0 -0.46068840609E+01 -0.33034170147E+02 -0.25073314329E+02  0.41990961760E+02  0.47000000000E+01 0. -1.
         -5    1    4    4    0  502  0.63719842089E+02  0.32188572041E+01  0.98319185309E+02  0.11730017697E+03  0.47000000000E+01 0. -1.
        -11    1    3    3    0    0 -0.68240430296E+02  0.56102186846E+01 -0.47741639899E+02  0.83471522455E+02  0.00000000000E+00 0.  1.
         11    1    3    3    0    0  0.91274722685E+01  0.24205094258E+02  0.26036056102E+02  0.36702500669E+02  0.00000000000E+00 0. -1.
<mgrwt>
<rscale>  0 0.13524128E+03</rscale>
<asrwt>0</asrwt>
<pdfrwt beam="1">  1        1 0.25461958E-01 0.14145214E+03</pdfrwt>
<pdfrwt beam="2">  1       -1 0.17532683E-01 0.14145214E+03</pdfrwt>
<totfact> 0.44852922E+03</totfact>
</mgrwt>
</event>
<event>
 8    1  0.7550631E-006  0.1957523E+03  0.7546771E-02  0.1157967E+00
          2   -1    0    0  501    0  0.00000000000E+00  0.00000000000E+00  0.10375203521E+04  0.10375203521E+04  0.00000000000E+00 0.  1.
         -2   -1    0    0    0  501 -0.00000000000E+00 -0.00000000000E+00 -0.37622612122E+02  0.37622612122E+02  0.00000000000E+00 0. -1.
         23    2    1    2    0    0 -0.58443184124E+02 -0.13884354286E+03  0.29325922714E+03  0.34189201003E+03  0.90531967038E+02 0.  0.
         23    2    1    2    0    0  0.58443184124E+02  0.13884354286E+03  0.70663851284E+03  0.73325095419E+03  0.12500335530E+03 0.  0.
          5    1    4    4  502    0  0.49037781267E+02  0.14018853336E+03  0.70719424586E+03  0.72263636793E+03  0.47000000000E+01 0. -1.
         -5    1    4    4    0  502  0.94054028566E+01 -0.13449905013E+01 -0.55573302239E+00  0.10614586263E+02  0.47000000000E+01 0. -1.
        -11    1    3    3    0    0  0.12745648404E+02 -0.84525649792E+02  0.15878251364E+03  0.18033004094E+03  0.00000000000E+00 0.  1.
         11    1    3    3    0    0 -0.71188832528E+02 -0.54317893064E+02  0.13447671349E+03  0.16156196909E+03  0.00000000000E+00 0. -1.
<mgrwt>
<rscale>  0 0.19054870E+03</rscale>
<asrwt>0</asrwt>
<pdfrwt beam="1">  1        2 0.15961849E+00 0.19575233E+03</pdfrwt>
<pdfrwt beam="2">  1       -2 0.57880950E-02 0.19575233E+03</pdfrwt>
<totfact> 0.38616568E+03</totfact>
</mgrwt>
</event>
<event>
 8    1  0.7550631E-006  0.1689645E+03  0.7546771E-02  0.1185503E+00
         -2   -1    0    0    0  501 -0.00000000000E+00  0.00000000000E+00  0.52745644609E+02  0.52745644609E+02  0.00000000000E+00 0.  1.
          2   -1    0    0  501    0  0.00000000000E+00 -0.00000000000E+00 -0.50485852919E+03  0.50485852919E+03  0.00000000000E+00 0. -1.
         23    2    1    2    0    0  0.99233887124E+00 -0.11367695773E+03 -0.13725639891E+03  0.20027572558E+03  0.91365265617E+02 0.  0.
         23    2    1    2    0    0 -0.99233887124E+00  0.11367695773E+03 -0.31485648567E+03  0.35732844822E+03  0.12500231151E+03 0.  0.
          5    1    4    4  502    0  0.44002996435E+02  0.24900545579E+02 -0.19480802021E+03  0.20131705244E+03  0.47000000000E+01 0. -1.
         -5    1    4    4    0  502 -0.44995335306E+02  0.88776412147E+02 -0.12004846547E+03  0.15601139578E+03  0.47000000000E+01 0. -1.
        -11    1    3    3    0    0  0.39537204858E+02 -0.26290010617E+02 -0.27850688883E+02  0.55045581998E+02  0.00000000000E+00 0.  1.
         11    1    3    3    0    0 -0.38544865986E+02 -0.87386947109E+02 -0.10940571003E+03  0.14523014359E+03  0.00000000000E+00 0. -1.
<mgrwt>
<rscale>  0 0.16286219E+03</rscale>
<asrwt>0</asrwt>
<pdfrwt beam="2">  1        2 0.77670544E-01 0.16896453E+03</pdfrwt>
<pdfrwt beam="1">  1       -2 0.81147144E-02 0.16896453E+03</pdfrwt>
<totfact> 0.55427569E+03</totfact>
</mgrwt>
</event>
<event>
 8    1  0.7550631E-006  0.1973217E+03  0.7546771E-02  0.1156778E+00
          1   -1    0    0  501    0  0.00000000000E+00  0.00000000000E+00  0.12079998184E+04  0.12079998184E+04  0.00000000000E+00 0. -1.
         -1   -1    0    0    0  501 -0.00000000000E+00 -0.00000000000E+00 -0.29265345844E+02  0.29265345844E+02  0.00000000000E+00 0.  1.
         23    2    1    2    0    0  0.15501615927E+02 -0.15188858832E+03  0.62491381571E+03  0.64934240464E+03  0.88418538997E+02 0.  0.
         23    2    1    2    0    0 -0.15501615927E+02  0.15188858832E+03  0.55382065681E+03  0.58792275957E+03  0.12500163181E+03 0.  0.
          5    1    4    4  502    0  0.81900519866E+01  0.16613207043E+03  0.50392649308E+03  0.53068912011E+03  0.47000000000E+01 0.  1.
         -5    1    4    4    0  502 -0.23691667913E+02 -0.14243482116E+02  0.49894163728E+02  0.57233639457E+02  0.47000000000E+01 0.  1.
        -11    1    3    3    0    0  0.50452300863E+02 -0.11249814314E+03  0.41532361705E+03  0.43323777969E+03  0.00000000000E+00 0.  1.
         11    1    3    3    0    0 -0.34950684937E+02 -0.39390445172E+02  0.20959019866E+03  0.21610462495E+03  0.00000000000E+00 0. -1.
<mgrwt>
<rscale>  0 0.19187815E+03</rscale>
<asrwt>0</asrwt>
<pdfrwt beam="1">  1        1 0.18584609E+00 0.19732169E+03</pdfrwt>
<pdfrwt beam="2">  1       -1 0.45023618E-02 0.19732169E+03</pdfrwt>
<totfact> 0.23224086E+03</totfact>
</mgrwt>
</event>
<event>
 8    1  0.7550631E-006  0.1259718E+03  0.7546771E-02  0.1248367E+00
         -2   -1    0    0    0  501 -0.00000000000E+00  0.00000000000E+00  0.49812407620E+03  0.49812407620E+03  0.00000000000E+00 0.  1.
          2   -1    0    0  501    0  0.00000000000E+00 -0.00000000000E+00 -0.24462541040E+02  0.24462541040E+02  0.00000000000E+00 0. -1.
         23    2    1    2    0    0  0.14669898483E+02 -0.53592833079E+01  0.23217036372E+03  0.25021390871E+03  0.91978228321E+02 0.  0.
         23    2    1    2    0    0 -0.14669898483E+02  0.53592833079E+01  0.24149117144E+03  0.27237270852E+03  0.12499991451E+03 0.  0.
          5    1    4    4  502    0 -0.23111250559E+02 -0.22791869918E+02  0.24036096220E+03  0.24258829606E+03  0.47000000000E+01 0. -1.
         -5    1    4    4    0  502  0.84413520758E+01  0.28151153226E+02  0.11302092399E+01  0.29784412463E+02  0.47000000000E+01 0. -1.
        -11    1    3    3    0    0  0.17776841342E+02  0.36096729578E+02  0.17476038014E+03  0.17933259727E+03  0.00000000000E+00 0.  1.
         11    1    3    3    0    0 -0.31069428587E+01 -0.41456012886E+02  0.57409983573E+02  0.70881311445E+02  0.00000000000E+00 0. -1.
<mgrwt>
<rscale>  0 0.11686097E+03</rscale>
<asrwt>0</asrwt>
<pdfrwt beam="2">  1        2 0.37634682E-02 0.12597185E+03</pdfrwt>
<pdfrwt beam="1">  1       -2 0.76634466E-01 0.12597185E+03</pdfrwt>
<totfact> 0.34135956E+03</totfact>
</mgrwt>
</event>
<event>
 8    1  0.7550631E-006  0.1432667E+03  0.7546771E-02  0.1220353E+00
         -2   -1    0    0    0  501 -0.00000000000E+00  0.00000000000E+00  0.38214004204E+02  0.38214004204E+02  0.00000000000E+00 0.  1.
          2   -1    0    0  501    0  0.00000000000E+00 -0.00000000000E+00 -0.47895141552E+03  0.47895141552E+03  0.00000000000E+00 0. -1.
         23    2    1    2    0    0  0.11981233106E+02 -0.68966290836E+02 -0.11332949288E+03  0.15978424348E+03  0.88246990264E+02 0.  0.
         23    2    1    2    0    0 -0.11981233106E+02  0.68966290836E+02 -0.32740791844E+03  0.35738117624E+03  0.12500184342E+03 0.  0.
          5    1    4    4  502    0 -0.62566150118E+02  0.55135925532E+02 -0.25144599858E+03  0.26495598432E+03  0.47000000000E+01 0. -1.
         -5    1    4    4    0  502  0.50584917012E+02  0.13830365305E+02 -0.75961919860E+02  0.92425191925E+02  0.47000000000E+01 0. -1.
        -11    1    3    3    0    0 -0.10566776725E+02 -0.43225404959E+01  0.12255897209E+02  0.16749571430E+02  0.00000000000E+00 0.  1.
         11    1    3    3    0    0  0.22548009831E+02 -0.64643750340E+02 -0.12558539009E+03  0.14303467205E+03  0.00000000000E+00 0. -1.
<mgrwt>
<rscale>  0 0.13490584E+03</rscale>
<asrwt>0</asrwt>
<pdfrwt beam="2">  1        2 0.73684831E-01 0.14326674E+03</pdfrwt>
<pdfrwt beam="1">  1       -2 0.58790777E-02 0.14326674E+03</pdfrwt>
<totfact> 0.95401423E+03</totfact>
</mgrwt>
</event>
<event>
 8    1  0.7550631E-006  0.1427831E+03  0.7546771E-02  0.1220085E+00
         -2   -1    0    0    0  501 -0.00000000000E+00  0.00000000000E+00  0.27562845419E+03  0.27562845419E+03  0.00000000000E+00 0.  1.
          2   -1    0    0  501    0  0.00000000000E+00 -0.00000000000E+00 -0.66522992893E+02  0.66522992893E+02  0.00000000000E+00 0. -1.
         23    2    1    2    0    0  0.45951445423E+02  0.51476168836E+02  0.14740613652E+03  0.18660786404E+03  0.91283046319E+02 0.  0.
         23    2    1    2    0    0 -0.45951445423E+02 -0.51476168836E+02  0.61699324783E+02  0.15554358304E+03  0.12500267298E+03 0.  0.
          5    1    4    4  502    0  0.74842142277E+01 -0.70109166325E+02 -0.13692594978E+01  0.70677249076E+02  0.47000000000E+01 0.  1.
         -5    1    4    4    0  502 -0.53435659651E+02  0.18632997490E+02  0.63068584281E+02  0.84866333967E+02  0.47000000000E+01 0.  1.
        -11    1    3    3    0    0  0.51758279297E+02  0.32438827491E+02  0.15397492647E+03  0.16564864921E+03  0.00000000000E+00 0.  1.
         11    1    3    3    0    0 -0.58068338740E+01  0.19037341344E+02 -0.65687899475E+01  0.20959214834E+02  0.00000000000E+00 0. -1.
<mgrwt>
<rscale>  0 0.13509561E+03</rscale>
<asrwt>0</asrwt>
<pdfrwt beam="2">  1        2 0.10234307E-01 0.14278305E+03</pdfrwt>
<pdfrwt beam="1">  1       -2 0.42404377E-01 0.14278305E+03</pdfrwt>
<totfact> 0.31857505E+03</totfact>
</mgrwt>
</event>
<event>
 7    1  0.7550631E-006  0.4033059E+03  0.7546771E-02  0.1042641E+00
          2   -1    0    0  501    0  0.00000000000E+00  0.00000000000E+00  0.62870682284E+03  0.62870682284E+03  0.00000000000E+00 0. -1.
         -2   -1    0    0    0  501 -0.00000000000E+00 -0.00000000000E+00 -0.64678646912E+02  0.64678646912E+02  0.00000000000E+00 0.  1.
         23    2    1    2    0    0  0.74263494778E+02 -0.60967665130E+02  0.74944471163E+02  0.15181482444E+03  0.90548022134E+02 0.  0.
          5    1    1    2  502    0 -0.42398685718E+02  0.61047946396E+02  0.50153768856E+03  0.50703712227E+03  0.47000000000E+01 0. -1.
         -5    1    1    2    0  502 -0.31864809060E+02 -0.80281265191E-01 -0.12453983800E+02  0.34533523046E+02  0.47000000000E+01 0.  1.
        -11    1    3    3    0    0  0.17565480123E+02 -0.72022176165E+02  0.45427706320E+02  0.86944904698E+02  0.00000000000E+00 0.  1.
         11    1    3    3    0    0  0.56698014655E+02  0.11054511034E+02  0.29516764843E+02  0.64869919738E+02  0.00000000000E+00 0. -1.
<mgrwt>
<rscale>  0 0.40330587E+03</rscale>
<asrwt>0</asrwt>
<pdfrwt beam="1">  1        2 0.96724122E-01 0.40330587E+03</pdfrwt>
<pdfrwt beam="2">  1       -2 0.99505615E-02 0.40330587E+03</pdfrwt>
<totfact> 0.32118314E+03</totfact>
</mgrwt>
</event>
<event>
 8    1  0.7550631E-006  0.2202635E+03  0.7546771E-02  0.1136674E+00
         -1   -1    0    0    0  501 -0.00000000000E+00  0.00000000000E+00  0.52650597098E+02  0.52650597098E+02  0.00000000000E+00 0.  1.
          1   -1    0    0  501    0  0.00000000000E+00 -0.00000000000E+00 -0.10814901731E+04  0.10814901731E+04  0.00000000000E+00 0. -1.
         23    2    1    2    0    0 -0.17582306161E+03 -0.44470151005E+02 -0.24195605231E+03  0.31701060451E+03  0.95192692976E+02 0.  0.
         23    2    1    2    0    0  0.17582306161E+03  0.44470151005E+02 -0.78688352368E+03  0.81713016568E+03  0.12499873800E+03 0.  0.
          5    1    4    4  502    0  0.54674185750E+02  0.67390675514E+02 -0.21138455111E+03  0.22855259391E+03  0.47000000000E+01 0. -1.
         -5    1    4    4    0  502  0.12114887586E+03 -0.22920524508E+02 -0.57549897257E+03  0.58857757178E+03  0.47000000000E+01 0. -1.
        -11    1    3    3    0    0 -0.57492830280E+02 -0.46202507256E+02 -0.42602045720E+02  0.85176472748E+02  0.00000000000E+00 0.  1.
         11    1    3    3    0    0 -0.11833023133E+03  0.17323562507E+01 -0.19935400659E+03  0.23183413176E+03  0.00000000000E+00 0. -1.
<mgrwt>
<rscale>  0 0.21629791E+03</rscale>
<asrwt>0</asrwt>
<pdfrwt beam="2">  1        1 0.16638311E+00 0.22026354E+03</pdfrwt>
<pdfrwt beam="1">  1       -1 0.81000915E-02 0.22026354E+03</pdfrwt>
<totfact> 0.11780510E+03</totfact>
</mgrwt>
</event>
<event>
 8    1  0.7550631E-006  0.1267805E+03  0.7546771E-02  0.1247497E+00
          2   -1    0    0  501    0  0.00000000000E+00  0.00000000000E+00  0.59214167885E+03  0.59214167885E+03  0.00000000000E+00 0. -1.
         -2   -1    0    0    0  501 -0.00000000000E+00 -0.00000000000E+00 -0.21897568240E+02  0.21897568240E+02  0.00000000000E+00 0.  1.
         23    2    1    2    0    0 -0.88315649463E+01  0.19440230203E+02  0.16550821074E+03  0.18991139722E+03  0.90650162073E+02 0.  0.
         23    2    1    2    0    0  0.88315649463E+01 -0.19440230203E+02  0.40473589987E+03  0.42412784987E+03  0.12496945746E+03 0.  0.
          5    1    4    4  502    0  0.90354578362E+01 -0.22570701275E+02  0.41320518540E+03  0.41394648361E+03  0.47000000000E+01 0.  1.
         -5    1    4    4    0  502 -0.20389288990E+00  0.31304710719E+01 -0.84692855275E+01  0.10181366254E+02  0.47000000000E+01 0.  1.
        -11    1    3    3    0    0  0.19050294563E+02  0.97528476159E+01 -0.39257039014E+00  0.21405276711E+02  0.00000000000E+00 0.  1.
         11    1    3    3    0    0 -0.27881859510E+02  0.96873825869E+01  0.16590078113E+03  0.16850612051E+03  0.00000000000E+00 0. -1.
<mgrwt>
<rscale>  0 0.11737152E+03</rscale>
<asrwt>0</asrwt>
<pdfrwt beam="1">  1        2 0.91098708E-01 0.12678046E+03</pdfrwt>
<pdfrwt beam="2">  1       -2 0.33688571E-02 0.12678046E+03</pdfrwt>
<totfact> 0.17158259E+04</totfact>
</mgrwt>
</event>
<event>
 8    1  0.7550631E-006  0.1279055E+03  0.7546771E-02  0.1245525E+00
          3   -1    0    0  501    0  0.00000000000E+00  0.00000000000E+00  0.22757208456E+03  0.22757208456E+03  0.00000000000E+00 0. -1.
         -3   -1    0    0    0  501 -0.00000000000E+00 -0.00000000000E+00 -0.61597540576E+02  0.61597540576E+02  0.00000000000E+00 0.  1.
         23    2    1    2    0    0 -0.47621295098E+01  0.26696674071E+02  0.22593404478E+02  0.97029126782E+02  0.90381409782E+02 0.  0.
         23    2    1    2    0    0  0.47621295098E+01 -0.26696674071E+02  0.14338113951E+03  0.19214049836E+03  0.12499771861E+03 0.  0.
          5    1    4    4  502    0 -0.10681380589E+02 -0.62276940795E+02  0.26106145144E+02  0.68528315756E+02  0.47000000000E+01 0. -1.
         -5    1    4    4    0  502  0.15443510099E+02  0.35580266724E+02  0.11727499437E+03  0.12361218260E+03  0.47000000000E+01 0. -1.
        -11    1    3    3    0    0 -0.32783585322E+02 -0.16793489534E+02  0.26147077790E+02  0.45171389555E+02  0.00000000000E+00 0. -1.
         11    1    3    3    0    0  0.28021455813E+02  0.43490163606E+02 -0.35536733123E+01  0.51857737227E+02  0.00000000000E+00 0.  1.
<mgrwt>
<rscale>  0 0.11854036E+03</rscale>
<asrwt>0</asrwt>
<pdfrwt beam="1">  1        3 0.35011089E-01 0.12790551E+03</pdfrwt>
<pdfrwt beam="2">  1       -3 0.94765448E-02 0.12790551E+03</pdfrwt>
<totfact> 0.14734111E+03</totfact>
</mgrwt>
</event>
<event>
 8    1  0.7550631E-006  0.1382037E+03  0.7546771E-02  0.1232985E+00
         -1   -1    0    0    0  501 -0.00000000000E+00  0.00000000000E+00  0.25883801048E+03  0.25883801048E+03  0.00000000000E+00 0.  1.
          1   -1    0    0  501    0  0.00000000000E+00 -0.00000000000E+00 -0.57457625871E+02  0.57457625871E+02  0.00000000000E+00 0. -1.
         23    2    1    2    0    0 -0.58026898254E+02  0.10439564195E+02  0.12646404369E+03  0.15909282640E+03  0.76428186180E+02 0.  0.
         23    2    1    2    0    0  0.58026898254E+02 -0.10439564195E+02  0.74916340917E+02  0.15720280995E+03  0.12499663955E+03 0.  0.
          5    1    4    4  502    0 -0.12596465535E+02 -0.16832982748E+02  0.82931987808E+02  0.85684449313E+02  0.47000000000E+01 0.  1.
         -5    1    4    4    0  502  0.70623363788E+02  0.63934185531E+01 -0.80156468918E+01  0.71518360640E+02  0.47000000000E+01 0.  1.
        -11    1    3    3    0    0 -0.63250557831E+02 -0.19149714859E+02  0.93403115422E+02  0.11441803449E+03  0.00000000000E+00 0.  1.
         11    1    3    3    0    0  0.52236595767E+01  0.29589279054E+02  0.33060928272E+02  0.44674791913E+02  0.00000000000E+00 0. -1.
<mgrwt>
<rscale>  0 0.12634308E+03</rscale>
<asrwt>0</asrwt>
<pdfrwt beam="2">  1        1 0.88396349E-02 0.13820371E+03</pdfrwt>
<pdfrwt beam="1">  1       -1 0.39821232E-01 0.13820371E+03</pdfrwt>
<totfact> 0.45186827E+03</totfact>
</mgrwt>
</event>
<event>
 8    1  0.7550631E-006  0.1385540E+03  0.7546771E-02  0.1227967E+00
         -1   -1    0    0    0  501 -0.00000000000E+00  0.00000000000E+00  0.20532294409E+02  0.20532294409E+02  0.00000000000E+00 0.  1.
          1   -1    0    0  501    0  0.00000000000E+00 -0.00000000000E+00 -0.85561191086E+03  0.85561191086E+03  0.00000000000E+00 0. -1.
         23    2    1    2    0    0 -0.59331180591E+02  0.73289711889E+01 -0.20372801964E+03  0.22976810590E+03  0.87831507412E+02 0.  0.
         23    2    1    2    0    0  0.59331180591E+02 -0.73289711889E+01 -0.63135159681E+03  0.64637609937E+03  0.12499328073E+03 0.  0.
          5    1    4    4  502    0  0.59490856733E+02 -0.52717652074E+02 -0.25177233872E+03  0.26406384346E+03  0.47000000000E+01 0.  1.
         -5    1    4    4    0  502 -0.15967614142E+00  0.45388680885E+02 -0.37957925809E+03  0.38231225591E+03  0.47000000000E+01 0.  1.
        -11    1    3    3    0    0 -0.79229852104E+02 -0.59160566062E+01 -0.13097536735E+03  0.15318915119E+03  0.00000000000E+00 0.  1.
         11    1    3    3    0    0  0.19898671513E+02  0.13245027795E+02 -0.72752652295E+02  0.76578954715E+02  0.00000000000E+00 0. -1.
<mgrwt>
<rscale>  0 0.12965607E+03</rscale>
<asrwt>0</asrwt>
<pdfrwt beam="2">  1        1 0.13163256E+00 0.13855404E+03</pdfrwt>
<pdfrwt beam="1">  1       -1 0.31588155E-02 0.13855404E+03</pdfrwt>
<totfact> 0.70150345E+03</totfact>
</mgrwt>
</event>
<event>
 8    1  0.7550631E-006  0.1314896E+03  0.7546771E-02  0.1236543E+00
          2   -1    0    0  501    0  0.00000000000E+00  0.00000000000E+00  0.25285585417E+02  0.25285585417E+02  0.00000000000E+00 0. -1.
         -2   -1    0    0    0  501 -0.00000000000E+00 -0.00000000000E+00 -0.55257112562E+03  0.55257112562E+03  0.00000000000E+00 0.  1.
         23    2    1    2    0    0  0.31076228510E+02  0.26420247233E+02 -0.21101067166E+03  0.23533766047E+03  0.95888213240E+02 0.  0.
         23    2    1    2    0    0 -0.31076228510E+02 -0.26420247233E+02 -0.31627486854E+03  0.34251905057E+03  0.12500298432E+03 0.  0.
          5    1    4    4  502    0  0.31919180070E+02 -0.16129993568E+01 -0.23236084941E+03  0.23459558854E+03  0.47000000000E+01 0.  1.
         -5    1    4    4    0  502 -0.62995408580E+02 -0.24807247876E+02 -0.83914019134E+02  0.10792346203E+03  0.47000000000E+01 0.  1.
        -11    1    3    3    0    0 -0.21511595176E+02  0.19306871192E+02 -0.15692918262E+03  0.15956902068E+03  0.00000000000E+00 0. -1.
         11    1    3    3    0    0  0.52587823687E+02  0.71133760412E+01 -0.54081489034E+02  0.75768639786E+02  0.00000000000E+00 0.  1.
<mgrwt>
<rscale>  0 0.12406200E+03</rscale>
<asrwt>0</asrwt>
<pdfrwt beam="1">  1        2 0.38900902E-02 0.13148957E+03</pdfrwt>
<pdfrwt beam="2">  1       -2 0.85010940E-01 0.13148957E+03</pdfrwt>
<totfact> 0.26116554E+03</totfact>
</mgrwt>
</event>
<event>
 8    1  0.7550631E-006  0.1338078E+03  0.7546771E-02  0.1246482E+00
          2   -1    0    0  501    0  0.00000000000E+00  0.00000000000E+00  0.81494515693E+03  0.81494515693E+03  0.00000000000E+00 0. -1.
         -2   -1    0    0    0  501 -0.00000000000E+00 -0.00000000000E+00 -0.14143312644E+02  0.14143312644E+02  0.00000000000E+00 0.  1.
         23    2    1    2    0    0  0.46684829085E+02 -0.99850120780E+01  0.31147117580E+03  0.32179266698E+03  0.65246098955E+02 0.  0.
         23    2    1    2    0    0 -0.46684829085E+02  0.99850120780E+01  0.48933066848E+03  0.50729580260E+03  0.12500141793E+03 0.  0.
          5    1    4    4  502    0 -0.53761700398E+02 -0.44455570298E+02  0.18012765458E+03  0.19322184168E+03  0.47000000000E+01 0. -1.
         -5    1    4    4    0  502  0.70768713126E+01  0.54440582377E+02  0.30920301390E+03  0.31407396091E+03  0.47000000000E+01 0. -1.
        -11    1    3    3    0    0  0.12237438429E+02  0.27321959335E+02  0.10679771941E+03  0.11091436892E+03  0.00000000000E+00 0.  1.
         11    1    3    3    0    0  0.34447390656E+02 -0.37306971413E+02  0.20467345639E+03  0.21087829806E+03  0.00000000000E+00 0. -1.
<mgrwt>
<rscale>  0 0.11797147E+03</rscale>
<asrwt>0</asrwt>
<pdfrwt beam="1">  1        2 0.12537614E+00 0.13380780E+03</pdfrwt>
<pdfrwt beam="2">  1       -2 0.21758949E-02 0.13380780E+03</pdfrwt>
<totfact> 0.22376957E+04</totfact>
</mgrwt>
</event>
<event>
 8    1  0.7550631E-006  0.1614329E+03  0.7546771E-02  0.1194986E+00
         -2   -1    0    0    0  501 -0.00000000000E+00  0.00000000000E+00  0.14753947006E+03  0.14753947006E+03  0.00000000000E+00 0.  1.
          2   -1    0    0  501    0  0.00000000000E+00 -0.00000000000E+00 -0.15698987649E+03  0.15698987649E+03  0.00000000000E+00 0. -1.
         23    2    1    2    0    0 -0.47275582906E+01 -0.10204642921E+03  0.28744311911E+02  0.13863961226E+03  0.89212572536E+02 0.  0.
         23    2    1    2    0    0  0.47275582906E+01  0.10204642921E+03 -0.38194718340E+02  0.16588973429E+03  0.12499897564E+03 0.  0.
          5    1    4    4  502    0 -0.46746346318E+02 -0.44118151568E-01 -0.98978264350E+01  0.48013329489E+02  0.47000000000E+01 0.  1.
         -5    1    4    4    0  502  0.51473904609E+02  0.10209054736E+03 -0.28296891905E+02  0.11787640480E+03  0.47000000000E+01 0.  1.
        -11    1    3    3    0    0  0.50675949728E+01 -0.68775702724E+02 -0.26110939484E+02  0.73739805836E+02  0.00000000000E+00 0. -1.
         11    1    3    3    0    0 -0.97951532634E+01 -0.33270726486E+02  0.54855251394E+02  0.64899806424E+02  0.00000000000E+00 0.  1.
<mgrwt>
<rscale>  0 0.15455411E+03</rscale>
<asrwt>0</asrwt>
<pdfrwt beam="2">  1        2 0.24152289E-01 0.16143286E+03</pdfrwt>
<pdfrwt beam="1">  1       -2 0.22698380E-01 0.16143286E+03</pdfrwt>
<totfact> 0.36589584E+03</totfact>
</mgrwt>
</event>
<event>
 8    1  0.7550631E-006  0.1278117E+03  0.7546771E-02  0.1240779E+00
          2   -1    0    0  501    0  0.00000000000E+00  0.00000000000E+00  0.20581277335E+03  0.20581277335E+03  0.00000000000E+00 0. -1.
         -2   -1    0    0    0  501 -0.00000000000E+00 -0.00000000000E+00 -0.79843289264E+02  0.79843289264E+02  0.00000000000E+00 0.  1.
         23    2    1    2    0    0  0.17741702013E+02 -0.19853982342E+02 -0.29364450417E+01  0.10412766992E+03  0.10062306062E+03 0.  0.
         23    2    1    2    0    0 -0.17741702013E+02  0.19853982342E+02  0.12890592913E+03  0.18152839269E+03  0.12500748051E+03 0.  0.
          5    1    4    4  502    0  0.44517808658E+01 -0.22232743346E+02 -0.16519818095E+02  0.28444817094E+02  0.47000000000E+01 0.  1.
         -5    1    4    4    0  502 -0.22193482879E+02  0.42086725689E+02  0.14542574722E+03  0.15308357559E+03  0.47000000000E+01 0.  1.
        -11    1    3    3    0    0  0.40844357782E+02  0.20111573306E+02 -0.26101570289E+02  0.52478842546E+02  0.00000000000E+00 0.  1.
         11    1    3    3    0    0 -0.23102655768E+02 -0.39965555648E+02  0.23165125247E+02  0.51648827378E+02  0.00000000000E+00 0. -1.
<mgrwt>
<rscale>  0 0.12141607E+03</rscale>
<asrwt>0</asrwt>
<pdfrwt beam="1">  1        2 0.31663503E-01 0.12781165E+03</pdfrwt>
<pdfrwt beam="2">  1       -2 0.12283583E-01 0.12781165E+03</pdfrwt>
<totfact> 0.74258638E+03</totfact>
</mgrwt>
</event>
<event>
 8    1  0.7550631E-006  0.1258907E+03  0.7546771E-02  0.1243990E+00
          1   -1    0    0  501    0  0.00000000000E+00  0.00000000000E+00  0.58143224779E+03  0.58143224779E+03  0.00000000000E+00 0. -1.
         -1   -1    0    0    0  501 -0.00000000000E+00 -0.00000000000E+00 -0.22349994045E+02  0.22349994045E+02  0.00000000000E+00 0.  1.
         23    2    1    2    0    0  0.41889947014E+02 -0.11666828356E+02  0.25494346188E+03  0.27461835391E+03  0.92348194377E+02 0.  0.
         23    2    1    2    0    0 -0.41889947014E+02  0.11666828356E+02  0.30413879187E+03  0.32916388792E+03  0.11814219336E+03 0.  0.
          5    1    4    4  502    0  0.35557472346E+02  0.25572471720E+02  0.14547689771E+03  0.15199968065E+03  0.47000000000E+01 0. -1.
         -5    1    4    4    0  502 -0.77447419361E+02 -0.13905643364E+02  0.15866189415E+03  0.17716420728E+03  0.47000000000E+01 0.  1.
        -11    1    3    3    0    0  0.49502450220E+02 -0.34393949016E+02  0.23735423297E+03  0.24488868536E+03  0.00000000000E+00 0. -1.
         11    1    3    3    0    0 -0.76125032059E+01  0.22727120661E+02  0.17589228903E+02  0.29729668548E+02  0.00000000000E+00 0.  1.
<mgrwt>
<rscale>  0 0.11946035E+03</rscale>
<asrwt>0</asrwt>
<pdfrwt beam="1">  1        1 0.89451104E-01 0.12589067E+03</pdfrwt>
<pdfrwt beam="2">  1       -1 0.34384611E-02 0.12589067E+03</pdfrwt>
<totfact> 0.10738382E+04</totfact>
</mgrwt>
</event>
<event>
 8    1  0.7550631E-006  0.1375956E+03  0.7546771E-02  0.1227971E+00
          1   -1    0    0  501    0  0.00000000000E+00  0.00000000000E+00  0.52489253832E+03  0.52489253832E+03  0.00000000000E+00 0. -1.
         -1   -1    0    0    0  501 -0.00000000000E+00 -0.00000000000E+00 -0.32479524305E+02  0.32479524305E+02  0.00000000000E+00 0.  1.
         23    2    1    2    0    0  0.56985039018E+02  0.77980867816E+01  0.12761201970E+03  0.16748449313E+03  0.91968054438E+02 0.  0.
         23    2    1    2    0    0 -0.56985039018E+02 -0.77980867816E+01  0.36480099431E+03  0.38988756950E+03  0.12499778624E+03 0.  0.
          5    1    4    4  502    0 -0.63767410488E+02 -0.11723376538E+02  0.72234295547E+02  0.97178205638E+02  0.47000000000E+01 0. -1.
         -5    1    4    4    0  502  0.67823714699E+01  0.39252897562E+01  0.29256669877E+03  0.29270936386E+03  0.47000000000E+01 0. -1.
        -11    1    3    3    0    0  0.74379448850E+02  0.28505067866E+02  0.10743855163E+03  0.13374559313E+03  0.00000000000E+00 0. -1.
         11    1    3    3    0    0 -0.17394409832E+02 -0.20706981085E+02  0.20173468065E+02  0.33738899995E+02  0.00000000000E+00 0.  1.
<mgrwt>
<rscale>  0 0.12965315E+03</rscale>
<asrwt>0</asrwt>
<pdfrwt beam="1">  1        1 0.80752692E-01 0.13759561E+03</pdfrwt>
<pdfrwt beam="2">  1       -1 0.49968503E-02 0.13759561E+03</pdfrwt>
<totfact> 0.71481183E+03</totfact>
</mgrwt>
</event>
<event>
 8    1  0.7550631E-006  0.1803441E+03  0.7546771E-02  0.1173129E+00
         -2   -1    0    0    0  501 -0.00000000000E+00  0.00000000000E+00  0.52315087548E+02  0.52315087548E+02  0.00000000000E+00 0.  1.
          2   -1    0    0  501    0  0.00000000000E+00 -0.00000000000E+00 -0.55358819939E+03  0.55358819939E+03  0.00000000000E+00 0. -1.
         23    2    1    2    0    0 -0.84260814203E+02  0.98983401399E+02 -0.20573809734E+03  0.25968813089E+03  0.90620980262E+02 0.  0.
         23    2    1    2    0    0  0.84260814203E+02 -0.98983401399E+02 -0.29553501451E+03  0.34621515605E+03  0.12500556356E+03 0.  0.
          5    1    4    4  502    0 -0.20324809372E+02 -0.61696601720E+02 -0.75510932998E+02  0.99717398392E+02  0.47000000000E+01 0. -1.
         -5    1    4    4    0  502  0.10458562358E+03 -0.37286799679E+02 -0.22002408151E+03  0.24649775766E+03  0.47000000000E+01 0. -1.
        -11    1    3    3    0    0 -0.57592371211E+02  0.10884616716E+03 -0.19202980621E+03  0.22812237023E+03  0.00000000000E+00 0. -1.
         11    1    3    3    0    0 -0.26668442993E+02 -0.98627657578E+01 -0.13708291126E+02  0.31565760654E+02  0.00000000000E+00 0.  1.
<mgrwt>
<rscale>  0 0.17460503E+03</rscale>
<asrwt>0</asrwt>
<pdfrwt beam="2">  1        2 0.85167415E-01 0.18034409E+03</pdfrwt>
<pdfrwt beam="1">  1       -2 0.80484750E-02 0.18034409E+03</pdfrwt>
<totfact> 0.50792366E+03</totfact>
</mgrwt>
</event>
<event>
 8    1  0.7550631E-006  0.1317798E+03  0.7546771E-02  0.1239716E+00
         -2   -1    0    0    0  501 -0.00000000000E+00  0.00000000000E+00  0.40338419448E+02  0.40338419448E+02  0.00000000000E+00 0.  1.
          2   -1    0    0  501    0  0.00000000000E+00 -0.00000000000E+00 -0.34691349341E+03  0.34691349341E+03  0.00000000000E+00 0. -1.
         23    2    1    2    0    0  0.23112116623E+02  0.34739741762E+02 -0.82813836248E+02  0.12756941605E+03  0.87605963521E+02 0.  0.
         23    2    1    2    0    0 -0.23112116623E+02 -0.34739741762E+02 -0.22376123771E+03  0.25968249681E+03  0.12499955221E+03 0.  0.
          5    1    4    4  502    0 -0.67195646457E+02  0.92078558527E+01 -0.97903941896E+02  0.11919442668E+03  0.47000000000E+01 0.  1.
         -5    1    4    4    0  502  0.44083529833E+02 -0.43947597614E+02 -0.12585729581E+03  0.14048807013E+03  0.47000000000E+01 0.  1.
        -11    1    3    3    0    0  0.22599875819E+02  0.17652387272E+02  0.12102385903E+02  0.31126016578E+02  0.00000000000E+00 0.  1.
         11    1    3    3    0    0  0.51224080423E+00  0.17087354489E+02 -0.94916222151E+02  0.96443399471E+02  0.00000000000E+00 0. -1.
<mgrwt>
<rscale>  0 0.12207278E+03</rscale>
<asrwt>0</asrwt>
<pdfrwt beam="2">  1        2 0.53371305E-01 0.13177977E+03</pdfrwt>
<pdfrwt beam="1">  1       -2 0.62059109E-02 0.13177977E+03</pdfrwt>
<totfact> 0.12347791E+04</totfact>
</mgrwt>
</event>
<event>
 8    1  0.7550631E-006  0.1728949E+03  0.7546771E-02  0.1181253E+00
          3   -1    0    0  501    0  0.00000000000E+00  0.00000000000E+00  0.23496884147E+03  0.23496884147E+03  0.00000000000E+00 0. -1.
         -3   -1    0    0    0  501 -0.00000000000E+00 -0.00000000000E+00 -0.11209541234E+03  0.11209541234E+03  0.00000000000E+00 0.  1.
         23    2    1    2    0    0 -0.92191121285E+02  0.75947708505E+02  0.37867201521E+02  0.15440208146E+03  0.90215411867E+02 0.  0.
         23    2    1    2    0    0  0.92191121285E+02 -0.75947708505E+02  0.85006227608E+02  0.19266217234E+03  0.12500158658E+03 0.  0.
          5    1    4    4  502    0  0.77891852451E+02 -0.13135964044E+02  0.98833122386E+02  0.12660872920E+03  0.47000000000E+01 0.  1.
         -5    1    4    4    0  502  0.14299268834E+02 -0.62811744461E+02 -0.13826894777E+02  0.66053443140E+02  0.47000000000E+01 0.  1.
        -11    1    3    3    0    0 -0.63568824928E+02  0.25643326874E+02  0.61303120734E+02  0.91960036579E+02  0.00000000000E+00 0.  1.
         11    1    3    3    0    0 -0.28622296357E+02  0.50304381630E+02 -0.23435919214E+02  0.62442044884E+02  0.00000000000E+00 0. -1.
<mgrwt>
<rscale>  0 0.16677556E+03</rscale>
<asrwt>0</asrwt>
<pdfrwt beam="1">  1        3 0.36149052E-01 0.17289492E+03</pdfrwt>
<pdfrwt beam="2">  1       -3 0.17245448E-01 0.17289492E+03</pdfrwt>
<totfact> 0.52725817E+02</totfact>
</mgrwt>
</event>
<event>
 8    1  0.7550631E-006  0.1773049E+03  0.7546771E-02  0.1176111E+00
          2   -1    0    0  501    0  0.00000000000E+00  0.00000000000E+00  0.10464405989E+04  0.10464405989E+04  0.00000000000E+00 0. -1.
         -2   -1    0    0    0  501 -0.00000000000E+00 -0.00000000000E+00 -0.27795983134E+02  0.27795983134E+02  0.00000000000E+00 0.  1.
         23    2    1    2    0    0 -0.12388487168E+03  0.21519064122E+02  0.36294994084E+03  0.39499248308E+03  0.92064491456E+02 0.  0.
         23    2    1    2    0    0  0.12388487168E+03 -0.21519064122E+02  0.65569467490E+03  0.67924409892E+03  0.12500603056E+03 0.  0.
          5    1    4    4  502    0  0.88561722309E+02 -0.66646904370E+01  0.62100730865E+03  0.62734341804E+03  0.47000000000E+01 0. -1.
         -5    1    4    4    0  502  0.35323149370E+02 -0.14854373685E+02  0.34687366249E+02  0.51900680884E+02  0.47000000000E+01 0. -1.
        -11    1    3    3    0    0 -0.14746594323E+02  0.32844475825E+02  0.39537144031E+02  0.53473426994E+02  0.00000000000E+00 0.  1.
         11    1    3    3    0    0 -0.10913827736E+03 -0.11325411703E+02  0.32341279680E+03  0.34151905609E+03  0.00000000000E+00 0. -1.
<mgrwt>
<rscale>  0 0.17167656E+03</rscale>
<asrwt>0</asrwt>
<pdfrwt beam="1">  1        2 0.16099083E+00 0.17730493E+03</pdfrwt>
<pdfrwt beam="2">  1       -2 0.42763059E-02 0.17730493E+03</pdfrwt>
<totfact> 0.60131644E+03</totfact>
</mgrwt>
</event>
<event>
 8    1  0.7550631E-006  0.1397264E+03  0.7546771E-02  0.1224538E+00
          2   -1    0    0  501    0  0.00000000000E+00  0.00000000000E+00  0.50546200241E+03  0.50546200241E+03  0.00000000000E+00 0. -1.
         -2   -1    0    0    0  501 -0.00000000000E+00 -0.00000000000E+00 -0.41079422016E+02  0.41079422016E+02  0.00000000000E+00 0.  1.
         23    2    1    2    0    0 -0.59714655108E+02  0.18269043469E+02  0.78531758508E+02  0.13617045875E+03  0.92062797905E+02 0.  0.
         23    2    1    2    0    0  0.59714655108E+02 -0.18269043469E+02  0.38585082189E+03  0.41037096568E+03  0.12499549886E+03 0.  0.
          5    1    4    4  502    0  0.76470022718E+02  0.32193228368E+02  0.19006013072E+03  0.20743435496E+03  0.47000000000E+01 0.  1.
         -5    1    4    4    0  502 -0.16755367610E+02 -0.50462271837E+02  0.19579069116E+03  0.20293661072E+03  0.47000000000E+01 0.  1.
        -11    1    3    3    0    0 -0.47770167421E+02  0.50656342984E+02  0.73572393924E+02  0.10129635298E+03  0.00000000000E+00 0.  1.
         11    1    3    3    0    0 -0.11944487687E+02 -0.32387299516E+02  0.49593645847E+01  0.34874105768E+02  0.00000000000E+00 0. -1.
<mgrwt>
<rscale>  0 0.13198596E+03</rscale>
<asrwt>0</asrwt>
<pdfrwt beam="1">  1        2 0.77763381E-01 0.13972642E+03</pdfrwt>
<pdfrwt beam="2">  1       -2 0.63199114E-02 0.13972642E+03</pdfrwt>
<totfact> 0.80442332E+03</totfact>
</mgrwt>
</event>
<event>
 8    1  0.7550631E-006  0.1601472E+03  0.7546771E-02  0.1196140E+00
         -2   -1    0    0    0  501 -0.00000000000E+00  0.00000000000E+00  0.19344845380E+03  0.19344845380E+03  0.00000000000E+00 0.  1.
          2   -1    0    0  501    0  0.00000000000E+00 -0.00000000000E+00 -0.11969200617E+03  0.11969200617E+03  0.00000000000E+00 0. -1.
         23    2    1    2    0    0 -0.77810051781E+02 -0.62987797843E+02  0.71074491405E+02  0.15297082893E+03  0.91250338843E+02 0.  0.
         23    2    1    2    0    0  0.77810051781E+02  0.62987797843E+02  0.26819562255E+01  0.16016963104E+03  0.12500100393E+03 0.  0.
          5    1    4    4  502    0  0.34693844500E+02  0.94851683843E+02 -0.17655676394E+02  0.10263682421E+03  0.47000000000E+01 0. -1.
         -5    1    4    4    0  502  0.43116207281E+02 -0.31863886001E+02  0.20337632620E+02  0.57532806832E+02  0.47000000000E+01 0. -1.
        -11    1    3    3    0    0 -0.32658559721E+02 -0.16553024314E+02  0.79626428476E+02  0.87641042034E+02  0.00000000000E+00 0.  1.
         11    1    3    3    0    0 -0.45151492060E+02 -0.46434773528E+02 -0.85519370710E+01  0.65329786893E+02  0.00000000000E+00 0. -1.
<mgrwt>
<rscale>  0 0.15358171E+03</rscale>
<asrwt>0</asrwt>
<pdfrwt beam="2">  1        2 0.18414155E-01 0.16014718E+03</pdfrwt>
<pdfrwt beam="1">  1       -2 0.29761301E-01 0.16014718E+03</pdfrwt>
<totfact> 0.30811256E+03</totfact>
</mgrwt>
</event>
<event>
 8    1  0.7550631E-006  0.1251691E+03  0.7546771E-02  0.1250920E+00
         -2   -1    0    0    0  501 -0.00000000000E+00  0.00000000000E+00  0.56281318956E+02  0.56281318956E+02  0.00000000000E+00 0.  1.
          2   -1    0    0  501    0  0.00000000000E+00 -0.00000000000E+00 -0.20678891497E+03  0.20678891497E+03  0.00000000000E+00 0. -1.
         23    2    1    2    0    0  0.34469497558E+01  0.54641474013E+01 -0.57228647149E+02  0.10696686908E+03  0.90139085062E+02 0.  0.
         23    2    1    2    0    0 -0.34469497558E+01 -0.54641474013E+01 -0.93278948868E+02  0.15610336485E+03  0.12500223937E+03 0.  0.
          5    1    4    4  502    0 -0.52249165430E+01  0.51655348298E+02 -0.82753927457E+02  0.97805302874E+02  0.47000000000E+01 0.  1.
         -5    1    4    4    0  502  0.17779667872E+01 -0.57119495699E+02 -0.10525021411E+02  0.58298061979E+02  0.47000000000E+01 0.  1.
        -11    1    3    3    0    0  0.33566549945E+02  0.29049989830E+02 -0.51975285813E+02  0.68352362941E+02  0.00000000000E+00 0. -1.
         11    1    3    3    0    0 -0.30119600189E+02 -0.23585842429E+02 -0.52533613364E+01  0.38614506134E+02  0.00000000000E+00 0.  1.
<mgrwt>
<rscale>  0 0.11537965E+03</rscale>
<asrwt>0</asrwt>
<pdfrwt beam="2">  1        2 0.31813679E-01 0.12516908E+03</pdfrwt>
<pdfrwt beam="1">  1       -2 0.86586646E-02 0.12516908E+03</pdfrwt>
<totfact> 0.12785409E+04</totfact>
</mgrwt>
</event>
<event>
 8    1  0.7550631E-006  0.1440841E+03  0.7546771E-02  0.1217749E+00
          1   -1    0    0  501    0  0.00000000000E+00  0.00000000000E+00  0.16781185106E+03  0.16781185106E+03  0.00000000000E+00 0. -1.
         -1   -1    0    0    0  501 -0.00000000000E+00 -0.00000000000E+00 -0.10283480384E+03  0.10283480384E+03  0.00000000000E+00 0.  1.
         23    2    1    2    0    0 -0.36269748052E+02 -0.61813210982E+02  0.13949976231E+02  0.11779379883E+03  0.92435975309E+02 0.  0.
         23    2    1    2    0    0  0.36269748052E+02  0.61813210982E+02  0.51027070994E+02  0.15285285607E+03  0.12499546375E+03 0.  0.
          5    1    4    4  502    0  0.47072938458E+02  0.68336807832E+02  0.83429119082E+02  0.11776369878E+03  0.47000000000E+01 0.  1.
         -5    1    4    4    0  502 -0.10803190406E+02 -0.65235968504E+01 -0.32402048089E+02  0.35089157288E+02  0.47000000000E+01 0.  1.
        -11    1    3    3    0    0 -0.56784428678E+02 -0.45467394279E+02 -0.19474157212E+02  0.75306029519E+02  0.00000000000E+00 0.  1.
         11    1    3    3    0    0  0.20514680627E+02 -0.16345816703E+02  0.33424133444E+02  0.42487769315E+02  0.00000000000E+00 0. -1.
<mgrwt>
<rscale>  0 0.13676530E+03</rscale>
<asrwt>0</asrwt>
<pdfrwt beam="1">  1        1 0.25817208E-01 0.14408412E+03</pdfrwt>
<pdfrwt beam="2">  1       -1 0.15820739E-01 0.14408412E+03</pdfrwt>
<totfact> 0.51915111E+03</totfact>
</mgrwt>
</event>
<event>
 8    1  0.7550631E-006  0.1251607E+03  0.7546771E-02  0.1253830E+00
         -1   -1    0    0    0  501 -0.00000000000E+00  0.00000000000E+00  0.10942440568E+03  0.10942440568E+03  0.00000000000E+00 0.  1.
          1   -1    0    0  501    0  0.00000000000E+00 -0.00000000000E+00 -0.10126150105E+03  0.10126150105E+03  0.00000000000E+00 0. -1.
         23    2    1    2    0    0  0.62674444166E+01  0.37530925917E+01  0.73491646380E+00  0.85304946549E+02  0.84988394737E+02 0.  0.
         23    2    1    2    0    0 -0.62674444166E+01 -0.37530925917E+01  0.74279881646E+01  0.12538096018E+03  0.12494736333E+03 0.  0.
          5    1    4    4  502    0  0.40476743633E+02 -0.23599747471E+02  0.42543037340E+02  0.63461128905E+02  0.47000000000E+01 0. -1.
         -5    1    4    4    0  502 -0.46744188049E+02  0.19846654879E+02 -0.35115049175E+02  0.61919831273E+02  0.47000000000E+01 0. -1.
        -11    1    3    3    0    0  0.19322913749E+02  0.40252610317E+02 -0.85090412779E+01  0.45453838304E+02  0.00000000000E+00 0. -1.
         11    1    3    3    0    0 -0.13055469333E+02 -0.36499517725E+02  0.92439577417E+01  0.39851108245E+02  0.00000000000E+00 0.  1.
<mgrwt>
<rscale>  0 0.11372098E+03</rscale>
<asrwt>0</asrwt>
<pdfrwt beam="2">  1        1 0.15578692E-01 0.12516074E+03</pdfrwt>
<pdfrwt beam="1">  1       -1 0.16834524E-01 0.12516074E+03</pdfrwt>
<totfact> 0.88566669E+03</totfact>
</mgrwt>
</event>
<event>
 8    1  0.7550631E-006  0.1298259E+03  0.7546771E-02  0.1241983E+00
          2   -1    0    0  501    0  0.00000000000E+00  0.00000000000E+00  0.12407272105E+04  0.12407272105E+04  0.00000000000E+00 0. -1.
         -2   -1    0    0    0  501 -0.00000000000E+00 -0.00000000000E+00 -0.11209221799E+02  0.11209221799E+02  0.00000000000E+00 0.  1.
         23    2    1    2    0    0  0.29559173291E+02 -0.18882312073E+02  0.36168062093E+03  0.37444201140E+03  0.90352985092E+02 0.  0.
         23    2    1    2    0    0 -0.29559173291E+02  0.18882312073E+02  0.86783736776E+03  0.87749442088E+03  0.12499790143E+03 0.  0.
          5    1    4    4  502    0  0.49202687710E+02  0.54081282422E+01  0.34559093317E+03  0.34914944568E+03  0.47000000000E+01 0.  1.
         -5    1    4    4    0  502 -0.78761861001E+02  0.13474183831E+02  0.52224643459E+03  0.52834497520E+03  0.47000000000E+01 0.  1.
        -11    1    3    3    0    0  0.54248342843E+02  0.12816602932E+02  0.23607076636E+03  0.24256247596E+03  0.00000000000E+00 0.  1.
         11    1    3    3    0    0 -0.24689169551E+02 -0.31698915006E+02  0.12560985456E+03  0.13187953545E+03  0.00000000000E+00 0. -1.
<mgrwt>
<rscale>  0 0.12067769E+03</rscale>
<asrwt>0</asrwt>
<pdfrwt beam="1">  1        2 0.19088100E+00 0.12982589E+03</pdfrwt>
<pdfrwt beam="2">  1       -2 0.17244966E-02 0.12982589E+03</pdfrwt>
<totfact> 0.17458907E+04</totfact>
</mgrwt>
</event>
<event>
 7    1  0.7550631E-006  0.4251465E+03  0.7546771E-02  0.1035404E+00
         -2   -1    0    0    0  501 -0.00000000000E+00  0.00000000000E+00  0.32495909604E+02  0.32495909604E+02  0.00000000000E+00 0.  1.
          2   -1    0    0  501    0  0.00000000000E+00 -0.00000000000E+00 -0.13905561653E+04  0.13905561653E+04  0.00000000000E+00 0. -1.
         23    2    1    2    0    0 -0.69945866540E+02  0.70930739957E+02 -0.21769404746E+03  0.25638574302E+03  0.91757053170E+02 0.  0.
          5    1    1    2  502    0  0.12761465411E+03 -0.10375021281E+03 -0.96848902381E+03  0.98236586150E+03  0.47000000000E+01 0. -1.
         -5    1    1    2    0  502 -0.57668787565E+02  0.32819472855E+02 -0.17187718442E+03  0.18430047038E+03  0.47000000000E+01 0.  1.
        -11    1    3    3    0    0 -0.41022653454E+01  0.26736752154E+02 -0.26415903825E+01  0.27178309301E+02  0.00000000000E+00 0. -1.
         11    1    3    3    0    0 -0.65843601195E+02  0.44193987803E+02 -0.21505245707E+03  0.22920743371E+03  0.00000000000E+00 0.  1.
<mgrwt>
<rscale>  0 0.42514650E+03</rscale>
<asrwt>0</asrwt>
<pdfrwt beam="2">  1        2 0.21393166E+00 0.42514650E+03</pdfrwt>
<pdfrwt beam="1">  1       -2 0.49993721E-02 0.42514650E+03</pdfrwt>
<totfact> 0.30648347E+03</totfact>
</mgrwt>
</event>
<event>
 8    1  0.7550631E-006  0.1401186E+03  0.7546771E-02  0.1224571E+00
         -2   -1    0    0    0  501 -0.00000000000E+00  0.00000000000E+00  0.61367700099E+02  0.61367700099E+02  0.00000000000E+00 0.  1.
          2   -1    0    0  501    0  0.00000000000E+00 -0.00000000000E+00 -0.25837838389E+03  0.25837838389E+03  0.00000000000E+00 0. -1.
         23    2    1    2    0    0  0.14623742950E+02 -0.61619011107E+02 -0.10410914543E+03  0.15162732477E+03  0.90229568695E+02 0.  0.
         23    2    1    2    0    0 -0.14623742950E+02  0.61619011107E+02 -0.92901538360E+02  0.16811875922E+03  0.12498985952E+03 0.  0.
          5    1    4    4  502    0 -0.39760754835E+02  0.84267324325E+02 -0.95941677710E+02  0.13382374638E+03  0.47000000000E+01 0.  1.
         -5    1    4    4    0  502  0.25137011885E+02 -0.22648313218E+02  0.30401393506E+01  0.34295012836E+02  0.47000000000E+01 0.  1.
        -11    1    3    3    0    0  0.35817767875E+02 -0.90166431231E+01 -0.47726868542E+01  0.37242326573E+02  0.00000000000E+00 0.  1.
         11    1    3    3    0    0 -0.21194024925E+02 -0.52602367984E+02 -0.99336458576E+02  0.11438499820E+03  0.00000000000E+00 0. -1.
<mgrwt>
<rscale>  0 0.13196337E+03</rscale>
<asrwt>0</asrwt>
<pdfrwt beam="2">  1        2 0.39750521E-01 0.14011860E+03</pdfrwt>
<pdfrwt beam="1">  1       -2 0.94411846E-02 0.14011860E+03</pdfrwt>
<totfact> 0.88837370E+03</totfact>
</mgrwt>
</event>
<event>
 8    1  0.7550631E-006  0.1286285E+03  0.7546771E-02  0.1259616E+00
         -2   -1    0    0    0  501 -0.00000000000E+00  0.00000000000E+00  0.20265637280E+02  0.20265637280E+02  0.00000000000E+00 0.  1.
          2   -1    0    0  501    0  0.00000000000E+00 -0.00000000000E+00 -0.64617194165E+03  0.64617194165E+03  0.00000000000E+00 0. -1.
         23    2    1    2    0    0  0.30054828984E+02 -0.39644681696E+01 -0.83665882264E+02  0.10914952301E+03  0.63203075602E+02 0.  0.
         23    2    1    2    0    0 -0.30054828984E+02  0.39644681696E+01 -0.54224042211E+03  0.55728805592E+03  0.12500516850E+03 0.  0.
          5    1    4    4  502    0  0.30803052350E+02  0.44177443931E+02 -0.27304500136E+03  0.27834535627E+03  0.47000000000E+01 0. -1.
         -5    1    4    4    0  502 -0.60857881334E+02 -0.40212975762E+02 -0.26919542075E+03  0.27894269966E+03  0.47000000000E+01 0. -1.
        -11    1    3    3    0    0  0.37714581597E+02 -0.26560886107E+02 -0.57988664286E+02  0.74098282851E+02  0.00000000000E+00 0.  1.
         11    1    3    3    0    0 -0.76597526127E+01  0.22596417937E+02 -0.25677217978E+02  0.35051240161E+02  0.00000000000E+00 0. -1.
<mgrwt>
<rscale>  0 0.11051683E+03</rscale>
<asrwt>0</asrwt>
<pdfrwt beam="2">  1        2 0.99411050E-01 0.12862854E+03</pdfrwt>
<pdfrwt beam="1">  1       -2 0.31177909E-02 0.12862854E+03</pdfrwt>
<totfact> 0.17422353E+04</totfact>
</mgrwt>
</event>
<event>
 8    1  0.7550631E-006  0.1269816E+03  0.7546771E-02  0.1245787E+00
          3   -1    0    0  501    0  0.00000000000E+00  0.00000000000E+00  0.24062936689E+03  0.24062936689E+03  0.00000000000E+00 0. -1.
         -3   -1    0    0    0  501 -0.00000000000E+00 -0.00000000000E+00 -0.51730045968E+02  0.51730045968E+02  0.00000000000E+00 0.  1.
         23    2    1    2    0    0  0.21413792628E+02  0.62575893153E+01  0.87881971497E+02  0.13009783031E+03  0.93297891716E+02 0.  0.
         23    2    1    2    0    0 -0.21413792628E+02 -0.62575893153E+01  0.10101734942E+03  0.16226158254E+03  0.12500643322E+03 0.  0.
          5    1    4    4  502    0  0.17858084306E+02 -0.84059276030E+01 -0.23820560246E+02  0.31290252226E+02  0.47000000000E+01 0.  1.
         -5    1    4    4    0  502 -0.39271876933E+02  0.21483382877E+01  0.12483790967E+03  0.13097133032E+03  0.47000000000E+01 0.  1.
        -11    1    3    3    0    0  0.41803528754E+02 -0.23998809477E+02  0.79003772744E+02  0.92547684900E+02  0.00000000000E+00 0.  1.
         11    1    3    3    0    0 -0.20389736127E+02  0.30256398793E+02  0.88781987534E+01  0.37550145410E+02  0.00000000000E+00 0. -1.
<mgrwt>
<rscale>  0 0.11838372E+03</rscale>
<asrwt>0</asrwt>
<pdfrwt beam="1">  1        3 0.37019902E-01 0.12698156E+03</pdfrwt>
<pdfrwt beam="2">  1       -3 0.79584688E-02 0.12698156E+03</pdfrwt>
<totfact> 0.17609303E+03</totfact>
</mgrwt>
</event>
<event>
 8    1  0.7550631E-006  0.1280166E+03  0.7546771E-02  0.1244844E+00
         -1   -1    0    0    0  501 -0.00000000000E+00  0.00000000000E+00  0.26511708460E+03  0.26511708460E+03  0.00000000000E+00 0.  1.
          1   -1    0    0  501    0  0.00000000000E+00 -0.00000000000E+00 -0.14004356768E+03  0.14004356768E+03  0.00000000000E+00 0. -1.
         23    2    1    2    0    0 -0.24411538322E+02 -0.12937007580E+02  0.22393454523E+03  0.24341468867E+03  0.91327655978E+02 0.  0.
         23    2    1    2    0    0  0.24411538322E+02  0.12937007580E+02 -0.98861028301E+02  0.16174596361E+03  0.12499985783E+03 0.  0.
          5    1    4    4  502    0  0.65734048333E+02 -0.15056503419E+02 -0.24171396121E+02  0.71791432608E+02  0.47000000000E+01 0. -1.
         -5    1    4    4    0  502 -0.41322510012E+02  0.27993510999E+02 -0.74689632180E+02  0.89954530997E+02  0.47000000000E+01 0. -1.
        -11    1    3    3    0    0 -0.10125207800E+02  0.33551689651E+02  0.40103309832E+02  0.53258906963E+02  0.00000000000E+00 0.  1.
         11    1    3    3    0    0 -0.14286330522E+02 -0.46488697231E+02  0.18383123540E+03  0.19015578171E+03  0.00000000000E+00 0. -1.
<mgrwt>
<rscale>  0 0.11894713E+03</rscale>
<asrwt>0</asrwt>
<pdfrwt beam="2">  1        1 0.21545164E-01 0.12801662E+03</pdfrwt>
<pdfrwt beam="1">  1       -1 0.40787244E-01 0.12801662E+03</pdfrwt>
<totfact> 0.13559805E+03</totfact>
</mgrwt>
</event>
<event>
 7    1  0.7550631E-006  0.2130759E+03  0.7546771E-02  0.1154757E+00
         -1   -1    0    0    0  501 -0.00000000000E+00  0.00000000000E+00  0.35626999841E+03  0.35626999841E+03  0.00000000000E+00 0.  1.
          1   -1    0    0  501    0  0.00000000000E+00 -0.00000000000E+00 -0.90941651218E+02  0.90941651218E+02  0.00000000000E+00 0. -1.
         23    2    1    2    0    0  0.99140697315E+02 -0.57789601455E+02  0.10751759867E+03  0.18205969327E+03  0.91745201447E+02 0.  0.
          5    1    1    2  502    0 -0.76502705798E+02  0.11596061946E+03  0.14574343636E+03  0.20140200719E+03  0.47000000000E+01 0. -1.
         -5    1    1    2    0  502 -0.22637991517E+02 -0.58171018005E+02  0.12067312160E+02  0.63749949164E+02  0.47000000000E+01 0.  1.
        -11    1    3    3    0    0 -0.11201237230E+02  0.31489921622E+00 -0.66130722180E+01  0.13011518019E+02  0.00000000000E+00 0. -1.
         11    1    3    3    0    0  0.11034193455E+03 -0.58104500671E+02  0.11413067089E+03  0.16904817525E+03  0.00000000000E+00 0.  1.
<mgrwt>
<rscale>  0 0.19416523E+03</rscale>
<asrwt>0</asrwt>
<pdfrwt beam="2">  1        1 0.13991023E-01 0.21307587E+03</pdfrwt>
<pdfrwt beam="1">  1       -1 0.54810768E-01 0.21307587E+03</pdfrwt>
<totfact> 0.14029322E+03</totfact>
</mgrwt>
</event>
<event>
 8    1  0.7550631E-006  0.1266022E+03  0.7546771E-02  0.1246210E+00
         -2   -1    0    0    0  501 -0.00000000000E+00  0.00000000000E+00  0.14442274712E+03  0.14442274712E+03  0.00000000000E+00 0.  1.
          2   -1    0    0  501    0  0.00000000000E+00 -0.00000000000E+00 -0.10715962311E+03  0.10715962311E+03  0.00000000000E+00 0. -1.
         23    2    1    2    0    0 -0.61158996079E+01  0.19318047766E+02  0.72371353891E+02  0.12020238442E+03  0.93810495999E+02 0.  0.
         23    2    1    2    0    0  0.61158996079E+01 -0.19318047766E+02 -0.35108229883E+02  0.13137998580E+03  0.12497008309E+03 0.  0.
          5    1    4    4  502    0  0.11115443911E+02  0.50353159942E+02 -0.32879272210E+02  0.61336207500E+02  0.47000000000E+01 0. -1.
         -5    1    4    4    0  502 -0.49995443033E+01 -0.69671207708E+02 -0.22289576737E+01  0.70043778304E+02  0.47000000000E+01 0. -1.
        -11    1    3    3    0    0 -0.13420682812E+02 -0.11994287520E+02  0.84079040004E+02  0.85984083576E+02  0.00000000000E+00 0.  1.
         11    1    3    3    0    0  0.73047832039E+01  0.31312335287E+02 -0.11707686114E+02  0.34218300848E+02  0.00000000000E+00 0. -1.
<mgrwt>
<rscale>  0 0.11813246E+03</rscale>
<asrwt>0</asrwt>
<pdfrwt beam="2">  1        2 0.16486096E-01 0.12660218E+03</pdfrwt>
<pdfrwt beam="1">  1       -2 0.22218884E-01 0.12660218E+03</pdfrwt>
<totfact> 0.57644355E+03</totfact>
</mgrwt>
</event>
<event>
 8    1  0.7550631E-006  0.1844101E+03  0.7546771E-02  0.1169848E+00
         -1   -1    0    0    0  501 -0.00000000000E+00  0.00000000000E+00  0.21967060710E+02  0.21967060710E+02  0.00000000000E+00 0.  1.
          1   -1    0    0  501    0  0.00000000000E+00 -0.00000000000E+00 -0.21852266731E+04  0.21852266731E+04  0.00000000000E+00 0. -1.
         23    2    1    2    0    0 -0.12495576442E+03 -0.52613646499E+02 -0.35168672858E+03  0.38625897567E+03  0.84441117763E+02 0.  0.
         23    2    1    2    0    0  0.12495576442E+03  0.52613646499E+02 -0.18115728838E+04  0.18209347581E+04  0.12499976472E+03 0.  0.
          5    1    4    4  502    0  0.92296310237E+02  0.50390681019E+02 -0.17258029074E+04  0.17290100043E+04  0.47000000000E+01 0. -1.
         -5    1    4    4    0  502  0.32659454181E+02  0.22229654805E+01 -0.85769976363E+02  0.91924753838E+02  0.47000000000E+01 0. -1.
        -11    1    3    3    0    0 -0.43515414649E+02 -0.30157387222E+02 -0.49478444782E+02  0.72464997165E+02  0.00000000000E+00 0.  1.
         11    1    3    3    0    0 -0.81440349769E+02 -0.22456259277E+02 -0.30220828380E+03  0.31379397851E+03  0.00000000000E+00 0. -1.
<mgrwt>
<rscale>  0 0.17790269E+03</rscale>
<asrwt>0</asrwt>
<pdfrwt beam="2">  1        1 0.33618862E+00 0.18441009E+03</pdfrwt>
<pdfrwt beam="1">  1       -1 0.33795488E-02 0.18441009E+03</pdfrwt>
<totfact> 0.81691724E+02</totfact>
</mgrwt>
</event>
<event>
 8    1  0.7550631E-006  0.1608942E+03  0.7546771E-02  0.1195298E+00
          2   -1    0    0  501    0  0.00000000000E+00  0.00000000000E+00  0.10134594126E+04  0.10134594126E+04  0.00000000000E+00 0. -1.
         -2   -1    0    0    0  501 -0.00000000000E+00 -0.00000000000E+00 -0.28059575078E+02  0.28059575078E+02  0.00000000000E+00 0.  1.
         23    2    1    2    0    0 -0.30208399998E+02  0.96686485267E+02  0.21453657552E+03  0.25404382817E+03  0.90837770404E+02 0.  0.
         23    2    1    2    0    0  0.30208399998E+02 -0.96686485267E+02  0.77086326205E+03  0.78747515955E+03  0.12500453701E+03 0.  0.
          5    1    4    4  502    0  0.18720977225E+02 -0.25887797573E+02  0.61488097749E+03  0.61572831633E+03  0.47000000000E+01 0. -1.
         -5    1    4    4    0  502  0.11487422773E+02 -0.70798687694E+02  0.15598228456E+03  0.17174684323E+03  0.47000000000E+01 0. -1.
        -11    1    3    3    0    0  0.21226130133E+02  0.12275539710E+02  0.92644890314E+01  0.26211986430E+02  0.00000000000E+00 0.  1.
         11    1    3    3    0    0 -0.51434530131E+02  0.84410945556E+02  0.20527208649E+03  0.22783184174E+03  0.00000000000E+00 0. -1.
<mgrwt>
<rscale>  0 0.15429008E+03</rscale>
<asrwt>0</asrwt>
<pdfrwt beam="1">  1        2 0.15591680E+00 0.16089425E+03</pdfrwt>
<pdfrwt beam="2">  1       -2 0.43168585E-02 0.16089425E+03</pdfrwt>
<totfact> 0.61803630E+03</totfact>
</mgrwt>
</event>
<event>
 7    1  0.7550631E-006  0.1748267E+03  0.7546771E-02  0.1200117E+00
          2   -1    0    0  501    0  0.00000000000E+00  0.00000000000E+00  0.34128845993E+03  0.34128845993E+03  0.00000000000E+00 0. -1.
         -2   -1    0    0    0  501 -0.00000000000E+00 -0.00000000000E+00 -0.63584205746E+02  0.63584205746E+02  0.00000000000E+00 0.  1.
         23    2    1    2    0    0 -0.11837476919E+02  0.29687705578E+02  0.26981878411E+02  0.99215840277E+02  0.89968191473E+02 0.  0.
          5    1    1    2  502    0  0.22798651865E+02  0.25190793004E+02  0.24700435242E+03  0.24937440665E+03  0.47000000000E+01 0. -1.
         -5    1    1    2    0  502 -0.10961174946E+02 -0.54878498582E+02  0.37180233580E+01  0.56282418751E+02  0.47000000000E+01 0.  1.
        -11    1    3    3    0    0 -0.31609562345E+02 -0.12188982696E+02 -0.14681589710E+02  0.36922686891E+02  0.00000000000E+00 0. -1.
         11    1    3    3    0    0  0.19772085426E+02  0.41876688274E+02  0.41663468121E+02  0.62293153386E+02  0.00000000000E+00 0.  1.
<mgrwt>
<rscale>  0 0.15028997E+03</rscale>
<asrwt>0</asrwt>
<pdfrwt beam="1">  1        2 0.52505916E-01 0.17482673E+03</pdfrwt>
<pdfrwt beam="2">  1       -2 0.97821857E-02 0.17482673E+03</pdfrwt>
<totfact> 0.63356396E+03</totfact>
</mgrwt>
</event>
<event>
 8    1  0.7550631E-006  0.1350909E+03  0.7546771E-02  0.1232807E+00
          2   -1    0    0  501    0  0.00000000000E+00  0.00000000000E+00  0.12243015216E+03  0.12243015216E+03  0.00000000000E+00 0. -1.
         -2   -1    0    0    0  501 -0.00000000000E+00 -0.00000000000E+00 -0.11786018938E+03  0.11786018938E+03  0.00000000000E+00 0.  1.
         23    2    1    2    0    0 -0.38019192085E+02  0.34284388859E+02 -0.10956321583E+02  0.10431009071E+03  0.90220151597E+02 0.  0.
         23    2    1    2    0    0  0.38019192085E+02 -0.34284388859E+02  0.15526284365E+02  0.13598025084E+03  0.12501473844E+03 0.  0.
          5    1    4    4  502    0 -0.44986447524E+01  0.43723008742E+02  0.16004905444E+02  0.47012618480E+02  0.47000000000E+01 0. -1.
         -5    1    4    4    0  502  0.42517836838E+02 -0.78007397601E+02 -0.47862107929E+00  0.88967632361E+02  0.47000000000E+01 0. -1.
        -11    1    3    3    0    0  0.13461828015E+02  0.46657513880E+02 -0.15986885251E+02  0.51124601857E+02  0.00000000000E+00 0. -1.
         11    1    3    3    0    0 -0.51481020100E+02 -0.12373125021E+02  0.50305636678E+01  0.53185488849E+02  0.00000000000E+00 0.  1.
<mgrwt>
<rscale>  0 0.12645879E+03</rscale>
<asrwt>0</asrwt>
<pdfrwt beam="1">  1        2 0.18835408E-01 0.13509094E+03</pdfrwt>
<pdfrwt beam="2">  1       -2 0.18132337E-01 0.13509094E+03</pdfrwt>
<totfact> 0.70106370E+03</totfact>
</mgrwt>
</event>
<event>
 8    1  0.7550631E-006  0.1320264E+03  0.7546771E-02  0.1237605E+00
          3   -1    0    0  501    0  0.00000000000E+00  0.00000000000E+00  0.63698309501E+02  0.63698309501E+02  0.00000000000E+00 0. -1.
         -3   -1    0    0    0  501 -0.00000000000E+00 -0.00000000000E+00 -0.39995992603E+03  0.39995992603E+03  0.00000000000E+00 0.  1.
         23    2    1    2    0    0 -0.68797719768E+01  0.41927049415E+02 -0.31400862382E+03  0.32976957997E+03  0.91330998618E+02 0.  0.
         23    2    1    2    0    0  0.68797719768E+01 -0.41927049415E+02 -0.22252992710E+02  0.13388865556E+03  0.12500307063E+03 0.  0.
          5    1    4    4  502    0 -0.63456078717E+01 -0.72481802145E+01 -0.71356542748E+02  0.72157113638E+02  0.47000000000E+01 0. -1.
         -5    1    4    4    0  502  0.13225379849E+02 -0.34678869201E+02  0.49103550038E+02  0.61731541918E+02  0.47000000000E+01 0. -1.
        -11    1    3    3    0    0 -0.33826673255E+02  0.56662092358E+02 -0.25302311764E+03  0.26148715952E+03  0.00000000000E+00 0.  1.
         11    1    3    3    0    0  0.26946901279E+02 -0.14735042942E+02 -0.60985506172E+02  0.68282420447E+02  0.00000000000E+00 0. -1.
<mgrwt>
<rscale>  0 0.12339157E+03</rscale>
<asrwt>0</asrwt>
<pdfrwt beam="1">  1        3 0.97997401E-02 0.13202642E+03</pdfrwt>
<pdfrwt beam="2">  1       -3 0.61532295E-01 0.13202642E+03</pdfrwt>
<totfact> 0.46077165E+02</totfact>
</mgrwt>
</event>
<event>
 7    1  0.7550631E-006  0.1744650E+03  0.7546771E-02  0.1192795E+00
         -3   -1    0    0    0  501 -0.00000000000E+00  0.00000000000E+00  0.61274142273E+02  0.61274142273E+02  0.00000000000E+00 0.  1.
          3   -1    0    0  501    0  0.00000000000E+00 -0.00000000000E+00 -0.37016622043E+03  0.37016622043E+03  0.00000000000E+00 0. -1.
         23    2    1    2    0    0  0.17732065273E+02 -0.65135393939E+02 -0.60641034444E+02  0.12801554788E+03  0.90297285445E+02 0.  0.
          5    1    1    2  502    0  0.43205302852E+02 -0.22827160200E+02 -0.15089694929E+03  0.15868130559E+03  0.47000000000E+01 0. -1.
         -5    1    1    2    0  502 -0.60937368124E+02  0.87962554139E+02 -0.97354094418E+02  0.14474350923E+03  0.47000000000E+01 0.  1.
        -11    1    3    3    0    0  0.50917203833E+02 -0.50361535590E+02 -0.56957398390E+02  0.91504049880E+02  0.00000000000E+00 0. -1.
         11    1    3    3    0    0 -0.33185138560E+02 -0.14773858349E+02 -0.36836360542E+01  0.36511498002E+02  0.00000000000E+00 0.  1.
<mgrwt>
<rscale>  0 0.15642357E+03</rscale>
<asrwt>0</asrwt>
<pdfrwt beam="2">  1        3 0.56948649E-01 0.17446500E+03</pdfrwt>
<pdfrwt beam="1">  1       -3 0.94267911E-02 0.17446500E+03</pdfrwt>
<totfact> 0.59905976E+02</totfact>
</mgrwt>
</event>
<event>
 8    1  0.7550631E-006  0.1421346E+03  0.7546771E-02  0.1228012E+00
          2   -1    0    0  501    0  0.00000000000E+00  0.00000000000E+00  0.23718110208E+03  0.23718110208E+03  0.00000000000E+00 0. -1.
         -2   -1    0    0    0  501 -0.00000000000E+00 -0.00000000000E+00 -0.62155652179E+02  0.62155652179E+02  0.00000000000E+00 0.  1.
         23    2    1    2    0    0  0.62777711846E+02 -0.25135924606E+02  0.51344357577E+02  0.11092429757E+03  0.71379975657E+02 0.  0.
         23    2    1    2    0    0 -0.62777711846E+02  0.25135924606E+02  0.12368109233E+03  0.18841245670E+03  0.12501754048E+03 0.  0.
          5    1    4    4  502    0  0.99990160562E+00 -0.45176574469E+02  0.27060228782E+02  0.52879756672E+02  0.47000000000E+01 0.  1.
         -5    1    4    4    0  502 -0.63777613452E+02  0.70312499074E+02  0.96620863544E+02  0.13553270002E+03  0.47000000000E+01 0.  1.
        -11    1    3    3    0    0 -0.10871081711E+02  0.78572481488E+01  0.20564838297E+02  0.24552583168E+02  0.00000000000E+00 0.  1.
         11    1    3    3    0    0  0.73648793557E+02 -0.32993172755E+02  0.30779519281E+02  0.86371714397E+02  0.00000000000E+00 0. -1.
<mgrwt>
<rscale>  0 0.12962587E+03</rscale>
<asrwt>0</asrwt>
<pdfrwt beam="1">  1        2 0.36489400E-01 0.14213459E+03</pdfrwt>
<pdfrwt beam="2">  1       -2 0.95624081E-02 0.14213459E+03</pdfrwt>
<totfact> 0.95511007E+03</totfact>
</mgrwt>
</event>
<event>
 8    1  0.7550631E-006  0.1588274E+03  0.7546771E-02  0.1200333E+00
          2   -1    0    0  501    0  0.00000000000E+00  0.00000000000E+00  0.40010566651E+04  0.40010566651E+04  0.00000000000E+00 0.  1.
         -2   -1    0    0    0  501 -0.00000000000E+00 -0.00000000000E+00 -0.84051229409E+01  0.84051229409E+01  0.00000000000E+00 0. -1.
         23    2    1    2    0    0 -0.94548747340E+02 -0.25854947611E+02  0.60714790604E+03  0.62023458570E+03  0.80339389848E+02 0.  0.
         23    2    1    2    0    0  0.94548747340E+02  0.25854947611E+02  0.33855036361E+04  0.33892272023E+04  0.12497285670E+03 0.  0.
          5    1    4    4  502    0  0.17033464633E+01 -0.41199408013E+02  0.65038696904E+03  0.65170974529E+03  0.47000000000E+01 0. -1.
         -5    1    4    4    0  502  0.92845400876E+02  0.67054355624E+02  0.27351166670E+04  0.27375174570E+04  0.47000000000E+01 0. -1.
        -11    1    3    3    0    0  0.11598942538E+02  0.75721026287E+01  0.41729459516E+02  0.43968397716E+02  0.00000000000E+00 0. -1.
         11    1    3    3    0    0 -0.10614768988E+03 -0.33427050239E+02  0.56541844652E+03  0.57626618799E+03  0.00000000000E+00 0.  1.
<mgrwt>
<rscale>  0 0.15011371E+03</rscale>
<asrwt>0</asrwt>
<pdfrwt beam="1">  1        2 0.61554566E+00 0.15882745E+03</pdfrwt>
<pdfrwt beam="2">  1       -2 0.12930990E-02 0.15882745E+03</pdfrwt>
<totfact> 0.68070242E+02</totfact>
</mgrwt>
</event>
<event>
 8    1  0.7550631E-006  0.2749641E+03  0.7546771E-02  0.1100514E+00
         -1   -1    0    0    0  501 -0.00000000000E+00  0.00000000000E+00  0.20347289511E+03  0.20347289511E+03  0.00000000000E+00 0.  1.
          1   -1    0    0  501    0  0.00000000000E+00 -0.00000000000E+00 -0.38771495053E+03  0.38771495053E+03  0.00000000000E+00 0. -1.
         23    2    1    2    0    0  0.17732620768E+03  0.16938529902E+03 -0.99911693521E+00  0.26075896628E+03  0.88646922130E+02 0.  0.
         23    2    1    2    0    0 -0.17732620768E+03 -0.16938529902E+03 -0.18324293849E+03  0.33042887936E+03  0.12437566624E+03 0.  0.
          5    1    4    4  502    0 -0.19182963445E+03 -0.14745641896E+03 -0.18352492477E+03  0.30371943000E+03  0.47000000000E+01 0. -1.
         -5    1    4    4    0  502  0.14503426770E+02 -0.21928880060E+02  0.28198628468E+00  0.26709449358E+02  0.47000000000E+01 0.  1.
        -11    1    3    3    0    0  0.27977775734E+01  0.47795605673E+02  0.34926042036E+01  0.48004643162E+02  0.00000000000E+00 0. -1.
         11    1    3    3    0    0  0.17452843011E+03  0.12158969335E+03 -0.44917211388E+01  0.21275432311E+03  0.00000000000E+00 0.  1.
<mgrwt>
<rscale>  0 0.27134139E+03</rscale>
<asrwt>0</asrwt>
<pdfrwt beam="2">  1        1 0.59648454E-01 0.27496412E+03</pdfrwt>
<pdfrwt beam="1">  1       -1 0.31303523E-01 0.27496412E+03</pdfrwt>
<totfact> 0.60160627E+02</totfact>
</mgrwt>
</event>
<event>
 8    1  0.7550631E-006  0.1543835E+03  0.7546771E-02  0.1203667E+00
          3   -1    0    0  501    0  0.00000000000E+00  0.00000000000E+00  0.40703766062E+02  0.40703766062E+02  0.00000000000E+00 0. -1.
         -3   -1    0    0    0  501 -0.00000000000E+00 -0.00000000000E+00 -0.49427120811E+03  0.49427120811E+03  0.00000000000E+00 0.  1.
         23    2    1    2    0    0 -0.87183292358E+02 -0.24631489175E+02 -0.22733818650E+03  0.26108827054E+03  0.90976905039E+02 0.  0.
         23    2    1    2    0    0  0.87183292358E+02  0.24631489175E+02 -0.22622925555E+03  0.27388670363E+03  0.12500645436E+03 0.  0.
          5    1    4    4  502    0 -0.12169543058E+02 -0.21043393839E+02 -0.25811814285E+01  0.24893266159E+02  0.47000000000E+01 0.  1.
         -5    1    4    4    0  502  0.99352835416E+02  0.45674883015E+02 -0.22364807412E+03  0.24899343747E+03  0.47000000000E+01 0.  1.
        -11    1    3    3    0    0 -0.56396093534E+02  0.30670710940E+02 -0.12989710439E+03  0.14489468453E+03  0.00000000000E+00 0. -1.
         11    1    3    3    0    0 -0.30787198824E+02 -0.55302200116E+02 -0.97441082105E+02  0.11619358601E+03  0.00000000000E+00 0.  1.
<mgrwt>
<rscale>  0 0.14742964E+03</rscale>
<asrwt>0</asrwt>
<pdfrwt beam="1">  1        3 0.62621180E-02 0.15438345E+03</pdfrwt>
<pdfrwt beam="2">  1       -3 0.76041723E-01 0.15438345E+03</pdfrwt>
<totfact> 0.62423139E+02</totfact>
</mgrwt>
</event>
<event>
 8    1  0.7550631E-006  0.1250171E+03  0.7546771E-02  0.1252604E+00
          4   -1    0    0  501    0  0.00000000000E+00  0.00000000000E+00  0.38082547057E+03  0.38082547057E+03  0.00000000000E+00 0. -1.
         -4   -1    0    0    0  501 -0.00000000000E+00 -0.00000000000E+00 -0.68556719819E+02  0.68556719819E+02  0.00000000000E+00 0.  1.
         23    2    1    2    0    0  0.19524580517E+01 -0.15487189387E+01 -0.23744601958E+02  0.90865454070E+02  0.87672766572E+02 0.  0.
         23    2    1    2    0    0 -0.19524580517E+01  0.15487189387E+01  0.33601335271E+03  0.35851673632E+03  0.12499226536E+03 0.  0.
          5    1    4    4  502    0  0.36253404587E+02 -0.49198601384E+02  0.16095897263E+03  0.17223441176E+03  0.47000000000E+01 0.  1.
         -5    1    4    4    0  502 -0.38205862639E+02  0.50747320323E+02  0.17505438008E+03  0.18628232456E+03  0.47000000000E+01 0.  1.
        -11    1    3    3    0    0 -0.13913302948E+02  0.39019630492E+02 -0.22819328039E+02  0.47295172003E+02  0.00000000000E+00 0.  1.
         11    1    3    3    0    0  0.15865760999E+02 -0.40568349431E+02 -0.92527391980E+00  0.43570282068E+02  0.00000000000E+00 0. -1.
<mgrwt>
<rscale>  0 0.11441609E+03</rscale>
<asrwt>0</asrwt>
<pdfrwt beam="1">  1        4 0.58588533E-01 0.12501711E+03</pdfrwt>
<pdfrwt beam="2">  1       -4 0.10547188E-01 0.12501711E+03</pdfrwt>
<totfact> 0.31691737E+02</totfact>
</mgrwt>
</event>
<event>
 8    1  0.7550631E-006  0.1377894E+03  0.7546771E-02  0.1227421E+00
          2   -1    0    0  501    0  0.00000000000E+00  0.00000000000E+00  0.48251679897E+03  0.48251679897E+03  0.00000000000E+00 0. -1.
         -2   -1    0    0    0  501 -0.00000000000E+00 -0.00000000000E+00 -0.39505550074E+02  0.39505550074E+02  0.00000000000E+00 0.  1.
         23    2    1    2    0    0 -0.24569665048E+02  0.52506610034E+02  0.85046665309E+02  0.13845416192E+03  0.92606733743E+02 0.  0.
         23    2    1    2    0    0  0.24569665048E+02 -0.52506610034E+02  0.35796458359E+03  0.38356818713E+03  0.12500119413E+03 0.  0.
          5    1    4    4  502    0  0.13167540320E+01 -0.32844358873E+02  0.35022930609E+03  0.35179986156E+03  0.47000000000E+01 0.  1.
         -5    1    4    4    0  502  0.23252911016E+02 -0.19662251161E+02  0.77352775031E+01  0.31768325569E+02  0.47000000000E+01 0.  1.
        -11    1    3    3    0    0  0.27383687110E+02  0.16204127151E+02  0.64339087861E+02  0.71777143181E+02  0.00000000000E+00 0. -1.
         11    1    3    3    0    0 -0.51953352158E+02  0.36302482883E+02  0.20707577448E+02  0.66677018737E+02  0.00000000000E+00 0.  1.
<mgrwt>
<rscale>  0 0.13002353E+03</rscale>
<asrwt>0</asrwt>
<pdfrwt beam="1">  1        2 0.74233349E-01 0.13778937E+03</pdfrwt>
<pdfrwt beam="2">  1       -2 0.60777773E-02 0.13778937E+03</pdfrwt>
<totfact> 0.89746743E+03</totfact>
</mgrwt>
</event>
<event>
 8    1  0.7550631E-006  0.1436102E+03  0.7546771E-02  0.1212169E+00
          2   -1    0    0  501    0  0.00000000000E+00  0.00000000000E+00  0.40686738554E+02  0.40686738554E+02  0.00000000000E+00 0. -1.
         -2   -1    0    0    0  501 -0.00000000000E+00 -0.00000000000E+00 -0.47932430202E+03  0.47932430202E+03  0.00000000000E+00 0.  1.
         23    2    1    2    0    0  0.58060235698E+02  0.40345703991E+02 -0.24737308297E+03  0.28083327211E+03  0.11258382543E+03 0.  0.
         23    2    1    2    0    0 -0.58060235698E+02 -0.40345703991E+02 -0.19126448050E+03  0.23917776847E+03  0.12500054651E+03 0.  0.
          5    1    4    4  502    0  0.19817760817E+02  0.30406711804E+02 -0.66463496611E+02  0.75873566861E+02  0.47000000000E+01 0. -1.
         -5    1    4    4    0  502 -0.77877996515E+02 -0.70752415795E+02 -0.12480098389E+03  0.16330420161E+03  0.47000000000E+01 0. -1.
        -11    1    3    3    0    0  0.57143102040E+02  0.68838576409E+02 -0.11648661048E+03  0.14687822893E+03  0.00000000000E+00 0. -1.
         11    1    3    3    0    0  0.91713365804E+00 -0.28492872418E+02 -0.13088647249E+03  0.13395504318E+03  0.00000000000E+00 0.  1.
<mgrwt>
<rscale>  0 0.14086580E+03</rscale>
<asrwt>0</asrwt>
<pdfrwt beam="1">  1        2 0.62594977E-02 0.14361025E+03</pdfrwt>
<pdfrwt beam="2">  1       -2 0.73742207E-01 0.14361025E+03</pdfrwt>
<totfact> 0.19242618E+03</totfact>
</mgrwt>
</event>
<event>
 8    1  0.7550631E-006  0.1390315E+03  0.7546771E-02  0.1225652E+00
         -2   -1    0    0    0  501 -0.00000000000E+00  0.00000000000E+00  0.46794007743E+03  0.46794007743E+03  0.00000000000E+00 0.  1.
          2   -1    0    0  501    0  0.00000000000E+00 -0.00000000000E+00 -0.33229417122E+02  0.33229417122E+02  0.00000000000E+00 0. -1.
         23    2    1    2    0    0 -0.46876077425E+02  0.38909766299E+02  0.18844635312E+03  0.21836944342E+03  0.91988310494E+02 0.  0.
         23    2    1    2    0    0  0.46876077425E+02 -0.38909766299E+02  0.24626430719E+03  0.28280005113E+03  0.12497369074E+03 0.  0.
          5    1    4    4  502    0  0.64869749648E+02 -0.52007757670E+00  0.50233690588E+02  0.82181923622E+02  0.47000000000E+01 0.  1.
         -5    1    4    4    0  502 -0.17993672223E+02 -0.38389688722E+02  0.19603061660E+03  0.20061812751E+03  0.47000000000E+01 0.  1.
        -11    1    3    3    0    0 -0.25009495463E+02  0.64067854141E+02  0.83066339172E+02  0.10784331922E+03  0.00000000000E+00 0. -1.
         11    1    3    3    0    0 -0.21866581962E+02 -0.25158087842E+02  0.10538001395E+03  0.11052612420E+03  0.00000000000E+00 0.  1.
<mgrwt>
<rscale>  0 0.13122315E+03</rscale>
<asrwt>0</asrwt>
<pdfrwt beam="2">  1        2 0.51122184E-02 0.13903151E+03</pdfrwt>
<pdfrwt beam="1">  1       -2 0.71990776E-01 0.13903151E+03</pdfrwt>
<totfact> 0.26282718E+03</totfact>
</mgrwt>
</event>
<event>
 8    1  0.7550631E-006  0.1286075E+03  0.7546771E-02  0.1244828E+00
          1   -1    0    0  501    0  0.00000000000E+00  0.00000000000E+00  0.47442597367E+03  0.47442597367E+03  0.00000000000E+00 0. -1.
         -1   -1    0    0    0  501 -0.00000000000E+00 -0.00000000000E+00 -0.32687323030E+02  0.32687323030E+02  0.00000000000E+00 0.  1.
         23    2    1    2    0    0  0.67449795048E+01  0.29502094160E+02  0.81181396617E+02  0.12430599788E+03  0.89138620386E+02 0.  0.
         23    2    1    2    0    0 -0.67449795048E+01 -0.29502094160E+02  0.36055725403E+03  0.38280729882E+03  0.12499610510E+03 0.  0.
          5    1    4    4  502    0  0.39395544955E+02 -0.53149787462E+02  0.12436354344E+03  0.14094427908E+03  0.47000000000E+01 0.  1.
         -5    1    4    4    0  502 -0.46140524460E+02  0.23647693302E+02  0.23619371059E+03  0.24186301974E+03  0.47000000000E+01 0.  1.
        -11    1    3    3    0    0  0.35379076450E+02  0.70347312643E+01  0.80152249923E+02  0.87895106019E+02  0.00000000000E+00 0. -1.
         11    1    3    3    0    0 -0.28634096945E+02  0.22467362896E+02  0.10291466947E+01  0.36410891863E+02  0.00000000000E+00 0.  1.
<mgrwt>
<rscale>  0 0.11895661E+03</rscale>
<asrwt>0</asrwt>
<pdfrwt beam="1">  1        1 0.72988606E-01 0.12860752E+03</pdfrwt>
<pdfrwt beam="2">  1       -1 0.50288193E-02 0.12860752E+03</pdfrwt>
<totfact> 0.80433775E+03</totfact>
</mgrwt>
</event>
<event>
 8    1  0.7550631E-006  0.1448211E+03  0.7546771E-02  0.1217000E+00
          1   -1    0    0  501    0  0.00000000000E+00  0.00000000000E+00  0.67264739113E+03  0.67264739113E+03  0.00000000000E+00 0. -1.
         -1   -1    0    0    0  501 -0.00000000000E+00 -0.00000000000E+00 -0.42403301368E+02  0.42403301368E+02  0.00000000000E+00 0.  1.
         23    2    1    2    0    0 -0.70457000865E+02  0.19635923835E+02  0.69932168599E+02  0.13632570362E+03  0.91347855956E+02 0.  0.
         23    2    1    2    0    0  0.70457000865E+02 -0.19635923835E+02  0.56031192116E+03  0.57872498888E+03  0.12499362094E+03 0.  0.
          5    1    4    4  502    0 -0.18111811559E+02 -0.66900334822E+01  0.12168502820E+02  0.23301431862E+02  0.47000000000E+01 0.  1.
         -5    1    4    4    0  502  0.88568812425E+02 -0.12945890353E+02  0.54814341834E+03  0.55542355701E+03  0.47000000000E+01 0.  1.
        -11    1    3    3    0    0 -0.28153268211E+02 -0.18232779690E+02 -0.12871079088E+02  0.35926389230E+02  0.00000000000E+00 0.  1.
         11    1    3    3    0    0 -0.42303732655E+02  0.37868703525E+02  0.82803247688E+02  0.10039931439E+03  0.00000000000E+00 0. -1.
<mgrwt>
<rscale>  0 0.13730648E+03</rscale>
<asrwt>0</asrwt>
<pdfrwt beam="1">  1        1 0.10348421E+00 0.14482114E+03</pdfrwt>
<pdfrwt beam="2">  1       -1 0.65235853E-02 0.14482114E+03</pdfrwt>
<totfact> 0.34377282E+03</totfact>
</mgrwt>
</event>
<event>
 8    1  0.7550631E-006  0.1654570E+03  0.7546771E-02  0.1190153E+00
         -2   -1    0    0    0  501 -0.00000000000E+00  0.00000000000E+00  0.67177551531E+02  0.67177551531E+02  0.00000000000E+00 0.  1.
          2   -1    0    0  501    0  0.00000000000E+00 -0.00000000000E+00 -0.36893184548E+03  0.36893184548E+03  0.00000000000E+00 0. -1.
         23    2    1    2    0    0  0.43562818113E+02  0.99251902602E+02 -0.86645115961E+02  0.16472780587E+03  0.88764940233E+02 0.  0.
         23    2    1    2    0    0 -0.43562818113E+02 -0.99251902602E+02 -0.21510917799E+03  0.27138159114E+03  0.12500940070E+03 0.  0.
          5    1    4    4  502    0 -0.42036686113E+02 -0.18677942507E+02 -0.17544920458E+03  0.18143996777E+03  0.47000000000E+01 0.  1.
         -5    1    4    4    0  502 -0.15261319998E+01 -0.80573960096E+02 -0.39659973409E+02  0.89941623374E+02  0.47000000000E+01 0.  1.
        -11    1    3    3    0    0  0.31730139161E+02 -0.37272240157E+01 -0.40811462589E+01  0.32207913389E+02  0.00000000000E+00 0.  1.
         11    1    3    3    0    0  0.11832678952E+02  0.10297912662E+03 -0.82563969702E+02  0.13251989248E+03  0.00000000000E+00 0. -1.
<mgrwt>
<rscale>  0 0.15871682E+03</rscale>
<asrwt>0</asrwt>
<pdfrwt beam="2">  1        2 0.56758746E-01 0.16545697E+03</pdfrwt>
<pdfrwt beam="1">  1       -2 0.10335008E-01 0.16545697E+03</pdfrwt>
<totfact> 0.53275909E+03</totfact>
</mgrwt>
</event>
<event>
 8    1  0.7550631E-006  0.1356482E+03  0.7546771E-02  0.1233143E+00
         -1   -1    0    0    0  501 -0.00000000000E+00  0.00000000000E+00  0.22358638854E+02  0.22358638854E+02  0.00000000000E+00 0.  1.
          1   -1    0    0  501    0  0.00000000000E+00 -0.00000000000E+00 -0.66141413515E+03  0.66141413515E+03  0.00000000000E+00 0. -1.
         23    2    1    2    0    0 -0.52093048958E+02  0.78536472621E+01 -0.20249900158E+03  0.22662728598E+03  0.87055818790E+02 0.  0.
         23    2    1    2    0    0  0.52093048958E+02 -0.78536472621E+01 -0.43655649471E+03  0.45714548802E+03  0.12500023446E+03 0.  0.
          5    1    4    4  502    0  0.49996869971E+02 -0.50003558976E+02 -0.37928906866E+03  0.38585273166E+03  0.47000000000E+01 0. -1.
         -5    1    4    4    0  502  0.20961789869E+01  0.42149911714E+02 -0.57267426050E+02  0.71292756366E+02  0.47000000000E+01 0. -1.
        -11    1    3    3    0    0 -0.30441072094E+02  0.30314690256E+02 -0.32710766334E+02  0.53996606836E+02  0.00000000000E+00 0.  1.
         11    1    3    3    0    0 -0.21651976864E+02 -0.22461042994E+02 -0.16978823524E+03  0.17263067914E+03  0.00000000000E+00 0. -1.
<mgrwt>
<rscale>  0 0.12624070E+03</rscale>
<asrwt>0</asrwt>
<pdfrwt beam="2">  1        1 0.10175602E+00 0.13564816E+03</pdfrwt>
<pdfrwt beam="1">  1       -1 0.34397906E-02 0.13564816E+03</pdfrwt>
<totfact> 0.90375961E+03</totfact>
</mgrwt>
</event>
<event>
 8    1  0.7550631E-006  0.1490434E+03  0.7546771E-02  0.1211799E+00
         -2   -1    0    0    0  501 -0.00000000000E+00  0.00000000000E+00  0.27592623326E+02  0.27592623326E+02  0.00000000000E+00 0. -1.
          2   -1    0    0  501    0  0.00000000000E+00 -0.00000000000E+00 -0.72260229413E+03  0.72260229413E+03  0.00000000000E+00 0.  1.
         23    2    1    2    0    0  0.53459872956E+02 -0.61080250891E+02 -0.19935494982E+03  0.23261637699E+03  0.88199930619E+02 0.  0.
         23    2    1    2    0    0 -0.53459872956E+02  0.61080250891E+02 -0.49565472098E+03  0.51757854047E+03  0.12500075221E+03 0.  0.
          5    1    4    4  502    0 -0.48378932863E+02  0.77979771204E+02 -0.48988279099E+03  0.49842612770E+03  0.47000000000E+01 0.  1.
         -5    1    4    4    0  502 -0.50809400925E+01 -0.16899520313E+02 -0.57719299931E+01  0.19152412769E+02  0.47000000000E+01 0.  1.
        -11    1    3    3    0    0  0.27257941371E+02 -0.39293872507E+02 -0.19185389176E+03  0.19772435249E+03  0.00000000000E+00 0.  1.
         11    1    3    3    0    0  0.26201931584E+02 -0.21786378384E+02 -0.75010580635E+01  0.34892024503E+02  0.00000000000E+00 0. -1.
<mgrwt>
<rscale>  0 0.14114292E+03</rscale>
<asrwt>0</asrwt>
<pdfrwt beam="2">  1        2 0.11116957E+00 0.14904343E+03</pdfrwt>
<pdfrwt beam="1">  1       -2 0.42450195E-02 0.14904343E+03</pdfrwt>
<totfact> 0.97672150E+03</totfact>
</mgrwt>
</event>
<event>
 8    1  0.7550631E-006  0.2315142E+03  0.7546771E-02  0.1128365E+00
          2   -1    0    0  501    0  0.00000000000E+00  0.00000000000E+00  0.15908006955E+04  0.15908006955E+04  0.00000000000E+00 0. -1.
         -2   -1    0    0    0  501 -0.00000000000E+00 -0.00000000000E+00 -0.36436517550E+02  0.36436517550E+02  0.00000000000E+00 0.  1.
         23    2    1    2    0    0  0.19118929100E+03  0.37659680835E+02  0.45444158064E+03  0.50321384426E+03  0.93463502487E+02 0.  0.
         23    2    1    2    0    0 -0.19118929100E+03 -0.37659680835E+02  0.10999225973E+04  0.11240233687E+04  0.12500886744E+03 0.  0.
          5    1    4    4  502    0 -0.10212792036E+03 -0.26423897536E+02  0.28106175169E+03  0.30024345578E+03  0.47000000000E+01 0. -1.
         -5    1    4    4    0  502 -0.89061370635E+02 -0.11235783299E+02  0.81886084559E+03  0.82377991296E+03  0.47000000000E+01 0. -1.
        -11    1    3    3    0    0  0.76352251578E+02 -0.11382659212E+02  0.93311334596E+02  0.12110423781E+03  0.00000000000E+00 0. -1.
         11    1    3    3    0    0  0.11483703942E+03  0.49042340047E+02  0.36113024604E+03  0.38210960645E+03  0.00000000000E+00 0.  1.
<mgrwt>
<rscale>  0 0.22756526E+03</rscale>
<asrwt>0</asrwt>
<pdfrwt beam="1">  1        2 0.24473851E+00 0.23151418E+03</pdfrwt>
<pdfrwt beam="2">  1       -2 0.56056193E-02 0.23151418E+03</pdfrwt>
<totfact> 0.20081448E+03</totfact>
</mgrwt>
</event>
<event>
 8    1  0.7550631E-006  0.1657122E+03  0.7546771E-02  0.1189637E+00
          2   -1    0    0  501    0  0.00000000000E+00  0.00000000000E+00  0.21584383977E+03  0.21584383977E+03  0.00000000000E+00 0. -1.
         -2   -1    0    0    0  501 -0.00000000000E+00 -0.00000000000E+00 -0.12057160191E+03  0.12057160191E+03  0.00000000000E+00 0.  1.
         23    2    1    2    0    0 -0.99739710906E+01 -0.10833883442E+03 -0.77917499907E+01  0.14126748756E+03  0.89771980777E+02 0.  0.
         23    2    1    2    0    0  0.99739710906E+01  0.10833883442E+03  0.10306398786E+03  0.19514795412E+03  0.12499502095E+03 0.  0.
          5    1    4    4  502    0 -0.28893591141E+02  0.22397985807E+02  0.93165959112E+02  0.10019229169E+03  0.47000000000E+01 0.  1.
         -5    1    4    4    0  502  0.38867562232E+02  0.85940848611E+02  0.98980287456E+01  0.94955662426E+02  0.47000000000E+01 0.  1.
        -11    1    3    3    0    0 -0.42325092022E+02 -0.98294433938E+02 -0.30540424464E+01  0.10706323521E+03  0.00000000000E+00 0. -1.
         11    1    3    3    0    0  0.32351120931E+02 -0.10044400479E+02 -0.47377075443E+01  0.34204252357E+02  0.00000000000E+00 0.  1.
<mgrwt>
<rscale>  0 0.15916994E+03</rscale>
<asrwt>0</asrwt>
<pdfrwt beam="1">  1        2 0.33206744E-01 0.16571222E+03</pdfrwt>
<pdfrwt beam="2">  1       -2 0.18549477E-01 0.16571222E+03</pdfrwt>
<totfact> 0.36468742E+03</totfact>
</mgrwt>
</event>
<event>
 7    1  0.7550631E-006  0.1409361E+03  0.7546771E-02  0.1239660E+00
          1   -1    0    0  501    0  0.00000000000E+00  0.00000000000E+00  0.85334177383E+02  0.85334177383E+02  0.00000000000E+00 0. -1.
         -1   -1    0    0    0  501 -0.00000000000E+00 -0.00000000000E+00 -0.14292681995E+03  0.14292681995E+03  0.00000000000E+00 0.  1.
         23    2    1    2    0    0  0.53694747759E+02  0.37425526180E+02 -0.29249853928E+02  0.14393939526E+03  0.12481666397E+03 0.  0.
          5    1    3    3  502    0  0.12342680659E+01  0.73151348069E+02  0.13424035623E+01  0.73324860650E+02  0.47000000000E+01 0.  1.
         -5    1    3    3    0  502  0.52460479693E+02 -0.35725821889E+02 -0.30592257490E+02  0.70614534606E+02  0.47000000000E+01 0.  1.
        -11    1    1    2    0    0 -0.41089941225E+02 -0.20975513554E+02  0.35679932049E+01  0.46271870659E+02  0.00000000000E+00 0.  1.
         11    1    1    2    0    0 -0.12604806533E+02 -0.16450012626E+02 -0.31910781842E+02  0.38049731417E+02  0.00000000000E+00 0. -1.
<mgrwt>
<rscale>  0 0.12210771E+03</rscale>
<asrwt>0</asrwt>
<pdfrwt beam="1">  1        1 0.13128335E-01 0.14093614E+03</pdfrwt>
<pdfrwt beam="2">  1       -1 0.21988741E-01 0.14093614E+03</pdfrwt>
<totfact> 0.72801404E+03</totfact>
</mgrwt>
</event>
<event>
 8    1  0.7550631E-006  0.1721391E+03  0.7546771E-02  0.1181563E+00
         -1   -1    0    0    0  501 -0.00000000000E+00  0.00000000000E+00  0.20600647370E+03  0.20600647370E+03  0.00000000000E+00 0.  1.
          1   -1    0    0  501    0  0.00000000000E+00 -0.00000000000E+00 -0.12754189964E+03  0.12754189964E+03  0.00000000000E+00 0. -1.
         23    2    1    2    0    0  0.78580196796E+01 -0.11808817699E+03  0.21004373593E+02  0.15207233983E+03  0.93157108234E+02 0.  0.
         23    2    1    2    0    0 -0.78580196796E+01  0.11808817699E+03  0.57460200464E+02  0.18147603351E+03  0.12500124033E+03 0.  0.
          5    1    4    4  502    0  0.44307628458E+02  0.80923387134E+02 -0.41601545568E+01  0.92472468394E+02  0.47000000000E+01 0. -1.
         -5    1    4    4    0  502 -0.52165648137E+02  0.37164789853E+02  0.61620355021E+02  0.89003565116E+02  0.47000000000E+01 0. -1.
        -11    1    3    3    0    0  0.23866819838E+02 -0.41021051762E+02  0.49297509212E+02  0.68429497962E+02  0.00000000000E+00 0.  1.
         11    1    3    3    0    0 -0.16008800159E+02 -0.77067125226E+02 -0.28293135619E+02  0.83642841871E+02  0.00000000000E+00 0. -1.
<mgrwt>
<rscale>  0 0.16648556E+03</rscale>
<asrwt>0</asrwt>
<pdfrwt beam="2">  1        1 0.19621831E-01 0.17213912E+03</pdfrwt>
<pdfrwt beam="1">  1       -1 0.31693304E-01 0.17213912E+03</pdfrwt>
<totfact> 0.23857097E+03</totfact>
</mgrwt>
</event>
<event>
 8    1  0.7550631E-006  0.1256967E+03  0.7546771E-02  0.1253794E+00
          4   -1    0    0  501    0  0.00000000000E+00  0.00000000000E+00  0.12539451017E+03  0.12539451017E+03  0.00000000000E+00 0. -1.
         -4   -1    0    0    0  501 -0.00000000000E+00 -0.00000000000E+00 -0.13598266799E+03  0.13598266799E+03  0.00000000000E+00 0.  1.
         23    2    1    2    0    0 -0.96644035956E+01  0.90203484808E+01 -0.81348327240E+02  0.11713206581E+03  0.83232224002E+02 0.  0.
         23    2    1    2    0    0  0.96644035956E+01 -0.90203484808E+01  0.70760169422E+02  0.14424511236E+03  0.12499953391E+03 0.  0.
          5    1    4    4  502    0 -0.43661883641E+02  0.20137597561E+02 -0.31809246288E+01  0.48415815599E+02  0.47000000000E+01 0. -1.
         -5    1    4    4    0  502  0.53326287237E+02 -0.29157946042E+02  0.73941094051E+02  0.95829296758E+02  0.47000000000E+01 0. -1.
        -11    1    3    3    0    0 -0.13429888978E+01  0.40043704391E+02 -0.74048311136E+02  0.84192958510E+02  0.00000000000E+00 0.  1.
         11    1    3    3    0    0 -0.83214146978E+01 -0.31023355911E+02 -0.73000161039E+01  0.32939107299E+02  0.00000000000E+00 0. -1.
<mgrwt>
<rscale>  0 0.11374131E+03</rscale>
<asrwt>0</asrwt>
<pdfrwt beam="1">  1        4 0.19291463E-01 0.12569666E+03</pdfrwt>
<pdfrwt beam="2">  1       -4 0.20920410E-01 0.12569666E+03</pdfrwt>
<totfact> 0.81443196E+02</totfact>
</mgrwt>
</event>
<event>
 8    1  0.7550631E-006  0.1661137E+03  0.7546771E-02  0.1187742E+00
         -2   -1    0    0    0  501 -0.00000000000E+00  0.00000000000E+00  0.36107446659E+02  0.36107446659E+02  0.00000000000E+00 0.  1.
          2   -1    0    0  501    0  0.00000000000E+00 -0.00000000000E+00 -0.71801427765E+03  0.71801427765E+03  0.00000000000E+00 0. -1.
         23    2    1    2    0    0  0.82863374903E+02 -0.71389925253E+02 -0.22782675988E+03  0.27061113755E+03  0.96759986155E+02 0.  0.
         23    2    1    2    0    0 -0.82863374903E+02  0.71389925253E+02 -0.45408007110E+03  0.48351058675E+03  0.12502366256E+03 0.  0.
          5    1    4    4  502    0 -0.58635756530E+02  0.85461086638E+02 -0.43949841211E+03  0.45157800380E+03  0.47000000000E+01 0.  1.
         -5    1    4    4    0  502 -0.24227618373E+02 -0.14071161386E+02 -0.14581658997E+02  0.31932582950E+02  0.47000000000E+01 0.  1.
        -11    1    3    3    0    0  0.44959269960E+02 -0.59293831775E+02 -0.53108678440E+02  0.91420053422E+02  0.00000000000E+00 0.  1.
         11    1    3    3    0    0  0.37904104943E+02 -0.12096093477E+02 -0.17471808144E+03  0.17919108413E+03  0.00000000000E+00 0. -1.
<mgrwt>
<rscale>  0 0.16084820E+03</rscale>
<asrwt>0</asrwt>
<pdfrwt beam="2">  1        2 0.11046372E+00 0.16611375E+03</pdfrwt>
<pdfrwt beam="1">  1       -2 0.55549923E-02 0.16611375E+03</pdfrwt>
<totfact> 0.66046601E+03</totfact>
</mgrwt>
</event>
<event>
 8    1  0.7550631E-006  0.1380251E+03  0.7546771E-02  0.1226766E+00
         -1   -1    0    0    0  501 -0.00000000000E+00  0.00000000000E+00  0.82230412602E+02  0.82230412602E+02  0.00000000000E+00 0.  1.
          1   -1    0    0  501    0  0.00000000000E+00 -0.00000000000E+00 -0.71485728707E+03  0.71485728707E+03  0.00000000000E+00 0. -1.
         23    2    1    2    0    0 -0.57729552443E+02  0.96799190899E+01  0.34792059321E+02  0.11554610045E+03  0.93348871862E+02 0.  0.
         23    2    1    2    0    0  0.57729552443E+02 -0.96799190899E+01 -0.66741893379E+03  0.68154159923E+03  0.12499806492E+03 0.  0.
          5    1    4    4  502    0  0.50605627479E+02 -0.70926343780E+01 -0.86657561843E+02  0.10071175711E+03  0.47000000000E+01 0.  1.
         -5    1    4    4    0  502  0.71239249644E+01 -0.25872847118E+01 -0.58076137195E+03  0.58082984212E+03  0.47000000000E+01 0.  1.
        -11    1    3    3    0    0  0.25936114351E+02  0.36833493218E+01  0.10465374998E+02  0.28209451673E+02  0.00000000000E+00 0.  1.
         11    1    3    3    0    0 -0.83665666794E+02  0.59965697680E+01  0.24326684324E+02  0.87336648775E+02  0.00000000000E+00 0. -1.
<mgrwt>
<rscale>  0 0.13046609E+03</rscale>
<asrwt>0</asrwt>
<pdfrwt beam="2">  1        1 0.10997804E+00 0.13802506E+03</pdfrwt>
<pdfrwt beam="1">  1       -1 0.12650833E-01 0.13802506E+03</pdfrwt>
<totfact> 0.11498441E+03</totfact>
</mgrwt>
</event>
<event>
 8    1  0.7550631E-006  0.1325315E+03  0.7546771E-02  0.1237172E+00
          1   -1    0    0  501    0  0.00000000000E+00  0.00000000000E+00  0.47637752632E+02  0.47637752632E+02  0.00000000000E+00 0. -1.
         -1   -1    0    0    0  501 -0.00000000000E+00 -0.00000000000E+00 -0.44027106369E+03  0.44027106369E+03  0.00000000000E+00 0.  1.
         23    2    1    2    0    0 -0.43664776273E+02  0.53135886053E+01 -0.32286523606E+03  0.33813504674E+03  0.90324427860E+02 0.  0.
         23    2    1    2    0    0  0.43664776273E+02 -0.53135886053E+01 -0.69768074996E+02  0.14977376958E+03  0.12501900197E+03 0.  0.
          5    1    4    4  502    0  0.41034351897E+02 -0.52981715100E+02 -0.25934402572E+01  0.67228685120E+02  0.47000000000E+01 0. -1.
         -5    1    4    4    0  502  0.26304243752E+01  0.47668126494E+02 -0.67174634739E+02  0.82545084458E+02  0.47000000000E+01 0. -1.
        -11    1    3    3    0    0  0.12453103631E+02  0.63154404483E+01 -0.42233325616E+01  0.14587704275E+02  0.00000000000E+00 0. -1.
         11    1    3    3    0    0 -0.56117879904E+02 -0.10018518430E+01 -0.31864190350E+03  0.32354734247E+03  0.00000000000E+00 0.  1.
<mgrwt>
<rscale>  0 0.12366413E+03</rscale>
<asrwt>0</asrwt>
<pdfrwt beam="1">  1        1 0.73288850E-02 0.13253150E+03</pdfrwt>
<pdfrwt beam="2">  1       -1 0.67734010E-01 0.13253150E+03</pdfrwt>
<totfact> 0.21759482E+03</totfact>
</mgrwt>
</event>
<event>
 8    1  0.7550631E-006  0.1468111E+03  0.7546771E-02  0.1213682E+00
          1   -1    0    0  501    0  0.00000000000E+00  0.00000000000E+00  0.59863683345E+02  0.59863683345E+02  0.00000000000E+00 0. -1.
         -1   -1    0    0    0  501 -0.00000000000E+00 -0.00000000000E+00 -0.33842501554E+03  0.33842501554E+03  0.00000000000E+00 0.  1.
         23    2    1    2    0    0  0.74799078224E+01  0.76632724375E+02 -0.19538255601E+03  0.22955163733E+03  0.92688119761E+02 0.  0.
         23    2    1    2    0    0 -0.74799078224E+01 -0.76632724375E+02 -0.83178776194E+02  0.16873706156E+03  0.12499985467E+03 0.  0.
          5    1    4    4  502    0  0.41534497313E+02 -0.47341196381E+02  0.52486768671E+01  0.63371460064E+02  0.47000000000E+01 0.  1.
         -5    1    4    4    0  502 -0.49014405135E+02 -0.29291527994E+02 -0.88427453061E+02  0.10536560149E+03  0.47000000000E+01 0.  1.
        -11    1    3    3    0    0  0.42550678836E+00 -0.17811983089E+02 -0.71088052819E+02  0.73286827269E+02  0.00000000000E+00 0.  1.
         11    1    3    3    0    0  0.70544010341E+01  0.94444707464E+02 -0.12429450319E+03  0.15626481006E+03  0.00000000000E+00 0. -1.
<mgrwt>
<rscale>  0 0.13973766E+03</rscale>
<asrwt>0</asrwt>
<pdfrwt beam="1">  1        1 0.92097977E-02 0.14681106E+03</pdfrwt>
<pdfrwt beam="2">  1       -1 0.52065386E-01 0.14681106E+03</pdfrwt>
<totfact> 0.26517725E+03</totfact>
</mgrwt>
</event>
<event>
 8    1  0.7550631E-006  0.1380399E+03  0.7546771E-02  0.1226348E+00
         -2   -1    0    0    0  501 -0.00000000000E+00  0.00000000000E+00  0.42913468929E+03  0.42913468929E+03  0.00000000000E+00 0.  1.
          2   -1    0    0  501    0  0.00000000000E+00 -0.00000000000E+00 -0.41771857949E+02  0.41771857949E+02  0.00000000000E+00 0. -1.
         23    2    1    2    0    0  0.54496828558E+01 -0.58337157588E+02  0.26139900366E+03  0.28403252916E+03  0.94404001544E+02 0.  0.
         23    2    1    2    0    0 -0.54496828558E+01  0.58337157588E+02  0.12596382768E+03  0.18687401808E+03  0.12498835846E+03 0.  0.
          5    1    4    4  502    0  0.57087314954E+02  0.18708199629E+02  0.77875281106E+02  0.98466276813E+02  0.47000000000E+01 0. -1.
         -5    1    4    4    0  502 -0.62536997810E+02  0.39628957959E+02  0.48088546570E+02  0.88407741263E+02  0.47000000000E+01 0. -1.
        -11    1    3    3    0    0  0.22427427221E+02 -0.43008838489E+02  0.25596768792E+03  0.26052294897E+03  0.00000000000E+00 0.  1.
         11    1    3    3    0    0 -0.16977744365E+02 -0.15328319099E+02  0.54313157415E+01  0.23509580192E+02  0.00000000000E+00 0. -1.
<mgrwt>
<rscale>  0 0.13074950E+03</rscale>
<asrwt>0</asrwt>
<pdfrwt beam="2">  1        2 0.64264400E-02 0.13803990E+03</pdfrwt>
<pdfrwt beam="1">  1       -2 0.66020718E-01 0.13803990E+03</pdfrwt>
<totfact> 0.23476241E+03</totfact>
</mgrwt>
</event>
<event>
 8    1  0.7550631E-006  0.1279377E+03  0.7546771E-02  0.1246410E+00
          1   -1    0    0  501    0  0.00000000000E+00  0.00000000000E+00  0.13688237792E+04  0.13688237792E+04  0.00000000000E+00 0. -1.
         -1   -1    0    0    0  501 -0.00000000000E+00 -0.00000000000E+00 -0.18150646855E+02  0.18150646855E+02  0.00000000000E+00 0.  1.
         23    2    1    2    0    0 -0.23747612087E+01  0.27579236341E+02  0.13004520487E+03  0.15966003909E+03  0.88392980520E+02 0.  0.
         23    2    1    2    0    0  0.23747612087E+01 -0.27579236341E+02  0.12206279275E+04  0.12273143870E+04  0.12490721894E+03 0.  0.
          5    1    4    4  502    0  0.51876844247E+02  0.23045888821E+02  0.55351112926E+03  0.55643416518E+03  0.47000000000E+01 0. -1.
         -5    1    4    4    0  502 -0.49502083038E+02 -0.50625125162E+02  0.66711679824E+03  0.67088022181E+03  0.47000000000E+01 0. -1.
        -11    1    3    3    0    0 -0.23788154042E+02  0.16518828089E+01 -0.14925137186E+01  0.23892103020E+02  0.00000000000E+00 0.  1.
         11    1    3    3    0    0  0.21413392833E+02  0.25927353532E+02  0.13153771859E+03  0.13576793607E+03  0.00000000000E+00 0. -1.
<mgrwt>
<rscale>  0 0.11801365E+03</rscale>
<asrwt>0</asrwt>
<pdfrwt beam="1">  1        1 0.21058819E+00 0.12793775E+03</pdfrwt>
<pdfrwt beam="2">  1       -1 0.27924083E-02 0.12793775E+03</pdfrwt>
<totfact> 0.36225703E+03</totfact>
</mgrwt>
</event>
<event>
 8    1  0.7550631E-006  0.1323364E+03  0.7546771E-02  0.1236896E+00
         -2   -1    0    0    0  501 -0.00000000000E+00  0.00000000000E+00  0.24372618462E+02  0.24372618462E+02  0.00000000000E+00 0.  1.
          2   -1    0    0  501    0  0.00000000000E+00 -0.00000000000E+00 -0.71924443301E+03  0.71924443301E+03  0.00000000000E+00 0. -1.
         23    2    1    2    0    0 -0.25754415372E+02  0.35057493228E+02 -0.13835714344E+03  0.17158426465E+03  0.91685020546E+02 0.  0.
         23    2    1    2    0    0  0.25754415372E+02 -0.35057493228E+02 -0.55651467110E+03  0.57203278682E+03  0.12498244796E+03 0.  0.
          5    1    4    4  502    0 -0.46563894245E+01  0.36304613404E+02 -0.67932369847E+02  0.77308497527E+02  0.47000000000E+01 0.  1.
         -5    1    4    4    0  502  0.30410804796E+02 -0.71362106632E+02 -0.48858230126E+03  0.49472428929E+03  0.47000000000E+01 0.  1.
        -11    1    3    3    0    0 -0.23568387958E+02 -0.82612189440E+01  0.16340399606E+01  0.25027719353E+02  0.00000000000E+00 0.  1.
         11    1    3    3    0    0 -0.21860274134E+01  0.43318712172E+02 -0.13999118340E+03  0.14655654530E+03  0.00000000000E+00 0. -1.
<mgrwt>
<rscale>  0 0.12383862E+03</rscale>
<asrwt>0</asrwt>
<pdfrwt beam="2">  1        2 0.11065298E+00 0.13233643E+03</pdfrwt>
<pdfrwt beam="1">  1       -2 0.37496338E-02 0.13233643E+03</pdfrwt>
<totfact> 0.11724152E+04</totfact>
</mgrwt>
</event>
<event>
 8    1  0.7550631E-006  0.2572782E+03  0.7546771E-02  0.1110732E+00
          2   -1    0    0  501    0  0.00000000000E+00  0.00000000000E+00  0.10434286098E+04  0.10434286098E+04  0.00000000000E+00 0. -1.
         -2   -1    0    0    0  501 -0.00000000000E+00 -0.00000000000E+00 -0.71783618387E+02  0.71783618387E+02  0.00000000000E+00 0.  1.
         23    2    1    2    0    0 -0.82802980718E+02  0.20907156107E+03  0.25381686493E+03  0.35267088944E+03  0.96883972200E+02 0.  0.
         23    2    1    2    0    0  0.82802980718E+02 -0.20907156107E+03  0.71782812650E+03  0.76254133877E+03  0.12499929149E+03 0.  0.
          5    1    4    4  502    0  0.63579577306E+02 -0.15869815168E+03  0.66599167178E+03  0.68760051111E+03  0.47000000000E+01 0. -1.
         -5    1    4    4    0  502  0.19223403411E+02 -0.50373409388E+02  0.51836454716E+02  0.74940827655E+02  0.47000000000E+01 0. -1.
        -11    1    3    3    0    0 -0.25297101395E+02  0.26957447539E+02  0.10265616139E+03  0.10910973736E+03  0.00000000000E+00 0. -1.
         11    1    3    3    0    0 -0.57505879323E+02  0.18211411353E+03  0.15116070355E+03  0.24356115208E+03  0.00000000000E+00 0.  1.
<mgrwt>
<rscale>  0 0.25411441E+03</rscale>
<asrwt>0</asrwt>
<pdfrwt beam="1">  1        2 0.16052747E+00 0.25727820E+03</pdfrwt>
<pdfrwt beam="2">  1       -2 0.11043634E-01 0.25727820E+03</pdfrwt>
<totfact> 0.13980109E+03</totfact>
</mgrwt>
</event>
<event>
 6    1  0.7550631E-006  0.1464682E+03  0.7546771E-02  0.1269359E+00
          2   -1    0    0  501    0  0.00000000000E+00  0.00000000000E+00  0.93462266590E+03  0.93462266590E+03  0.00000000000E+00 0. -1.
         -2   -1    0    0    0  501 -0.00000000000E+00 -0.00000000000E+00 -0.94686288925E+01  0.94686288925E+01  0.00000000000E+00 0.  1.
          5    1    1    2  502    0 -0.18792875883E+02  0.60045732484E+02  0.53004036781E+03  0.53378229990E+03  0.47000000000E+01 0. -1.
         -5    1    1    2    0  502 -0.10594432131E+02 -0.70423637382E+02  0.25474172605E+03  0.26455087920E+03  0.47000000000E+01 0.  1.
        -11    1    1    2    0    0  0.57818204212E+01  0.13936727052E+02  0.63317381358E+02  0.65090341760E+02  0.00000000000E+00 0. -1.
         11    1    1    2    0    0  0.23605487592E+02 -0.35588221542E+01  0.77054561785E+02  0.80667773934E+02  0.00000000000E+00 0.  1.
<mgrwt>
<rscale>  0 0.10538722E+03</rscale>
<asrwt>0</asrwt>
<pdfrwt beam="1">  1        2 0.14378803E+00 0.14646819E+03</pdfrwt>
<pdfrwt beam="2">  1       -2 0.14567129E-02 0.14646819E+03</pdfrwt>
<totfact> 0.33782810E+04</totfact>
</mgrwt>
</event>
<event>
 8    1  0.7550631E-006  0.1622955E+03  0.7546771E-02  0.1194513E+00
         -2   -1    0    0    0  501 -0.00000000000E+00  0.00000000000E+00  0.83313087272E+02  0.83313087272E+02  0.00000000000E+00 0.  1.
          2   -1    0    0  501    0  0.00000000000E+00 -0.00000000000E+00 -0.32213765995E+03  0.32213765995E+03  0.00000000000E+00 0. -1.
         23    2    1    2    0    0 -0.10190082714E+03 -0.18356478117E+02 -0.25251243033E+02  0.13720945346E+03  0.86417995711E+02 0.  0.
         23    2    1    2    0    0  0.10190082714E+03  0.18356478117E+02 -0.21357332965E+03  0.26824129377E+03  0.12497634050E+03 0.  0.
          5    1    4    4  502    0  0.12218460203E+03  0.40982979672E+02 -0.18936463077E+03  0.22910638355E+03  0.47000000000E+01 0.  1.
         -5    1    4    4    0  502 -0.20283774893E+02 -0.22626501555E+02 -0.24208698875E+02  0.39134910218E+02  0.47000000000E+01 0.  1.
        -11    1    3    3    0    0 -0.69989540200E+01 -0.33438961417E+02 -0.22823227974E+02  0.41085876323E+02  0.00000000000E+00 0.  1.
         11    1    3    3    0    0 -0.94901873117E+02  0.15082483301E+02 -0.24280150587E+01  0.96123577133E+02  0.00000000000E+00 0. -1.
<mgrwt>
<rscale>  0 0.15495492E+03</rscale>
<asrwt>0</asrwt>
<pdfrwt beam="2">  1        2 0.49559640E-01 0.16229549E+03</pdfrwt>
<pdfrwt beam="1">  1       -2 0.12817398E-01 0.16229549E+03</pdfrwt>
<totfact> 0.43620260E+03</totfact>
</mgrwt>
</event>
<event>
 8    1  0.7550631E-006  0.1413826E+03  0.7546771E-02  0.1221241E+00
          4   -1    0    0  501    0  0.00000000000E+00  0.00000000000E+00  0.14849090472E+03  0.14849090472E+03  0.00000000000E+00 0. -1.
         -4   -1    0    0    0  501 -0.00000000000E+00 -0.00000000000E+00 -0.18568256238E+03  0.18568256238E+03  0.00000000000E+00 0.  1.
         23    2    1    2    0    0 -0.46998770886E+02 -0.46426468140E+02 -0.12330077417E+03  0.16863251836E+03  0.94178256145E+02 0.  0.
         23    2    1    2    0    0  0.46998770886E+02  0.46426468140E+02  0.86109116511E+02  0.16554094873E+03  0.12499889740E+03 0.  0.
          5    1    4    4  502    0  0.81967980521E+02  0.58117029615E+02  0.78510595604E+02  0.12760228283E+03  0.47000000000E+01 0. -1.
         -5    1    4    4    0  502 -0.34969209636E+02 -0.11690561475E+02  0.75985209069E+01  0.37938665898E+02  0.47000000000E+01 0. -1.
        -11    1    3    3    0    0 -0.65761723283E+02 -0.29869910296E+01 -0.56383107888E+02  0.86675147647E+02  0.00000000000E+00 0.  1.
         11    1    3    3    0    0  0.18762952398E+02 -0.43439477110E+02 -0.66917666281E+02  0.81957370716E+02  0.00000000000E+00 0. -1.
<mgrwt>
<rscale>  0 0.13427885E+03</rscale>
<asrwt>0</asrwt>
<pdfrwt beam="1">  1        4 0.22844755E-01 0.14138255E+03</pdfrwt>
<pdfrwt beam="2">  1       -4 0.28566548E-01 0.14138255E+03</pdfrwt>
<totfact> 0.34602317E+02</totfact>
</mgrwt>
</event>
<event>
 8    1  0.7550631E-006  0.1416676E+03  0.7546771E-02  0.1221306E+00
          2   -1    0    0  501    0  0.00000000000E+00  0.00000000000E+00  0.29634559656E+03  0.29634559656E+03  0.00000000000E+00 0. -1.
         -2   -1    0    0    0  501 -0.00000000000E+00 -0.00000000000E+00 -0.69540253418E+02  0.69540253418E+02  0.00000000000E+00 0.  1.
         23    2    1    2    0    0 -0.65462909878E+02  0.12579239132E+02  0.21109906235E+02  0.11612534828E+03  0.92713745177E+02 0.  0.
         23    2    1    2    0    0  0.65462909878E+02 -0.12579239132E+02  0.20569543690E+03  0.24976050170E+03  0.12500426240E+03 0.  0.
          5    1    4    4  502    0  0.45078160996E+02  0.39048225673E+02  0.33040022366E+02  0.68341331600E+02  0.47000000000E+01 0.  1.
         -5    1    4    4    0  502  0.20384748882E+02 -0.51627464805E+02  0.17265541454E+03  0.18141917010E+03  0.47000000000E+01 0.  1.
        -11    1    3    3    0    0  0.81715755710E+01 -0.13148321006E+02 -0.22080127012E+02  0.26966367969E+02  0.00000000000E+00 0.  1.
         11    1    3    3    0    0 -0.73634485449E+02  0.25727560139E+02  0.43190033247E+02  0.89158980310E+02  0.00000000000E+00 0. -1.
<mgrwt>
<rscale>  0 0.13423330E+03</rscale>
<asrwt>0</asrwt>
<pdfrwt beam="1">  1        2 0.45591630E-01 0.14166755E+03</pdfrwt>
<pdfrwt beam="2">  1       -2 0.10698501E-01 0.14166755E+03</pdfrwt>
<totfact> 0.63133813E+03</totfact>
</mgrwt>
</event>
<event>
 8    1  0.7550631E-006  0.1351840E+03  0.7546771E-02  0.1232558E+00
         -2   -1    0    0    0  501 -0.00000000000E+00  0.00000000000E+00  0.35460040711E+02  0.35460040711E+02  0.00000000000E+00 0.  1.
          2   -1    0    0  501    0  0.00000000000E+00 -0.00000000000E+00 -0.40584522041E+03  0.40584522041E+03  0.00000000000E+00 0. -1.
         23    2    1    2    0    0  0.42963829459E+02 -0.28357854989E+02 -0.14460039305E+03  0.17814467646E+03  0.90422306431E+02 0.  0.
         23    2    1    2    0    0 -0.42963829459E+02  0.28357854989E+02 -0.22578478665E+03  0.26316058466E+03  0.12499865941E+03 0.  0.
          5    1    4    4  502    0 -0.21316418823E+02 -0.49514024899E+02 -0.85272135647E+02  0.10099235363E+03  0.47000000000E+01 0.  1.
         -5    1    4    4    0  502 -0.21647410636E+02  0.77871879888E+02 -0.14051265100E+03  0.16216823103E+03  0.47000000000E+01 0.  1.
        -11    1    3    3    0    0  0.93701069608E+01 -0.56730455630E+02 -0.61928621470E+02  0.84506198930E+02  0.00000000000E+00 0.  1.
         11    1    3    3    0    0  0.33593722498E+02  0.28372600641E+02 -0.82671771579E+02  0.93638477532E+02  0.00000000000E+00 0. -1.
<mgrwt>
<rscale>  0 0.12662044E+03</rscale>
<asrwt>0</asrwt>
<pdfrwt beam="2">  1        2 0.62437726E-01 0.13518404E+03</pdfrwt>
<pdfrwt beam="1">  1       -2 0.54553909E-02 0.13518404E+03</pdfrwt>
<totfact> 0.12723198E+04</totfact>
</mgrwt>
</event>
<event>
 8    1  0.7550631E-006  0.1550077E+03  0.7546771E-02  0.1200230E+00
         -2   -1    0    0    0  501 -0.00000000000E+00  0.00000000000E+00  0.74485397859E+02  0.74485397859E+02  0.00000000000E+00 0.  1.
          2   -1    0    0  501    0  0.00000000000E+00 -0.00000000000E+00 -0.32206602774E+03  0.32206602774E+03  0.00000000000E+00 0. -1.
         23    2    1    2    0    0  0.85685674577E+02  0.32222391481E+02 -0.50184853206E+02  0.14556839078E+03  0.10144614119E+03 0.  0.
         23    2    1    2    0    0 -0.85685674577E+02 -0.32222391481E+02 -0.19739577667E+03  0.25098303481E+03  0.12508826394E+03 0.  0.
          5    1    4    4  502    0 -0.66293653550E+02  0.33566697455E+02 -0.54055905484E+02  0.92009252778E+02  0.47000000000E+01 0.  1.
         -5    1    4    4    0  502 -0.19392021027E+02 -0.65789088935E+02 -0.14333987119E+03  0.15897378204E+03  0.47000000000E+01 0.  1.
        -11    1    3    3    0    0 -0.15012776948E+02 -0.10054489517E+02  0.10224897941E+02  0.20761136025E+02  0.00000000000E+00 0.  1.
         11    1    3    3    0    0  0.10069845153E+03  0.42276880998E+02 -0.60409751147E+02  0.12480725476E+03  0.00000000000E+00 0. -1.
<mgrwt>
<rscale>  0 0.15019753E+03</rscale>
<asrwt>0</asrwt>
<pdfrwt beam="2">  1        2 0.49548619E-01 0.15500771E+03</pdfrwt>
<pdfrwt beam="1">  1       -2 0.11459292E-01 0.15500771E+03</pdfrwt>
<totfact> 0.52091346E+03</totfact>
</mgrwt>
</event>
<event>
 8    1  0.7550631E-006  0.1321165E+03  0.7546771E-02  0.1234754E+00
         -2   -1    0    0    0  501 -0.00000000000E+00  0.00000000000E+00  0.30001535705E+02  0.30001535705E+02  0.00000000000E+00 0.  1.
          2   -1    0    0  501    0  0.00000000000E+00 -0.00000000000E+00 -0.47469279140E+03  0.47469279140E+03  0.00000000000E+00 0. -1.
         23    2    1    2    0    0  0.21630029135E+02  0.36894557778E+02 -0.19992968417E+03  0.22655228698E+03  0.97596073520E+02 0.  0.
         23    2    1    2    0    0 -0.21630029135E+02 -0.36894557778E+02 -0.24476157152E+03  0.27814204012E+03  0.12500280412E+03 0.  0.
          5    1    4    4  502    0 -0.43921812199E+02 -0.14485165923E+02 -0.24159795924E+03  0.24602969237E+03  0.47000000000E+01 0. -1.
         -5    1    4    4    0  502  0.22291783063E+02 -0.22409391856E+02 -0.31636122745E+01  0.32112347751E+02  0.47000000000E+01 0. -1.
        -11    1    3    3    0    0  0.56074685205E+02  0.41589613574E+02 -0.15275226673E+03  0.16795035358E+03  0.00000000000E+00 0.  1.
         11    1    3    3    0    0 -0.34444656069E+02 -0.46950557961E+01 -0.47177417447E+02  0.58601933395E+02  0.00000000000E+00 0. -1.
<mgrwt>
<rscale>  0 0.12520212E+03</rscale>
<asrwt>0</asrwt>
<pdfrwt beam="2">  1        2 0.73029662E-01 0.13211649E+03</pdfrwt>
<pdfrwt beam="1">  1       -2 0.46156208E-02 0.13211649E+03</pdfrwt>
<totfact> 0.13785669E+04</totfact>
</mgrwt>
</event>
<event>
 7    1  0.7550631E-006  0.1503966E+03  0.7546771E-02  0.1218383E+00
          1   -1    0    0  501    0  0.00000000000E+00  0.00000000000E+00  0.11395175055E+03  0.11395175055E+03  0.00000000000E+00 0. -1.
         -1   -1    0    0    0  501 -0.00000000000E+00 -0.00000000000E+00 -0.15060375467E+03  0.15060375467E+03  0.00000000000E+00 0.  1.
         23    2    1    2    0    0 -0.32900673769E+02  0.31293696003E+02 -0.50814391672E+02  0.11349352642E+03  0.90757525272E+02 0.  0.
          5    1    1    2  502    0  0.88174182729E+02 -0.42739376471E+01  0.37186239243E+01  0.88480908714E+02  0.47000000000E+01 0. -1.
         -5    1    1    2    0  502 -0.55273508960E+02 -0.27019758356E+02  0.10443763627E+02  0.62581070085E+02  0.47000000000E+01 0.  1.
        -11    1    3    3    0    0 -0.35940202471E+02 -0.25756739009E+02 -0.25074544791E+02  0.50831491760E+02  0.00000000000E+00 0. -1.
         11    1    3    3    0    0  0.30395287023E+01  0.57050435012E+02 -0.25739846881E+02  0.62662034656E+02  0.00000000000E+00 0.  1.
<mgrwt>
<rscale>  0 0.13630955E+03</rscale>
<asrwt>0</asrwt>
<pdfrwt beam="1">  1        1 0.17531038E-01 0.15039664E+03</pdfrwt>
<pdfrwt beam="2">  1       -1 0.23169808E-01 0.15039664E+03</pdfrwt>
<totfact> 0.46156539E+03</totfact>
</mgrwt>
</event>
<event>
 8    1  0.7550631E-006  0.1430174E+03  0.7546771E-02  0.1220687E+00
          1   -1    0    0  501    0  0.00000000000E+00  0.00000000000E+00  0.91561315604E+02  0.91561315604E+02  0.00000000000E+00 0. -1.
         -1   -1    0    0    0  501 -0.00000000000E+00 -0.00000000000E+00 -0.26004106306E+03  0.26004106306E+03  0.00000000000E+00 0.  1.
         23    2    1    2    0    0  0.56729039581E+02 -0.40132803815E+02 -0.17548290862E+03  0.20841360062E+03  0.88392034893E+02 0.  0.
         23    2    1    2    0    0 -0.56729039581E+02  0.40132803815E+02  0.70031611658E+01  0.14318877804E+03  0.12500062407E+03 0.  0.
          5    1    4    4  502    0 -0.49970201724E+01 -0.89704861710E+01  0.55611749673E+02  0.56746775542E+02  0.47000000000E+01 0.  1.
         -5    1    4    4    0  502 -0.51732019408E+02  0.49103289986E+02 -0.48608588507E+02  0.86442002500E+02  0.47000000000E+01 0.  1.
        -11    1    3    3    0    0  0.55150773647E+02 -0.53496898534E+02 -0.17875162544E+03  0.19456533500E+03  0.00000000000E+00 0.  1.
         11    1    3    3    0    0  0.15782659339E+01  0.13364094720E+02  0.32687168204E+01  0.13848265620E+02  0.00000000000E+00 0. -1.
<mgrwt>
<rscale>  0 0.13466929E+03</rscale>
<asrwt>0</asrwt>
<pdfrwt beam="1">  1        1 0.14086357E-01 0.14301742E+03</pdfrwt>
<pdfrwt beam="2">  1       -1 0.40006316E-01 0.14301742E+03</pdfrwt>
<totfact> 0.24288818E+03</totfact>
</mgrwt>
</event>
<event>
 8    1  0.7550631E-006  0.1746130E+03  0.7546771E-02  0.1178954E+00
          2   -1    0    0  501    0  0.00000000000E+00  0.00000000000E+00  0.15740322378E+04  0.15740322378E+04  0.00000000000E+00 0. -1.
         -2   -1    0    0    0  501 -0.00000000000E+00 -0.00000000000E+00 -0.29011914973E+02  0.29011914973E+02  0.00000000000E+00 0.  1.
         23    2    1    2    0    0 -0.83762596556E+02  0.88593592109E+02  0.22854397250E+03  0.27503825130E+03  0.92459154047E+02 0.  0.
         23    2    1    2    0    0  0.83762596556E+02 -0.88593592109E+02  0.13164763504E+04  0.13280059015E+04  0.12499878494E+03 0.  0.
          5    1    4    4  502    0  0.77006536655E+02 -0.10192276367E+03  0.12956757233E+04  0.13019661771E+04  0.47000000000E+01 0. -1.
         -5    1    4    4    0  502  0.67560599012E+01  0.13329171561E+02  0.20800627094E+02  0.26039724411E+02  0.47000000000E+01 0. -1.
        -11    1    3    3    0    0 -0.10224997759E+03  0.76179664731E+02  0.17077257302E+03  0.21312360482E+03  0.00000000000E+00 0.  1.
         11    1    3    3    0    0  0.18487381036E+02  0.12413927378E+02  0.57771399489E+02  0.61914646485E+02  0.00000000000E+00 0. -1.
<mgrwt>
<rscale>  0 0.16894336E+03</rscale>
<asrwt>0</asrwt>
<pdfrwt beam="1">  1        2 0.24215874E+00 0.17461298E+03</pdfrwt>
<pdfrwt beam="2">  1       -2 0.44633728E-02 0.17461298E+03</pdfrwt>
<totfact> 0.28955453E+03</totfact>
</mgrwt>
</event>
<event>
 8    1  0.7550631E-006  0.1287715E+03  0.7546771E-02  0.1243374E+00
         -1   -1    0    0    0  501 -0.00000000000E+00  0.00000000000E+00  0.28104046153E+02  0.28104046153E+02  0.00000000000E+00 0.  1.
          1   -1    0    0  501    0  0.00000000000E+00 -0.00000000000E+00 -0.45381367197E+03  0.45381367197E+03  0.00000000000E+00 0. -1.
         23    2    1    2    0    0 -0.15789971513E+02 -0.26619414388E+02 -0.16629422298E+03  0.19229996794E+03  0.91474546467E+02 0.  0.
         23    2    1    2    0    0  0.15789971513E+02  0.26619414388E+02 -0.25941540284E+03  0.28961775018E+03  0.12499669423E+03 0.  0.
          5    1    4    4  502    0 -0.15395124595E+02 -0.46231028773E+02 -0.11070900012E+03  0.12104912470E+03  0.47000000000E+01 0.  1.
         -5    1    4    4    0  502  0.31185096108E+02  0.72850443161E+02 -0.14870640272E+03  0.16856862548E+03  0.47000000000E+01 0.  1.
        -11    1    3    3    0    0 -0.12836551407E+02  0.88445355723E+01  0.57489335981E+01  0.16614845742E+02  0.00000000000E+00 0.  1.
         11    1    3    3    0    0 -0.29534201055E+01 -0.35463949961E+02 -0.17204315658E+03  0.17568512220E+03  0.00000000000E+00 0. -1.
<mgrwt>
<rscale>  0 0.11983227E+03</rscale>
<asrwt>0</asrwt>
<pdfrwt beam="2">  1        1 0.69817482E-01 0.12877146E+03</pdfrwt>
<pdfrwt beam="1">  1       -1 0.43236998E-02 0.12877146E+03</pdfrwt>
<totfact> 0.10640041E+04</totfact>
</mgrwt>
</event>
<event>
 7    1  0.7550631E-006  0.2485119E+03  0.7546771E-02  0.1144010E+00
         -2   -1    0    0    0  501 -0.00000000000E+00  0.00000000000E+00  0.54977148945E+02  0.54977148945E+02  0.00000000000E+00 0.  1.
          2   -1    0    0  501    0  0.00000000000E+00 -0.00000000000E+00 -0.63700771391E+03  0.63700771391E+03  0.00000000000E+00 0. -1.
         23    2    1    2    0    0  0.15898633662E+02 -0.77764857085E+02 -0.25156842426E+03  0.27850768521E+03  0.89329273392E+02 0.  0.
          5    1    1    2  502    0 -0.72914578398E+02  0.39404178751E+02 -0.33433650486E+03  0.34448833584E+03  0.47000000000E+01 0. -1.
         -5    1    1    2    0  502  0.57015944736E+02  0.38360678334E+02  0.38743641575E+01  0.68988841808E+02  0.47000000000E+01 0.  1.
        -11    1    3    3    0    0  0.35493261599E+02 -0.36860487700E+02 -0.21272267863E+03  0.21879077945E+03  0.00000000000E+00 0.  1.
         11    1    3    3    0    0 -0.19594627937E+02 -0.40904369385E+02 -0.38845745634E+02  0.59716905752E+02  0.00000000000E+00 0. -1.
<mgrwt>
<rscale>  0 0.20694305E+03</rscale>
<asrwt>0</asrwt>
<pdfrwt beam="2">  1        2 0.98001191E-01 0.24851187E+03</pdfrwt>
<pdfrwt beam="1">  1       -2 0.84580225E-02 0.24851187E+03</pdfrwt>
<totfact> 0.40451012E+03</totfact>
</mgrwt>
</event>
<event>
 8    1  0.7550631E-006  0.1650122E+03  0.7546771E-02  0.1189507E+00
         -1   -1    0    0    0  501 -0.00000000000E+00  0.00000000000E+00  0.51062126627E+02  0.51062126627E+02  0.00000000000E+00 0.  1.
          1   -1    0    0  501    0  0.00000000000E+00 -0.00000000000E+00 -0.48746843090E+03  0.48746843090E+03  0.00000000000E+00 0. -1.
         23    2    1    2    0    0 -0.10054439806E+03 -0.38669010533E+02 -0.14622134649E+03  0.20470975365E+03  0.94450689324E+02 0.  0.
         23    2    1    2    0    0  0.10054439806E+03  0.38669010533E+02 -0.29018495778E+03  0.33382080387E+03  0.12499820406E+03 0.  0.
          5    1    4    4  502    0 -0.93715556717E+00 -0.10973442596E+02  0.83447890679E+01  0.14595211802E+02  0.47000000000E+01 0. -1.
         -5    1    4    4    0  502  0.10148155363E+03  0.49642453129E+02 -0.29852974685E+03  0.31922559207E+03  0.47000000000E+01 0. -1.
        -11    1    3    3    0    0 -0.94797344860E+02 -0.59535470568E+00 -0.13432619742E+03  0.16440930130E+03  0.00000000000E+00 0. -1.
         11    1    3    3    0    0 -0.57470532015E+01 -0.38073655827E+02 -0.11895149069E+02  0.40300452354E+02  0.00000000000E+00 0.  1.
<mgrwt>
<rscale>  0 0.15928448E+03</rscale>
<asrwt>0</asrwt>
<pdfrwt beam="2">  1        1 0.74995145E-01 0.16501218E+03</pdfrwt>
<pdfrwt beam="1">  1       -1 0.78557116E-02 0.16501218E+03</pdfrwt>
<totfact> 0.40397382E+03</totfact>
</mgrwt>
</event>
<event>
 8    1  0.7550631E-006  0.1296129E+03  0.7546771E-02  0.1241271E+00
          1   -1    0    0  501    0  0.00000000000E+00  0.00000000000E+00  0.63712990899E+03  0.63712990899E+03  0.00000000000E+00 0. -1.
         -1   -1    0    0    0  501 -0.00000000000E+00 -0.00000000000E+00 -0.20521438920E+02  0.20521438920E+02  0.00000000000E+00 0.  1.
         23    2    1    2    0    0 -0.24617008350E+02  0.23857510209E+02  0.25128463340E+03  0.27001620357E+03  0.92680123630E+02 0.  0.
         23    2    1    2    0    0  0.24617008350E+02 -0.23857510209E+02  0.36532383667E+03  0.38763514434E+03  0.12499728634E+03 0.  0.
          5    1    4    4  502    0 -0.14236558929E+02  0.32163485753E+02  0.25781163854E+03  0.26024238777E+03  0.47000000000E+01 0.  1.
         -5    1    4    4    0  502  0.38853567278E+02 -0.56020995962E+02  0.10751219813E+03  0.12739275657E+03  0.47000000000E+01 0.  1.
        -11    1    3    3    0    0  0.22555195775E+02  0.31775108079E+02  0.51472031413E+02  0.64558224632E+02  0.00000000000E+00 0.  1.
         11    1    3    3    0    0 -0.47172204125E+02 -0.79175978705E+01  0.19981260199E+03  0.20545797894E+03  0.00000000000E+00 0. -1.
<mgrwt>
<rscale>  0 0.12111389E+03</rscale>
<asrwt>0</asrwt>
<pdfrwt beam="1">  1        1 0.98019971E-01 0.12961288E+03</pdfrwt>
<pdfrwt beam="2">  1       -1 0.31571449E-02 0.12961288E+03</pdfrwt>
<totfact> 0.10757030E+04</totfact>
</mgrwt>
</event>
<event>
 8    1  0.7550631E-006  0.1258016E+03  0.7546771E-02  0.1250926E+00
          2   -1    0    0  501    0  0.00000000000E+00  0.00000000000E+00  0.49894465604E+03  0.49894465604E+03  0.00000000000E+00 0. -1.
         -2   -1    0    0    0  501 -0.00000000000E+00 -0.00000000000E+00 -0.39971034483E+02  0.39971034483E+02  0.00000000000E+00 0.  1.
         23    2    1    2    0    0 -0.21854984989E+01 -0.61584863791E+01  0.33278955780E+02  0.95021556190E+02  0.88763189921E+02 0.  0.
         23    2    1    2    0    0  0.21854984989E+01  0.61584863791E+01  0.42569466578E+03  0.44389413434E+03  0.12563180595E+03 0.  0.
          5    1    4    4  502    0  0.57280626335E+02  0.24726168056E+02  0.28107837781E+03  0.28795763232E+03  0.47000000000E+01 0. -1.
         -5    1    4    4    0  502 -0.55095127836E+02 -0.18567681677E+02  0.14461628797E+03  0.15593650201E+03  0.47000000000E+01 0.  1.
        -11    1    3    3    0    0  0.35343237432E+02 -0.25187059246E+02  0.36370666024E+01  0.43551815566E+02  0.00000000000E+00 0. -1.
         11    1    3    3    0    0 -0.37528735931E+02  0.19028572867E+02  0.29641889178E+02  0.51469740624E+02  0.00000000000E+00 0.  1.
<mgrwt>
<rscale>  0 0.11537625E+03</rscale>
<asrwt>0</asrwt>
<pdfrwt beam="1">  1        2 0.76760712E-01 0.12580165E+03</pdfrwt>
<pdfrwt beam="2">  1       -2 0.61493903E-02 0.12580165E+03</pdfrwt>
<totfact> 0.84483970E+03</totfact>
</mgrwt>
</event>
<event>
 8    1  0.7550631E-006  0.1476058E+03  0.7546771E-02  0.1211945E+00
          1   -1    0    0  501    0  0.00000000000E+00  0.00000000000E+00  0.47395815492E+03  0.47395815492E+03  0.00000000000E+00 0. -1.
         -1   -1    0    0    0  501 -0.00000000000E+00 -0.00000000000E+00 -0.56303505490E+02  0.56303505490E+02  0.00000000000E+00 0.  1.
         23    2    1    2    0    0  0.65021548746E+02  0.44041074322E+02  0.47693934944E+02  0.13194219311E+03  0.94692200652E+02 0.  0.
         23    2    1    2    0    0 -0.65021548746E+02 -0.44041074322E+02  0.36996071448E+03  0.39831946729E+03  0.12498019737E+03 0.  0.
          5    1    4    4  502    0  0.12134933691E+02  0.34065169734E+02  0.71310067760E+02  0.80093121856E+02  0.47000000000E+01 0.  1.
         -5    1    4    4    0  502 -0.77156482437E+02 -0.78106244057E+02  0.29865064672E+03  0.31822634544E+03  0.47000000000E+01 0.  1.
        -11    1    3    3    0    0  0.16936900222E+02  0.31553679897E+02 -0.25156614977E+02  0.43764695604E+02  0.00000000000E+00 0.  1.
         11    1    3    3    0    0  0.48084648524E+02  0.12487394425E+02  0.72850549921E+02  0.88177497509E+02  0.00000000000E+00 0. -1.
<mgrwt>
<rscale>  0 0.14103336E+03</rscale>
<asrwt>0</asrwt>
<pdfrwt beam="1">  1        1 0.72916636E-01 0.14760578E+03</pdfrwt>
<pdfrwt beam="2">  1       -1 0.86620781E-02 0.14760578E+03</pdfrwt>
<totfact> 0.35959595E+03</totfact>
</mgrwt>
</event>
<event>
 7    1  0.7550631E-006  0.1189080E+03  0.7546771E-02  0.1336842E+00
          2   -1    0    0  501    0  0.00000000000E+00  0.00000000000E+00  0.12201364224E+02  0.12201364224E+02  0.00000000000E+00 0. -1.
         -2   -1    0    0    0  501 -0.00000000000E+00 -0.00000000000E+00 -0.40388820142E+03  0.40388820142E+03  0.00000000000E+00 0.  1.
         23    2    1    2    0    0  0.17781290557E+02  0.14758515871E+01 -0.32317384977E+03  0.34435511526E+03  0.11756171059E+03 0.  0.
          5    1    3    3  502    0  0.33027234312E+02 -0.34806958341E+02 -0.54462548926E+02  0.72736385605E+02  0.47000000000E+01 0. -1.
         -5    1    3    3    0  502 -0.15245943754E+02  0.36282809928E+02 -0.26871130085E+03  0.27161872966E+03  0.47000000000E+01 0.  1.
        -11    1    1    2    0    0 -0.85734430054E+01 -0.58908885842E+01 -0.43301256969E+02  0.44533193781E+02  0.00000000000E+00 0.  1.
         11    1    1    2    0    0 -0.92078475520E+01  0.44150369971E+01 -0.25211730453E+02  0.27201256600E+02  0.00000000000E+00 0. -1.
<mgrwt>
<rscale>  0 0.77317316E+02</rscale>
<asrwt>0</asrwt>
<pdfrwt beam="1">  1        2 0.18771330E-02 0.11890798E+03</pdfrwt>
<pdfrwt beam="2">  1       -2 0.62136646E-01 0.11890798E+03</pdfrwt>
<totfact> 0.13486572E+04</totfact>
</mgrwt>
</event>
<event>
 8    1  0.7550631E-006  0.1576358E+03  0.7546771E-02  0.1199321E+00
          3   -1    0    0  501    0  0.00000000000E+00  0.00000000000E+00  0.51013827516E+03  0.51013827516E+03  0.00000000000E+00 0. -1.
         -3   -1    0    0    0  501 -0.00000000000E+00 -0.00000000000E+00 -0.41869914500E+02  0.41869914500E+02  0.00000000000E+00 0.  1.
         23    2    1    2    0    0 -0.66170820730E+02  0.69606518364E+02  0.18089528978E+03  0.22423949689E+03  0.91304989919E+02 0.  0.
         23    2    1    2    0    0  0.66170820730E+02 -0.69606518364E+02  0.28737307088E+03  0.32776869277E+03  0.12500155671E+03 0.  0.
          5    1    4    4  502    0  0.70004498312E+02 -0.14277945479E+02  0.25163436878E+03  0.26162269600E+03  0.47000000000E+01 0. -1.
         -5    1    4    4    0  502 -0.38336775825E+01 -0.55328572884E+02  0.35738702097E+02  0.66145996771E+02  0.47000000000E+01 0. -1.
        -11    1    3    3    0    0 -0.44159536615E+02  0.56101341116E+02  0.41727249830E+02  0.82695758824E+02  0.00000000000E+00 0.  1.
         11    1    3    3    0    0 -0.22011284115E+02  0.13505177247E+02  0.13916803995E+03  0.14154373806E+03  0.00000000000E+00 0. -1.
<mgrwt>
<rscale>  0 0.15094106E+03</rscale>
<asrwt>0</asrwt>
<pdfrwt beam="1">  1        3 0.78482807E-01 0.15763576E+03</pdfrwt>
<pdfrwt beam="2">  1       -3 0.64415257E-02 0.15763576E+03</pdfrwt>
<totfact> 0.55949576E+02</totfact>
</mgrwt>
</event>
<event>
 8    1  0.7550631E-006  0.1368097E+03  0.7546771E-02  0.1229922E+00
          1   -1    0    0  501    0  0.00000000000E+00  0.00000000000E+00  0.18379328075E+03  0.18379328075E+03  0.00000000000E+00 0. -1.
         -1   -1    0    0    0  501 -0.00000000000E+00 -0.00000000000E+00 -0.10318594514E+03  0.10318594514E+03  0.00000000000E+00 0.  1.
         23    2    1    2    0    0 -0.16719395573E+02 -0.53027858149E+02 -0.30990781460E+02  0.11042599423E+03  0.90232919372E+02 0.  0.
         23    2    1    2    0    0  0.16719395573E+02  0.53027858149E+02  0.11159811707E+03  0.17655323165E+03  0.12500164777E+03 0.  0.
          5    1    4    4  502    0  0.75955741606E+01 -0.31254544363E+02  0.79315616002E+02  0.85718120791E+02  0.47000000000E+01 0.  1.
         -5    1    4    4    0  502  0.91238214128E+01  0.84282402512E+02  0.32282501066E+02  0.90835110862E+02  0.47000000000E+01 0.  1.
        -11    1    3    3    0    0 -0.14024131087E+02 -0.21171025477E+02 -0.61312334381E+02  0.66363325111E+02  0.00000000000E+00 0.  1.
         11    1    3    3    0    0 -0.26952644859E+01 -0.31856832672E+02  0.30321552921E+02  0.44062669121E+02  0.00000000000E+00 0. -1.
<mgrwt>
<rscale>  0 0.12835181E+03</rscale>
<asrwt>0</asrwt>
<pdfrwt beam="1">  1        1 0.28275889E-01 0.13680974E+03</pdfrwt>
<pdfrwt beam="2">  1       -1 0.15874761E-01 0.13680974E+03</pdfrwt>
<totfact> 0.45941726E+03</totfact>
</mgrwt>
</event>
<event>
 8    1  0.7550631E-006  0.1470179E+03  0.7546771E-02  0.1213642E+00
         -2   -1    0    0    0  501 -0.00000000000E+00  0.00000000000E+00  0.13033475193E+02  0.13033475193E+02  0.00000000000E+00 0.  1.
          2   -1    0    0  501    0  0.00000000000E+00 -0.00000000000E+00 -0.13695649546E+04  0.13695649546E+04  0.00000000000E+00 0. -1.
         23    2    1    2    0    0  0.14253862081E+02  0.76064485897E+02 -0.59123997154E+03  0.60331327622E+03  0.91832601569E+02 0.  0.
         23    2    1    2    0    0 -0.14253862081E+02 -0.76064485897E+02 -0.76529150784E+03  0.77928515356E+03  0.12500111990E+03 0.  0.
          5    1    4    4  502    0 -0.34052197804E+02  0.24263324084E+02 -0.16228190879E+03  0.16764775272E+03  0.47000000000E+01 0. -1.
         -5    1    4    4    0  502  0.19798335723E+02 -0.10032780998E+03 -0.60300959905E+03  0.61163740084E+03  0.47000000000E+01 0. -1.
        -11    1    3    3    0    0 -0.38250386408E+02  0.43925689164E+02 -0.30831993957E+03  0.31377339493E+03  0.00000000000E+00 0.  1.
         11    1    3    3    0    0  0.52504248489E+02  0.32138796733E+02 -0.28292003197E+03  0.28953988129E+03  0.00000000000E+00 0. -1.
<mgrwt>
<rscale>  0 0.13976763E+03</rscale>
<asrwt>0</asrwt>
<pdfrwt beam="2">  1        2 0.21070226E+00 0.14701789E+03</pdfrwt>
<pdfrwt beam="1">  1       -2 0.20051504E-02 0.14701789E+03</pdfrwt>
<totfact> 0.12040927E+04</totfact>
</mgrwt>
</event>
<event>
 8    1  0.7550631E-006  0.1580354E+03  0.7546771E-02  0.1199237E+00
          1   -1    0    0  501    0  0.00000000000E+00  0.00000000000E+00  0.29436760625E+03  0.29436760625E+03  0.00000000000E+00 0. -1.
         -1   -1    0    0    0  501 -0.00000000000E+00 -0.00000000000E+00 -0.71571819122E+02  0.71571819122E+02  0.00000000000E+00 0.  1.
         23    2    1    2    0    0 -0.65491022496E+02 -0.71143993528E+02  0.90521204886E+02  0.15985268997E+03  0.89488837924E+02 0.  0.
         23    2    1    2    0    0  0.65491022496E+02  0.71143993528E+02  0.13227458224E+03  0.20608673541E+03  0.12499854223E+03 0.  0.
          5    1    4    4  502    0 -0.15888784487E+02  0.62920606298E+02  0.21950757893E+02  0.68668638704E+02  0.47000000000E+01 0.  1.
         -5    1    4    4    0  502  0.81379806982E+02  0.82233872294E+01  0.11032382435E+03  0.13741809670E+03  0.47000000000E+01 0.  1.
        -11    1    3    3    0    0 -0.23863342423E+02 -0.57833949592E+02  0.37250817226E+01  0.62674564784E+02  0.00000000000E+00 0.  1.
         11    1    3    3    0    0 -0.41627680073E+02 -0.13310043935E+02  0.86796123164E+02  0.97178125183E+02  0.00000000000E+00 0. -1.
<mgrwt>
<rscale>  0 0.15100998E+03</rscale>
<asrwt>0</asrwt>
<pdfrwt beam="1">  1        1 0.45287323E-01 0.15803537E+03</pdfrwt>
<pdfrwt beam="2">  1       -1 0.11011049E-01 0.15803537E+03</pdfrwt>
<totfact> 0.45591936E+03</totfact>
</mgrwt>
</event>
<event>
 8    1  0.7550631E-006  0.1511014E+03  0.7546771E-02  0.1207844E+00
          1   -1    0    0  501    0  0.00000000000E+00  0.00000000000E+00  0.29146036074E+03  0.29146036074E+03  0.00000000000E+00 0. -1.
         -1   -1    0    0    0  501 -0.00000000000E+00 -0.00000000000E+00 -0.69826179892E+02  0.69826179892E+02  0.00000000000E+00 0.  1.
         23    2    1    2    0    0  0.73217208629E+02 -0.42968581746E+02  0.56141755760E+02  0.13718976056E+03  0.91989537480E+02 0.  0.
         23    2    1    2    0    0 -0.73217208629E+02  0.42968581746E+02  0.16549242508E+03  0.22409678007E+03  0.12499826167E+03 0.  0.
          5    1    4    4  502    0 -0.59013484193E+02  0.81145469249E+02  0.76990393686E+02  0.12655745421E+03  0.47000000000E+01 0.  1.
         -5    1    4    4    0  502 -0.14203724437E+02 -0.38176887503E+02  0.88502031398E+02  0.97539325858E+02  0.47000000000E+01 0.  1.
        -11    1    3    3    0    0  0.48398781657E+02 -0.23293927128E+02 -0.17934043227E+02  0.56627546418E+02  0.00000000000E+00 0.  1.
         11    1    3    3    0    0  0.24818426973E+02 -0.19674654618E+02  0.74075798987E+02  0.80562214141E+02  0.00000000000E+00 0. -1.
<mgrwt>
<rscale>  0 0.14415574E+03</rscale>
<asrwt>0</asrwt>
<pdfrwt beam="1">  1        1 0.44840055E-01 0.15110137E+03</pdfrwt>
<pdfrwt beam="2">  1       -1 0.10742489E-01 0.15110137E+03</pdfrwt>
<totfact> 0.47828864E+03</totfact>
</mgrwt>
</event>
<event>
 8    1  0.7550631E-006  0.1397752E+03  0.7546771E-02  0.1224631E+00
          3   -1    0    0  501    0  0.00000000000E+00  0.00000000000E+00  0.63674186981E+03  0.63674186981E+03  0.00000000000E+00 0. -1.
         -3   -1    0    0    0  501 -0.00000000000E+00 -0.00000000000E+00 -0.24700629995E+02  0.24700629995E+02  0.00000000000E+00 0.  1.
         23    2    1    2    0    0  0.33885720228E+02  0.52565539804E+02  0.26008896946E+03  0.28275065920E+03  0.91598500184E+02 0.  0.
         23    2    1    2    0    0 -0.33885720228E+02 -0.52565539804E+02  0.35195227036E+03  0.37869184060E+03  0.12500292604E+03 0.  0.
          5    1    4    4  502    0  0.32085116503E+02  0.21846997305E+02  0.12202574561E+03  0.12813710854E+03  0.47000000000E+01 0. -1.
         -5    1    4    4    0  502 -0.65970836732E+02 -0.74412537109E+02  0.22992652474E+03  0.25055473206E+03  0.47000000000E+01 0. -1.
        -11    1    3    3    0    0 -0.21553238788E+02  0.97227849762E+01  0.15374536947E+02  0.28203741530E+02  0.00000000000E+00 0.  1.
         11    1    3    3    0    0  0.55438959016E+02  0.42842754828E+02  0.24471443251E+03  0.25454691767E+03  0.00000000000E+00 0. -1.
<mgrwt>
<rscale>  0 0.13192226E+03</rscale>
<asrwt>0</asrwt>
<pdfrwt beam="1">  1        3 0.97960275E-01 0.13977521E+03</pdfrwt>
<pdfrwt beam="2">  1       -3 0.38000974E-02 0.13977521E+03</pdfrwt>
<totfact> 0.77729535E+02</totfact>
</mgrwt>
</event>
<event>
 8    1  0.7550631E-006  0.1668823E+03  0.7546771E-02  0.1187982E+00
          1   -1    0    0  501    0  0.00000000000E+00  0.00000000000E+00  0.85720578201E+03  0.85720578201E+03  0.00000000000E+00 0. -1.
         -1   -1    0    0    0  501 -0.00000000000E+00 -0.00000000000E+00 -0.31284834280E+02  0.31284834280E+02  0.00000000000E+00 0.  1.
         23    2    1    2    0    0  0.40773508104E+02 -0.10276986633E+03  0.24234110434E+03  0.28151850858E+03  0.91100688443E+02 0.  0.
         23    2    1    2    0    0 -0.40773508104E+02  0.10276986633E+03  0.58357984339E+03  0.60697210771E+03  0.12500232611E+03 0.  0.
          5    1    4    4  502    0 -0.75565212948E+02  0.22959732282E+02  0.25256386595E+03  0.26466553817E+03  0.47000000000E+01 0.  1.
         -5    1    4    4    0  502  0.34791704844E+02  0.79810134045E+02  0.33101597745E+03  0.34230656954E+03  0.47000000000E+01 0.  1.
        -11    1    3    3    0    0  0.19791967016E+02 -0.79870744608E+02  0.75057851603E+02  0.11137656347E+03  0.00000000000E+00 0.  1.
         11    1    3    3    0    0  0.20981541088E+02 -0.22899121720E+02  0.16728325273E+03  0.17014194511E+03  0.00000000000E+00 0. -1.
<mgrwt>
<rscale>  0 0.16063458E+03</rscale>
<asrwt>0</asrwt>
<pdfrwt beam="1">  1        1 0.13187779E+00 0.16688231E+03</pdfrwt>
<pdfrwt beam="2">  1       -1 0.48130521E-02 0.16688231E+03</pdfrwt>
<totfact> 0.37929254E+03</totfact>
</mgrwt>
</event>
<event>
 8    1  0.7550631E-006  0.1257499E+03  0.7546771E-02  0.1248428E+00
         -1   -1    0    0    0  501 -0.00000000000E+00  0.00000000000E+00  0.11062948573E+03  0.11062948573E+03  0.00000000000E+00 0.  1.
          1   -1    0    0  501    0  0.00000000000E+00 -0.00000000000E+00 -0.11327948272E+03  0.11327948272E+03  0.00000000000E+00 0. -1.
         23    2    1    2    0    0 -0.11945224658E+02 -0.65964197599E+01  0.20885488737E+02  0.95975569387E+02  0.92676346139E+02 0.  0.
         23    2    1    2    0    0  0.11945224658E+02  0.65964197599E+01 -0.23535485725E+02  0.12793339906E+03  0.12500733723E+03 0.  0.
          5    1    4    4  502    0  0.68350882725E+02 -0.63226862516E+00 -0.94899459465E+01  0.69169299598E+02  0.47000000000E+01 0. -1.
         -5    1    4    4    0  502 -0.56405658066E+02  0.72286883851E+01 -0.14045539779E+02  0.58764099460E+02  0.47000000000E+01 0. -1.
        -11    1    3    3    0    0 -0.23056014463E+02  0.39331902982E+02  0.38825623303E+01  0.45756449658E+02  0.00000000000E+00 0. -1.
         11    1    3    3    0    0  0.11110789805E+02 -0.45928322742E+02  0.17002926406E+02  0.50219119729E+02  0.00000000000E+00 0.  1.
<mgrwt>
<rscale>  0 0.11682540E+03</rscale>
<asrwt>0</asrwt>
<pdfrwt beam="2">  1        1 0.17427613E-01 0.12574989E+03</pdfrwt>
<pdfrwt beam="1">  1       -1 0.17019921E-01 0.12574989E+03</pdfrwt>
<totfact> 0.75403314E+03</totfact>
</mgrwt>
</event>
<event>
 8    1  0.7550631E-006  0.1309149E+03  0.7546771E-02  0.1239078E+00
         -1   -1    0    0    0  501 -0.00000000000E+00  0.00000000000E+00  0.29741777319E+02  0.29741777319E+02  0.00000000000E+00 0.  1.
          1   -1    0    0  501    0  0.00000000000E+00 -0.00000000000E+00 -0.47608225600E+03  0.47608225600E+03  0.00000000000E+00 0. -1.
         23    2    1    2    0    0 -0.28688026617E+02 -0.26279535689E+02 -0.13568598365E+03  0.16871140346E+03  0.92407979256E+02 0.  0.
         23    2    1    2    0    0  0.28688026617E+02  0.26279535689E+02 -0.31065449503E+03  0.33711262986E+03  0.12500037225E+03 0.  0.
          5    1    4    4  502    0  0.24978477106E+02  0.73759857782E+02 -0.23481620422E+03  0.24743722578E+03  0.47000000000E+01 0. -1.
         -5    1    4    4    0  502  0.37095495111E+01 -0.47480322093E+02 -0.75838290811E+02  0.89675404079E+02  0.47000000000E+01 0. -1.
        -11    1    3    3    0    0 -0.52057833192E+02  0.50398103682E+00 -0.37139261249E+02  0.63949954806E+02  0.00000000000E+00 0. -1.
         11    1    3    3    0    0  0.23369806575E+02 -0.26783516725E+02 -0.98546722400E+02  0.10476144865E+03  0.00000000000E+00 0.  1.
<mgrwt>
<rscale>  0 0.12246950E+03</rscale>
<asrwt>0</asrwt>
<pdfrwt beam="2">  1        1 0.73243425E-01 0.13091490E+03</pdfrwt>
<pdfrwt beam="1">  1       -1 0.45756580E-02 0.13091490E+03</pdfrwt>
<totfact> 0.92157683E+03</totfact>
</mgrwt>
</event>
<event>
 8    1  0.7550631E-006  0.1441311E+03  0.7546771E-02  0.1214686E+00
         -2   -1    0    0    0  501 -0.00000000000E+00  0.00000000000E+00  0.25817993411E+02  0.25817993411E+02  0.00000000000E+00 0.  1.
          2   -1    0    0  501    0  0.00000000000E+00 -0.00000000000E+00 -0.78751219093E+03  0.78751219093E+03  0.00000000000E+00 0. -1.
         23    2    1    2    0    0  0.28970016447E+02  0.80051208935E+02 -0.22079312283E+03  0.25355544635E+03  0.91067575904E+02 0.  0.
         23    2    1    2    0    0 -0.28970016447E+02 -0.80051208935E+02 -0.54090107468E+03  0.55977473799E+03  0.11630273766E+03 0.  0.
          5    1    4    4  502    0 -0.32127024445E+02 -0.79157186379E+02 -0.54565867661E+03  0.55232552649E+03  0.47000000000E+01 0. -1.
         -5    1    4    4    0  502  0.31570079971E+01 -0.89402255615E+00  0.47576019239E+01  0.74492114946E+01  0.47000000000E+01 0.  1.
        -11    1    3    3    0    0  0.31162583029E+02  0.94750124886E+02 -0.21603766845E+03  0.23795160629E+03  0.00000000000E+00 0.  1.
         11    1    3    3    0    0 -0.21925665815E+01 -0.14698915951E+02 -0.47554543814E+01  0.15603840063E+02  0.00000000000E+00 0. -1.
<mgrwt>
<rscale>  0 0.13899603E+03</rscale>
<asrwt>0</asrwt>
<pdfrwt beam="2">  1        2 0.12115572E+00 0.14413114E+03</pdfrwt>
<pdfrwt beam="1">  1       -2 0.39719990E-02 0.14413114E+03</pdfrwt>
<totfact> 0.96899252E+03</totfact>
</mgrwt>
</event>
<event>
 8    1  0.7550631E-006  0.1315637E+03  0.7546771E-02  0.1237354E+00
          4   -1    0    0  501    0  0.00000000000E+00  0.00000000000E+00  0.11727520809E+03  0.11727520809E+03  0.00000000000E+00 0. -1.
         -4   -1    0    0    0  501 -0.00000000000E+00 -0.00000000000E+00 -0.14177509718E+03  0.14177509718E+03  0.00000000000E+00 0.  1.
         23    2    1    2    0    0 -0.29149635249E+02 -0.28984025054E+02 -0.65210499323E+02  0.12133190368E+03  0.93697634367E+02 0.  0.
         23    2    1    2    0    0  0.29149635249E+02  0.28984025054E+02  0.40710610230E+02  0.13771840158E+03  0.12497691549E+03 0.  0.
          5    1    4    4  502    0  0.63192876993E+02  0.50486309148E+02  0.51203106107E+02  0.95843910547E+02  0.47000000000E+01 0.  1.
         -5    1    4    4    0  502 -0.34043241744E+02 -0.21502284094E+02 -0.10492495876E+02  0.41874491034E+02  0.47000000000E+01 0.  1.
        -11    1    3    3    0    0 -0.44671618616E+02  0.20608311456E+02 -0.22637212710E+02  0.54154403423E+02  0.00000000000E+00 0.  1.
         11    1    3    3    0    0  0.15521983367E+02 -0.49592336510E+02 -0.42573286613E+02  0.67177500260E+02  0.00000000000E+00 0. -1.
<mgrwt>
<rscale>  0 0.12354930E+03</rscale>
<asrwt>0</asrwt>
<pdfrwt beam="1">  1        4 0.18042340E-01 0.13156369E+03</pdfrwt>
<pdfrwt beam="2">  1       -4 0.21811553E-01 0.13156369E+03</pdfrwt>
<totfact> 0.85928218E+02</totfact>
</mgrwt>
</event>
<event>
 7    1  0.7550631E-006  0.1369332E+03  0.7546771E-02  0.1236082E+00
         -2   -1    0    0    0  501 -0.00000000000E+00  0.00000000000E+00  0.31904299227E+02  0.31904299227E+02  0.00000000000E+00 0.  1.
          2   -1    0    0  501    0  0.00000000000E+00 -0.00000000000E+00 -0.50390424430E+03  0.50390424430E+03  0.00000000000E+00 0. -1.
         23    2    1    2    0    0  0.53031438504E+01  0.20853842901E+02 -0.88038992029E+02  0.12816075131E+03  0.90616267632E+02 0.  0.
          5    1    1    2  502    0 -0.48780948571E+01  0.13662085328E+02 -0.36968458237E+03  0.36999895787E+03  0.47000000000E+01 0. -1.
         -5    1    1    2    0  502 -0.42504899327E+00 -0.34515928229E+02 -0.14276370675E+02  0.37648834349E+02  0.47000000000E+01 0.  1.
        -11    1    3    3    0    0 -0.12540719066E+02  0.45308934869E+02 -0.15407485731E+02  0.49472819105E+02  0.00000000000E+00 0.  1.
         11    1    3    3    0    0  0.17843862917E+02 -0.24455091969E+02 -0.72631506298E+02  0.78687932202E+02  0.00000000000E+00 0. -1.
<mgrwt>
<rscale>  0 0.12435436E+03</rscale>
<asrwt>0</asrwt>
<pdfrwt beam="2">  1        2 0.77523727E-01 0.13693323E+03</pdfrwt>
<pdfrwt beam="1">  1       -2 0.49083539E-02 0.13693323E+03</pdfrwt>
<totfact> 0.11809213E+04</totfact>
</mgrwt>
</event>
<event>
 8    1  0.7550631E-006  0.1371001E+03  0.7546771E-02  0.1229511E+00
         -3   -1    0    0    0  501 -0.00000000000E+00  0.00000000000E+00  0.79653916335E+02  0.79653916335E+02  0.00000000000E+00 0.  1.
          3   -1    0    0  501    0  0.00000000000E+00 -0.00000000000E+00 -0.19004624498E+03  0.19004624498E+03  0.00000000000E+00 0. -1.
         23    2    1    2    0    0 -0.58165536087E+01  0.56000152086E+02 -0.28373613226E+02  0.10993940527E+03  0.90065318375E+02 0.  0.
         23    2    1    2    0    0  0.58165536087E+01 -0.56000152086E+02 -0.82018715422E+02  0.15976075605E+03  0.12500632050E+03 0.  0.
          5    1    4    4  502    0  0.60932944552E+02 -0.20081269409E+02 -0.15674733585E+02  0.66210787534E+02  0.47000000000E+01 0.  1.
         -5    1    4    4    0  502 -0.55116390943E+02 -0.35918882677E+02 -0.66343981837E+02  0.93549968516E+02  0.47000000000E+01 0.  1.
        -11    1    3    3    0    0  0.21289227891E+02  0.67367576018E+02 -0.23640048254E+01  0.70690947380E+02  0.00000000000E+00 0.  1.
         11    1    3    3    0    0 -0.27105781499E+02 -0.11367423931E+02 -0.26009608400E+02  0.39248457889E+02  0.00000000000E+00 0. -1.
<mgrwt>
<rscale>  0 0.12862478E+03</rscale>
<asrwt>0</asrwt>
<pdfrwt beam="2">  1        3 0.29237884E-01 0.13710007E+03</pdfrwt>
<pdfrwt beam="1">  1       -3 0.12254449E-01 0.13710007E+03</pdfrwt>
<totfact> 0.13607216E+03</totfact>
</mgrwt>
</event>
<event>
 8    1  0.7550631E-006  0.1721899E+03  0.7546771E-02  0.1181939E+00
         -2   -1    0    0    0  501 -0.00000000000E+00  0.00000000000E+00  0.31597161656E+02  0.31597161656E+02  0.00000000000E+00 0.  1.
          2   -1    0    0  501    0  0.00000000000E+00 -0.00000000000E+00 -0.86283165419E+03  0.86283165419E+03  0.00000000000E+00 0. -1.
         23    2    1    2    0    0  0.25115301385E+02 -0.11571769766E+03 -0.28504753340E+03  0.32174254099E+03  0.90800894661E+02 0.  0.
         23    2    1    2    0    0 -0.25115301385E+02  0.11571769766E+03 -0.54618695913E+03  0.57268627485E+03  0.12501204406E+03 0.  0.
          5    1    4    4  502    0 -0.16597795448E+02  0.13854148486E+03 -0.51033211024E+03  0.52908428684E+03  0.47000000000E+01 0.  1.
         -5    1    4    4    0  502 -0.85175059375E+01 -0.22823787196E+02 -0.35854848895E+02  0.43601988013E+02  0.47000000000E+01 0.  1.
        -11    1    3    3    0    0 -0.28405224144E+02 -0.61880925939E+02 -0.93206882752E+02  0.11542802409E+03  0.00000000000E+00 0. -1.
         11    1    3    3    0    0  0.53520525529E+02 -0.53836771722E+02 -0.19184065065E+03  0.20631451690E+03  0.00000000000E+00 0.  1.
<mgrwt>
<rscale>  0 0.16613514E+03</rscale>
<asrwt>0</asrwt>
<pdfrwt beam="2">  1        2 0.13274332E+00 0.17218994E+03</pdfrwt>
<pdfrwt beam="1">  1       -2 0.48611021E-02 0.17218994E+03</pdfrwt>
<totfact> 0.64353228E+03</totfact>
</mgrwt>
</event>
<event>
 8    1  0.7550631E-006  0.1360588E+03  0.7546771E-02  0.1228677E+00
         -2   -1    0    0    0  501 -0.00000000000E+00  0.00000000000E+00  0.14814903011E+02  0.14814903011E+02  0.00000000000E+00 0.  1.
          2   -1    0    0  501    0  0.00000000000E+00 -0.00000000000E+00 -0.17278329194E+04  0.17278329194E+04  0.00000000000E+00 0. -1.
         23    2    1    2    0    0  0.17279533520E+02 -0.61109317005E+02 -0.25049365547E+03  0.27380830982E+03  0.90504078311E+02 0.  0.
         23    2    1    2    0    0 -0.17279533520E+02  0.61109317005E+02 -0.14625243609E+04  0.14688395126E+04  0.12032903462E+03 0.  0.
          5    1    4    4  502    0 -0.34355221103E+02  0.40582231309E+02 -0.23379782382E+03  0.23981390939E+03  0.47000000000E+01 0. -1.
         -5    1    4    4    0  502  0.17075687583E+02  0.20527085696E+02 -0.12287265371E+04  0.12290256032E+04  0.47000000000E+01 0.  1.
        -11    1    3    3    0    0 -0.30231934141E+02 -0.50636671719E+02 -0.16782826907E+03  0.17788864569E+03  0.00000000000E+00 0. -1.
         11    1    3    3    0    0  0.47511467661E+02 -0.10472645286E+02 -0.82665386398E+02  0.95919664130E+02  0.00000000000E+00 0.  1.
<mgrwt>
<rscale>  0 0.12918033E+03</rscale>
<asrwt>0</asrwt>
<pdfrwt beam="2">  1        2 0.26582040E+00 0.13605884E+03</pdfrwt>
<pdfrwt beam="1">  1       -2 0.22792162E-02 0.13605884E+03</pdfrwt>
<totfact> 0.64870958E+03</totfact>
</mgrwt>
</event>
<event>
 8    1  0.7550631E-006  0.2377060E+03  0.7546771E-02  0.1124660E+00
         -1   -1    0    0    0  501 -0.00000000000E+00  0.00000000000E+00  0.12766663031E+03  0.12766663031E+03  0.00000000000E+00 0.  1.
          1   -1    0    0  501    0  0.00000000000E+00 -0.00000000000E+00 -0.50227356845E+03  0.50227356845E+03  0.00000000000E+00 0. -1.
         23    2    1    2    0    0  0.13379296470E+03  0.15158698962E+03 -0.44729857129E+02  0.22334082730E+03  0.83673127088E+02 0.  0.
         23    2    1    2    0    0 -0.13379296470E+03 -0.15158698962E+03 -0.32987708101E+03  0.40659937145E+03  0.12499994986E+03 0.  0.
          5    1    4    4  502    0 -0.43264194638E+02 -0.82016523797E+02 -0.52628823235E+02  0.10672574080E+03  0.47000000000E+01 0.  1.
         -5    1    4    4    0  502 -0.90528770066E+02 -0.69570465822E+02 -0.27724825778E+03  0.29987363066E+03  0.47000000000E+01 0.  1.
        -11    1    3    3    0    0  0.10476252464E+03  0.11046048536E+03  0.53497207217E+01  0.15233294098E+03  0.00000000000E+00 0.  1.
         11    1    3    3    0    0  0.29030440060E+02  0.41126504254E+02 -0.50079577850E+02  0.71007886322E+02  0.00000000000E+00 0. -1.
<mgrwt>
<rscale>  0 0.23283585E+03</rscale>
<asrwt>0</asrwt>
<pdfrwt beam="2">  1        1 0.77272858E-01 0.23770604E+03</pdfrwt>
<pdfrwt beam="1">  1       -1 0.19641020E-01 0.23770604E+03</pdfrwt>
<totfact> 0.93410301E+02</totfact>
</mgrwt>
</event>
<event>
 8    1  0.7550631E-006  0.1579603E+03  0.7546771E-02  0.1198535E+00
         -2   -1    0    0    0  501 -0.00000000000E+00  0.00000000000E+00  0.22663657924E+03  0.22663657924E+03  0.00000000000E+00 0.  1.
          2   -1    0    0  501    0  0.00000000000E+00 -0.00000000000E+00 -0.96307765586E+02  0.96307765586E+02  0.00000000000E+00 0. -1.
         23    2    1    2    0    0 -0.31434372070E+02 -0.91316389067E+02  0.84793010965E+02  0.15855164315E+03  0.92854543123E+02 0.  0.
         23    2    1    2    0    0  0.31434372070E+02  0.91316389067E+02  0.45535802686E+02  0.16439270167E+03  0.12499859350E+03 0.  0.
          5    1    4    4  502    0 -0.43307223588E+02  0.53499402999E+02  0.11665729891E+00  0.68991342537E+02  0.47000000000E+01 0. -1.
         -5    1    4    4    0  502  0.74741595658E+02  0.37816986067E+02  0.45419145387E+02  0.95401359133E+02  0.47000000000E+01 0. -1.
        -11    1    3    3    0    0 -0.25692224963E+02  0.21696234287E+01  0.54199009830E+02  0.60019416491E+02  0.00000000000E+00 0. -1.
         11    1    3    3    0    0 -0.57421471072E+01 -0.93486012495E+02  0.30594001135E+02  0.98532226663E+02  0.00000000000E+00 0.  1.
<mgrwt>
<rscale>  0 0.15158815E+03</rscale>
<asrwt>0</asrwt>
<pdfrwt beam="2">  1        2 0.14816579E-01 0.15796028E+03</pdfrwt>
<pdfrwt beam="1">  1       -2 0.34867166E-01 0.15796028E+03</pdfrwt>
<totfact> 0.29687483E+03</totfact>
</mgrwt>
</event>
<event>
 8    1  0.7550631E-006  0.3486314E+03  0.7546771E-02  0.1064303E+00
          1   -1    0    0  501    0  0.00000000000E+00  0.00000000000E+00  0.68977667783E+03  0.68977667783E+03  0.00000000000E+00 0. -1.
         -1   -1    0    0    0  501 -0.00000000000E+00 -0.00000000000E+00 -0.24250756865E+03  0.24250756865E+03  0.00000000000E+00 0.  1.
         23    2    1    2    0    0  0.20440691912E+03  0.25325234444E+03 -0.32238629128E+02  0.33943388786E+03  0.90868567033E+02 0.  0.
         23    2    1    2    0    0 -0.20440691912E+03 -0.25325234444E+03  0.47950773831E+03  0.59285035862E+03  0.12499975229E+03 0.  0.
          5    1    4    4  502    0 -0.19232487673E+02  0.80083754689E+01  0.68772716279E+02  0.72012493112E+02  0.47000000000E+01 0. -1.
         -5    1    4    4    0  502 -0.18517443144E+03 -0.26126071991E+03  0.41073502203E+03  0.52083786551E+03  0.47000000000E+01 0. -1.
        -11    1    3    3    0    0  0.51493563452E+02  0.14358314497E+02  0.33769943077E+01  0.53564469219E+02  0.00000000000E+00 0.  1.
         11    1    3    3    0    0  0.15291335567E+03  0.23889402994E+03 -0.35615623435E+02  0.28586941864E+03  0.00000000000E+00 0. -1.
<mgrwt>
<rscale>  0 0.34591690E+03</rscale>
<asrwt>0</asrwt>
<pdfrwt beam="1">  1        1 0.10611949E+00 0.34863143E+03</pdfrwt>
<pdfrwt beam="2">  1       -1 0.37308857E-01 0.34863143E+03</pdfrwt>
<totfact> 0.20139243E+02</totfact>
</mgrwt>
</event>
<event>
 8    1  0.7550631E-006  0.2148729E+03  0.7546771E-02  0.1141192E+00
         -2   -1    0    0    0  501 -0.00000000000E+00  0.00000000000E+00  0.10286006490E+03  0.10286006490E+03  0.00000000000E+00 0.  1.
          2   -1    0    0  501    0  0.00000000000E+00 -0.00000000000E+00 -0.63760686507E+03  0.63760686507E+03  0.00000000000E+00 0. -1.
         23    2    1    2    0    0 -0.14987618983E+03  0.89903465729E+02 -0.41028045854E+02  0.20201679129E+03  0.92638965820E+02 0.  0.
         23    2    1    2    0    0  0.14987618983E+03 -0.89903465729E+02 -0.49371875432E+03  0.53845013869E+03  0.12499935224E+03 0.  0.
          5    1    4    4  502    0  0.16948775328E+03 -0.92113226009E+02 -0.46341199993E+03  0.50197979700E+03  0.47000000000E+01 0.  1.
         -5    1    4    4    0  502 -0.19611563447E+02  0.22097602797E+01 -0.30306754384E+02  0.36470341685E+02  0.47000000000E+01 0.  1.
        -11    1    3    3    0    0 -0.97130508422E+02  0.79418426469E+02 -0.67067841485E+02  0.14226636107E+03  0.00000000000E+00 0. -1.
         11    1    3    3    0    0 -0.52745681408E+02  0.10485039260E+02  0.26039795632E+02  0.59750430225E+02  0.00000000000E+00 0.  1.
<mgrwt>
<rscale>  0 0.21047301E+03</rscale>
<asrwt>0</asrwt>
<pdfrwt beam="2">  1        2 0.98093364E-01 0.21487285E+03</pdfrwt>
<pdfrwt beam="1">  1       -2 0.15824625E-01 0.21487285E+03</pdfrwt>
<totfact> 0.14664879E+03</totfact>
</mgrwt>
</event>
<event>
 6    1  0.7550631E-006  0.2766241E+03  0.7546771E-02  0.1126588E+00
         -1   -1    0    0    0  501 -0.00000000000E+00  0.00000000000E+00  0.23742411021E+03  0.23742411021E+03  0.00000000000E+00 0.  1.
          1   -1    0    0  501    0  0.00000000000E+00 -0.00000000000E+00 -0.17615035447E+03  0.17615035447E+03  0.00000000000E+00 0. -1.
          5    1    1    2  502    0  0.15132744712E+03  0.39232710180E+02 -0.90895636982E+01  0.15666496727E+03  0.47000000000E+01 0. -1.
         -5    1    1    2    0  502 -0.45282378246E+02 -0.10205523104E+03  0.52045729155E+02  0.12327453868E+03  0.47000000000E+01 0.  1.
        -11    1    1    2    0    0 -0.89808437757E+02  0.30536467122E+02  0.21793637771E+02  0.97329306809E+02  0.00000000000E+00 0. -1.
         11    1    1    2    0    0 -0.16236631118E+02  0.32286053739E+02 -0.34760474819E+01  0.36305651932E+02  0.00000000000E+00 0.  1.
<mgrwt>
<rscale>  0 0.23007416E+03</rscale>
<asrwt>0</asrwt>
<pdfrwt beam="2">  1        1 0.27100054E-01 0.27662410E+03</pdfrwt>
<pdfrwt beam="1">  1       -1 0.36526787E-01 0.27662410E+03</pdfrwt>
<totfact> 0.12513991E+03</totfact>
</mgrwt>
</event>
<event>
 8    1  0.7550631E-006  0.1252973E+03  0.7546771E-02  0.1250408E+00
         -2   -1    0    0    0  501 -0.00000000000E+00  0.00000000000E+00  0.30471405489E+02  0.30471405489E+02  0.00000000000E+00 0.  1.
          2   -1    0    0  501    0  0.00000000000E+00 -0.00000000000E+00 -0.40399803981E+03  0.40399803981E+03  0.00000000000E+00 0. -1.
         23    2    1    2    0    0 -0.44549314941E+01 -0.74134370293E+01 -0.11077370734E+03  0.14337065915E+03  0.90606435780E+02 0.  0.
         23    2    1    2    0    0  0.44549314941E+01  0.74134370293E+01 -0.26275292699E+03  0.29109878615E+03  0.12499838877E+03 0.  0.
          5    1    4    4  502    0 -0.25722937391E+02 -0.24357299748E+02 -0.13851944143E+02  0.38326412767E+02  0.47000000000E+01 0.  1.
         -5    1    4    4    0  502  0.30177868885E+02  0.31770736777E+02 -0.24890098285E+03  0.25277237339E+03  0.47000000000E+01 0.  1.
        -11    1    3    3    0    0 -0.29268058066E+01 -0.32312643054E+02 -0.28144705794E+01  0.32566767387E+02  0.00000000000E+00 0.  1.
         11    1    3    3    0    0 -0.15281256875E+01  0.24899206025E+02 -0.10795923676E+03  0.11080389176E+03  0.00000000000E+00 0. -1.
<mgrwt>
<rscale>  0 0.11567469E+03</rscale>
<asrwt>0</asrwt>
<pdfrwt beam="2">  1        2 0.62153544E-01 0.12529726E+03</pdfrwt>
<pdfrwt beam="1">  1       -2 0.46879086E-02 0.12529726E+03</pdfrwt>
<totfact> 0.15952325E+04</totfact>
</mgrwt>
</event>
<event>
 8    1  0.7550631E-006  0.1893864E+03  0.7546771E-02  0.1164118E+00
         -1   -1    0    0    0  501 -0.00000000000E+00  0.00000000000E+00  0.71263722502E+03  0.71263722502E+03  0.00000000000E+00 0.  1.
          1   -1    0    0  501    0  0.00000000000E+00 -0.00000000000E+00 -0.49076216502E+02  0.49076216502E+02  0.00000000000E+00 0. -1.
         23    2    1    2    0    0 -0.74121777265E+02 -0.12144430737E+03  0.42522037251E+03  0.45729029936E+03  0.89773576465E+02 0.  0.
         23    2    1    2    0    0  0.74121777265E+02  0.12144430737E+03  0.23834063601E+03  0.30442314217E+03  0.12499773221E+03 0.  0.
          5    1    4    4  502    0  0.65593451964E+02  0.11636248454E+03  0.10327046570E+03  0.16890709824E+03  0.47000000000E+01 0.  1.
         -5    1    4    4    0  502  0.85283253006E+01  0.50818228278E+01  0.13507017031E+03  0.13551604393E+03  0.47000000000E+01 0.  1.
        -11    1    3    3    0    0 -0.57934457106E+02 -0.29302411438E+02  0.25413744486E+03  0.26229920609E+03  0.00000000000E+00 0.  1.
         11    1    3    3    0    0 -0.16187320158E+02 -0.92141895930E+02  0.17108292765E+03  0.19499109326E+03  0.00000000000E+00 0. -1.
<mgrwt>
<rscale>  0 0.18386063E+03</rscale>
<asrwt>0</asrwt>
<pdfrwt beam="2">  1        1 0.75501877E-02 0.18938635E+03</pdfrwt>
<pdfrwt beam="1">  1       -1 0.10963649E+00 0.18938635E+03</pdfrwt>
<totfact> 0.76573315E+02</totfact>
</mgrwt>
</event>
<event>
 8    1  0.7550631E-006  0.3882204E+03  0.7546771E-02  0.1048789E+00
          2   -1    0    0  501    0  0.00000000000E+00  0.00000000000E+00  0.98877958984E+03  0.98877958984E+03  0.00000000000E+00 0. -1.
         -2   -1    0    0    0  501 -0.00000000000E+00 -0.00000000000E+00 -0.15709010431E+03  0.15709010431E+03  0.00000000000E+00 0.  1.
         23    2    1    2    0    0 -0.26251705141E+03  0.25724479501E+03  0.27923588146E+03  0.47065118700E+03  0.91922660347E+02 0.  0.
         23    2    1    2    0    0  0.26251705141E+03 -0.25724479501E+03  0.55245360407E+03  0.67521850715E+03  0.12499984363E+03 0.  0.
          5    1    4    4  502    0  0.27541611291E+03 -0.23759139217E+03  0.52581985582E+03  0.63938432547E+03  0.47000000000E+01 0.  1.
         -5    1    4    4    0  502 -0.12899061499E+02 -0.19653402843E+02  0.26633748254E+02  0.35834181683E+02  0.47000000000E+01 0.  1.
        -11    1    3    3    0    0 -0.24253015643E+03  0.23818456662E+03  0.28358998319E+03  0.44269181506E+03  0.00000000000E+00 0. -1.
         11    1    3    3    0    0 -0.19986894985E+02  0.19060228388E+02 -0.43541017307E+01  0.27959371939E+02  0.00000000000E+00 0.  1.
<mgrwt>
<rscale>  0 0.38586048E+03</rscale>
<asrwt>0</asrwt>
<pdfrwt beam="1">  1        2 0.15211993E+00 0.38822036E+03</pdfrwt>
<pdfrwt beam="2">  1       -2 0.24167709E-01 0.38822036E+03</pdfrwt>
<totfact> 0.40113252E+02</totfact>
</mgrwt>
</event>
<event>
 8    1  0.7550631E-006  0.2075860E+03  0.7546771E-02  0.1147343E+00
          1   -1    0    0  501    0  0.00000000000E+00  0.00000000000E+00  0.79894393887E+02  0.79894393887E+02  0.00000000000E+00 0. -1.
         -1   -1    0    0    0  501 -0.00000000000E+00 -0.00000000000E+00 -0.59553103563E+03  0.59553103563E+03  0.00000000000E+00 0.  1.
         23    2    1    2    0    0  0.16138650315E+03 -0.37730161668E+02 -0.38801329455E+03  0.43174600602E+03  0.91548503381E+02 0.  0.
         23    2    1    2    0    0 -0.16138650315E+03  0.37730161668E+02 -0.12762334720E+03  0.24367942350E+03  0.12499109644E+03 0.  0.
          5    1    4    4  502    0 -0.14279077860E+03  0.21723455711E+02 -0.36298530467E+02  0.14899928958E+03  0.47000000000E+01 0.  1.
         -5    1    4    4    0  502 -0.18595724544E+02  0.16006705957E+02 -0.91324816731E+02  0.94680133913E+02  0.47000000000E+01 0.  1.
        -11    1    3    3    0    0  0.13736810548E+03 -0.36773613359E+01 -0.22634401647E+03  0.26479262297E+03  0.00000000000E+00 0.  1.
         11    1    3    3    0    0  0.24018397671E+02 -0.34052800332E+02 -0.16166927808E+03  0.16695338305E+03  0.00000000000E+00 0. -1.
<mgrwt>
<rscale>  0 0.20286640E+03</rscale>
<asrwt>0</asrwt>
<pdfrwt beam="1">  1        1 0.12291445E-01 0.20758599E+03</pdfrwt>
<pdfrwt beam="2">  1       -1 0.91620164E-01 0.20758599E+03</pdfrwt>
<totfact> 0.59374547E+02</totfact>
</mgrwt>
</event>
<event>
 8    1  0.7550631E-006  0.1997034E+03  0.7546771E-02  0.1153952E+00
          1   -1    0    0  501    0  0.00000000000E+00  0.00000000000E+00  0.50143566462E+03  0.50143566462E+03  0.00000000000E+00 0. -1.
         -1   -1    0    0    0  501 -0.00000000000E+00 -0.00000000000E+00 -0.76031826015E+02  0.76031826015E+02  0.00000000000E+00 0.  1.
         23    2    1    2    0    0 -0.14817442968E+03 -0.47978246211E+02  0.26458442559E+03  0.32106090994E+03  0.93902161345E+02 0.  0.
         23    2    1    2    0    0  0.14817442968E+03  0.47978246211E+02  0.16081941301E+03  0.25640658070E+03  0.12499550913E+03 0.  0.
          5    1    4    4  502    0  0.52006558188E+02  0.43471608895E+02  0.14308887031E+03  0.15840131843E+03  0.47000000000E+01 0. -1.
         -5    1    4    4    0  502  0.96167871488E+02  0.45066373161E+01  0.17730542698E+02  0.98005262261E+02  0.47000000000E+01 0. -1.
        -11    1    3    3    0    0 -0.53646558715E+02  0.22987230190E+02  0.12636475523E+03  0.13919201621E+03  0.00000000000E+00 0. -1.
         11    1    3    3    0    0 -0.94527870961E+02 -0.70965476401E+02  0.13821967037E+03  0.18186889373E+03  0.00000000000E+00 0.  1.
<mgrwt>
<rscale>  0 0.19508636E+03</rscale>
<asrwt>0</asrwt>
<pdfrwt beam="1">  1        1 0.77143946E-01 0.19970341E+03</pdfrwt>
<pdfrwt beam="2">  1       -1 0.11697204E-01 0.19970341E+03</pdfrwt>
<totfact> 0.21268229E+03</totfact>
</mgrwt>
</event>
<event>
 8    1  0.7550631E-006  0.1405998E+03  0.7546771E-02  0.1224274E+00
          2   -1    0    0  501    0  0.00000000000E+00  0.00000000000E+00  0.72313375901E+03  0.72313375901E+03  0.00000000000E+00 0. -1.
         -2   -1    0    0    0  501 -0.00000000000E+00 -0.00000000000E+00 -0.24077003319E+02  0.24077003319E+02  0.00000000000E+00 0.  1.
         23    2    1    2    0    0  0.63451796779E+02 -0.10842049962E+02  0.19358502305E+03  0.22254898008E+03  0.88933721515E+02 0.  0.
         23    2    1    2    0    0 -0.63451796779E+02  0.10842049962E+02  0.50547173264E+03  0.52466178225E+03  0.12499853077E+03 0.  0.
          5    1    4    4  502    0 -0.56792904857E+02  0.17691539943E+02  0.50971876867E+03  0.51319951068E+03  0.47000000000E+01 0.  1.
         -5    1    4    4    0  502 -0.66588919219E+01 -0.68494899814E+01 -0.42470360267E+01  0.11462271574E+02  0.47000000000E+01 0.  1.
        -11    1    3    3    0    0  0.14876117634E+02 -0.36981074677E+02  0.14030467747E+03  0.14585712625E+03  0.00000000000E+00 0. -1.
         11    1    3    3    0    0  0.48575679145E+02  0.26139024715E+02  0.53280345585E+02  0.76691853825E+02  0.00000000000E+00 0.  1.
<mgrwt>
<rscale>  0 0.13216760E+03</rscale>
<asrwt>0</asrwt>
<pdfrwt beam="1">  1        2 0.11125133E+00 0.14059983E+03</pdfrwt>
<pdfrwt beam="2">  1       -2 0.37041549E-02 0.14059983E+03</pdfrwt>
<totfact> 0.11908651E+04</totfact>
</mgrwt>
</event>
<event>
 8    1  0.7550631E-006  0.1375960E+03  0.7546771E-02  0.1221773E+00
         -2   -1    0    0    0  501 -0.00000000000E+00  0.00000000000E+00  0.87721899579E+02  0.87721899579E+02  0.00000000000E+00 0.  1.
          2   -1    0    0  501    0  0.00000000000E+00 -0.00000000000E+00 -0.20247291782E+03  0.20247291782E+03  0.00000000000E+00 0. -1.
         23    2    1    2    0    0 -0.26554521529E+02  0.44127661137E+02 -0.83745770454E+02  0.14914880442E+03  0.11215889934E+03 0.  0.
         23    2    1    2    0    0  0.26554521529E+02 -0.44127661137E+02 -0.31005247782E+02  0.14104601297E+03  0.12759411935E+03 0.  0.
          5    1    4    4  502    0  0.63653746066E+02 -0.24113936824E+02 -0.59019853749E+02  0.90214824026E+02  0.47000000000E+01 0. -1.
         -5    1    4    4    0  502 -0.37099224537E+02 -0.20013724313E+02  0.28014605967E+02  0.50831188945E+02  0.47000000000E+01 0.  1.
        -11    1    3    3    0    0 -0.10543018334E+02  0.55235423556E+02 -0.10574061030E+03  0.11976303235E+03  0.00000000000E+00 0.  1.
         11    1    3    3    0    0 -0.16011503196E+02 -0.11107762419E+02  0.21994839846E+02  0.29385772074E+02  0.00000000000E+00 0. -1.
<mgrwt>
<rscale>  0 0.13390567E+03</rscale>
<asrwt>0</asrwt>
<pdfrwt beam="2">  1        2 0.31149680E-01 0.13759598E+03</pdfrwt>
<pdfrwt beam="1">  1       -2 0.13495677E-01 0.13759598E+03</pdfrwt>
<totfact> 0.65306418E+03</totfact>
</mgrwt>
</event>
<event>
 7    1  0.7550631E-006  0.1768225E+03  0.7546771E-02  0.1199110E+00
          1   -1    0    0  501    0  0.00000000000E+00  0.00000000000E+00  0.94713529405E+03  0.94713529405E+03  0.00000000000E+00 0. -1.
         -1   -1    0    0    0  501 -0.00000000000E+00 -0.00000000000E+00 -0.26470721334E+02  0.26470721334E+02  0.00000000000E+00 0.  1.
         23    2    1    2    0    0  0.26575028335E+01 -0.18849147634E+02  0.11484165394E+03  0.14861101001E+03  0.92381135137E+02 0.  0.
          5    1    1    2  502    0  0.77759445169E+02  0.10476298759E+02  0.22040478638E+03  0.23400137608E+03  0.47000000000E+01 0. -1.
         -5    1    1    2    0  502 -0.80416948003E+02  0.83728488751E+01  0.58541813240E+03  0.59099362929E+03  0.47000000000E+01 0.  1.
        -11    1    3    3    0    0  0.20973076889E+02 -0.32660641727E+01  0.12175337189E+03  0.12358972731E+03  0.00000000000E+00 0. -1.
         11    1    3    3    0    0 -0.18315574055E+02 -0.15583083462E+02 -0.69117179499E+01  0.25021282704E+02  0.00000000000E+00 0.  1.
<mgrwt>
<rscale>  0 0.15111454E+03</rscale>
<asrwt>0</asrwt>
<pdfrwt beam="1">  1        1 0.14571310E+00 0.17682246E+03</pdfrwt>
<pdfrwt beam="2">  1       -1 0.40724194E-02 0.17682246E+03</pdfrwt>
<totfact> 0.41459656E+03</totfact>
</mgrwt>
</event>
<event>
 8    1  0.7550631E-006  0.1366660E+03  0.7546771E-02  0.1228957E+00
          1   -1    0    0  501    0  0.00000000000E+00  0.00000000000E+00  0.18001816050E+03  0.18001816050E+03  0.00000000000E+00 0. -1.
         -1   -1    0    0    0  501 -0.00000000000E+00 -0.00000000000E+00 -0.10710409156E+03  0.10710409156E+03  0.00000000000E+00 0.  1.
         23    2    1    2    0    0 -0.55332211137E+02 -0.15488403800E+01 -0.33929157209E+02  0.11364867853E+03  0.93277982004E+02 0.  0.
         23    2    1    2    0    0  0.55332211137E+02  0.15488403800E+01  0.10684322614E+03  0.17347357353E+03  0.12495420459E+03 0.  0.
          5    1    4    4  502    0  0.45119718270E+02 -0.54610285736E+02  0.88241574106E+02  0.11325518834E+03  0.47000000000E+01 0.  1.
         -5    1    4    4    0  502  0.10212492867E+02  0.56159126116E+02  0.18601652037E+02  0.60218385192E+02  0.47000000000E+01 0.  1.
        -11    1    3    3    0    0 -0.74689936109E+02 -0.47909993191E+01 -0.45519503622E+00  0.74844822352E+02  0.00000000000E+00 0. -1.
         11    1    3    3    0    0  0.19357724972E+02  0.32421589391E+01 -0.33473962172E+02  0.38803856177E+02  0.00000000000E+00 0.  1.
<mgrwt>
<rscale>  0 0.12899375E+03</rscale>
<asrwt>0</asrwt>
<pdfrwt beam="1">  1        1 0.27695102E-01 0.13666604E+03</pdfrwt>
<pdfrwt beam="2">  1       -1 0.16477553E-01 0.13666604E+03</pdfrwt>
<totfact> 0.44454011E+03</totfact>
</mgrwt>
</event>
<event>
 8    1  0.7550631E-006  0.1290038E+03  0.7546771E-02  0.1243388E+00
         -2   -1    0    0    0  501 -0.00000000000E+00  0.00000000000E+00  0.12521315195E+02  0.12521315195E+02  0.00000000000E+00 0.  1.
          2   -1    0    0  501    0  0.00000000000E+00 -0.00000000000E+00 -0.10844316381E+04  0.10844316381E+04  0.00000000000E+00 0. -1.
         23    2    1    2    0    0  0.19375597085E+02 -0.25329313007E+02 -0.32142671728E+03  0.33546255033E+03  0.90570415863E+02 0.  0.
         23    2    1    2    0    0 -0.19375597085E+02  0.25329313007E+02 -0.75048360558E+03  0.76149040293E+03  0.12500001457E+03 0.  0.
          5    1    4    4  502    0  0.50676655425E+02 -0.12720653482E+01 -0.38694582808E+03  0.39028054708E+03  0.47000000000E+01 0.  1.
         -5    1    4    4    0  502 -0.70052252510E+02  0.26601378355E+02 -0.36353777750E+03  0.37120985585E+03  0.47000000000E+01 0.  1.
        -11    1    3    3    0    0  0.44479878748E+02 -0.44981699295E+02 -0.23415422394E+03  0.24254899191E+03  0.00000000000E+00 0. -1.
         11    1    3    3    0    0 -0.25104281663E+02  0.19652386288E+02 -0.87272493336E+02  0.92913558417E+02  0.00000000000E+00 0.  1.
<mgrwt>
<rscale>  0 0.11982385E+03</rscale>
<asrwt>0</asrwt>
<pdfrwt beam="2">  1        2 0.16683563E+00 0.12900384E+03</pdfrwt>
<pdfrwt beam="1">  1       -2 0.19263562E-02 0.12900384E+03</pdfrwt>
<totfact> 0.18183933E+04</totfact>
</mgrwt>
</event>
<event>
 8    1  0.7550631E-006  0.1356118E+03  0.7546771E-02  0.1237621E+00
         -2   -1    0    0    0  501 -0.00000000000E+00  0.00000000000E+00  0.18875000806E+02  0.18875000806E+02  0.00000000000E+00 0.  1.
          2   -1    0    0  501    0  0.00000000000E+00 -0.00000000000E+00 -0.70182448301E+03  0.70182448301E+03  0.00000000000E+00 0. -1.
         23    2    1    2    0    0  0.16420600619E+02  0.49963324135E+02 -0.23614617342E+03  0.25376933654E+03  0.76602160951E+02 0.  0.
         23    2    1    2    0    0 -0.16420600619E+02 -0.49963324135E+02 -0.44680330878E+03  0.46693014728E+03  0.12499838324E+03 0.  0.
          5    1    4    4  502    0  0.15349773520E+02 -0.22825314873E+01  0.22921483407E+00  0.16216289234E+02  0.47000000000E+01 0. -1.
         -5    1    4    4    0  502 -0.31770374138E+02 -0.47680792648E+02 -0.44703252362E+03  0.45071385804E+03  0.47000000000E+01 0. -1.
        -11    1    3    3    0    0  0.28541049382E+02  0.62453635508E+01 -0.27075611286E+02  0.39833212175E+02  0.00000000000E+00 0.  1.
         11    1    3    3    0    0 -0.12120448763E+02  0.43717960584E+02 -0.20907056214E+03  0.21393612437E+03  0.00000000000E+00 0. -1.
<mgrwt>
<rscale>  0 0.12338114E+03</rscale>
<asrwt>0</asrwt>
<pdfrwt beam="2">  1        2 0.10797299E+00 0.13561182E+03</pdfrwt>
<pdfrwt beam="1">  1       -2 0.29038464E-02 0.13561182E+03</pdfrwt>
<totfact> 0.17628436E+04</totfact>
</mgrwt>
</event>
<event>
 7    1  0.7550631E-006  0.1292906E+03  0.7546771E-02  0.1266627E+00
         -1   -1    0    0    0  501 -0.00000000000E+00  0.00000000000E+00  0.80275411842E+02  0.80275411842E+02  0.00000000000E+00 0.  1.
          1   -1    0    0  501    0  0.00000000000E+00 -0.00000000000E+00 -0.11215805968E+03  0.11215805968E+03  0.00000000000E+00 0. -1.
         23    2    1    2    0    0  0.21641693482E+02  0.25143083944E+02 -0.26787394305E+02  0.13203646135E+03  0.12496209451E+03 0.  0.
          5    1    3    3  502    0  0.28910342914E+02  0.13349996181E+02 -0.75020090030E+02  0.81634148697E+02  0.47000000000E+01 0. -1.
         -5    1    3    3    0  502 -0.72686494311E+01  0.11793087763E+02  0.48232695725E+02  0.50402312650E+02  0.47000000000E+01 0. -1.
        -11    1    1    2    0    0 -0.18696617110E+01 -0.33471019770E+02  0.90202976494E+01  0.34715566668E+02  0.00000000000E+00 0.  1.
         11    1    1    2    0    0 -0.19772031772E+02  0.83279358261E+01 -0.14115551187E+02  0.25681443511E+02  0.00000000000E+00 0. -1.
<mgrwt>
<rscale>  0 0.10679265E+03</rscale>
<asrwt>0</asrwt>
<pdfrwt beam="2">  1        1 0.17255086E-01 0.12929061E+03</pdfrwt>
<pdfrwt beam="1">  1       -1 0.12350063E-01 0.12929061E+03</pdfrwt>
<totfact> 0.12628378E+04</totfact>
</mgrwt>
</event>
<event>
 8    1  0.7550631E-006  0.1322007E+03  0.7546771E-02  0.1236898E+00
         -3   -1    0    0    0  501 -0.00000000000E+00  0.00000000000E+00  0.45883337639E+02  0.45883337639E+02  0.00000000000E+00 0.  1.
          3   -1    0    0  501    0  0.00000000000E+00 -0.00000000000E+00 -0.29870022961E+03  0.29870022961E+03  0.00000000000E+00 0. -1.
         23    2    1    2    0    0  0.41205282763E+02 -0.12403061205E+02 -0.11609850270E+03  0.15440223881E+03  0.92246830652E+02 0.  0.
         23    2    1    2    0    0 -0.41205282763E+02  0.12403061205E+02 -0.13671838927E+03  0.19018132844E+03  0.12500123386E+03 0.  0.
          5    1    4    4  502    0  0.12498760229E+01 -0.52235004138E+02 -0.72848952861E+02  0.89772589248E+02  0.47000000000E+01 0. -1.
         -5    1    4    4    0  502 -0.42455158786E+02  0.64638065343E+02 -0.63869436408E+02  0.10040873919E+03  0.47000000000E+01 0. -1.
        -11    1    3    3    0    0  0.45716321413E+02  0.28904420051E+02 -0.90991193332E+02  0.10585293952E+03  0.00000000000E+00 0. -1.
         11    1    3    3    0    0 -0.45110386502E+01 -0.41307481256E+02 -0.25107309372E+02  0.48549299288E+02  0.00000000000E+00 0.  1.
<mgrwt>
<rscale>  0 0.12383730E+03</rscale>
<asrwt>0</asrwt>
<pdfrwt beam="2">  1        3 0.45953880E-01 0.13220068E+03</pdfrwt>
<pdfrwt beam="1">  1       -3 0.70589752E-02 0.13220068E+03</pdfrwt>
<totfact> 0.14177077E+03</totfact>
</mgrwt>
</event>
<event>
 8    1  0.7550631E-006  0.1303275E+03  0.7546771E-02  0.1240644E+00
          1   -1    0    0  501    0  0.00000000000E+00  0.00000000000E+00  0.40598050877E+03  0.40598050877E+03  0.00000000000E+00 0. -1.
         -1   -1    0    0    0  501 -0.00000000000E+00 -0.00000000000E+00 -0.32867815784E+02  0.32867815784E+02  0.00000000000E+00 0.  1.
         23    2    1    2    0    0 -0.95519679043E+01 -0.35651772256E+02  0.13074533688E+03  0.16366257080E+03  0.91262286881E+02 0.  0.
         23    2    1    2    0    0  0.95519679043E+01  0.35651772256E+02  0.24236735610E+03  0.27518575376E+03  0.12499189898E+03 0.  0.
          5    1    4    4  502    0  0.25831327913E+02  0.75433679828E+02  0.11003420683E+03  0.13596732779E+03  0.47000000000E+01 0. -1.
         -5    1    4    4    0  502 -0.16279360009E+02 -0.39781907571E+02  0.13233314927E+03  0.13921842597E+03  0.47000000000E+01 0. -1.
        -11    1    3    3    0    0  0.21433676504E+02  0.15420291577E+02  0.83276145406E+02  0.87361915470E+02  0.00000000000E+00 0.  1.
         11    1    3    3    0    0 -0.30985644409E+02 -0.51072063834E+02  0.47469191478E+02  0.76300655326E+02  0.00000000000E+00 0. -1.
<mgrwt>
<rscale>  0 0.12149928E+03</rscale>
<asrwt>0</asrwt>
<pdfrwt beam="1">  1        1 0.62458536E-01 0.13032752E+03</pdfrwt>
<pdfrwt beam="2">  1       -1 0.50565873E-02 0.13032752E+03</pdfrwt>
<totfact> 0.97390249E+03</totfact>
</mgrwt>
</event>
<event>
 8    1  0.7550631E-006  0.1210395E+03  0.7546771E-02  0.1254446E+00
          1   -1    0    0  501    0  0.00000000000E+00  0.00000000000E+00  0.47969243719E+03  0.47969243719E+03  0.00000000000E+00 0. -1.
         -1   -1    0    0    0  501 -0.00000000000E+00 -0.00000000000E+00 -0.26999650831E+02  0.26999650831E+02  0.00000000000E+00 0.  1.
         23    2    1    2    0    0 -0.35343786929E+01 -0.20158413012E+02  0.11525997413E+03  0.14820713908E+03  0.90893569577E+02 0.  0.
         23    2    1    2    0    0  0.35343786929E+01  0.20158413012E+02  0.33743281224E+03  0.35848494895E+03  0.11929669903E+03 0.  0.
          5    1    4    4  502    0 -0.16474833021E+02  0.48441813996E+02  0.30949395554E+03  0.31373018341E+03  0.47000000000E+01 0. -1.
         -5    1    4    4    0  502  0.20009211714E+02 -0.28283400985E+02  0.27938856693E+02  0.44754765534E+02  0.47000000000E+01 0.  1.
        -11    1    3    3    0    0  0.28320345338E+02  0.23242016594E+02  0.64694423689E+02  0.74347842954E+02  0.00000000000E+00 0.  1.
         11    1    3    3    0    0 -0.31854724031E+02 -0.43400429606E+02  0.50565550437E+02  0.73859296125E+02  0.00000000000E+00 0. -1.
<mgrwt>
<rscale>  0 0.11337397E+03</rscale>
<asrwt>0</asrwt>
<pdfrwt beam="1">  1        1 0.73798830E-01 0.12103948E+03</pdfrwt>
<pdfrwt beam="2">  1       -1 0.41537928E-02 0.12103948E+03</pdfrwt>
<totfact> 0.10460515E+04</totfact>
</mgrwt>
</event>
<event>
 8    1  0.7550631E-006  0.1282041E+03  0.7546771E-02  0.1245174E+00
          4   -1    0    0  501    0  0.00000000000E+00  0.00000000000E+00  0.17777672853E+03  0.17777672853E+03  0.00000000000E+00 0. -1.
         -4   -1    0    0    0  501 -0.00000000000E+00 -0.00000000000E+00 -0.98054213579E+02  0.98054213579E+02  0.00000000000E+00 0.  1.
         23    2    1    2    0    0 -0.24932619814E+02  0.13750297540E+02 -0.38042941500E+02  0.10174767434E+03  0.89970092932E+02 0.  0.
         23    2    1    2    0    0  0.24932619814E+02 -0.13750297540E+02  0.11776545645E+03  0.17408326777E+03  0.12500230066E+03 0.  0.
          5    1    4    4  502    0  0.22606698523E+02  0.48979170640E+02  0.19836957853E+02  0.57668161680E+02  0.47000000000E+01 0. -1.
         -5    1    4    4    0  502  0.23259212908E+01 -0.62729468180E+02  0.97928498594E+02  0.11641510609E+03  0.47000000000E+01 0. -1.
        -11    1    3    3    0    0  0.32392731381E+02  0.11485256340E+02 -0.26080090187E+02  0.43143612084E+02  0.00000000000E+00 0.  1.
         11    1    3    3    0    0 -0.57325351195E+02  0.22650412004E+01 -0.11962851313E+02  0.58604062255E+02  0.00000000000E+00 0. -1.
<mgrwt>
<rscale>  0 0.11874971E+03</rscale>
<asrwt>0</asrwt>
<pdfrwt beam="1">  1        4 0.27350266E-01 0.12820406E+03</pdfrwt>
<pdfrwt beam="2">  1       -4 0.15085264E-01 0.12820406E+03</pdfrwt>
<totfact> 0.77242798E+02</totfact>
</mgrwt>
</event>
<event>
 8    1  0.7550631E-006  0.1622695E+03  0.7546771E-02  0.1192941E+00
         -2   -1    0    0    0  501 -0.00000000000E+00  0.00000000000E+00  0.21955585256E+03  0.21955585256E+03  0.00000000000E+00 0.  1.
          2   -1    0    0  501    0  0.00000000000E+00 -0.00000000000E+00 -0.10393261723E+03  0.10393261723E+03  0.00000000000E+00 0. -1.
         23    2    1    2    0    0 -0.18651474916E+02 -0.10177031309E+03  0.59040115994E+02  0.15163664403E+03  0.93823570466E+02 0.  0.
         23    2    1    2    0    0  0.18651474916E+02  0.10177031309E+03  0.56583119336E+02  0.17185182575E+03  0.12500530580E+03 0.  0.
          5    1    4    4  502    0 -0.41643697422E+02  0.80528180060E+02  0.58016387355E+02  0.10773567896E+03  0.47000000000E+01 0.  1.
         -5    1    4    4    0  502  0.60295172338E+02  0.21242133027E+02 -0.14332680193E+01  0.64116146796E+02  0.47000000000E+01 0.  1.
        -11    1    3    3    0    0  0.17827821156E+01 -0.10432337508E+03  0.72482646056E+02  0.12704439728E+03  0.00000000000E+00 0.  1.
         11    1    3    3    0    0 -0.20434257031E+02  0.25530619963E+01 -0.13442530062E+02  0.24592246755E+02  0.00000000000E+00 0. -1.
<mgrwt>
<rscale>  0 0.15629826E+03</rscale>
<asrwt>0</asrwt>
<pdfrwt beam="2">  1        2 0.15989633E-01 0.16226953E+03</pdfrwt>
<pdfrwt beam="1">  1       -2 0.33777823E-01 0.16226953E+03</pdfrwt>
<totfact> 0.28828424E+03</totfact>
</mgrwt>
</event>
<event>
 8    1  0.7550631E-006  0.1270268E+03  0.7546771E-02  0.1245885E+00
         -1   -1    0    0    0  501 -0.00000000000E+00  0.00000000000E+00  0.45806057040E+02  0.45806057040E+02  0.00000000000E+00 0.  1.
          1   -1    0    0  501    0  0.00000000000E+00 -0.00000000000E+00 -0.28219290705E+03  0.28219290705E+03  0.00000000000E+00 0. -1.
         23    2    1    2    0    0 -0.15892034967E+02  0.16042648512E+02 -0.69289102582E+02  0.11810028533E+03  0.92934247244E+02 0.  0.
         23    2    1    2    0    0  0.15892034967E+02 -0.16042648512E+02 -0.16709774743E+03  0.20989867877E+03  0.12500349917E+03 0.  0.
          5    1    4    4  502    0  0.65057458703E+02 -0.64036955427E+01 -0.49964771787E+02  0.82413886386E+02  0.47000000000E+01 0.  1.
         -5    1    4    4    0  502 -0.49165423736E+02 -0.96389529691E+01 -0.11713297565E+03  0.12748479238E+03  0.47000000000E+01 0.  1.
        -11    1    3    3    0    0  0.65928911166E+01  0.22198384159E+02  0.16993995729E+02  0.28723341787E+02  0.00000000000E+00 0.  1.
         11    1    3    3    0    0 -0.22484926083E+02 -0.61557356472E+01 -0.86283098311E+02  0.89376943540E+02  0.00000000000E+00 0. -1.
<mgrwt>
<rscale>  0 0.11832580E+03</rscale>
<asrwt>0</asrwt>
<pdfrwt beam="2">  1        1 0.43414292E-01 0.12702676E+03</pdfrwt>
<pdfrwt beam="1">  1       -1 0.70470860E-02 0.12702676E+03</pdfrwt>
<totfact> 0.93272227E+03</totfact>
</mgrwt>
</event>
<event>
 8    1  0.7550631E-006  0.1580526E+03  0.7546771E-02  0.1201305E+00
          1   -1    0    0  501    0  0.00000000000E+00  0.00000000000E+00  0.74801978579E+02  0.74801978579E+02  0.00000000000E+00 0. -1.
         -1   -1    0    0    0  501 -0.00000000000E+00 -0.00000000000E+00 -0.31012344177E+03  0.31012344177E+03  0.00000000000E+00 0.  1.
         23    2    1    2    0    0  0.96582736625E+02 -0.42439009523E+01 -0.17533567366E+03  0.21587241575E+03  0.80697371187E+02 0.  0.
         23    2    1    2    0    0 -0.96582736625E+02  0.42439009523E+01 -0.59985789532E+02  0.16905300460E+03  0.12503754519E+03 0.  0.
          5    1    4    4  502    0 -0.50419946530E+02  0.60980051076E+02 -0.53162691434E+02  0.95441602029E+02  0.47000000000E+01 0. -1.
         -5    1    4    4    0  502 -0.46162790094E+02 -0.56736150124E+02 -0.68230980980E+01  0.73611402566E+02  0.47000000000E+01 0. -1.
        -11    1    3    3    0    0  0.38275286149E+02  0.21652014730E+02 -0.13099124463E+03  0.13817566153E+03  0.00000000000E+00 0.  1.
         11    1    3    3    0    0  0.58307450475E+02 -0.25895915682E+02 -0.44344429033E+02  0.77696754219E+02  0.00000000000E+00 0. -1.
<mgrwt>
<rscale>  0 0.14932527E+03</rscale>
<asrwt>0</asrwt>
<pdfrwt beam="1">  1        1 0.11507997E-01 0.15805260E+03</pdfrwt>
<pdfrwt beam="2">  1       -1 0.47711299E-01 0.15805260E+03</pdfrwt>
<totfact> 0.23223513E+03</totfact>
</mgrwt>
</event>
<event>
 7    1  0.7550631E-006  0.4466992E+03  0.7546771E-02  0.1028711E+00
         -3   -1    0    0    0  501 -0.00000000000E+00  0.00000000000E+00  0.43415033953E+03  0.43415033953E+03  0.00000000000E+00 0.  1.
          3   -1    0    0  501    0  0.00000000000E+00 -0.00000000000E+00 -0.11490269015E+03  0.11490269015E+03  0.00000000000E+00 0. -1.
         23    2    1    2    0    0  0.48233060539E+02  0.66065717372E+02  0.10587693438E+03  0.16167483749E+03  0.90761890154E+02 0.  0.
          5    1    1    2  502    0 -0.61249875945E+02 -0.15772496113E+03  0.16862669864E+02  0.17010335182E+03  0.47000000000E+01 0. -1.
         -5    1    1    2    0  502  0.13016815406E+02  0.91659243756E+02  0.19650804514E+03  0.21727484036E+03  0.47000000000E+01 0.  1.
        -11    1    3    3    0    0  0.23879279822E+02  0.81901629044E+01 -0.12125905282E+02  0.28006005644E+02  0.00000000000E+00 0. -1.
         11    1    3    3    0    0  0.24353780716E+02  0.57875554468E+02  0.11800283966E+03  0.13366883185E+03  0.00000000000E+00 0.  1.
<mgrwt>
<rscale>  0 0.44669919E+03</rscale>
<asrwt>0</asrwt>
<pdfrwt beam="2">  1        3 0.17677337E-01 0.44669919E+03</pdfrwt>
<pdfrwt beam="1">  1       -3 0.66792359E-01 0.44669919E+03</pdfrwt>
<totfact> 0.16000903E+02</totfact>
</mgrwt>
</event>
<event>
 8    1  0.7550631E-006  0.1633056E+03  0.7546771E-02  0.1192444E+00
          2   -1    0    0  501    0  0.00000000000E+00  0.00000000000E+00  0.42075459219E+03  0.42075459219E+03  0.00000000000E+00 0.  1.
         -2   -1    0    0    0  501 -0.00000000000E+00 -0.00000000000E+00 -0.84477685025E+02  0.84477685025E+02  0.00000000000E+00 0. -1.
         23    2    1    2    0    0 -0.15011072582E+02 -0.10401093013E+03  0.82220437388E+01  0.13877805371E+03  0.90267049917E+02 0.  0.
         23    2    1    2    0    0  0.15011072582E+02  0.10401093013E+03  0.32805486343E+03  0.36645422351E+03  0.12500039448E+03 0.  0.
          5    1    4    4  502    0 -0.17995728442E+02  0.11848165013E+03  0.29005225330E+03  0.31386963425E+03  0.47000000000E+01 0.  1.
         -5    1    4    4    0  502  0.33006801024E+02 -0.14470719993E+02  0.38002610130E+02  0.52584589260E+02  0.47000000000E+01 0.  1.
        -11    1    3    3    0    0 -0.15986535220E+02 -0.44584273062E+02  0.47863124366E+02  0.67336508574E+02  0.00000000000E+00 0.  1.
         11    1    3    3    0    0  0.97546263784E+00 -0.59426657073E+02 -0.39641080627E+02  0.71441545136E+02  0.00000000000E+00 0. -1.
<mgrwt>
<rscale>  0 0.15672563E+03</rscale>
<asrwt>0</asrwt>
<pdfrwt beam="1">  1        2 0.64731475E-01 0.16330556E+03</pdfrwt>
<pdfrwt beam="2">  1       -2 0.12996567E-01 0.16330556E+03</pdfrwt>
<totfact> 0.32045892E+03</totfact>
</mgrwt>
</event>
<event>
 8    1  0.7550631E-006  0.1359253E+03  0.7546771E-02  0.1231926E+00
          2   -1    0    0  501    0  0.00000000000E+00  0.00000000000E+00  0.36610713436E+03  0.36610713436E+03  0.00000000000E+00 0.  1.
         -2   -1    0    0    0  501 -0.00000000000E+00 -0.00000000000E+00 -0.43864134176E+02  0.43864134176E+02  0.00000000000E+00 0. -1.
         23    2    1    2    0    0 -0.40865007709E+02  0.34315168998E+02  0.75511341750E+02  0.12827603743E+03  0.88911750445E+02 0.  0.
         23    2    1    2    0    0  0.40865007709E+02 -0.34315168998E+02  0.24673165843E+03  0.28169523111E+03  0.12501284845E+03 0.  0.
          5    1    4    4  502    0 -0.63843833577E+00 -0.76405346082E+02  0.13436926162E+03  0.15464596012E+03  0.47000000000E+01 0.  1.
         -5    1    4    4    0  502  0.41503446045E+02  0.42090177084E+02  0.11236239681E+03  0.12704927098E+03  0.47000000000E+01 0.  1.
        -11    1    3    3    0    0 -0.18998177619E+02  0.31008890389E+02 -0.11780374344E+02  0.38226420911E+02  0.00000000000E+00 0. -1.
         11    1    3    3    0    0 -0.21866830090E+02  0.33062786085E+01  0.87291716094E+02  0.90049616518E+02  0.00000000000E+00 0.  1.
<mgrwt>
<rscale>  0 0.12703265E+03</rscale>
<asrwt>0</asrwt>
<pdfrwt beam="1">  1        2 0.56324173E-01 0.13592532E+03</pdfrwt>
<pdfrwt beam="2">  1       -2 0.67483286E-02 0.13592532E+03</pdfrwt>
<totfact> 0.10288176E+04</totfact>
</mgrwt>
</event>
<event>
 8    1  0.7550631E-006  0.1425191E+03  0.7546771E-02  0.1222147E+00
         -1   -1    0    0    0  501 -0.00000000000E+00  0.00000000000E+00  0.22847589588E+02  0.22847589588E+02  0.00000000000E+00 0.  1.
          1   -1    0    0  501    0  0.00000000000E+00 -0.00000000000E+00 -0.72582768140E+03  0.72582768140E+03  0.00000000000E+00 0. -1.
         23    2    1    2    0    0  0.50742482190E+02  0.45951236236E+02 -0.23658889360E+03  0.26099460628E+03  0.86357190351E+02 0.  0.
         23    2    1    2    0    0 -0.50742482190E+02 -0.45951236236E+02 -0.46639119822E+03  0.48768066470E+03  0.12500146136E+03 0.  0.
          5    1    4    4  502    0 -0.52945220576E+02 -0.86297160062E+02 -0.35036554135E+03  0.36473072092E+03  0.47000000000E+01 0.  1.
         -5    1    4    4    0  502  0.22027383856E+01  0.40345923826E+02 -0.11602565686E+03  0.12294994378E+03  0.47000000000E+01 0.  1.
        -11    1    3    3    0    0  0.59414699425E+02  0.19952592183E+02 -0.78029623881E+02  0.10008413783E+03  0.00000000000E+00 0.  1.
         11    1    3    3    0    0 -0.86722172352E+01  0.25998644053E+02 -0.15855926972E+03  0.16091046845E+03  0.00000000000E+00 0. -1.
<mgrwt>
<rscale>  0 0.13364397E+03</rscale>
<asrwt>0</asrwt>
<pdfrwt beam="2">  1        1 0.11166578E+00 0.14251905E+03</pdfrwt>
<pdfrwt beam="1">  1       -1 0.35150143E-02 0.14251905E+03</pdfrwt>
<totfact> 0.76918782E+03</totfact>
</mgrwt>
</event>
<event>
 8    1  0.7550631E-006  0.1270066E+03  0.7546771E-02  0.1245625E+00
          2   -1    0    0  501    0  0.00000000000E+00  0.00000000000E+00  0.68234353426E+03  0.68234353426E+03  0.00000000000E+00 0. -1.
         -2   -1    0    0    0  501 -0.00000000000E+00 -0.00000000000E+00 -0.20382103628E+02  0.20382103628E+02  0.00000000000E+00 0.  1.
         23    2    1    2    0    0  0.52795155173E+01 -0.21943240202E+02  0.17742000597E+03  0.20181538936E+03  0.93499806360E+02 0.  0.
         23    2    1    2    0    0 -0.52795155173E+01  0.21943240202E+02  0.48454142467E+03  0.50091024853E+03  0.12498522229E+03 0.  0.
          5    1    4    4  502    0 -0.59463748181E+02  0.80992297156E+01  0.14887574407E+03  0.16058521738E+03  0.47000000000E+01 0.  1.
         -5    1    4    4    0  502  0.54184232663E+02  0.13844010487E+02  0.33566568060E+03  0.34032503115E+03  0.47000000000E+01 0.  1.
        -11    1    3    3    0    0  0.26245072539E+02 -0.23923578262E+02  0.17723282551E+03  0.18075568004E+03  0.00000000000E+00 0. -1.
         11    1    3    3    0    0 -0.20965557022E+02  0.19803380599E+01  0.18718046147E+00  0.21059709319E+02  0.00000000000E+00 0.  1.
<mgrwt>
<rscale>  0 0.11848050E+03</rscale>
<asrwt>0</asrwt>
<pdfrwt beam="1">  1        2 0.10497591E+00 0.12700663E+03</pdfrwt>
<pdfrwt beam="2">  1       -2 0.31357088E-02 0.12700663E+03</pdfrwt>
<totfact> 0.16196894E+04</totfact>
</mgrwt>
</event>
<event>
 8    1  0.7550631E-006  0.1721768E+03  0.7546771E-02  0.1181871E+00
         -1   -1    0    0    0  501 -0.00000000000E+00  0.00000000000E+00  0.19774220513E+03  0.19774220513E+03  0.00000000000E+00 0.  1.
          1   -1    0    0  501    0  0.00000000000E+00 -0.00000000000E+00 -0.13211687693E+03  0.13211687693E+03  0.00000000000E+00 0. -1.
         23    2    1    2    0    0  0.17515491178E+02 -0.11709965057E+03  0.46912687702E+02  0.15666839826E+03  0.91241800453E+02 0.  0.
         23    2    1    2    0    0 -0.17515491178E+02  0.11709965057E+03  0.18712640500E+02  0.17319068380E+03  0.12500291774E+03 0.  0.
          5    1    4    4  502    0 -0.17454502000E+02  0.71849739451E+02  0.71872457392E+02  0.10322201718E+03  0.47000000000E+01 0. -1.
         -5    1    4    4    0  502 -0.60989178641E-01  0.45249911123E+02 -0.53159816892E+02  0.69968666618E+02  0.47000000000E+01 0. -1.
        -11    1    3    3    0    0  0.34988185587E+02 -0.30008136975E+02 -0.14909565853E+02  0.48445397813E+02  0.00000000000E+00 0. -1.
         11    1    3    3    0    0 -0.17472694409E+02 -0.87091513599E+02  0.61822253555E+02  0.10822300045E+03  0.00000000000E+00 0.  1.
<mgrwt>
<rscale>  0 0.16619829E+03</rscale>
<asrwt>0</asrwt>
<pdfrwt beam="2">  1        1 0.20325673E-01 0.17217680E+03</pdfrwt>
<pdfrwt beam="1">  1       -1 0.30421878E-01 0.17217680E+03</pdfrwt>
<totfact> 0.24446495E+03</totfact>
</mgrwt>
</event>
<event>
 8    1  0.7550631E-006  0.1444662E+03  0.7546771E-02  0.1217345E+00
          2   -1    0    0  501    0  0.00000000000E+00  0.00000000000E+00  0.89696972777E+02  0.89696972777E+02  0.00000000000E+00 0. -1.
         -2   -1    0    0    0  501 -0.00000000000E+00 -0.00000000000E+00 -0.21707018827E+03  0.21707018827E+03  0.00000000000E+00 0.  1.
         23    2    1    2    0    0  0.20351107712E+02  0.69507604464E+02 -0.11113207076E+03  0.16139085176E+03  0.91930382453E+02 0.  0.
         23    2    1    2    0    0 -0.20351107712E+02 -0.69507604464E+02 -0.16241144737E+02  0.14537630929E+03  0.12500008742E+03 0.  0.
          5    1    4    4  502    0  0.36855213355E+02 -0.47868951517E+02 -0.47063692120E+02  0.76725643606E+02  0.47000000000E+01 0. -1.
         -5    1    4    4    0  502 -0.57206321066E+02 -0.21638652947E+02  0.30822547383E+02  0.68650665681E+02  0.47000000000E+01 0. -1.
        -11    1    3    3    0    0  0.36413327939E+02 -0.19610781349E+01 -0.12533498404E+02  0.38559886686E+02  0.00000000000E+00 0. -1.
         11    1    3    3    0    0 -0.16062220227E+02  0.71468682599E+02 -0.98598572352E+02  0.12283096507E+03  0.00000000000E+00 0.  1.
<mgrwt>
<rscale>  0 0.13705714E+03</rscale>
<asrwt>0</asrwt>
<pdfrwt beam="1">  1        2 0.13799534E-01 0.14446625E+03</pdfrwt>
<pdfrwt beam="2">  1       -2 0.33395413E-01 0.14446625E+03</pdfrwt>
<totfact> 0.34784542E+03</totfact>
</mgrwt>
</event>
<event>
 8    1  0.7550631E-006  0.1331629E+03  0.7546771E-02  0.1235664E+00
         -2   -1    0    0    0  501 -0.00000000000E+00  0.00000000000E+00  0.19987807797E+02  0.19987807797E+02  0.00000000000E+00 0.  1.
          2   -1    0    0  501    0  0.00000000000E+00 -0.00000000000E+00 -0.71090820529E+03  0.71090820529E+03  0.00000000000E+00 0. -1.
         23    2    1    2    0    0 -0.37683146445E+02 -0.26305063324E+02 -0.24283448481E+03  0.26344189097E+03  0.91219882805E+02 0.  0.
         23    2    1    2    0    0  0.37683146445E+02  0.26305063324E+02 -0.44808591268E+03  0.46745412212E+03  0.12498157970E+03 0.  0.
          5    1    4    4  502    0  0.69699261054E+01 -0.30949103284E+02 -0.33815321708E+03  0.33967059791E+03  0.47000000000E+01 0. -1.
         -5    1    4    4    0  502  0.30713220340E+02  0.57254166608E+02 -0.10993269560E+03  0.12778352421E+03  0.47000000000E+01 0. -1.
        -11    1    3    3    0    0 -0.37173548363E+02  0.26412973019E+02 -0.77672031603E+02  0.90069208584E+02  0.00000000000E+00 0.  1.
         11    1    3    3    0    0 -0.50959808274E+00 -0.52718036343E+02 -0.16516245321E+03  0.17337268238E+03  0.00000000000E+00 0. -1.
<mgrwt>
<rscale>  0 0.12462034E+03</rscale>
<asrwt>0</asrwt>
<pdfrwt beam="2">  1        2 0.10937048E+00 0.13316295E+03</pdfrwt>
<pdfrwt beam="1">  1       -2 0.30750477E-02 0.13316295E+03</pdfrwt>
<totfact> 0.15937458E+04</totfact>
</mgrwt>
</event>
<event>
 8    1  0.7550631E-006  0.1380744E+03  0.7546771E-02  0.1227223E+00
         -1   -1    0    0    0  501 -0.00000000000E+00  0.00000000000E+00  0.12317321845E+02  0.12317321845E+02  0.00000000000E+00 0.  1.
          1   -1    0    0  501    0  0.00000000000E+00 -0.00000000000E+00 -0.16859646843E+04  0.16859646843E+04  0.00000000000E+00 0. -1.
         23    2    1    2    0    0  0.47298186998E+02  0.34685975228E+02 -0.32966732440E+03  0.34722801770E+03  0.91904929854E+02 0.  0.
         23    2    1    2    0    0 -0.47298186998E+02 -0.34685975228E+02 -0.13439800381E+04  0.13510539885E+04  0.12499720645E+03 0.  0.
          5    1    4    4  502    0  0.36505477409E+02 -0.35140053051E+02 -0.37346167045E+03  0.37691269878E+03  0.47000000000E+01 0.  1.
         -5    1    4    4    0  502 -0.83803664407E+02  0.45407782335E+00 -0.97051836763E+03  0.97414128968E+03  0.47000000000E+01 0.  1.
        -11    1    3    3    0    0 -0.48500373709E+01  0.35581532102E+02 -0.43788173767E+02  0.56630137304E+02  0.00000000000E+00 0. -1.
         11    1    3    3    0    0  0.52148224368E+02 -0.89555687403E+00 -0.28587915063E+03  0.29059788040E+03  0.00000000000E+00 0.  1.
<mgrwt>
<rscale>  0 0.13015706E+03</rscale>
<asrwt>0</asrwt>
<pdfrwt beam="2">  1        1 0.25937922E+00 0.13807439E+03</pdfrwt>
<pdfrwt beam="1">  1       -1 0.18949723E-02 0.13807439E+03</pdfrwt>
<totfact> 0.39639909E+03</totfact>
</mgrwt>
</event>
<event>
 8    1  0.7550631E-006  0.1544776E+03  0.7546771E-02  0.1203568E+00
         -3   -1    0    0    0  501 -0.00000000000E+00  0.00000000000E+00  0.28630121874E+03  0.28630121874E+03  0.00000000000E+00 0.  1.
          3   -1    0    0  501    0  0.00000000000E+00 -0.00000000000E+00 -0.70167647282E+02  0.70167647282E+02  0.00000000000E+00 0. -1.
         23    2    1    2    0    0 -0.35198141988E+01  0.90710375324E+02  0.86992559916E+02  0.15512157774E+03  0.90852832192E+02 0.  0.
         23    2    1    2    0    0  0.35198141988E+01 -0.90710375324E+02  0.12914101154E+03  0.20134728828E+03  0.12499027303E+03 0.  0.
          5    1    4    4  502    0 -0.40025920225E+02 -0.99566976427E+02  0.74304620248E+02  0.13060981462E+03  0.47000000000E+01 0.  1.
         -5    1    4    4    0  502  0.43545734424E+02  0.88566011026E+01  0.54836391293E+02  0.70737473658E+02  0.47000000000E+01 0.  1.
        -11    1    3    3    0    0  0.11958955465E+02  0.57243891884E+02 -0.22900586658E+01  0.58524560165E+02  0.00000000000E+00 0. -1.
         11    1    3    3    0    0 -0.15478769664E+02  0.33466483441E+02  0.89282618582E+02  0.96597017579E+02  0.00000000000E+00 0.  1.
<mgrwt>
<rscale>  0 0.14750888E+03</rscale>
<asrwt>0</asrwt>
<pdfrwt beam="2">  1        3 0.10795023E-01 0.15447760E+03</pdfrwt>
<pdfrwt beam="1">  1       -3 0.44046341E-01 0.15447760E+03</pdfrwt>
<totfact> 0.78664845E+02</totfact>
</mgrwt>
</event>
<event>
 8    1  0.7550631E-006  0.1387133E+03  0.7546771E-02  0.1228305E+00
         -4   -1    0    0    0  501 -0.00000000000E+00  0.00000000000E+00  0.11288742805E+03  0.11288742805E+03  0.00000000000E+00 0.  1.
          4   -1    0    0  501    0  0.00000000000E+00 -0.00000000000E+00 -0.16264026009E+03  0.16264026009E+03  0.00000000000E+00 0. -1.
         23    2    1    2    0    0  0.29688687901E+02 -0.52291956881E+02  0.37528334583E+02  0.11163935463E+03  0.86250232821E+02 0.  0.
         23    2    1    2    0    0 -0.29688687901E+02  0.52291956881E+02 -0.87281166624E+02  0.16388833350E+03  0.12500206745E+03 0.  0.
          5    1    4    4  502    0 -0.25601037422E+02  0.86016949821E+01  0.28763911848E+02  0.39734807140E+02  0.47000000000E+01 0.  1.
         -5    1    4    4    0  502 -0.40876504786E+01  0.43690261899E+02 -0.11604507847E+03  0.12415352636E+03  0.47000000000E+01 0.  1.
        -11    1    3    3    0    0 -0.83395058562E+01  0.19857084874E+02 -0.74017165987E+00  0.21549919529E+02  0.00000000000E+00 0. -1.
         11    1    3    3    0    0  0.38028193757E+02 -0.72149041755E+02  0.38268506243E+02  0.90089435100E+02  0.00000000000E+00 0.  1.
<mgrwt>
<rscale>  0 0.12942951E+03</rscale>
<asrwt>0</asrwt>
<pdfrwt beam="2">  1        4 0.25021578E-01 0.13871332E+03</pdfrwt>
<pdfrwt beam="1">  1       -4 0.17367297E-01 0.13871332E+03</pdfrwt>
<totfact> 0.72274928E+02</totfact>
</mgrwt>
</event>
<event>
 8    1  0.7550631E-006  0.3280232E+03  0.7546771E-02  0.1073373E+00
          2   -1    0    0  501    0  0.00000000000E+00  0.00000000000E+00  0.63953757479E+03  0.63953757479E+03  0.00000000000E+00 0.  1.
         -2   -1    0    0    0  501 -0.00000000000E+00 -0.00000000000E+00 -0.17036443358E+03  0.17036443358E+03  0.00000000000E+00 0. -1.
         23    2    1    2    0    0 -0.29960820072E+03  0.47009452586E+02  0.14167981946E+03  0.34638164687E+03  0.89062402172E+02 0.  0.
         23    2    1    2    0    0  0.29960820072E+03 -0.47009452586E+02  0.32749332175E+03  0.46352036149E+03  0.12499714860E+03 0.  0.
          5    1    4    4  502    0  0.15688631847E+02  0.46120680239E+01  0.84621151385E+02  0.86314735720E+02  0.47000000000E+01 0.  1.
         -5    1    4    4    0  502  0.28391956887E+03 -0.51621520610E+02  0.24287217037E+03  0.37720562578E+03  0.47000000000E+01 0.  1.
        -11    1    3    3    0    0 -0.17274192772E+03  0.66201365648E+02  0.10597256414E+03  0.21319610399E+03  0.00000000000E+00 0.  1.
         11    1    3    3    0    0 -0.12686627299E+03 -0.19191913063E+02  0.35707255316E+02  0.13318554288E+03  0.00000000000E+00 0. -1.
<mgrwt>
<rscale>  0 0.32499599E+03</rscale>
<asrwt>0</asrwt>
<pdfrwt beam="1">  1        2 0.98390395E-01 0.32802325E+03</pdfrwt>
<pdfrwt beam="2">  1       -2 0.26209913E-01 0.32802325E+03</pdfrwt>
<totfact> 0.61274117E+02</totfact>
</mgrwt>
</event>
<event>
 8    1  0.7550631E-006  0.1474090E+03  0.7546771E-02  0.1212947E+00
         -2   -1    0    0    0  501 -0.00000000000E+00  0.00000000000E+00  0.29280413262E+02  0.29280413262E+02  0.00000000000E+00 0.  1.
          2   -1    0    0  501    0  0.00000000000E+00 -0.00000000000E+00 -0.61573679119E+03  0.61573679119E+03  0.00000000000E+00 0. -1.
         23    2    1    2    0    0 -0.51204404967E+02  0.59013385165E+02 -0.25121071170E+03  0.27879448035E+03  0.92277136295E+02 0.  0.
         23    2    1    2    0    0  0.51204404967E+02 -0.59013385165E+02 -0.33524566623E+03  0.36622272411E+03  0.12499982484E+03 0.  0.
          5    1    4    4  502    0  0.32362220361E+02  0.19457460684E+02 -0.24790159853E+02  0.45415284965E+02  0.47000000000E+01 0.  1.
         -5    1    4    4    0  502  0.18842184606E+02 -0.78470845849E+02 -0.31045550637E+03  0.32080743914E+03  0.47000000000E+01 0.  1.
        -11    1    3    3    0    0 -0.26732739214E+02  0.20040729632E+01 -0.82656178160E+01  0.28053094165E+02  0.00000000000E+00 0.  1.
         11    1    3    3    0    0 -0.24471665752E+02  0.57009312202E+02 -0.24294509388E+03  0.25074138618E+03  0.00000000000E+00 0. -1.
<mgrwt>
<rscale>  0 0.14028454E+03</rscale>
<asrwt>0</asrwt>
<pdfrwt beam="2">  1        2 0.94728730E-01 0.14740905E+03</pdfrwt>
<pdfrwt beam="1">  1       -2 0.45046793E-02 0.14740905E+03</pdfrwt>
<totfact> 0.10779156E+04</totfact>
</mgrwt>
</event>
<event>
 7    1  0.7550631E-006  0.1594198E+03  0.7546771E-02  0.1208268E+00
          1   -1    0    0  501    0  0.00000000000E+00  0.00000000000E+00  0.43698749191E+03  0.43698749191E+03  0.00000000000E+00 0. -1.
         -1   -1    0    0    0  501 -0.00000000000E+00 -0.00000000000E+00 -0.51240517444E+02  0.51240517444E+02  0.00000000000E+00 0.  1.
         23    2    1    2    0    0  0.47360071959E+02 -0.25269276825E+02  0.50640632089E+02  0.11713375009E+03  0.90963338910E+02 0.  0.
          5    1    1    2  502    0 -0.86029575019E+01 -0.16554480478E+02  0.30654391457E+03  0.30714707106E+03  0.47000000000E+01 0. -1.
         -5    1    1    2    0  502 -0.38757114458E+02  0.41823757303E+02  0.28562427806E+02  0.63947188196E+02  0.47000000000E+01 0.  1.
        -11    1    3    3    0    0  0.30650073074E+02 -0.46441754259E+02  0.65815739302E+02  0.86185701007E+02  0.00000000000E+00 0. -1.
         11    1    3    3    0    0  0.16709998886E+02  0.21172477434E+02 -0.15175107213E+02  0.30948049088E+02  0.00000000000E+00 0.  1.
<mgrwt>
<rscale>  0 0.14382838E+03</rscale>
<asrwt>0</asrwt>
<pdfrwt beam="1">  1        1 0.67228842E-01 0.15941985E+03</pdfrwt>
<pdfrwt beam="2">  1       -1 0.78831568E-02 0.15941985E+03</pdfrwt>
<totfact> 0.46218449E+03</totfact>
</mgrwt>
</event>
<event>
 8    1  0.7550631E-006  0.2061778E+03  0.7546771E-02  0.1148658E+00
         -1   -1    0    0    0  501 -0.00000000000E+00  0.00000000000E+00  0.32553765847E+03  0.32553765847E+03  0.00000000000E+00 0.  1.
          1   -1    0    0  501    0  0.00000000000E+00 -0.00000000000E+00 -0.13543957818E+03  0.13543957818E+03  0.00000000000E+00 0. -1.
         23    2    1    2    0    0 -0.15811025459E+03  0.43424308500E+02  0.17151316807E+03  0.25396348915E+03  0.90532667158E+02 0.  0.
         23    2    1    2    0    0  0.15811025459E+03 -0.43424308500E+02  0.18584912218E+02  0.20701374751E+03  0.12499907808E+03 0.  0.
          5    1    4    4  502    0  0.53164129013E+02  0.37641139960E+02 -0.20897245880E+02  0.68571604302E+02  0.47000000000E+01 0.  1.
         -5    1    4    4    0  502  0.10494612558E+03 -0.81065448460E+02  0.39482158098E+02  0.13844214321E+03  0.47000000000E+01 0.  1.
        -11    1    3    3    0    0 -0.43966241045E+02  0.57313637340E+02  0.62634088306E+02  0.95608118875E+02  0.00000000000E+00 0.  1.
         11    1    3    3    0    0 -0.11414401354E+03 -0.13889328840E+02  0.10887907977E+03  0.15835537027E+03  0.00000000000E+00 0. -1.
<mgrwt>
<rscale>  0 0.20128665E+03</rscale>
<asrwt>0</asrwt>
<pdfrwt beam="2">  1        1 0.20836858E-01 0.20617782E+03</pdfrwt>
<pdfrwt beam="1">  1       -1 0.50082717E-01 0.20617782E+03</pdfrwt>
<totfact> 0.98835108E+02</totfact>
</mgrwt>
</event>
<event>
 8    1  0.7550631E-006  0.1424738E+03  0.7546771E-02  0.1220623E+00
         -2   -1    0    0    0  501 -0.00000000000E+00  0.00000000000E+00  0.35377374830E+02  0.35377374830E+02  0.00000000000E+00 0.  1.
          2   -1    0    0  501    0  0.00000000000E+00 -0.00000000000E+00 -0.59100389038E+03  0.59100389038E+03  0.00000000000E+00 0. -1.
         23    2    1    2    0    0 -0.34112857674E+02  0.59244248392E+02 -0.10922302003E+03  0.15779311210E+03  0.91079251728E+02 0.  0.
         23    2    1    2    0    0  0.34112857674E+02 -0.59244248392E+02 -0.44640349552E+03  0.46858815311E+03  0.12500083358E+03 0.  0.
          5    1    4    4  502    0 -0.10584997692E+02 -0.54375003387E+02 -0.69580070230E+02  0.89062670871E+02  0.47000000000E+01 0.  1.
         -5    1    4    4    0  502  0.44697855366E+02 -0.48692450050E+01 -0.37682342529E+03  0.37952548224E+03  0.47000000000E+01 0.  1.
        -11    1    3    3    0    0 -0.55664014490E+02  0.99165024506E+01 -0.75305292442E+02  0.94168501102E+02  0.00000000000E+00 0.  1.
         11    1    3    3    0    0  0.21551156817E+02  0.49327745942E+02 -0.33917727587E+02  0.63624610997E+02  0.00000000000E+00 0. -1.
<mgrwt>
<rscale>  0 0.13471455E+03</rscale>
<asrwt>0</asrwt>
<pdfrwt beam="2">  1        2 0.90923676E-01 0.14247377E+03</pdfrwt>
<pdfrwt beam="1">  1       -2 0.54426730E-02 0.14247377E+03</pdfrwt>
<totfact> 0.84819614E+03</totfact>
</mgrwt>
</event>
<event>
 8    1  0.7550631E-006  0.1324366E+03  0.7546771E-02  0.1234274E+00
          1   -1    0    0  501    0  0.00000000000E+00  0.00000000000E+00  0.17785292635E+03  0.17785292635E+03  0.00000000000E+00 0. -1.
         -1   -1    0    0    0  501 -0.00000000000E+00 -0.00000000000E+00 -0.81387933971E+02  0.81387933971E+02  0.00000000000E+00 0.  1.
         23    2    1    2    0    0  0.23663634314E+02 -0.36824216046E+02  0.29454769094E+02  0.11081634772E+03  0.97450957019E+02 0.  0.
         23    2    1    2    0    0 -0.23663634314E+02  0.36824216046E+02  0.67010223282E+02  0.14842451259E+03  0.12499390160E+03 0.  0.
          5    1    4    4  502    0  0.31627315875E+02 -0.25848357557E+02  0.46830194698E+02  0.62318390812E+02  0.47000000000E+01 0.  1.
         -5    1    4    4    0  502 -0.55290950189E+02  0.62672573603E+02  0.20180028584E+02  0.86106121783E+02  0.47000000000E+01 0.  1.
        -11    1    3    3    0    0  0.61665890898E+02 -0.25128165154E+02  0.13332599963E+02  0.67910713485E+02  0.00000000000E+00 0. -1.
         11    1    3    3    0    0 -0.38002256584E+02 -0.11696050892E+02  0.16122169132E+02  0.42905634239E+02  0.00000000000E+00 0.  1.
<mgrwt>
<rscale>  0 0.12551036E+03</rscale>
<asrwt>0</asrwt>
<pdfrwt beam="1">  1        1 0.27361989E-01 0.13243665E+03</pdfrwt>
<pdfrwt beam="2">  1       -1 0.12521221E-01 0.13243665E+03</pdfrwt>
<totfact> 0.69163132E+03</totfact>
</mgrwt>
</event>
<event>
 8    1  0.7550631E-006  0.1255743E+03  0.7546771E-02  0.1249271E+00
         -1   -1    0    0    0  501 -0.00000000000E+00  0.00000000000E+00  0.65813415604E+02  0.65813415604E+02  0.00000000000E+00 0.  1.
          1   -1    0    0  501    0  0.00000000000E+00 -0.00000000000E+00 -0.18219003528E+03  0.18219003528E+03  0.00000000000E+00 0. -1.
         23    2    1    2    0    0  0.54345188075E+01  0.10593609347E+02 -0.38136973347E+02  0.10004957157E+03  0.91726383782E+02 0.  0.
         23    2    1    2    0    0 -0.54345188075E+01 -0.10593609347E+02 -0.78239646326E+02  0.14795387931E+03  0.12500859807E+03 0.  0.
          5    1    4    4  502    0 -0.41263562122E+02 -0.40759316078E+02 -0.18425780649E+01  0.58219313806E+02  0.47000000000E+01 0.  1.
         -5    1    4    4    0  502  0.35829043315E+02  0.30165706731E+02 -0.76397068261E+02  0.89734565505E+02  0.47000000000E+01 0.  1.
        -11    1    3    3    0    0 -0.27409257098E+02 -0.29762710875E+02 -0.16297419257E+02  0.43619860244E+02  0.00000000000E+00 0.  1.
         11    1    3    3    0    0  0.32843775906E+02  0.40356320222E+02 -0.21839554090E+02  0.56429711327E+02  0.00000000000E+00 0. -1.
<mgrwt>
<rscale>  0 0.11633388E+03</rscale>
<asrwt>0</asrwt>
<pdfrwt beam="2">  1        1 0.28029236E-01 0.12557431E+03</pdfrwt>
<pdfrwt beam="1">  1       -1 0.10125141E-01 0.12557431E+03</pdfrwt>
<totfact> 0.92612725E+03</totfact>
</mgrwt>
</event>
<event>
 8    1  0.7550631E-006  0.1252187E+03  0.7546771E-02  0.1249560E+00
          3   -1    0    0  501    0  0.00000000000E+00  0.00000000000E+00  0.30889693283E+03  0.30889693283E+03  0.00000000000E+00 0. -1.
         -3   -1    0    0    0  501 -0.00000000000E+00 -0.00000000000E+00 -0.43189488386E+02  0.43189488386E+02  0.00000000000E+00 0.  1.
         23    2    1    2    0    0  0.35830696247E+01  0.63804138914E+01  0.57499734635E+02  0.10912517513E+03  0.92458294897E+02 0.  0.
         23    2    1    2    0    0 -0.35830696247E+01 -0.63804138914E+01  0.20820770981E+03  0.24296124608E+03  0.12500467433E+03 0.  0.
          5    1    4    4  502    0 -0.31567497528E+02  0.51453547063E+02  0.10856382827E+03  0.12430675450E+03  0.47000000000E+01 0. -1.
         -5    1    4    4    0  502  0.27984427903E+02 -0.57833960954E+02  0.99643881537E+02  0.11865449158E+03  0.47000000000E+01 0. -1.
        -11    1    3    3    0    0  0.27703855366E+02 -0.10538825613E+02 -0.13263789272E+02  0.32473043486E+02  0.00000000000E+00 0.  1.
         11    1    3    3    0    0 -0.24120785741E+02  0.16919239504E+02  0.70763523907E+02  0.76652131646E+02  0.00000000000E+00 0. -1.
<mgrwt>
<rscale>  0 0.11616553E+03</rscale>
<asrwt>0</asrwt>
<pdfrwt beam="1">  1        3 0.47522604E-01 0.12521868E+03</pdfrwt>
<pdfrwt beam="2">  1       -3 0.66445369E-02 0.12521868E+03</pdfrwt>
<totfact> 0.14489716E+03</totfact>
</mgrwt>
</event>
<event>
 7    1  0.7550631E-006  0.1254578E+03  0.7546771E-02  0.1302779E+00
         -2   -1    0    0    0  501 -0.00000000000E+00  0.00000000000E+00  0.84221295567E+01  0.84221295567E+01  0.00000000000E+00 0.  1.
          2   -1    0    0  501    0  0.00000000000E+00 -0.00000000000E+00 -0.78311377190E+03  0.78311377190E+03  0.00000000000E+00 0. -1.
         23    2    1    2    0    0  0.84873826378E+01  0.27355071299E+02 -0.67131155696E+03  0.68293401207E+03  0.12214467954E+03 0.  0.
          5    1    3    3  502    0 -0.61026957698E+01 -0.68620990268E+01 -0.61615022179E+03  0.61623657561E+03  0.47000000000E+01 0. -1.
         -5    1    3    3    0  502  0.14590078408E+02  0.34217170326E+02 -0.55161335169E+02  0.66697436463E+02  0.47000000000E+01 0.  1.
        -11    1    1    2    0    0  0.20011220970E+01 -0.17773613315E+02 -0.42967898036E+02  0.46541874496E+02  0.00000000000E+00 0.  1.
         11    1    1    2    0    0 -0.10488504735E+02 -0.95814579840E+01 -0.60412187343E+02  0.62060014891E+02  0.00000000000E+00 0. -1.
<mgrwt>
<rscale>  0 0.90030192E+02</rscale>
<asrwt>0</asrwt>
<pdfrwt beam="2">  1        2 0.12047905E+00 0.12545780E+03</pdfrwt>
<pdfrwt beam="1">  1       -2 0.12957122E-02 0.12545780E+03</pdfrwt>
<totfact> 0.49404033E+04</totfact>
</mgrwt>
</event>
<event>
 8    1  0.7550631E-006  0.1453602E+03  0.7546771E-02  0.1211251E+00
          1   -1    0    0  501    0  0.00000000000E+00  0.00000000000E+00  0.80332675070E+03  0.80332675070E+03  0.00000000000E+00 0.  1.
         -1   -1    0    0    0  501 -0.00000000000E+00 -0.00000000000E+00 -0.35872321624E+02  0.35872321624E+02  0.00000000000E+00 0. -1.
         23    2    1    2    0    0  0.70249538361E+02 -0.23833987988E+02  0.12629974062E+03  0.18177308076E+03  0.10764186817E+03 0.  0.
         23    2    1    2    0    0 -0.70249538361E+02  0.23833987988E+02  0.64115468845E+03  0.65742599157E+03  0.12500617279E+03 0.  0.
          5    1    4    4  502    0 -0.58438003881E+02 -0.43159064711E+02  0.41041384379E+03  0.41682048695E+03  0.47000000000E+01 0. -1.
         -5    1    4    4    0  502 -0.11811534480E+02  0.66993052698E+02  0.23074084466E+03  0.24060550461E+03  0.47000000000E+01 0. -1.
        -11    1    3    3    0    0 -0.62797507136E+00  0.31731391427E+02  0.66444653508E+02  0.73635368773E+02  0.00000000000E+00 0.  1.
         11    1    3    3    0    0  0.70877513432E+02 -0.55565379415E+02  0.59855087115E+02  0.10813771199E+03  0.00000000000E+00 0. -1.
<mgrwt>
<rscale>  0 0.14155540E+03</rscale>
<asrwt>0</asrwt>
<pdfrwt beam="1">  1        1 0.12358872E+00 0.14536024E+03</pdfrwt>
<pdfrwt beam="2">  1       -1 0.55188193E-02 0.14536024E+03</pdfrwt>
<totfact> 0.34050140E+03</totfact>
</mgrwt>
</event>
<event>
 8    1  0.7550631E-006  0.1254647E+03  0.7546771E-02  0.1250414E+00
          2   -1    0    0  501    0  0.00000000000E+00  0.00000000000E+00  0.82081824137E+03  0.82081824137E+03  0.00000000000E+00 0. -1.
         -2   -1    0    0    0  501 -0.00000000000E+00 -0.00000000000E+00 -0.14635532720E+02  0.14635532720E+02  0.00000000000E+00 0.  1.
         23    2    1    2    0    0 -0.11791830636E+01 -0.10719326243E+02  0.27084347647E+03  0.28560881344E+03  0.89999506334E+02 0.  0.
         23    2    1    2    0    0  0.11791830636E+01  0.10719326243E+02  0.53533923218E+03  0.54984496065E+03  0.12500037125E+03 0.  0.
          5    1    4    4  502    0 -0.37251635987E+02 -0.20637147045E+02  0.71621206848E+02  0.83458154139E+02  0.47000000000E+01 0.  1.
         -5    1    4    4    0  502  0.38430819051E+02  0.31356473288E+02  0.46371802533E+03  0.46638680651E+03  0.47000000000E+01 0.  1.
        -11    1    3    3    0    0 -0.35495252715E+02  0.15604747241E+02  0.68666143720E+02  0.78857215238E+02  0.00000000000E+00 0.  1.
         11    1    3    3    0    0  0.34316069651E+02 -0.26324073484E+02  0.20217733275E+03  0.20675159820E+03  0.00000000000E+00 0. -1.
<mgrwt>
<rscale>  0 0.11567115E+03</rscale>
<asrwt>0</asrwt>
<pdfrwt beam="1">  1        2 0.12627969E+00 0.12546469E+03</pdfrwt>
<pdfrwt beam="2">  1       -2 0.22516211E-02 0.12546469E+03</pdfrwt>
<totfact> 0.20989881E+04</totfact>
</mgrwt>
</event>
<event>
 8    1  0.7550631E-006  0.1605381E+03  0.7546771E-02  0.1196145E+00
          2   -1    0    0  501    0  0.00000000000E+00  0.00000000000E+00  0.58729346394E+03  0.58729346394E+03  0.00000000000E+00 0. -1.
         -2   -1    0    0    0  501 -0.00000000000E+00 -0.00000000000E+00 -0.42243857427E+02  0.42243857427E+02  0.00000000000E+00 0.  1.
         23    2    1    2    0    0 -0.31966746784E+02 -0.95530365372E+02  0.14132281519E+03  0.19506316726E+03  0.89048175289E+02 0.  0.
         23    2    1    2    0    0  0.31966746784E+02  0.95530365372E+02  0.40372679133E+03  0.43447415411E+03  0.12499817976E+03 0.  0.
          5    1    4    4  502    0  0.61303833231E+02  0.15670076293E+01  0.13899580487E+03  0.15199519483E+03  0.47000000000E+01 0. -1.
         -5    1    4    4    0  502 -0.29337086447E+02  0.93963357742E+02  0.26473098646E+03  0.28247895927E+03  0.47000000000E+01 0. -1.
        -11    1    3    3    0    0 -0.19436549441E+02  0.14101165508E+02  0.22520556007E+02  0.32921083908E+02  0.00000000000E+00 0.  1.
         11    1    3    3    0    0 -0.12530197344E+02 -0.10963153088E+03  0.11880225918E+03  0.16214208335E+03  0.00000000000E+00 0. -1.
<mgrwt>
<rscale>  0 0.15357687E+03</rscale>
<asrwt>0</asrwt>
<pdfrwt beam="1">  1        2 0.90352835E-01 0.16053806E+03</pdfrwt>
<pdfrwt beam="2">  1       -2 0.64990554E-02 0.16053806E+03</pdfrwt>
<totfact> 0.65688918E+03</totfact>
</mgrwt>
</event>
<event>
 8    1  0.7550631E-006  0.1525264E+03  0.7546771E-02  0.1204712E+00
          2   -1    0    0  501    0  0.00000000000E+00  0.00000000000E+00  0.52249020443E+03  0.52249020443E+03  0.00000000000E+00 0. -1.
         -2   -1    0    0    0  501 -0.00000000000E+00 -0.00000000000E+00 -0.40083088849E+02  0.40083088849E+02  0.00000000000E+00 0.  1.
         23    2    1    2    0    0  0.83690223658E+02  0.25225297836E+02  0.16286472362E+03  0.20849472999E+03  0.96461210052E+02 0.  0.
         23    2    1    2    0    0 -0.83690223658E+02 -0.25225297836E+02  0.31954239195E+03  0.35407856329E+03  0.12499567808E+03 0.  0.
          5    1    4    4  502    0  0.23045346976E+02  0.82897454454E+01  0.13853580564E+02  0.28527523398E+02  0.47000000000E+01 0.  1.
         -5    1    4    4    0  502 -0.10673557063E+03 -0.33515043281E+02  0.30568881139E+03  0.32555103989E+03  0.47000000000E+01 0.  1.
        -11    1    3    3    0    0  0.82627663077E+02  0.74749086072E+01  0.55848743994E+02  0.10001143520E+03  0.00000000000E+00 0.  1.
         11    1    3    3    0    0  0.10625605811E+01  0.17750389228E+02  0.10701597963E+03  0.10848329479E+03  0.00000000000E+00 0. -1.
<mgrwt>
<rscale>  0 0.14660180E+03</rscale>
<asrwt>0</asrwt>
<pdfrwt beam="1">  1        2 0.80383104E-01 0.15252635E+03</pdfrwt>
<pdfrwt beam="2">  1       -2 0.61666294E-02 0.15252635E+03</pdfrwt>
<totfact> 0.80935211E+03</totfact>
</mgrwt>
</event>
<event>
 8    1  0.7550631E-006  0.1344506E+03  0.7546771E-02  0.1237908E+00
         -2   -1    0    0    0  501 -0.00000000000E+00  0.00000000000E+00  0.29262625293E+02  0.29262625293E+02  0.00000000000E+00 0.  1.
          2   -1    0    0  501    0  0.00000000000E+00 -0.00000000000E+00 -0.97796667436E+03  0.97796667436E+03  0.00000000000E+00 0. -1.
         23    2    1    2    0    0 -0.53391816404E+01  0.49224594135E+02 -0.68838229007E+02  0.11715018451E+03  0.80832520867E+02 0.  0.
         23    2    1    2    0    0  0.53391816404E+01 -0.49224594135E+02 -0.87986582006E+03  0.89007911515E+03  0.12500160949E+03 0.  0.
          5    1    4    4  502    0 -0.19173131196E+02 -0.39293408704E+02 -0.94242880989E+02  0.10399707469E+03  0.47000000000E+01 0.  1.
         -5    1    4    4    0  502  0.24512312837E+02 -0.99311854305E+01 -0.78562293907E+03  0.78608204045E+03  0.47000000000E+01 0.  1.
        -11    1    3    3    0    0 -0.24162980968E+02 -0.14099617316E+02 -0.13951819128E+02  0.31261831596E+02  0.00000000000E+00 0.  1.
         11    1    3    3    0    0  0.18823799328E+02  0.63324211451E+02 -0.54886409880E+02  0.85888352915E+02  0.00000000000E+00 0. -1.
<mgrwt>
<rscale>  0 0.12320113E+03</rscale>
<asrwt>0</asrwt>
<pdfrwt beam="2">  1        2 0.15045642E+00 0.13445062E+03</pdfrwt>
<pdfrwt beam="1">  1       -2 0.45019421E-02 0.13445062E+03</pdfrwt>
<totfact> 0.60515367E+03</totfact>
</mgrwt>
</event>
<event>
 8    1  0.7550631E-006  0.3050377E+03  0.7546771E-02  0.1084261E+00
         -1   -1    0    0    0  501 -0.00000000000E+00  0.00000000000E+00  0.88542521648E+02  0.88542521648E+02  0.00000000000E+00 0.  1.
          1   -1    0    0  501    0  0.00000000000E+00 -0.00000000000E+00 -0.11620424878E+04  0.11620424878E+04  0.00000000000E+00 0. -1.
         23    2    1    2    0    0 -0.22090210193E+03 -0.16919008677E+03 -0.30090653434E+03  0.41995354305E+03  0.91614473855E+02 0.  0.
         23    2    1    2    0    0  0.22090210193E+03  0.16919008677E+03 -0.77259343186E+03  0.83063146644E+03  0.12499999196E+03 0.  0.
          5    1    4    4  502    0  0.94384640299E+01  0.59458411274E+02 -0.23427400694E+03  0.24193136961E+03  0.47000000000E+01 0. -1.
         -5    1    4    4    0  502  0.21146363790E+03  0.10973167550E+03 -0.53831942492E+03  0.58870009683E+03  0.47000000000E+01 0. -1.
        -11    1    3    3    0    0 -0.10174566653E+03 -0.13332394284E+03 -0.18790225317E+03  0.25186248458E+03  0.00000000000E+00 0.  1.
         11    1    3    3    0    0 -0.11915643540E+03 -0.35866143928E+02 -0.11300428116E+03  0.16809105847E+03  0.00000000000E+00 0. -1.
<mgrwt>
<rscale>  0 0.30196831E+03</rscale>
<asrwt>0</asrwt>
<pdfrwt beam="2">  1        1 0.17877577E+00 0.30503774E+03</pdfrwt>
<pdfrwt beam="1">  1       -1 0.13621926E-01 0.30503774E+03</pdfrwt>
<totfact> 0.45684242E+02</totfact>
</mgrwt>
</event>
<event>
 8    1  0.7550631E-006  0.1474832E+03  0.7546771E-02  0.1210852E+00
         -2   -1    0    0    0  501 -0.00000000000E+00  0.00000000000E+00  0.39605678190E+02  0.39605678190E+02  0.00000000000E+00 0.  1.
          2   -1    0    0  501    0  0.00000000000E+00 -0.00000000000E+00 -0.12181667681E+04  0.12181667681E+04  0.00000000000E+00 0. -1.
         23    2    1    2    0    0 -0.78230963522E+02  0.21443823681E+01 -0.80202709853E+02  0.14955657634E+03  0.99045508883E+02 0.  0.
         23    2    1    2    0    0  0.78230963522E+02 -0.21443823681E+01 -0.10983583801E+04  0.11082158700E+04  0.12500640517E+03 0.  0.
          5    1    4    4  502    0  0.11115573562E+02  0.50496848129E+02 -0.62959624557E+03  0.63173333779E+03  0.47000000000E+01 0.  1.
         -5    1    4    4    0  502  0.67115389960E+02 -0.52641230497E+02 -0.46876213450E+03  0.47648253216E+03  0.47000000000E+01 0.  1.
        -11    1    3    3    0    0 -0.45557539796E+02  0.49923691641E+02 -0.51355370607E+02  0.84883676343E+02  0.00000000000E+00 0. -1.
         11    1    3    3    0    0 -0.32673423726E+02 -0.47779309273E+02 -0.28847339246E+02  0.64672899998E+02  0.00000000000E+00 0.  1.
<mgrwt>
<rscale>  0 0.14185668E+03</rscale>
<asrwt>0</asrwt>
<pdfrwt beam="2">  1        2 0.18741028E+00 0.14748316E+03</pdfrwt>
<pdfrwt beam="1">  1       -2 0.60931810E-02 0.14748316E+03</pdfrwt>
<totfact> 0.27979682E+03</totfact>
</mgrwt>
</event>
<event>
 8    1  0.7550631E-006  0.1388107E+03  0.7546771E-02  0.1226165E+00
         -3   -1    0    0    0  501 -0.00000000000E+00  0.00000000000E+00  0.36104391644E+02  0.36104391644E+02  0.00000000000E+00 0.  1.
          3   -1    0    0  501    0  0.00000000000E+00 -0.00000000000E+00 -0.42843806018E+03  0.42843806018E+03  0.00000000000E+00 0. -1.
         23    2    1    2    0    0 -0.50744435076E+02 -0.32691908941E+02 -0.18356218643E+03  0.21383557326E+03  0.91579569237E+02 0.  0.
         23    2    1    2    0    0  0.50744435076E+02  0.32691908941E+02 -0.20877148211E+03  0.25070687857E+03  0.12499859447E+03 0.  0.
          5    1    4    4  502    0  0.63638740027E+02  0.60332073179E+02 -0.20030000745E+03  0.21870535264E+03  0.47000000000E+01 0. -1.
         -5    1    4    4    0  502 -0.12894304951E+02 -0.27640164238E+02 -0.84714746555E+01  0.32001525934E+02  0.47000000000E+01 0. -1.
        -11    1    3    3    0    0 -0.25583934170E+02  0.28725026994E+02 -0.39065718631E+02  0.54825133247E+02  0.00000000000E+00 0. -1.
         11    1    3    3    0    0 -0.25160500905E+02 -0.61416935935E+02 -0.14449646780E+03  0.15901044001E+03  0.00000000000E+00 0.  1.
<mgrwt>
<rscale>  0 0.13087388E+03</rscale>
<asrwt>0</asrwt>
<pdfrwt beam="2">  1        3 0.65913547E-01 0.13881069E+03</pdfrwt>
<pdfrwt beam="1">  1       -3 0.55545218E-02 0.13881069E+03</pdfrwt>
<totfact> 0.10093776E+03</totfact>
</mgrwt>
</event>
<event>
 8    1  0.7550631E-006  0.1476613E+03  0.7546771E-02  0.1213010E+00
          1   -1    0    0  501    0  0.00000000000E+00  0.00000000000E+00  0.26049301796E+03  0.26049301796E+03  0.00000000000E+00 0. -1.
         -1   -1    0    0    0  501 -0.00000000000E+00 -0.00000000000E+00 -0.68863265947E+02  0.68863265947E+02  0.00000000000E+00 0.  1.
         23    2    1    2    0    0  0.66172494773E+02  0.42419355240E+02  0.89882201223E+02  0.15003415310E+03  0.90847323774E+02 0.  0.
         23    2    1    2    0    0 -0.66172494773E+02 -0.42419355240E+02  0.10174755079E+03  0.17932213081E+03  0.12500264694E+03 0.  0.
          5    1    4    4  502    0 -0.95656331330E+01 -0.48821009126E+02 -0.12554696191E+02  0.51523806786E+02  0.47000000000E+01 0. -1.
         -5    1    4    4    0  502 -0.56606861640E+02  0.64016538853E+01  0.11430224698E+03  0.12779832402E+03  0.47000000000E+01 0. -1.
        -11    1    3    3    0    0  0.49009462685E+02  0.38705825721E+01  0.95552636948E+02  0.10745796978E+03  0.00000000000E+00 0.  1.
         11    1    3    3    0    0  0.17163032088E+02  0.38548772668E+02 -0.56704357254E+01  0.42576183319E+02  0.00000000000E+00 0. -1.
<mgrwt>
<rscale>  0 0.14023736E+03</rscale>
<asrwt>0</asrwt>
<pdfrwt beam="1">  1        1 0.40075848E-01 0.14766131E+03</pdfrwt>
<pdfrwt beam="2">  1       -1 0.10594349E-01 0.14766131E+03</pdfrwt>
<totfact> 0.56084448E+03</totfact>
</mgrwt>
</event>
<event>
 8    1  0.7550631E-006  0.1281220E+03  0.7546771E-02  0.1244699E+00
          2   -1    0    0  501    0  0.00000000000E+00  0.00000000000E+00  0.11899058445E+03  0.11899058445E+03  0.00000000000E+00 0. -1.
         -2   -1    0    0    0  501 -0.00000000000E+00 -0.00000000000E+00 -0.11380257452E+03  0.11380257452E+03  0.00000000000E+00 0.  1.
         23    2    1    2    0    0 -0.28287946597E+02  0.10805113703E+01 -0.29759131433E+02  0.99990504518E+02  0.91165342442E+02 0.  0.
         23    2    1    2    0    0  0.28287946597E+02 -0.10805113703E+01  0.34947141361E+02  0.13280265445E+03  0.12495545971E+03 0.  0.
          5    1    4    4  502    0  0.66625996402E+02 -0.32091741965E+02  0.36110952374E+01  0.74189172442E+02  0.47000000000E+01 0. -1.
         -5    1    4    4    0  502 -0.38338049804E+02  0.31011230595E+02  0.31336046124E+02  0.58613482003E+02  0.47000000000E+01 0. -1.
        -11    1    3    3    0    0 -0.38132485543E+02 -0.28563228815E+02 -0.44731564952E+02  0.65351797199E+02  0.00000000000E+00 0.  1.
         11    1    3    3    0    0  0.98445389457E+01  0.29643740186E+02  0.14972433519E+02  0.34638707319E+02  0.00000000000E+00 0. -1.
<mgrwt>
<rscale>  0 0.11903438E+03</rscale>
<asrwt>0</asrwt>
<pdfrwt beam="1">  1        2 0.18306244E-01 0.12812198E+03</pdfrwt>
<pdfrwt beam="2">  1       -2 0.17508088E-01 0.12812198E+03</pdfrwt>
<totfact> 0.76468791E+03</totfact>
</mgrwt>
</event>
<event>
 8    1  0.7550631E-006  0.1274222E+03  0.7546771E-02  0.1244499E+00
         -1   -1    0    0    0  501 -0.00000000000E+00  0.00000000000E+00  0.80183251291E+02  0.80183251291E+02  0.00000000000E+00 0.  1.
          1   -1    0    0  501    0  0.00000000000E+00 -0.00000000000E+00 -0.20729493620E+03  0.20729493620E+03  0.00000000000E+00 0. -1.
         23    2    1    2    0    0 -0.20182986378E+02  0.14295012244E+02  0.12765580069E+02  0.98263852111E+02  0.94239717121E+02 0.  0.
         23    2    1    2    0    0  0.20182986378E+02 -0.14295012244E+02 -0.13987726498E+03  0.18921433539E+03  0.12499886056E+03 0.  0.
          5    1    4    4  502    0  0.53749618817E+02  0.39547216901E+01 -0.14066676922E+03  0.15071128461E+03  0.47000000000E+01 0. -1.
         -5    1    4    4    0  502 -0.33566632439E+02 -0.18249733934E+02  0.78950423756E+00  0.38503050774E+02  0.47000000000E+01 0. -1.
        -11    1    3    3    0    0 -0.15913130662E+02  0.52221000911E+02  0.22226657325E+02  0.58943065406E+02  0.00000000000E+00 0. -1.
         11    1    3    3    0    0 -0.42698557152E+01 -0.37925988667E+02 -0.94610772567E+01  0.39320786705E+02  0.00000000000E+00 0.  1.
<mgrwt>
<rscale>  0 0.11915389E+03</rscale>
<asrwt>0</asrwt>
<pdfrwt beam="2">  1        1 0.31891528E-01 0.12742219E+03</pdfrwt>
<pdfrwt beam="1">  1       -1 0.12335885E-01 0.12742219E+03</pdfrwt>
<totfact> 0.58347830E+03</totfact>
</mgrwt>
</event>
<event>
 8    1  0.7550631E-006  0.2069339E+03  0.7546771E-02  0.1148106E+00
          2   -1    0    0  501    0  0.00000000000E+00  0.00000000000E+00  0.30719743339E+03  0.30719743339E+03  0.00000000000E+00 0. -1.
         -2   -1    0    0    0  501 -0.00000000000E+00 -0.00000000000E+00 -0.15467473695E+03  0.15467473695E+03  0.00000000000E+00 0.  1.
         23    2    1    2    0    0  0.16479518583E+03 -0.94371516976E+01 -0.24832634614E+02  0.18933493447E+03  0.89356278808E+02 0.  0.
         23    2    1    2    0    0 -0.16479518583E+03  0.94371516976E+01  0.17735533105E+03  0.27253723587E+03  0.12480031402E+03 0.  0.
          5    1    4    4  502    0 -0.74752765674E+02  0.59719688170E+02  0.12288253160E+03  0.15580957513E+03  0.47000000000E+01 0. -1.
         -5    1    4    4    0  502 -0.90042420157E+02 -0.50282536472E+02  0.54472799451E+02  0.11672766074E+03  0.47000000000E+01 0. -1.
        -11    1    3    3    0    0  0.92799277769E+02 -0.81008335398E+01  0.31045212697E+02  0.98189279914E+02  0.00000000000E+00 0. -1.
         11    1    3    3    0    0  0.71995908061E+02 -0.13363181579E+01 -0.55877847311E+02  0.91145654553E+02  0.00000000000E+00 0.  1.
<mgrwt>
<rscale>  0 0.20194793E+03</rscale>
<asrwt>0</asrwt>
<pdfrwt beam="1">  1        2 0.47261143E-01 0.20693388E+03</pdfrwt>
<pdfrwt beam="2">  1       -2 0.23796114E-01 0.20693388E+03</pdfrwt>
<totfact> 0.16408562E+03</totfact>
</mgrwt>
</event>
<event>
 8    1  0.7550631E-006  0.1623714E+03  0.7546771E-02  0.1193417E+00
         -1   -1    0    0    0  501 -0.00000000000E+00  0.00000000000E+00  0.80247479664E+02  0.80247479664E+02  0.00000000000E+00 0.  1.
          1   -1    0    0  501    0  0.00000000000E+00 -0.00000000000E+00 -0.50747453936E+03  0.50747453936E+03  0.00000000000E+00 0. -1.
         23    2    1    2    0    0  0.10294617373E+03  0.11889369016E+02 -0.80443656210E+01  0.13819047456E+03  0.91063843860E+02 0.  0.
         23    2    1    2    0    0 -0.10294617373E+03 -0.11889369016E+02 -0.41918269408E+03  0.44953154447E+03  0.12500082669E+03 0.  0.
          5    1    4    4  502    0 -0.69252357395E+02  0.23907557567E+00 -0.40471503465E+03  0.41062427526E+03  0.47000000000E+01 0.  1.
         -5    1    4    4    0  502 -0.33693816339E+02 -0.12128444592E+02 -0.14467659427E+02  0.38907269205E+02  0.47000000000E+01 0.  1.
        -11    1    3    3    0    0  0.43490809147E+02  0.33599833727E+02  0.31706236680E+02  0.63448284068E+02  0.00000000000E+00 0.  1.
         11    1    3    3    0    0  0.59455364588E+02 -0.21710464711E+02 -0.39750602301E+02  0.74742190492E+02  0.00000000000E+00 0. -1.
<mgrwt>
<rscale>  0 0.15588971E+03</rscale>
<asrwt>0</asrwt>
<pdfrwt beam="2">  1        1 0.78073005E-01 0.16237142E+03</pdfrwt>
<pdfrwt beam="1">  1       -1 0.12345766E-01 0.16237142E+03</pdfrwt>
<totfact> 0.19156442E+03</totfact>
</mgrwt>
</event>
<event>
 8    1  0.7550631E-006  0.1293964E+03  0.7546771E-02  0.1243385E+00
         -1   -1    0    0    0  501 -0.00000000000E+00  0.00000000000E+00  0.27347991170E+02  0.27347991170E+02  0.00000000000E+00 0.  1.
          1   -1    0    0  501    0  0.00000000000E+00 -0.00000000000E+00 -0.50220760953E+03  0.50220760953E+03  0.00000000000E+00 0. -1.
         23    2    1    2    0    0 -0.17957055897E+02 -0.28190122475E+02 -0.12911283801E+03  0.16038859891E+03  0.89091182831E+02 0.  0.
         23    2    1    2    0    0  0.17957055897E+02  0.28190122475E+02 -0.34574678035E+03  0.36916700179E+03  0.12500520081E+03 0.  0.
          5    1    4    4  502    0 -0.47333386726E+02  0.31158625520E+02 -0.22170747374E+03  0.22888338375E+03  0.47000000000E+01 0. -1.
         -5    1    4    4    0  502  0.65290442623E+02 -0.29685030451E+01 -0.12403930661E+03  0.14028361804E+03  0.47000000000E+01 0. -1.
        -11    1    3    3    0    0 -0.46272730909E+02 -0.38818690331E+02 -0.10718499681E+03  0.12303121509E+03  0.00000000000E+00 0.  1.
         11    1    3    3    0    0  0.28315675012E+02  0.10628567856E+02 -0.21927841204E+02  0.37357383821E+02  0.00000000000E+00 0. -1.
<mgrwt>
<rscale>  0 0.11982545E+03</rscale>
<asrwt>0</asrwt>
<pdfrwt beam="2">  1        1 0.77262703E-01 0.12939644E+03</pdfrwt>
<pdfrwt beam="1">  1       -1 0.42073836E-02 0.12939644E+03</pdfrwt>
<totfact> 0.97207014E+03</totfact>
</mgrwt>
</event>
<event>
 8    1  0.7550631E-006  0.1292470E+03  0.7546771E-02  0.1244724E+00
          2   -1    0    0  501    0  0.00000000000E+00  0.00000000000E+00  0.86065488697E+03  0.86065488697E+03  0.00000000000E+00 0.  1.
         -2   -1    0    0    0  501 -0.00000000000E+00 -0.00000000000E+00 -0.15413366412E+02  0.15413366412E+02  0.00000000000E+00 0. -1.
         23    2    1    2    0    0  0.22039396316E+02 -0.24388429982E+02  0.24422939440E+03  0.26131598629E+03  0.86933981223E+02 0.  0.
         23    2    1    2    0    0 -0.22039396316E+02  0.24388429982E+02  0.60101212615E+03  0.61475226710E+03  0.12499697440E+03 0.  0.
          5    1    4    4  502    0 -0.37567364423E+02 -0.42503662166E+02  0.20286712404E+03  0.21070127713E+03  0.47000000000E+01 0. -1.
         -5    1    4    4    0  502  0.15527968107E+02  0.66892092148E+02  0.39814500211E+03  0.40405098997E+03  0.47000000000E+01 0. -1.
        -11    1    3    3    0    0 -0.32818823507E+02 -0.62733031954E+01  0.66318053457E+02  0.74259771907E+02  0.00000000000E+00 0. -1.
         11    1    3    3    0    0  0.54858219823E+02 -0.18115126786E+02  0.17791134095E+03  0.18705621438E+03  0.00000000000E+00 0.  1.
<mgrwt>
<rscale>  0 0.11901924E+03</rscale>
<asrwt>0</asrwt>
<pdfrwt beam="1">  1        2 0.13240841E+00 0.12924695E+03</pdfrwt>
<pdfrwt beam="2">  1       -2 0.23712878E-02 0.12924695E+03</pdfrwt>
<totfact> 0.18376656E+04</totfact>
</mgrwt>
</event>
<event>
 7    1  0.7550631E-006  0.6515280E+03  0.7546771E-02  0.1032046E+00
         -1   -1    0    0    0  501 -0.00000000000E+00  0.00000000000E+00  0.73987721687E+03  0.73987721687E+03  0.00000000000E+00 0.  1.
          1   -1    0    0  501    0  0.00000000000E+00 -0.00000000000E+00 -0.25391849350E+03  0.25391849350E+03  0.00000000000E+00 0. -1.
         23    2    1    2    0    0  0.94285071864E+02 -0.12010169460E+01  0.28264736550E+03  0.31128252084E+03  0.90089718282E+02 0.  0.
          5    1    1    2  502    0 -0.36724768025E+03  0.50947531964E+02  0.82525449745E+02  0.37986714720E+03  0.47000000000E+01 0. -1.
         -5    1    1    2    0  502  0.27296260839E+03 -0.49746515018E+02  0.12078590813E+03  0.30264604233E+03  0.47000000000E+01 0.  1.
        -11    1    3    3    0    0  0.73106225777E+02  0.37930356735E+02  0.14669296309E+03  0.16823215397E+03  0.00000000000E+00 0. -1.
         11    1    3    3    0    0  0.21178846087E+02 -0.39131373681E+02  0.13595440241E+03  0.14305036687E+03  0.00000000000E+00 0.  1.
<mgrwt>
<rscale>  0 0.43579190E+03</rscale>
<asrwt>0</asrwt>
<pdfrwt beam="2">  1        1 0.39064384E-01 0.65152801E+03</pdfrwt>
<pdfrwt beam="1">  1       -1 0.11382726E+00 0.65152801E+03</pdfrwt>
<totfact> 0.78530158E+01</totfact>
</mgrwt>
</event>
<event>
 8    1  0.7550631E-006  0.2202997E+03  0.7546771E-02  0.1136735E+00
          1   -1    0    0  501    0  0.00000000000E+00  0.00000000000E+00  0.12872198750E+04  0.12872198750E+04  0.00000000000E+00 0. -1.
         -1   -1    0    0    0  501 -0.00000000000E+00 -0.00000000000E+00 -0.36216772382E+02  0.36216772382E+02  0.00000000000E+00 0.  1.
         23    2    1    2    0    0  0.17000793286E+03 -0.63298830801E+02  0.48338791961E+03  0.52483473992E+03  0.94224116797E+02 0.  0.
         23    2    1    2    0    0 -0.17000793286E+03  0.63298830801E+02  0.76761518305E+03  0.79860190750E+03  0.12498999240E+03 0.  0.
          5    1    4    4  502    0  0.18687223451E+02  0.17560488384E+02  0.88091163715E+02  0.91867982438E+02  0.47000000000E+01 0.  1.
         -5    1    4    4    0  502 -0.18869515631E+03  0.45738342417E+02  0.67952401933E+03  0.70673392506E+03  0.47000000000E+01 0.  1.
        -11    1    3    3    0    0 -0.95592260370E+01 -0.15874053700E+02  0.38092055336E+02  0.42359993662E+02  0.00000000000E+00 0.  1.
         11    1    3    3    0    0  0.17956715890E+03 -0.47424777101E+02  0.44529586427E+03  0.48247474626E+03  0.00000000000E+00 0. -1.
<mgrwt>
<rscale>  0 0.21621774E+03</rscale>
<asrwt>0</asrwt>
<pdfrwt beam="1">  1        1 0.19803379E+00 0.22029965E+03</pdfrwt>
<pdfrwt beam="2">  1       -1 0.55718121E-02 0.22029965E+03</pdfrwt>
<totfact> 0.14902853E+03</totfact>
</mgrwt>
</event>
<event>
 8    1  0.7550631E-006  0.1357082E+03  0.7546771E-02  0.1230392E+00
         -2   -1    0    0    0  501 -0.00000000000E+00  0.00000000000E+00  0.29441374719E+02  0.29441374719E+02  0.00000000000E+00 0.  1.
          2   -1    0    0  501    0  0.00000000000E+00 -0.00000000000E+00 -0.51012355816E+03  0.51012355816E+03  0.00000000000E+00 0. -1.
         23    2    1    2    0    0 -0.48582295207E+02 -0.20785163216E+02 -0.18004041813E+03  0.20971318338E+03  0.93663251633E+02 0.  0.
         23    2    1    2    0    0  0.48582295207E+02  0.20785163216E+02 -0.30064176531E+03  0.32985174949E+03  0.12499777270E+03 0.  0.
          5    1    4    4  502    0  0.30303914756E+02  0.52440614330E+02 -0.28215468699E+03  0.28862034348E+03  0.47000000000E+01 0.  1.
         -5    1    4    4    0  502  0.18278380451E+02 -0.31655451114E+02 -0.18487078321E+02  0.41231406015E+02  0.47000000000E+01 0.  1.
        -11    1    3    3    0    0  0.22724185323E+02  0.11923827390E+02 -0.70122474012E+02  0.74670794959E+02  0.00000000000E+00 0.  1.
         11    1    3    3    0    0 -0.71306480530E+02 -0.32708990606E+02 -0.10991794412E+03  0.13504238842E+03  0.00000000000E+00 0. -1.
<mgrwt>
<rscale>  0 0.12804069E+03</rscale>
<asrwt>0</asrwt>
<pdfrwt beam="2">  1        2 0.78480542E-01 0.13570816E+03</pdfrwt>
<pdfrwt beam="1">  1       -2 0.45294426E-02 0.13570816E+03</pdfrwt>
<totfact> 0.13131596E+04</totfact>
</mgrwt>
</event>
<event>
 8    1  0.7550631E-006  0.1290433E+03  0.7546771E-02  0.1242310E+00
         -2   -1    0    0    0  501 -0.00000000000E+00  0.00000000000E+00  0.65862162769E+03  0.65862162769E+03  0.00000000000E+00 0. -1.
          2   -1    0    0  501    0  0.00000000000E+00 -0.00000000000E+00 -0.20494552011E+02  0.20494552011E+02  0.00000000000E+00 0.  1.
         23    2    1    2    0    0  0.22599202461E+02  0.22746494502E+02  0.34876028421E+03  0.36227975474E+03  0.92653968538E+02 0.  0.
         23    2    1    2    0    0 -0.22599202461E+02 -0.22746494502E+02  0.28936679147E+03  0.31683642496E+03  0.12499621280E+03 0.  0.
          5    1    4    4  502    0 -0.52905634871E+02 -0.58426005994E+02  0.14652949912E+03  0.16644995791E+03  0.47000000000E+01 0.  1.
         -5    1    4    4    0  502  0.30306432410E+02  0.35679511493E+02  0.14283729235E+03  0.15038646705E+03  0.47000000000E+01 0.  1.
        -11    1    3    3    0    0  0.48561664161E+02 -0.28152555188E+01  0.28255304962E+03  0.28670958606E+03  0.00000000000E+00 0. -1.
         11    1    3    3    0    0 -0.25962461700E+02  0.25561750020E+02  0.66207234593E+02  0.75570168679E+02  0.00000000000E+00 0.  1.
<mgrwt>
<rscale>  0 0.12047818E+03</rscale>
<asrwt>0</asrwt>
<pdfrwt beam="2">  1        2 0.31530085E-02 0.12904333E+03</pdfrwt>
<pdfrwt beam="1">  1       -2 0.10132639E+00 0.12904333E+03</pdfrwt>
<totfact> 0.23204623E+03</totfact>
</mgrwt>
</event>
<event>
 8    1  0.7550631E-006  0.1426581E+03  0.7546771E-02  0.1221339E+00
          1   -1    0    0  501    0  0.00000000000E+00  0.00000000000E+00  0.67774541932E+03  0.67774541932E+03  0.00000000000E+00 0. -1.
         -1   -1    0    0    0  501 -0.00000000000E+00 -0.00000000000E+00 -0.24146728082E+02  0.24146728082E+02  0.00000000000E+00 0.  1.
         23    2    1    2    0    0 -0.40497313583E+02  0.55542839298E+02  0.25056362668E+03  0.27435431210E+03  0.88108558887E+02 0.  0.
         23    2    1    2    0    0  0.40497313583E+02 -0.55542839298E+02  0.40303506456E+03  0.42753783530E+03  0.12500519168E+03 0.  0.
          5    1    4    4  502    0 -0.20473865276E+02  0.22378965275E+01  0.26530443458E+03  0.26614417211E+03  0.47000000000E+01 0.  1.
         -5    1    4    4    0  502  0.60971178859E+02 -0.57780735825E+02  0.13773062998E+03  0.16139366319E+03  0.47000000000E+01 0.  1.
        -11    1    3    3    0    0 -0.43890842158E+02  0.69357084600E+02  0.24612944853E+03  0.25945426696E+03  0.00000000000E+00 0.  1.
         11    1    3    3    0    0  0.33935285753E+01 -0.13814245302E+02  0.44341781537E+01  0.14900045146E+02  0.00000000000E+00 0. -1.
<mgrwt>
<rscale>  0 0.13420993E+03</rscale>
<asrwt>0</asrwt>
<pdfrwt beam="1">  1        1 0.10426851E+00 0.14265811E+03</pdfrwt>
<pdfrwt beam="2">  1       -1 0.37148818E-02 0.14265811E+03</pdfrwt>
<totfact> 0.78255447E+03</totfact>
</mgrwt>
</event>
<event>
 8    1  0.7550631E-006  0.1837378E+03  0.7546771E-02  0.1169645E+00
         -4   -1    0    0    0  501 -0.00000000000E+00  0.00000000000E+00  0.62518697156E+03  0.62518697156E+03  0.00000000000E+00 0.  1.
          4   -1    0    0  501    0  0.00000000000E+00 -0.00000000000E+00 -0.48194691039E+02  0.48194691039E+02  0.00000000000E+00 0. -1.
         23    2    1    2    0    0  0.13327361351E+03 -0.19329356732E+02  0.24291136294E+03  0.29210794460E+03  0.90474532106E+02 0.  0.
         23    2    1    2    0    0 -0.13327361351E+03  0.19329356732E+02  0.33408091758E+03  0.38127371800E+03  0.12499643379E+03 0.  0.
          5    1    4    4  502    0 -0.10415585769E+03  0.40588497964E+02  0.32511322676E+03  0.34382636471E+03  0.47000000000E+01 0. -1.
         -5    1    4    4    0  502 -0.29117755816E+02 -0.21259141231E+02  0.89676908176E+01  0.37447353288E+02  0.47000000000E+01 0. -1.
        -11    1    3    3    0    0  0.11638574235E+03 -0.31691916215E+02  0.24287415165E+03  0.27117867194E+03  0.00000000000E+00 0.  1.
         11    1    3    3    0    0  0.16887871163E+02  0.12362559483E+02  0.37211296059E-01  0.20929272660E+02  0.00000000000E+00 0. -1.
<mgrwt>
<rscale>  0 0.17810946E+03</rscale>
<asrwt>0</asrwt>
<pdfrwt beam="2">  1        4 0.74145683E-02 0.18373783E+03</pdfrwt>
<pdfrwt beam="1">  1       -4 0.96182605E-01 0.18373783E+03</pdfrwt>
<totfact> 0.20599672E+02</totfact>
</mgrwt>
</event>
<event>
 8    1  0.7550631E-006  0.1289286E+03  0.7546771E-02  0.1242445E+00
          1   -1    0    0  501    0  0.00000000000E+00  0.00000000000E+00  0.24871629810E+03  0.24871629810E+03  0.00000000000E+00 0. -1.
         -1   -1    0    0    0  501 -0.00000000000E+00 -0.00000000000E+00 -0.10681477957E+03  0.10681477957E+03  0.00000000000E+00 0.  1.
         23    2    1    2    0    0 -0.31164398862E+02  0.51093829136E+01 -0.60755401330E+02  0.11533863955E+03  0.92814101469E+02 0.  0.
         23    2    1    2    0    0  0.31164398862E+02 -0.51093829136E+01  0.20265691985E+03  0.24019243813E+03  0.12500101847E+03 0.  0.
          5    1    4    4  502    0 -0.94198569067E+01  0.52724950448E+02  0.11905893719E+03  0.13063603878E+03  0.47000000000E+01 0.  1.
         -5    1    4    4    0  502  0.40584255769E+02 -0.57834333362E+02  0.83597982666E+02  0.10955639935E+03  0.47000000000E+01 0.  1.
        -11    1    3    3    0    0  0.23867655292E+02  0.25771321743E+02 -0.39430474628E+02  0.52807085916E+02  0.00000000000E+00 0. -1.
         11    1    3    3    0    0 -0.55032054154E+02 -0.20661938830E+02 -0.21324926702E+02  0.62531553631E+02  0.00000000000E+00 0.  1.
<mgrwt>
<rscale>  0 0.12039610E+03</rscale>
<asrwt>0</asrwt>
<pdfrwt beam="1">  1        1 0.38264046E-01 0.12892859E+03</pdfrwt>
<pdfrwt beam="2">  1       -1 0.16433043E-01 0.12892859E+03</pdfrwt>
<totfact> 0.29807666E+03</totfact>
</mgrwt>
</event>
<event>
 8    1  0.7550631E-006  0.1550071E+03  0.7546771E-02  0.1202753E+00
         -1   -1    0    0    0  501 -0.00000000000E+00  0.00000000000E+00  0.13193893572E+03  0.13193893572E+03  0.00000000000E+00 0.  1.
          1   -1    0    0  501    0  0.00000000000E+00 -0.00000000000E+00 -0.18433447944E+03  0.18433447944E+03  0.00000000000E+00 0. -1.
         23    2    1    2    0    0 -0.67221037628E+02  0.62326092409E+02  0.40490369369E+02  0.13556649258E+03  0.91299475375E+02 0.  0.
         23    2    1    2    0    0  0.67221037628E+02 -0.62326092409E+02 -0.92885913088E+02  0.18070692257E+03  0.12499595722E+03 0.  0.
          5    1    4    4  502    0 -0.16142972233E+01  0.16660528651E+01 -0.86208018551E+02  0.86367205293E+02  0.47000000000E+01 0. -1.
         -5    1    4    4    0  502  0.68835334852E+02 -0.63992145274E+02 -0.66778945374E+01  0.94339717279E+02  0.47000000000E+01 0. -1.
        -11    1    3    3    0    0 -0.39211928350E+02  0.17778828407E+02  0.64642110150E+02  0.77667653943E+02  0.00000000000E+00 0.  1.
         11    1    3    3    0    0 -0.28009109278E+02  0.44547264001E+02 -0.24151740781E+02  0.57898838635E+02  0.00000000000E+00 0. -1.
<mgrwt>
<rscale>  0 0.14815941E+03</rscale>
<asrwt>0</asrwt>
<pdfrwt beam="2">  1        1 0.28359150E-01 0.15500709E+03</pdfrwt>
<pdfrwt beam="1">  1       -1 0.20298298E-01 0.15500709E+03</pdfrwt>
<totfact> 0.31144136E+03</totfact>
</mgrwt>
</event>
<event>
 8    1  0.7550631E-006  0.2021930E+03  0.7546771E-02  0.1150607E+00
         -2   -1    0    0    0  501 -0.00000000000E+00  0.00000000000E+00  0.93301085666E+02  0.93301085666E+02  0.00000000000E+00 0. -1.
          2   -1    0    0  501    0  0.00000000000E+00 -0.00000000000E+00 -0.46712317603E+03  0.46712317603E+03  0.00000000000E+00 0.  1.
         23    2    1    2    0    0  0.98095023891E+02  0.12503545022E+03 -0.84857284661E+02  0.20774498611E+03  0.10344429887E+03 0.  0.
         23    2    1    2    0    0 -0.98095023891E+02 -0.12503545022E+03 -0.28896480571E+03  0.35267927559E+03  0.12500205986E+03 0.  0.
          5    1    4    4  502    0 -0.75756177590E+02 -0.61068132475E+02 -0.26213779871E+03  0.27965448460E+03  0.47000000000E+01 0. -1.
         -5    1    4    4    0  502 -0.22338846301E+02 -0.63967317748E+02 -0.26827006997E+02  0.73024790984E+02  0.47000000000E+01 0. -1.
        -11    1    3    3    0    0  0.59442165001E+02  0.10160490844E+03 -0.10548250256E+03  0.15806165488E+03  0.00000000000E+00 0.  1.
         11    1    3    3    0    0  0.38652858890E+02  0.23430541785E+02  0.20625217895E+02  0.49683331228E+02  0.00000000000E+00 0. -1.
<mgrwt>
<rscale>  0 0.19897470E+03</rscale>
<asrwt>0</asrwt>
<pdfrwt beam="2">  1        2 0.71865104E-01 0.20219301E+03</pdfrwt>
<pdfrwt beam="1">  1       -2 0.14354013E-01 0.20219301E+03</pdfrwt>
<totfact> 0.24495093E+03</totfact>
</mgrwt>
</event>
<event>
 8    1  0.7550631E-006  0.1331520E+03  0.7546771E-02  0.1251646E+00
         -2   -1    0    0    0  501 -0.00000000000E+00  0.00000000000E+00  0.75746081120E+02  0.75746081120E+02  0.00000000000E+00 0.  1.
          2   -1    0    0  501    0  0.00000000000E+00 -0.00000000000E+00 -0.14355283466E+03  0.14355283466E+03  0.00000000000E+00 0. -1.
         23    2    1    2    0    0  0.19757286997E+02  0.41408756937E+02 -0.12154593361E+02  0.74984639191E+02  0.58051067469E+02 0.  0.
         23    2    1    2    0    0 -0.19757286997E+02 -0.41408756937E+02 -0.55652160178E+02  0.14431427659E+03  0.12499764780E+03 0.  0.
          5    1    4    4  502    0  0.34019446992E+02 -0.65533109605E+02 -0.32652471467E+02  0.80871411025E+02  0.47000000000E+01 0. -1.
         -5    1    4    4    0  502 -0.53776733989E+02  0.24124352669E+02 -0.22999688711E+02  0.63442865564E+02  0.47000000000E+01 0. -1.
        -11    1    3    3    0    0 -0.12512129740E+02  0.57910859049E+01  0.14514846226E+02  0.20019261414E+02  0.00000000000E+00 0. -1.
         11    1    3    3    0    0  0.32269416737E+02  0.35617671032E+02 -0.26669439587E+02  0.54965377777E+02  0.00000000000E+00 0.  1.
<mgrwt>
<rscale>  0 0.11496307E+03</rscale>
<asrwt>0</asrwt>
<pdfrwt beam="2">  1        2 0.22085051E-01 0.13315197E+03</pdfrwt>
<pdfrwt beam="1">  1       -2 0.11653243E-01 0.13315197E+03</pdfrwt>
<totfact> 0.12024657E+04</totfact>
</mgrwt>
</event>
<event>
 8    1  0.7550631E-006  0.1669297E+03  0.7546771E-02  0.1187684E+00
          1   -1    0    0  501    0  0.00000000000E+00  0.00000000000E+00  0.56908354195E+03  0.56908354195E+03  0.00000000000E+00 0. -1.
         -1   -1    0    0    0  501 -0.00000000000E+00 -0.00000000000E+00 -0.63046916869E+02  0.63046916869E+02  0.00000000000E+00 0.  1.
         23    2    1    2    0    0  0.23755621290E+02 -0.10804515167E+03  0.60365268976E+02  0.15622238080E+03  0.92322165395E+02 0.  0.
         23    2    1    2    0    0 -0.23755621290E+02  0.10804515167E+03  0.44567135611E+03  0.47590807802E+03  0.12500982652E+03 0.  0.
          5    1    4    4  502    0 -0.16082086451E+02  0.58090603209E+02  0.40861174783E+03  0.41306028876E+03  0.47000000000E+01 0. -1.
         -5    1    4    4    0  502 -0.76735348391E+01  0.49954548460E+02  0.37059608272E+02  0.62847789254E+02  0.47000000000E+01 0. -1.
        -11    1    3    3    0    0  0.35992791288E+02 -0.77062618955E+02 -0.24849805887E+01  0.85089972343E+02  0.00000000000E+00 0.  1.
         11    1    3    3    0    0 -0.12237169998E+02 -0.30982532715E+02  0.62850249565E+02  0.71132408460E+02  0.00000000000E+00 0. -1.
<mgrwt>
<rscale>  0 0.16090056E+03</rscale>
<asrwt>0</asrwt>
<pdfrwt beam="1">  1        1 0.87551311E-01 0.16692975E+03</pdfrwt>
<pdfrwt beam="2">  1       -1 0.96995261E-02 0.16692975E+03</pdfrwt>
<totfact> 0.23866092E+03</totfact>
</mgrwt>
</event>
<event>
 8    1  0.7550631E-006  0.1286472E+03  0.7546771E-02  0.1240532E+00
         -4   -1    0    0    0  501 -0.00000000000E+00  0.00000000000E+00  0.18859199354E+03  0.18859199354E+03  0.00000000000E+00 0.  1.
          4   -1    0    0  501    0  0.00000000000E+00 -0.00000000000E+00 -0.76165372444E+02  0.76165372444E+02  0.00000000000E+00 0. -1.
         23    2    1    2    0    0  0.25125441392E+02 -0.17168243954E+02  0.84990908523E+02  0.13321720643E+03  0.97965979564E+02 0.  0.
         23    2    1    2    0    0 -0.25125441392E+02  0.17168243954E+02  0.27435712573E+02  0.13154015955E+03  0.12499623533E+03 0.  0.
          5    1    4    4  502    0 -0.67631175889E+02  0.30535132471E+02  0.40763734528E+02  0.84794706909E+02  0.47000000000E+01 0. -1.
         -5    1    4    4    0  502  0.42505734497E+02 -0.13366888517E+02 -0.13328021955E+02  0.46745452645E+02  0.47000000000E+01 0. -1.
        -11    1    3    3    0    0  0.52329089476E+01  0.22550673441E+02 -0.12336348290E+02  0.26231692622E+02  0.00000000000E+00 0. -1.
         11    1    3    3    0    0  0.19892532445E+02 -0.39718917395E+02  0.97327256813E+02  0.10698551381E+03  0.00000000000E+00 0.  1.
<mgrwt>
<rscale>  0 0.12156807E+03</rscale>
<asrwt>0</asrwt>
<pdfrwt beam="2">  1        4 0.11717750E-01 0.12864717E+03</pdfrwt>
<pdfrwt beam="1">  1       -4 0.29014153E-01 0.12864717E+03</pdfrwt>
<totfact> 0.10699271E+03</totfact>
</mgrwt>
</event>
<event>
 7    1  0.7550631E-006  0.2061204E+03  0.7546771E-02  0.1172255E+00
          2   -1    0    0  501    0  0.00000000000E+00  0.00000000000E+00  0.10047484200E+04  0.10047484200E+04  0.00000000000E+00 0. -1.
         -2   -1    0    0    0  501 -0.00000000000E+00 -0.00000000000E+00 -0.24661829070E+02  0.24661829070E+02  0.00000000000E+00 0.  1.
         23    2    1    2    0    0 -0.53694302932E+02 -0.20833601354E+01  0.31217953005E+03  0.33042137390E+03  0.93993652930E+02 0.  0.
          5    1    1    2  502    0  0.46840340767E+02 -0.37926591055E+02  0.65253495281E+03  0.65532922907E+03  0.47000000000E+01 0. -1.
         -5    1    1    2    0  502  0.68539621657E+01  0.40009951191E+02  0.15372108079E+02  0.43659646110E+02  0.47000000000E+01 0.  1.
        -11    1    3    3    0    0 -0.78632977177E+02  0.17281868292E+01  0.27048683562E+03  0.28169000687E+03  0.00000000000E+00 0.  1.
         11    1    3    3    0    0  0.24938674245E+02 -0.38115469645E+01  0.41692694432E+02  0.48731367027E+02  0.00000000000E+00 0. -1.
<mgrwt>
<rscale>  0 0.17547568E+03</rscale>
<asrwt>0</asrwt>
<pdfrwt beam="1">  1        2 0.15457665E+00 0.20612037E+03</pdfrwt>
<pdfrwt beam="2">  1       -2 0.37941283E-02 0.20612037E+03</pdfrwt>
<totfact> 0.76634981E+03</totfact>
</mgrwt>
</event>
<event>
 7    1  0.7550631E-006  0.3775120E+03  0.7546771E-02  0.1100462E+00
          1   -1    0    0  501    0  0.00000000000E+00  0.00000000000E+00  0.12186991508E+04  0.12186991508E+04  0.00000000000E+00 0. -1.
         -1   -1    0    0    0  501 -0.00000000000E+00 -0.00000000000E+00 -0.57995802471E+02  0.57995802471E+02  0.00000000000E+00 0.  1.
         23    2    1    2    0    0 -0.16165215361E+02 -0.35253679502E+02  0.70777956847E+02  0.12324244829E+03  0.93139925802E+02 0.  0.
          5    1    1    2  502    0  0.11000944573E+03  0.13700992525E+03  0.90771807522E+03  0.92457990019E+03  0.47000000000E+01 0. -1.
         -5    1    1    2    0  502 -0.93844230371E+02 -0.10175624575E+03  0.18220731626E+03  0.22887260478E+03  0.47000000000E+01 0.  1.
        -11    1    3    3    0    0 -0.15248374435E+02  0.19531844749E+02  0.63254941191E+02  0.67935215222E+02  0.00000000000E+00 0. -1.
         11    1    3    3    0    0 -0.91684092599E+00 -0.54785524252E+02  0.75230156561E+01  0.55307233066E+02  0.00000000000E+00 0.  1.
<mgrwt>
<rscale>  0 0.27143272E+03</rscale>
<asrwt>0</asrwt>
<pdfrwt beam="1">  1        1 0.18749216E+00 0.37751202E+03</pdfrwt>
<pdfrwt beam="2">  1       -1 0.89224321E-02 0.37751202E+03</pdfrwt>
<totfact> 0.80446413E+02</totfact>
</mgrwt>
</event>
<event>
 8    1  0.7550631E-006  0.2253210E+03  0.7546771E-02  0.1133235E+00
         -1   -1    0    0    0  501 -0.00000000000E+00  0.00000000000E+00  0.57607289876E+03  0.57607289876E+03  0.00000000000E+00 0.  1.
          1   -1    0    0  501    0  0.00000000000E+00 -0.00000000000E+00 -0.82874222090E+02  0.82874222090E+02  0.00000000000E+00 0. -1.
         23    2    1    2    0    0 -0.97218217782E+02 -0.16028918979E+03  0.27929282609E+03  0.34826197048E+03  0.90210371612E+02 0.  0.
         23    2    1    2    0    0  0.97218217782E+02  0.16028918979E+03  0.21390585058E+03  0.31068515037E+03  0.12500217404E+03 0.  0.
          5    1    4    4  502    0  0.12586431147E+03  0.13131232884E+03  0.19061847043E+03  0.26351896303E+03  0.47000000000E+01 0. -1.
         -5    1    4    4    0  502 -0.28646093684E+02  0.28976860954E+02  0.23287380145E+02  0.47166187339E+02  0.47000000000E+01 0. -1.
        -11    1    3    3    0    0 -0.25294544907E+02 -0.92738047615E+02  0.76911391616E+02  0.12310776433E+03  0.00000000000E+00 0. -1.
         11    1    3    3    0    0 -0.71923672875E+02 -0.67551142175E+02  0.20238143448E+03  0.22515420616E+03  0.00000000000E+00 0.  1.
<mgrwt>
<rscale>  0 0.22087144E+03</rscale>
<asrwt>0</asrwt>
<pdfrwt beam="2">  1        1 0.12749881E-01 0.22532099E+03</pdfrwt>
<pdfrwt beam="1">  1       -1 0.88626597E-01 0.22532099E+03</pdfrwt>
<totfact> 0.60767132E+02</totfact>
</mgrwt>
</event>
<event>
 8    1  0.7550631E-006  0.1286764E+03  0.7546771E-02  0.1243732E+00
          1   -1    0    0  501    0  0.00000000000E+00  0.00000000000E+00  0.94203372974E+02  0.94203372974E+02  0.00000000000E+00 0. -1.
         -1   -1    0    0    0  501 -0.00000000000E+00 -0.00000000000E+00 -0.13970981872E+03  0.13970981872E+03  0.00000000000E+00 0.  1.
         23    2    1    2    0    0 -0.29257917816E+02  0.87381144437E+01 -0.42853685275E+02  0.10520949527E+03  0.91105538551E+02 0.  0.
         23    2    1    2    0    0  0.29257917816E+02 -0.87381144437E+01 -0.26527604753E+01  0.12870369643E+03  0.12500089574E+03 0.  0.
          5    1    4    4  502    0 -0.30230852814E+02  0.18472647105E+02  0.37500751377E+02  0.51802890911E+02  0.47000000000E+01 0.  1.
         -5    1    4    4    0  502  0.59488770630E+02 -0.27210761549E+02 -0.40153511852E+02  0.76900805517E+02  0.47000000000E+01 0.  1.
        -11    1    3    3    0    0  0.66269059346E+01 -0.14048769128E+02 -0.58030174501E+02  0.60073163300E+02  0.00000000000E+00 0.  1.
         11    1    3    3    0    0 -0.35884823750E+02  0.22786883572E+02  0.15176489227E+02  0.45136331971E+02  0.00000000000E+00 0. -1.
<mgrwt>
<rscale>  0 0.11961608E+03</rscale>
<asrwt>0</asrwt>
<pdfrwt beam="1">  1        1 0.14492827E-01 0.12867635E+03</pdfrwt>
<pdfrwt beam="2">  1       -1 0.21493818E-01 0.12867635E+03</pdfrwt>
<totfact> 0.65980912E+03</totfact>
</mgrwt>
</event>
<event>
 8    1  0.7550631E-006  0.1486352E+03  0.7546771E-02  0.1211417E+00
          4   -1    0    0  501    0  0.00000000000E+00  0.00000000000E+00  0.12167756337E+04  0.12167756337E+04  0.00000000000E+00 0.  1.
         -4   -1    0    0    0  501 -0.00000000000E+00 -0.00000000000E+00 -0.17525539560E+02  0.17525539560E+02  0.00000000000E+00 0. -1.
         23    2    1    2    0    0 -0.62524776124E+02  0.50577211456E+02  0.31685205954E+03  0.33947229932E+03  0.91535853208E+02 0.  0.
         23    2    1    2    0    0  0.62524776124E+02 -0.50577211456E+02  0.88239803455E+03  0.89482887389E+03  0.12500008089E+03 0.  0.
          5    1    4    4  502    0  0.15931591074E+01 -0.77922303094E+02  0.37578499805E+03  0.38381099285E+03  0.47000000000E+01 0.  1.
         -5    1    4    4    0  502  0.60931617017E+02  0.27345091637E+02  0.50661303650E+03  0.51101788104E+03  0.47000000000E+01 0.  1.
        -11    1    3    3    0    0 -0.24082810034E+02  0.11433209624E+02  0.11167814214E+02  0.28903634646E+02  0.00000000000E+00 0. -1.
         11    1    3    3    0    0 -0.38441966090E+02  0.39144001832E+02  0.30568424533E+03  0.31056866468E+03  0.00000000000E+00 0.  1.
<mgrwt>
<rscale>  0 0.14143055E+03</rscale>
<asrwt>0</asrwt>
<pdfrwt beam="1">  1        4 0.18719618E+00 0.14863520E+03</pdfrwt>
<pdfrwt beam="2">  1       -4 0.26962378E-02 0.14863520E+03</pdfrwt>
<totfact> 0.19112039E+02</totfact>
</mgrwt>
</event>
<event>
 8    1  0.7550631E-006  0.2455030E+03  0.7546771E-02  0.1118675E+00
         -2   -1    0    0    0  501 -0.00000000000E+00  0.00000000000E+00  0.61140677794E+02  0.61140677794E+02  0.00000000000E+00 0.  1.
          2   -1    0    0  501    0  0.00000000000E+00 -0.00000000000E+00 -0.97370171210E+03  0.97370171210E+03  0.00000000000E+00 0. -1.
         23    2    1    2    0    0  0.21080109988E+03  0.14333918932E+02 -0.32917624525E+03  0.40190516938E+03  0.92348252802E+02 0.  0.
         23    2    1    2    0    0 -0.21080109988E+03 -0.14333918932E+02 -0.58338478905E+03  0.63293722052E+03  0.12501659119E+03 0.  0.
          5    1    4    4  502    0 -0.11993636894E+03 -0.44353710113E+01 -0.48028007837E+03  0.49507115528E+03  0.47000000000E+01 0.  1.
         -5    1    4    4    0  502 -0.90864730930E+02 -0.98985479209E+01 -0.10310471068E+03  0.13786606523E+03  0.47000000000E+01 0.  1.
        -11    1    3    3    0    0  0.13217775623E+03 -0.26530940030E+02 -0.14784786687E+03  0.20008458651E+03  0.00000000000E+00 0.  1.
         11    1    3    3    0    0  0.78623343650E+02  0.40864858962E+02 -0.18132837838E+03  0.20182058287E+03  0.00000000000E+00 0. -1.
<mgrwt>
<rscale>  0 0.24168611E+03</rscale>
<asrwt>0</asrwt>
<pdfrwt beam="2">  1        2 0.14980025E+00 0.24550298E+03</pdfrwt>
<pdfrwt beam="1">  1       -2 0.94062590E-02 0.24550298E+03</pdfrwt>
<totfact> 0.19921422E+03</totfact>
</mgrwt>
</event>
<event>
 8    1  0.7550631E-006  0.1431771E+03  0.7546771E-02  0.1219339E+00
         -1   -1    0    0    0  501 -0.00000000000E+00  0.00000000000E+00  0.18600547919E+03  0.18600547919E+03  0.00000000000E+00 0.  1.
          1   -1    0    0  501    0  0.00000000000E+00 -0.00000000000E+00 -0.93048245968E+02  0.93048245968E+02  0.00000000000E+00 0. -1.
         23    2    1    2    0    0  0.64619565212E+02  0.26367739544E+02  0.67634372663E+02  0.13365449301E+03  0.91750581682E+02 0.  0.
         23    2    1    2    0    0 -0.64619565212E+02 -0.26367739544E+02  0.25322860564E+02  0.14539923215E+03  0.12501497329E+03 0.  0.
          5    1    4    4  502    0  0.30287547284E+02  0.18764475362E+02 -0.40848674616E+01  0.36169285289E+02  0.47000000000E+01 0. -1.
         -5    1    4    4    0  502 -0.94907112496E+02 -0.45132214906E+02  0.29407728026E+02  0.10922994687E+03  0.47000000000E+01 0. -1.
        -11    1    3    3    0    0  0.36230828601E+02  0.60717836791E+02  0.40644763826E+02  0.81555658738E+02  0.00000000000E+00 0.  1.
         11    1    3    3    0    0  0.28388736611E+02 -0.34350097247E+02  0.26989608837E+02  0.52098834271E+02  0.00000000000E+00 0. -1.
<mgrwt>
<rscale>  0 0.13562578E+03</rscale>
<asrwt>0</asrwt>
<pdfrwt beam="2">  1        1 0.14315115E-01 0.14317713E+03</pdfrwt>
<pdfrwt beam="1">  1       -1 0.28616227E-01 0.14317713E+03</pdfrwt>
<totfact> 0.42199499E+03</totfact>
</mgrwt>
</event>
<event>
 8    1  0.7550631E-006  0.1582750E+03  0.7546771E-02  0.1198095E+00
         -2   -1    0    0    0  501 -0.00000000000E+00  0.00000000000E+00  0.41211789404E+02  0.41211789404E+02  0.00000000000E+00 0.  1.
          2   -1    0    0  501    0  0.00000000000E+00 -0.00000000000E+00 -0.52512898441E+03  0.52512898441E+03  0.00000000000E+00 0. -1.
         23    2    1    2    0    0 -0.45928893410E+02  0.85533291996E+02 -0.19411858091E+03  0.23613748344E+03  0.93024084726E+02 0.  0.
         23    2    1    2    0    0  0.45928893410E+02 -0.85533291996E+02 -0.28979861409E+03  0.33020329038E+03  0.12500227580E+03 0.  0.
          5    1    4    4  502    0  0.87205208158E+01  0.85456475124E+01  0.82162384064E+01  0.15449017712E+02  0.47000000000E+01 0. -1.
         -5    1    4    4    0  502  0.37208372594E+02 -0.94078939508E+02 -0.29801485250E+03  0.31475427266E+03  0.47000000000E+01 0. -1.
        -11    1    3    3    0    0 -0.33668758237E+02  0.81344860172E+02 -0.20242969938E+03  0.22074499937E+03  0.00000000000E+00 0. -1.
         11    1    3    3    0    0 -0.12260135173E+02  0.41884318241E+01  0.83111184645E+01  0.15392484066E+02  0.00000000000E+00 0.  1.
<mgrwt>
<rscale>  0 0.15195175E+03</rscale>
<asrwt>0</asrwt>
<pdfrwt beam="2">  1        2 0.80789069E-01 0.15827500E+03</pdfrwt>
<pdfrwt beam="1">  1       -2 0.63402757E-02 0.15827500E+03</pdfrwt>
<totfact> 0.77317003E+03</totfact>
</mgrwt>
</event>
<event>
 8    1  0.7550631E-006  0.1451597E+03  0.7546771E-02  0.1208558E+00
          1   -1    0    0  501    0  0.00000000000E+00  0.00000000000E+00  0.62413590641E+03  0.62413590641E+03  0.00000000000E+00 0. -1.
         -1   -1    0    0    0  501 -0.00000000000E+00 -0.00000000000E+00 -0.32383985198E+02  0.32383985198E+02  0.00000000000E+00 0.  1.
         23    2    1    2    0    0 -0.67063656908E+02 -0.30808565474E+02  0.29962063408E+03  0.33031130746E+03  0.11784028889E+03 0.  0.
         23    2    1    2    0    0  0.67063656908E+02  0.30808565474E+02  0.29213128714E+03  0.32620858415E+03  0.12499859865E+03 0.  0.
          5    1    4    4  502    0  0.57573846724E+02  0.76080179712E+00  0.28840272039E+03  0.29413185100E+03  0.47000000000E+01 0.  1.
         -5    1    4    4    0  502  0.94898101837E+01  0.30047763677E+02  0.37285667454E+01  0.32076733146E+02  0.47000000000E+01 0.  1.
        -11    1    3    3    0    0 -0.42387621777E+02 -0.75423294050E+02  0.21137818482E+03  0.22839903849E+03  0.00000000000E+00 0. -1.
         11    1    3    3    0    0 -0.24676035130E+02  0.44614728575E+02  0.88242449255E+02  0.10191226897E+03  0.00000000000E+00 0.  1.
<mgrwt>
<rscale>  0 0.14360586E+03</rscale>
<asrwt>0</asrwt>
<pdfrwt beam="1">  1        1 0.96020900E-01 0.14515974E+03</pdfrwt>
<pdfrwt beam="2">  1       -1 0.49821520E-02 0.14515974E+03</pdfrwt>
<totfact> 0.57022669E+03</totfact>
</mgrwt>
</event>
<event>
 8    1  0.7550631E-006  0.1323191E+03  0.7546771E-02  0.1237063E+00
          1   -1    0    0  501    0  0.00000000000E+00  0.00000000000E+00  0.76551780877E+03  0.76551780877E+03  0.00000000000E+00 0. -1.
         -1   -1    0    0    0  501 -0.00000000000E+00 -0.00000000000E+00 -0.34339338389E+02  0.34339338389E+02  0.00000000000E+00 0.  1.
         23    2    1    2    0    0 -0.34612900374E+02 -0.26177461945E+02  0.64074522430E+02  0.11975712989E+03  0.91394274154E+02 0.  0.
         23    2    1    2    0    0  0.34612900374E+02  0.26177461945E+02  0.66710394795E+03  0.68010001727E+03  0.12500017494E+03 0.  0.
          5    1    4    4  502    0 -0.27477359780E+02 -0.14942235748E+02  0.43821179566E+03  0.43935173104E+03  0.47000000000E+01 0. -1.
         -5    1    4    4    0  502  0.62090260154E+02  0.41119697693E+02  0.22889215229E+03  0.24074828623E+03  0.47000000000E+01 0. -1.
        -11    1    3    3    0    0 -0.10888519830E+02  0.16667640181E+02 -0.16237036470E+02  0.25690687936E+02  0.00000000000E+00 0.  1.
         11    1    3    3    0    0 -0.23724380543E+02 -0.42845102126E+02  0.80311558901E+02  0.94066441952E+02  0.00000000000E+00 0. -1.
<mgrwt>
<rscale>  0 0.12373270E+03</rscale>
<asrwt>0</asrwt>
<pdfrwt beam="1">  1        1 0.11777196E+00 0.13231914E+03</pdfrwt>
<pdfrwt beam="2">  1       -1 0.52829757E-02 0.13231914E+03</pdfrwt>
<totfact> 0.38915888E+03</totfact>
</mgrwt>
</event>
<event>
 8    1  0.7550631E-006  0.2046491E+03  0.7546771E-02  0.1150039E+00
         -1   -1    0    0    0  501 -0.00000000000E+00  0.00000000000E+00  0.37277021207E+02  0.37277021207E+02  0.00000000000E+00 0.  1.
          1   -1    0    0  501    0  0.00000000000E+00 -0.00000000000E+00 -0.10619576121E+04  0.10619576121E+04  0.00000000000E+00 0. -1.
         23    2    1    2    0    0 -0.10476837653E+03  0.12361838081E+03 -0.37897701587E+03  0.42187625153E+03  0.89989311907E+02 0.  0.
         23    2    1    2    0    0  0.10476837653E+03 -0.12361838081E+03 -0.64570357499E+03  0.67735838174E+03  0.12499341488E+03 0.  0.
          5    1    4    4  502    0  0.52793487066E+02 -0.54680397422E+02 -0.51528500650E+03  0.52088177743E+03  0.47000000000E+01 0. -1.
         -5    1    4    4    0  502  0.51974889463E+02 -0.68937983387E+02 -0.13041856850E+03  0.15647660431E+03  0.47000000000E+01 0. -1.
        -11    1    3    3    0    0 -0.24760964612E+02  0.95624451895E+01 -0.11596160750E+02  0.28965784482E+02  0.00000000000E+00 0.  1.
         11    1    3    3    0    0 -0.80007411917E+02  0.11405593562E+03 -0.36738085511E+03  0.39291046705E+03  0.00000000000E+00 0. -1.
<mgrwt>
<rscale>  0 0.19964469E+03</rscale>
<asrwt>0</asrwt>
<pdfrwt beam="2">  1        1 0.16337806E+00 0.20464914E+03</pdfrwt>
<pdfrwt beam="1">  1       -1 0.57349274E-02 0.20464914E+03</pdfrwt>
<totfact> 0.20527345E+03</totfact>
</mgrwt>
</event>
<event>
 8    1  0.7550631E-006  0.1273472E+03  0.7546771E-02  0.1243013E+00
         -2   -1    0    0    0  501 -0.00000000000E+00  0.00000000000E+00  0.30550179825E+02  0.30550179825E+02  0.00000000000E+00 0. -1.
          2   -1    0    0  501    0  0.00000000000E+00 -0.00000000000E+00 -0.42855599136E+03  0.42855599136E+03  0.00000000000E+00 0.  1.
         23    2    1    2    0    0  0.23232642319E+02  0.77053070846E+01 -0.19625607093E+03  0.22052646678E+03  0.97551779809E+02 0.  0.
         23    2    1    2    0    0 -0.23232642319E+02 -0.77053070846E+01 -0.20174974060E+03  0.23857970441E+03  0.12497275742E+03 0.  0.
          5    1    4    4  502    0 -0.74051532621E+02  0.30619534676E+01 -0.10412846734E+03  0.12789774335E+03  0.47000000000E+01 0.  1.
         -5    1    4    4    0  502  0.50818890302E+02 -0.10767260552E+02 -0.97621273260E+02  0.11068196106E+03  0.47000000000E+01 0.  1.
        -11    1    3    3    0    0 -0.18719864101E+02 -0.20920444134E+02 -0.14085461496E+02  0.31408573993E+02  0.00000000000E+00 0. -1.
         11    1    3    3    0    0  0.41952506421E+02  0.28625751218E+02 -0.18217060944E+03  0.18911789278E+03  0.00000000000E+00 0.  1.
<mgrwt>
<rscale>  0 0.12005090E+03</rscale>
<asrwt>0</asrwt>
<pdfrwt beam="2">  1        2 0.65931686E-01 0.12734723E+03</pdfrwt>
<pdfrwt beam="1">  1       -2 0.47000281E-02 0.12734723E+03</pdfrwt>
<totfact> 0.14939380E+04</totfact>
</mgrwt>
</event>
<event>
 8    1  0.7550631E-006  0.1441040E+03  0.7546771E-02  0.1219248E+00
         -1   -1    0    0    0  501 -0.00000000000E+00  0.00000000000E+00  0.33898149809E+02  0.33898149809E+02  0.00000000000E+00 0.  1.
          1   -1    0    0  501    0  0.00000000000E+00 -0.00000000000E+00 -0.50705249547E+03  0.50705249547E+03  0.00000000000E+00 0. -1.
         23    2    1    2    0    0  0.71434879593E+02  0.61846011856E+01 -0.15802072997E+03  0.19443201844E+03  0.87704431937E+02 0.  0.
         23    2    1    2    0    0 -0.71434879593E+02 -0.61846011856E+01 -0.31513361569E+03  0.34651862684E+03  0.12499908676E+03 0.  0.
          5    1    4    4  502    0 -0.15661947248E+01 -0.22213965047E+02 -0.24522703509E+03  0.24628094109E+03  0.47000000000E+01 0.  1.
         -5    1    4    4    0  502 -0.69868684868E+02  0.16029363862E+02 -0.69906580605E+02  0.10023768574E+03  0.47000000000E+01 0.  1.
        -11    1    3    3    0    0  0.30172154666E+01 -0.23321451451E+02 -0.47218947143E+01  0.23985203286E+02  0.00000000000E+00 0.  1.
         11    1    3    3    0    0  0.68417664126E+02  0.29506052637E+02 -0.15329883525E+03  0.17044681515E+03  0.00000000000E+00 0. -1.
<mgrwt>
<rscale>  0 0.13569041E+03</rscale>
<asrwt>0</asrwt>
<pdfrwt beam="2">  1        1 0.78008076E-01 0.14410400E+03</pdfrwt>
<pdfrwt beam="1">  1       -1 0.52151000E-02 0.14410400E+03</pdfrwt>
<totfact> 0.70405075E+03</totfact>
</mgrwt>
</event>
<event>
 8    1  0.7550631E-006  0.3154184E+03  0.7546771E-02  0.1079178E+00
          2   -1    0    0  501    0  0.00000000000E+00  0.00000000000E+00  0.78287262282E+03  0.78287262282E+03  0.00000000000E+00 0. -1.
         -2   -1    0    0    0  501 -0.00000000000E+00 -0.00000000000E+00 -0.12463977471E+03  0.12463977471E+03  0.00000000000E+00 0.  1.
         23    2    1    2    0    0  0.28419667685E+03 -0.55646161637E+02  0.26226134451E+03  0.40126915803E+03  0.91496873816E+02 0.  0.
         23    2    1    2    0    0 -0.28419667685E+03  0.55646161637E+02  0.39597150360E+03  0.50624323951E+03  0.12499815777E+03 0.  0.
          5    1    4    4  502    0 -0.18664437679E+03  0.51711059016E+02  0.34580794441E+03  0.39637782662E+03  0.47000000000E+01 0. -1.
         -5    1    4    4    0  502 -0.97552300061E+02  0.39351026211E+01  0.50163559186E+02  0.10986541289E+03  0.47000000000E+01 0. -1.
        -11    1    3    3    0    0  0.15321399910E+03  0.70662777144E+00  0.90170315160E+02  0.17777996113E+03  0.00000000000E+00 0. -1.
         11    1    3    3    0    0  0.13098267775E+03 -0.56352789409E+02  0.17209102935E+03  0.22348919689E+03  0.00000000000E+00 0.  1.
<mgrwt>
<rscale>  0 0.31244805E+03</rscale>
<asrwt>0</asrwt>
<pdfrwt beam="1">  1        2 0.12044194E+00 0.31541843E+03</pdfrwt>
<pdfrwt beam="2">  1       -2 0.19175350E-01 0.31541843E+03</pdfrwt>
<totfact> 0.82559058E+02</totfact>
</mgrwt>
</event>
<event>
 8    1  0.7550631E-006  0.1519377E+03  0.7546771E-02  0.1206692E+00
          1   -1    0    0  501    0  0.00000000000E+00  0.00000000000E+00  0.99844941822E+03  0.99844941822E+03  0.00000000000E+00 0. -1.
         -1   -1    0    0    0  501 -0.00000000000E+00 -0.00000000000E+00 -0.20867712344E+02  0.20867712344E+02  0.00000000000E+00 0.  1.
         23    2    1    2    0    0  0.82913386981E+02  0.24610848977E+02  0.31082392967E+03  0.33546699912E+03  0.91903583256E+02 0.  0.
         23    2    1    2    0    0 -0.82913386981E+02 -0.24610848977E+02  0.66675777621E+03  0.68385013145E+03  0.12491895980E+03 0.  0.
          5    1    4    4  502    0 -0.31643761569E+02  0.45479015904E+02  0.38445910138E+03  0.38845921172E+03  0.47000000000E+01 0. -1.
         -5    1    4    4    0  502 -0.51269625412E+02 -0.70089864881E+02  0.28229867482E+03  0.29539091973E+03  0.47000000000E+01 0. -1.
        -11    1    3    3    0    0  0.33211731199E+02  0.44429433209E+02  0.24207728248E+03  0.24835137269E+03  0.00000000000E+00 0.  1.
         11    1    3    3    0    0  0.49701655782E+02 -0.19818584232E+02  0.68746647194E+02  0.87115626433E+02  0.00000000000E+00 0. -1.
<mgrwt>
<rscale>  0 0.14504894E+03</rscale>
<asrwt>0</asrwt>
<pdfrwt beam="1">  1        1 0.15360757E+00 0.15193772E+03</pdfrwt>
<pdfrwt beam="2">  1       -1 0.32104181E-02 0.15193772E+03</pdfrwt>
<totfact> 0.53573397E+03</totfact>
</mgrwt>
</event>
<event>
 8    1  0.7550631E-006  0.1352529E+03  0.7546771E-02  0.1233511E+00
          1   -1    0    0  501    0  0.00000000000E+00  0.00000000000E+00  0.55023845715E+02  0.55023845715E+02  0.00000000000E+00 0. -1.
         -1   -1    0    0    0  501 -0.00000000000E+00 -0.00000000000E+00 -0.28431517700E+03  0.28431517700E+03  0.00000000000E+00 0.  1.
         23    2    1    2    0    0  0.21847901717E+02  0.46823603835E+02 -0.15369451847E+03  0.18439314947E+03  0.87801183809E+02 0.  0.
         23    2    1    2    0    0 -0.21847901717E+02 -0.46823603835E+02 -0.75596812813E+02  0.15494587324E+03  0.12499425924E+03 0.  0.
          5    1    4    4  502    0 -0.59666818998E+01 -0.29372220958E+02 -0.10935840673E+03  0.11348867687E+03  0.47000000000E+01 0.  1.
         -5    1    4    4    0  502 -0.15881219817E+02 -0.17451382877E+02  0.33761593913E+02  0.41457196369E+02  0.47000000000E+01 0.  1.
        -11    1    3    3    0    0  0.54235515077E+02  0.30239540201E+02 -0.11842925728E+03  0.13372138897E+03  0.00000000000E+00 0.  1.
         11    1    3    3    0    0 -0.32387613360E+02  0.16584063634E+02 -0.35265261192E+02  0.50671760506E+02  0.00000000000E+00 0. -1.
<mgrwt>
<rscale>  0 0.12600230E+03</rscale>
<asrwt>0</asrwt>
<pdfrwt beam="1">  1        1 0.84652072E-02 0.13525289E+03</pdfrwt>
<pdfrwt beam="2">  1       -1 0.43740796E-01 0.13525289E+03</pdfrwt>
<totfact> 0.40508321E+03</totfact>
</mgrwt>
</event>
<event>
 8    1  0.7550631E-006  0.2512165E+03  0.7546771E-02  0.1114958E+00
         -2   -1    0    0    0  501 -0.00000000000E+00  0.00000000000E+00  0.56591283102E+02  0.56591283102E+02  0.00000000000E+00 0.  1.
          2   -1    0    0  501    0  0.00000000000E+00 -0.00000000000E+00 -0.10560801167E+04  0.10560801167E+04  0.00000000000E+00 0. -1.
         23    2    1    2    0    0 -0.21302454803E+03  0.45883736037E+02 -0.44221411097E+03  0.50139008140E+03  0.91399772938E+02 0.  0.
         23    2    1    2    0    0  0.21302454803E+03 -0.45883736037E+02 -0.55727472268E+03  0.61128131845E+03  0.12499983381E+03 0.  0.
          5    1    4    4  502    0  0.14484506764E+03 -0.55191370742E+02 -0.23393273054E+03  0.28066491310E+03  0.47000000000E+01 0.  1.
         -5    1    4    4    0  502  0.68179480390E+02  0.93076347044E+01 -0.32334199214E+03  0.33061640535E+03  0.47000000000E+01 0.  1.
        -11    1    3    3    0    0 -0.51242825907E+02  0.53372325852E+02 -0.12612371833E+03  0.14622456941E+03  0.00000000000E+00 0.  1.
         11    1    3    3    0    0 -0.16178172212E+03 -0.74885898151E+01 -0.31609039263E+03  0.35516551199E+03  0.00000000000E+00 0. -1.
<mgrwt>
<rscale>  0 0.24740190E+03</rscale>
<asrwt>0</asrwt>
<pdfrwt beam="2">  1        2 0.16247386E+00 0.25121651E+03</pdfrwt>
<pdfrwt beam="1">  1       -2 0.87063514E-02 0.25121651E+03</pdfrwt>
<totfact> 0.20059073E+03</totfact>
</mgrwt>
</event>
<event>
 8    1  0.7550631E-006  0.1250989E+03  0.7546771E-02  0.1248009E+00
          2   -1    0    0  501    0  0.00000000000E+00  0.00000000000E+00  0.14491963731E+03  0.14491963731E+03  0.00000000000E+00 0.  1.
         -2   -1    0    0    0  501 -0.00000000000E+00 -0.00000000000E+00 -0.10987384534E+03  0.10987384534E+03  0.00000000000E+00 0. -1.
         23    2    1    2    0    0  0.92238068123E+00  0.47114725977E+01 -0.45311971450E+02  0.10610887220E+03  0.95827288615E+02 0.  0.
         23    2    1    2    0    0 -0.92238068123E+00 -0.47114725977E+01  0.80357763418E+02  0.14868461045E+03  0.12500677774E+03 0.  0.
          5    1    4    4  502    0  0.26431756380E+02 -0.31465029847E+02  0.97939128506E+02  0.10631485663E+03  0.47000000000E+01 0.  1.
         -5    1    4    4    0  502 -0.27354137061E+02  0.26753557250E+02 -0.17581365088E+02  0.42369753813E+02  0.47000000000E+01 0.  1.
        -11    1    3    3    0    0 -0.86372513330E+01 -0.36214656292E+02 -0.51583507377E+02  0.63615734486E+02  0.00000000000E+00 0. -1.
         11    1    3    3    0    0  0.95596320142E+01  0.40926128890E+02  0.62715359266E+01  0.42493137717E+02  0.00000000000E+00 0.  1.
<mgrwt>
<rscale>  0 0.11707080E+03</rscale>
<asrwt>0</asrwt>
<pdfrwt beam="1">  1        2 0.22295329E-01 0.12509893E+03</pdfrwt>
<pdfrwt beam="2">  1       -2 0.16903669E-01 0.12509893E+03</pdfrwt>
<totfact> 0.64788182E+03</totfact>
</mgrwt>
</event>
<event>
 7    1  0.7550631E-006  0.2609748E+03  0.7546771E-02  0.1128529E+00
         -2   -1    0    0    0  501 -0.00000000000E+00  0.00000000000E+00  0.65741655596E+03  0.65741655596E+03  0.00000000000E+00 0.  1.
          2   -1    0    0  501    0  0.00000000000E+00 -0.00000000000E+00 -0.13548155451E+03  0.13548155451E+03  0.00000000000E+00 0. -1.
         23    2    1    2    0    0  0.10348441648E+03  0.59630136497E+02  0.50997032322E+03  0.53164919556E+03  0.91194072943E+02 0.  0.
          5    1    1    2  502    0 -0.10351178575E+03 -0.14076456536E+03 -0.15469495501E+02  0.17547292652E+03  0.47000000000E+01 0. -1.
         -5    1    1    2    0  502  0.27369268594E-01  0.81134428866E+02  0.27434173726E+02  0.85775988392E+02  0.47000000000E+01 0.  1.
        -11    1    3    3    0    0  0.88881928684E+02  0.81329181742E+02  0.36588920095E+03  0.38521336999E+03  0.00000000000E+00 0.  1.
         11    1    3    3    0    0  0.14602487793E+02 -0.21699045245E+02  0.14408112227E+03  0.14643582557E+03  0.00000000000E+00 0. -1.
<mgrwt>
<rscale>  0 0.22733544E+03</rscale>
<asrwt>0</asrwt>
<pdfrwt beam="2">  1        2 0.20843316E-01 0.26097479E+03</pdfrwt>
<pdfrwt beam="1">  1       -2 0.10114101E+00 0.26097479E+03</pdfrwt>
<totfact> 0.22202274E+02</totfact>
</mgrwt>
</event>
<event>
 8    1  0.7550631E-006  0.1589105E+03  0.7546771E-02  0.1198084E+00
          1   -1    0    0  501    0  0.00000000000E+00  0.00000000000E+00  0.67794239314E+03  0.67794239314E+03  0.00000000000E+00 0. -1.
         -1   -1    0    0    0  501 -0.00000000000E+00 -0.00000000000E+00 -0.32552150238E+02  0.32552150238E+02  0.00000000000E+00 0.  1.
         23    2    1    2    0    0  0.58620791151E+02 -0.78686724876E+02  0.22828291785E+03  0.26414145502E+03  0.89608146121E+02 0.  0.
         23    2    1    2    0    0 -0.58620791151E+02  0.78686724876E+02  0.41710732505E+03  0.44635308835E+03  0.12499824418E+03 0.  0.
          5    1    4    4  502    0 -0.12728956818E+02 -0.27333071316E+02  0.31805419519E+02  0.44077180491E+02  0.47000000000E+01 0. -1.
         -5    1    4    4    0  502 -0.45891834333E+02  0.10601979619E+03  0.38530190553E+03  0.40227590786E+03  0.47000000000E+01 0. -1.
        -11    1    3    3    0    0 -0.45028590283E+01 -0.52694560337E+02  0.48208047637E+02  0.71561220542E+02  0.00000000000E+00 0.  1.
         11    1    3    3    0    0  0.63123650179E+02 -0.25992164540E+02  0.18007487022E+03  0.19258023448E+03  0.00000000000E+00 0. -1.
<mgrwt>
<rscale>  0 0.15196061E+03</rscale>
<asrwt>0</asrwt>
<pdfrwt beam="1">  1        1 0.10429882E+00 0.15891054E+03</pdfrwt>
<pdfrwt beam="2">  1       -1 0.50080236E-02 0.15891054E+03</pdfrwt>
<totfact> 0.50616739E+03</totfact>
</mgrwt>
</event>
<event>
 8    1  0.7550631E-006  0.1881657E+03  0.7546771E-02  0.1164758E+00
          2   -1    0    0  501    0  0.00000000000E+00  0.00000000000E+00  0.35010611130E+02  0.35010611130E+02  0.00000000000E+00 0. -1.
         -2   -1    0    0    0  501 -0.00000000000E+00 -0.00000000000E+00 -0.10587045472E+04  0.10587045472E+04  0.00000000000E+00 0.  1.
         23    2    1    2    0    0  0.58524951547E+02 -0.12788554419E+03 -0.69224823049E+03  0.71258184839E+03  0.93730441532E+02 0.  0.
         23    2    1    2    0    0 -0.58524951547E+02  0.12788554419E+03 -0.33144570554E+03  0.38113330991E+03  0.12500584719E+03 0.  0.
          5    1    4    4  502    0 -0.25931450092E+02  0.81134073342E+02 -0.61416639327E+02  0.10511551525E+03  0.47000000000E+01 0.  1.
         -5    1    4    4    0  502 -0.32593501455E+02  0.46751470844E+02 -0.27002906622E+03  0.27601779465E+03  0.47000000000E+01 0.  1.
        -11    1    3    3    0    0  0.22970285221E+02  0.58274381580E+01 -0.46651128929E+02  0.52325145666E+02  0.00000000000E+00 0. -1.
         11    1    3    3    0    0  0.35554666325E+02 -0.13371298234E+03 -0.64559710156E+03  0.66025670272E+03  0.00000000000E+00 0.  1.
<mgrwt>
<rscale>  0 0.18318302E+03</rscale>
<asrwt>0</asrwt>
<pdfrwt beam="1">  1        2 0.53862482E-02 0.18816574E+03</pdfrwt>
<pdfrwt beam="2">  1       -2 0.16287761E+00 0.18816574E+03</pdfrwt>
<totfact> 0.36111952E+02</totfact>
</mgrwt>
</event>
<event>
 8    1  0.7550631E-006  0.1717256E+03  0.7546771E-02  0.1181676E+00
         -1   -1    0    0    0  501 -0.00000000000E+00  0.00000000000E+00  0.36772934735E+03  0.36772934735E+03  0.00000000000E+00 0.  1.
          1   -1    0    0  501    0  0.00000000000E+00 -0.00000000000E+00 -0.91630312785E+02  0.91630312785E+02  0.00000000000E+00 0. -1.
         23    2    1    2    0    0  0.13481033906E+02 -0.11697408206E+03  0.24024736326E+03  0.28393156028E+03  0.95045574456E+02 0.  0.
         23    2    1    2    0    0 -0.13481033906E+02  0.11697408206E+03  0.35851671306E+02  0.17542809985E+03  0.12500000694E+03 0.  0.
          5    1    4    4  502    0  0.24411309905E+01 -0.18438369441E+02 -0.20270594854E+02  0.27909131192E+02  0.47000000000E+01 0.  1.
         -5    1    4    4    0  502 -0.15922164897E+02  0.13541245150E+03  0.56122266160E+02  0.14751896866E+03  0.47000000000E+01 0.  1.
        -11    1    3    3    0    0  0.15153604078E+02 -0.84742534912E+02  0.23620617725E+03  0.25140462826E+03  0.00000000000E+00 0.  1.
         11    1    3    3    0    0 -0.16725701721E+01 -0.32231547145E+02  0.40411860074E+01  0.32526932020E+02  0.00000000000E+00 0. -1.
<mgrwt>
<rscale>  0 0.16638024E+03</rscale>
<asrwt>0</asrwt>
<pdfrwt beam="2">  1        1 0.14096971E-01 0.17172558E+03</pdfrwt>
<pdfrwt beam="1">  1       -1 0.56573745E-01 0.17172558E+03</pdfrwt>
<totfact> 0.13016642E+03</totfact>
</mgrwt>
</event>
<event>
 8    1  0.7550631E-006  0.2121627E+03  0.7546771E-02  0.1143271E+00
          2   -1    0    0  501    0  0.00000000000E+00  0.00000000000E+00  0.83105433915E+03  0.83105433915E+03  0.00000000000E+00 0.  1.
         -2   -1    0    0    0  501 -0.00000000000E+00 -0.00000000000E+00 -0.57574037186E+02  0.57574037186E+02  0.00000000000E+00 0. -1.
         23    2    1    2    0    0  0.27333158270E+02  0.16921712177E+03  0.21181931178E+03  0.28823178840E+03  0.93960668158E+02 0.  0.
         23    2    1    2    0    0 -0.27333158270E+02 -0.16921712177E+03  0.56166099018E+03  0.60039658794E+03  0.12502583361E+03 0.  0.
          5    1    4    4  502    0 -0.57620962934E+02 -0.54956860383E+02  0.12740071690E+03  0.15031122559E+03  0.47000000000E+01 0. -1.
         -5    1    4    4    0  502  0.30287804664E+02 -0.11426026138E+03  0.43426027328E+03  0.45008536234E+03  0.47000000000E+01 0. -1.
        -11    1    3    3    0    0 -0.28882268407E+02  0.10881784024E+03  0.13100611784E+03  0.17273711441E+03  0.00000000000E+00 0.  1.
         11    1    3    3    0    0  0.56215426677E+02  0.60399281531E+02  0.80813193940E+02  0.11549467399E+03  0.00000000000E+00 0. -1.
<mgrwt>
<rscale>  0 0.20786150E+03</rscale>
<asrwt>0</asrwt>
<pdfrwt beam="1">  1        2 0.12785451E+00 0.21216266E+03</pdfrwt>
<pdfrwt beam="2">  1       -2 0.88575448E-02 0.21216266E+03</pdfrwt>
<totfact> 0.27016132E+03</totfact>
</mgrwt>
</event>
<event>
 8    1  0.7550631E-006  0.1267251E+03  0.7546771E-02  0.1242365E+00
          3   -1    0    0  501    0  0.00000000000E+00  0.00000000000E+00  0.12448295062E+03  0.12448295062E+03  0.00000000000E+00 0. -1.
         -3   -1    0    0    0  501 -0.00000000000E+00 -0.00000000000E+00 -0.10639296439E+03  0.10639296439E+03  0.00000000000E+00 0.  1.
         23    2    1    2    0    0  0.43063832319E+02  0.16432424026E+02  0.62445842699E+01  0.10359844945E+03  0.92569572121E+02 0.  0.
         23    2    1    2    0    0 -0.43063832319E+02 -0.16432424026E+02  0.11845401969E+02  0.12727746556E+03  0.11804542125E+03 0.  0.
          5    1    4    4  502    0  0.14668414195E+01  0.29413653939E+02 -0.36403466437E+02  0.47059717704E+02  0.47000000000E+01 0. -1.
         -5    1    4    4    0  502 -0.44530673739E+02 -0.45846077965E+02  0.48248868406E+02  0.80217747854E+02  0.47000000000E+01 0.  1.
        -11    1    3    3    0    0 -0.33113207675E+01 -0.33193601468E+02 -0.77568564746E+01  0.34248340778E+02  0.00000000000E+00 0.  1.
         11    1    3    3    0    0  0.46375153087E+02  0.49626025494E+02  0.14001440745E+02  0.69350108674E+02  0.00000000000E+00 0. -1.
<mgrwt>
<rscale>  0 0.12044467E+03</rscale>
<asrwt>0</asrwt>
<pdfrwt beam="1">  1        3 0.19151223E-01 0.12672506E+03</pdfrwt>
<pdfrwt beam="2">  1       -3 0.16368148E-01 0.12672506E+03</pdfrwt>
<totfact> 0.17536229E+03</totfact>
</mgrwt>
</event>
<event>
 8    1  0.7550631E-006  0.1538263E+03  0.7546771E-02  0.1204447E+00
         -1   -1    0    0    0  501 -0.00000000000E+00  0.00000000000E+00  0.23132654745E+02  0.23132654745E+02  0.00000000000E+00 0.  1.
          1   -1    0    0  501    0  0.00000000000E+00 -0.00000000000E+00 -0.89571238612E+03  0.89571238612E+03  0.00000000000E+00 0. -1.
         23    2    1    2    0    0 -0.22394744585E+02 -0.86807686510E+02 -0.30127981672E+03  0.32719808329E+03  0.90840292419E+02 0.  0.
         23    2    1    2    0    0  0.22394744585E+02  0.86807686510E+02 -0.57129991466E+03  0.59164695757E+03  0.12500172356E+03 0.  0.
          5    1    4    4  502    0  0.57261692025E+02  0.28181179872E+01 -0.30022338886E+03  0.30568450465E+03  0.47000000000E+01 0. -1.
         -5    1    4    4    0  502 -0.34866947439E+02  0.83989568523E+02 -0.27107652580E+03  0.28596245292E+03  0.47000000000E+01 0. -1.
        -11    1    3    3    0    0 -0.52277294136E+02 -0.57955211952E+02 -0.24578114331E+03  0.25787611848E+03  0.00000000000E+00 0. -1.
         11    1    3    3    0    0  0.29882549550E+02 -0.28852474558E+02 -0.55498673408E+02  0.69321964815E+02  0.00000000000E+00 0.  1.
<mgrwt>
<rscale>  0 0.14681145E+03</rscale>
<asrwt>0</asrwt>
<pdfrwt beam="2">  1        1 0.13780191E+00 0.15382630E+03</pdfrwt>
<pdfrwt beam="1">  1       -1 0.35588698E-02 0.15382630E+03</pdfrwt>
<totfact> 0.55084967E+03</totfact>
</mgrwt>
</event>
<event>
 8    1  0.7550631E-006  0.2287983E+03  0.7546771E-02  0.1130656E+00
          2   -1    0    0  501    0  0.00000000000E+00  0.00000000000E+00  0.99836286076E+03  0.99836286076E+03  0.00000000000E+00 0.  1.
         -2   -1    0    0    0  501 -0.00000000000E+00 -0.00000000000E+00 -0.48987030160E+02  0.48987030160E+02  0.00000000000E+00 0. -1.
         23    2    1    2    0    0 -0.45427502901E+02  0.18617033618E+03  0.40852067288E+03  0.46009104276E+03  0.89841946536E+02 0.  0.
         23    2    1    2    0    0  0.45427502901E+02 -0.18617033618E+03  0.54085515772E+03  0.58725884817E+03  0.12500240409E+03 0.  0.
          5    1    4    4  502    0  0.54082168785E+02 -0.15922192286E+02  0.10581549930E+03  0.11998919568E+03  0.47000000000E+01 0.  1.
         -5    1    4    4    0  502 -0.86546658840E+01 -0.17024814389E+03  0.43503965842E+03  0.46726965249E+03  0.47000000000E+01 0.  1.
        -11    1    3    3    0    0 -0.57514575704E+02  0.17716612053E+03  0.31973765860E+03  0.37003774268E+03  0.00000000000E+00 0. -1.
         11    1    3    3    0    0  0.12087072803E+02  0.90042156438E+01  0.88783014287E+02  0.90053300074E+02  0.00000000000E+00 0.  1.
<mgrwt>
<rscale>  0 0.22438448E+03</rscale>
<asrwt>0</asrwt>
<pdfrwt beam="1">  1        2 0.15359427E+00 0.22879828E+03</pdfrwt>
<pdfrwt beam="2">  1       -2 0.75364669E-02 0.22879828E+03</pdfrwt>
<totfact> 0.27226244E+03</totfact>
</mgrwt>
</event>
<event>
 8    1  0.7550631E-006  0.1673055E+03  0.7546771E-02  0.1187730E+00
          1   -1    0    0  501    0  0.00000000000E+00  0.00000000000E+00  0.78567927163E+03  0.78567927163E+03  0.00000000000E+00 0. -1.
         -1   -1    0    0    0  501 -0.00000000000E+00 -0.00000000000E+00 -0.30898873436E+02  0.30898873436E+02  0.00000000000E+00 0.  1.
         23    2    1    2    0    0  0.91367472118E+02 -0.63305783720E+02  0.31035375145E+03  0.34170325121E+03  0.89922320012E+02 0.  0.
         23    2    1    2    0    0 -0.91367472118E+02  0.63305783720E+02  0.44442664675E+03  0.47487489386E+03  0.12504192602E+03 0.  0.
          5    1    4    4  502    0 -0.19003176927E+02 -0.21796230709E+01 -0.14019814529E+00  0.19697237003E+02  0.47000000000E+01 0.  1.
         -5    1    4    4    0  502 -0.72364295191E+02  0.65485406791E+02  0.44456684490E+03  0.45517765686E+03  0.47000000000E+01 0.  1.
        -11    1    3    3    0    0  0.79389758926E+02 -0.18439153244E+02  0.11530033105E+03  0.14119809678E+03  0.00000000000E+00 0.  1.
         11    1    3    3    0    0  0.11977713192E+02 -0.44866630477E+02  0.19505342039E+03  0.20050515442E+03  0.00000000000E+00 0. -1.
<mgrwt>
<rscale>  0 0.16085965E+03</rscale>
<asrwt>0</asrwt>
<pdfrwt beam="1">  1        1 0.12087372E+00 0.16730547E+03</pdfrwt>
<pdfrwt beam="2">  1       -1 0.47536734E-02 0.16730547E+03</pdfrwt>
<totfact> 0.44172548E+03</totfact>
</mgrwt>
</event>
<event>
 8    1  0.7550631E-006  0.1340931E+03  0.7546771E-02  0.1232925E+00
          1   -1    0    0  501    0  0.00000000000E+00  0.00000000000E+00  0.15815652076E+03  0.15815652076E+03  0.00000000000E+00 0. -1.
         -1   -1    0    0    0  501 -0.00000000000E+00 -0.00000000000E+00 -0.93031605330E+02  0.93031605330E+02  0.00000000000E+00 0.  1.
         23    2    1    2    0    0  0.35147182490E+02  0.33477081438E+02  0.10260383793E+02  0.10630510809E+03  0.94018408366E+02 0.  0.
         23    2    1    2    0    0 -0.35147182490E+02 -0.33477081438E+02  0.54864531638E+02  0.14488301800E+03  0.12499973062E+03 0.  0.
          5    1    4    4  502    0 -0.42692299739E+02 -0.23993031313E+02 -0.30927990878E+02  0.58111346813E+02  0.47000000000E+01 0.  1.
         -5    1    4    4    0  502  0.75451172497E+01 -0.94840501242E+01  0.85792522516E+02  0.86771671188E+02  0.47000000000E+01 0.  1.
        -11    1    3    3    0    0 -0.25317147168E+02  0.32769362690E+02  0.18357989498E+02  0.45296852542E+02  0.00000000000E+00 0.  1.
         11    1    3    3    0    0  0.60464329657E+02  0.70771874793E+00 -0.80976057058E+01  0.61008255547E+02  0.00000000000E+00 0. -1.
<mgrwt>
<rscale>  0 0.12638204E+03</rscale>
<asrwt>0</asrwt>
<pdfrwt beam="1">  1        1 0.24331772E-01 0.13409315E+03</pdfrwt>
<pdfrwt beam="2">  1       -1 0.14312555E-01 0.13409315E+03</pdfrwt>
<totfact> 0.65142867E+03</totfact>
</mgrwt>
</event>
<event>
 8    1  0.7550631E-006  0.1305415E+03  0.7546771E-02  0.1231008E+00
         -1   -1    0    0    0  501 -0.00000000000E+00  0.00000000000E+00  0.86012747609E+02  0.86012747609E+02  0.00000000000E+00 0.  1.
          1   -1    0    0  501    0  0.00000000000E+00 -0.00000000000E+00 -0.19398551737E+03  0.19398551737E+03  0.00000000000E+00 0. -1.
         23    2    1    2    0    0  0.32243196712E+02  0.56638522557E+02 -0.16123628085E+02  0.12038204832E+03  0.99921570264E+02 0.  0.
         23    2    1    2    0    0 -0.32243196712E+02 -0.56638522557E+02 -0.91849141678E+02  0.15961621666E+03  0.11310846927E+03 0.  0.
          5    1    4    4  502    0 -0.16283459270E+02 -0.77266340515E+02 -0.10383249961E+03  0.13053166818E+03  0.47000000000E+01 0. -1.
         -5    1    4    4    0  502 -0.15959737441E+02  0.20627817958E+02  0.11983357932E+02  0.29084548479E+02  0.47000000000E+01 0.  1.
        -11    1    3    3    0    0  0.26211062829E+02  0.82312199266E+02 -0.28882300301E+02  0.91085153749E+02  0.00000000000E+00 0.  1.
         11    1    3    3    0    0  0.60321338831E+01 -0.25673676709E+02  0.12758672216E+02  0.29296894574E+02  0.00000000000E+00 0. -1.
<mgrwt>
<rscale>  0 0.12763479E+03</rscale>
<asrwt>0</asrwt>
<pdfrwt beam="2">  1        1 0.29843926E-01 0.13054146E+03</pdfrwt>
<pdfrwt beam="1">  1       -1 0.13232730E-01 0.13054146E+03</pdfrwt>
<totfact> 0.56927225E+03</totfact>
</mgrwt>
</event>
<event>
 8    1  0.7550631E-006  0.1480095E+03  0.7546771E-02  0.1212275E+00
          1   -1    0    0  501    0  0.00000000000E+00  0.00000000000E+00  0.80777654786E+03  0.80777654786E+03  0.00000000000E+00 0. -1.
         -1   -1    0    0    0  501 -0.00000000000E+00 -0.00000000000E+00 -0.23730403286E+02  0.23730403286E+02  0.00000000000E+00 0.  1.
         23    2    1    2    0    0  0.26845463294E+02 -0.74567231155E+02  0.25798005566E+03  0.28501602228E+03  0.91648638711E+02 0.  0.
         23    2    1    2    0    0 -0.26845463294E+02  0.74567231155E+02  0.52606608891E+03  0.54649092886E+03  0.12500341820E+03 0.  0.
          5    1    4    4  502    0 -0.21696309789E+01  0.10674173593E+03  0.39630835722E+03  0.41046426091E+03  0.47000000000E+01 0.  1.
         -5    1    4    4    0  502 -0.24675832315E+02 -0.32174504776E+02  0.12975773169E+03  0.13602666795E+03  0.47000000000E+01 0.  1.
        -11    1    3    3    0    0  0.24858373864E+02 -0.25713543493E+01  0.10220409105E+02  0.27000136603E+02  0.00000000000E+00 0.  1.
         11    1    3    3    0    0  0.19870894306E+01 -0.71995876806E+02  0.24775964656E+03  0.25801588568E+03  0.00000000000E+00 0. -1.
<mgrwt>
<rscale>  0 0.14078600E+03</rscale>
<asrwt>0</asrwt>
<pdfrwt beam="1">  1        1 0.12427329E+00 0.14800948E+03</pdfrwt>
<pdfrwt beam="2">  1       -1 0.36508319E-02 0.14800948E+03</pdfrwt>
<totfact> 0.62207267E+03</totfact>
</mgrwt>
</event>
<event>
 8    1  0.7550631E-006  0.1420286E+03  0.7546771E-02  0.1221801E+00
          3   -1    0    0  501    0  0.00000000000E+00  0.00000000000E+00  0.15350415080E+03  0.15350415080E+03  0.00000000000E+00 0. -1.
         -3   -1    0    0    0  501 -0.00000000000E+00 -0.00000000000E+00 -0.10888160010E+03  0.10888160010E+03  0.00000000000E+00 0.  1.
         23    2    1    2    0    0 -0.66933162227E+02 -0.81974685292E+01 -0.41144187788E+01  0.11222775543E+03  0.89615255129E+02 0.  0.
         23    2    1    2    0    0  0.66933162227E+02  0.81974685292E+01  0.48736969483E+02  0.15015799547E+03  0.12499953885E+03 0.  0.
          5    1    4    4  502    0 -0.21521596339E+02 -0.33010519059E+02  0.32128312812E+02  0.51060669420E+02  0.47000000000E+01 0. -1.
         -5    1    4    4    0  502  0.88454758566E+02  0.41207987588E+02  0.16608656671E+02  0.99097326051E+02  0.47000000000E+01 0. -1.
        -11    1    3    3    0    0 -0.67122205446E+02 -0.28210067863E+02 -0.30644499107E+02  0.78995466441E+02  0.00000000000E+00 0.  1.
         11    1    3    3    0    0  0.18904321898E+00  0.20012599334E+02  0.26530080328E+02  0.33232288992E+02  0.00000000000E+00 0. -1.
<mgrwt>
<rscale>  0 0.13388563E+03</rscale>
<asrwt>0</asrwt>
<pdfrwt beam="1">  1        3 0.23616023E-01 0.14202863E+03</pdfrwt>
<pdfrwt beam="2">  1       -3 0.16751015E-01 0.14202863E+03</pdfrwt>
<totfact> 0.11844857E+03</totfact>
</mgrwt>
</event>
<event>
 8    1  0.7550631E-006  0.1598890E+03  0.7546771E-02  0.1195989E+00
          1   -1    0    0  501    0  0.00000000000E+00  0.00000000000E+00  0.97511559826E+02  0.97511559826E+02  0.00000000000E+00 0. -1.
         -1   -1    0    0    0  501 -0.00000000000E+00 -0.00000000000E+00 -0.26469487935E+03  0.26469487935E+03  0.00000000000E+00 0.  1.
         23    2    1    2    0    0  0.87897435874E+02 -0.52995337108E+02 -0.14766114752E+03  0.20113002682E+03  0.90083340366E+02 0.  0.
         23    2    1    2    0    0 -0.87897435874E+02  0.52995337108E+02 -0.19522172007E+02  0.16107641236E+03  0.12259702456E+03 0.  0.
          5    1    4    4  502    0 -0.83711829833E+02  0.31167117900E+02  0.39538015659E+02  0.97797772850E+02  0.47000000000E+01 0. -1.
         -5    1    4    4    0  502 -0.41856060409E+01  0.21828219208E+02 -0.59060187666E+02  0.63278639515E+02  0.47000000000E+01 0.  1.
        -11    1    3    3    0    0  0.86008426742E+02 -0.11381365337E+02 -0.12905640007E+03  0.15550736107E+03  0.00000000000E+00 0.  1.
         11    1    3    3    0    0  0.18890091316E+01 -0.41613971771E+02 -0.18604747447E+02  0.45622665744E+02  0.00000000000E+00 0. -1.
<mgrwt>
<rscale>  0 0.15370829E+03</rscale>
<asrwt>0</asrwt>
<pdfrwt beam="1">  1        1 0.15001779E-01 0.15988901E+03</pdfrwt>
<pdfrwt beam="2">  1       -1 0.40722288E-01 0.15988901E+03</pdfrwt>
<totfact> 0.21794276E+03</totfact>
</mgrwt>
</event>
<event>
 8    1  0.7550631E-006  0.1282286E+03  0.7546771E-02  0.1236543E+00
          2   -1    0    0  501    0  0.00000000000E+00  0.00000000000E+00  0.20834061592E+03  0.20834061592E+03  0.00000000000E+00 0. -1.
         -2   -1    0    0    0  501 -0.00000000000E+00 -0.00000000000E+00 -0.94211415870E+02  0.94211415870E+02  0.00000000000E+00 0.  1.
         23    2    1    2    0    0 -0.27290299907E+02 -0.84922873315E+01 -0.23133608757E+02  0.11471261374E+03  0.10865974639E+03 0.  0.
         23    2    1    2    0    0  0.27290299907E+02  0.84922873315E+01  0.13726280880E+03  0.18783941804E+03  0.12500275548E+03 0.  0.
          5    1    4    4  502    0  0.40039142654E+02  0.51194410001E+02  0.12565915801E+03  0.14154968934E+03  0.47000000000E+01 0. -1.
         -5    1    4    4    0  502 -0.12748842748E+02 -0.42702122669E+02  0.11603650793E+02  0.46289728705E+02  0.47000000000E+01 0. -1.
        -11    1    3    3    0    0 -0.40169104361E+02 -0.52283334206E+02 -0.20266549309E+02  0.68977075915E+02  0.00000000000E+00 0.  1.
         11    1    3    3    0    0  0.12878804454E+02  0.43791046875E+02 -0.28670594483E+01  0.45735537828E+02  0.00000000000E+00 0. -1.
<mgrwt>
<rscale>  0 0.12406163E+03</rscale>
<asrwt>0</asrwt>
<pdfrwt beam="1">  1        2 0.32052402E-01 0.12822858E+03</pdfrwt>
<pdfrwt beam="2">  1       -2 0.14494064E-01 0.12822858E+03</pdfrwt>
<totfact> 0.56146924E+03</totfact>
</mgrwt>
</event>
<event>
 8    1  0.7550631E-006  0.1271824E+03  0.7546771E-02  0.1246845E+00
         -1   -1    0    0    0  501 -0.00000000000E+00  0.00000000000E+00  0.70210840350E+02  0.70210840350E+02  0.00000000000E+00 0.  1.
          1   -1    0    0  501    0  0.00000000000E+00 -0.00000000000E+00 -0.38084045203E+03  0.38084045203E+03  0.00000000000E+00 0. -1.
         23    2    1    2    0    0 -0.22312298749E+02 -0.71851734077E+01  0.21064213651E+02  0.95810294502E+02  0.90478981225E+02 0.  0.
         23    2    1    2    0    0  0.22312298749E+02  0.71851734077E+01 -0.33169382533E+03  0.35524099788E+03  0.12500362962E+03 0.  0.
          5    1    4    4  502    0 -0.11915288250E+01  0.55472485361E+02 -0.77722084329E+02  0.95610819291E+02  0.47000000000E+01 0. -1.
         -5    1    4    4    0  502  0.23503827574E+02 -0.48287311953E+02 -0.25397174101E+03  0.25963017859E+03  0.47000000000E+01 0. -1.
        -11    1    3    3    0    0 -0.41975763943E+02 -0.11004055968E+02 -0.21751584639E+02  0.48540554598E+02  0.00000000000E+00 0. -1.
         11    1    3    3    0    0  0.19663465194E+02  0.38188825601E+01  0.42815798290E+02  0.47269739904E+02  0.00000000000E+00 0.  1.
<mgrwt>
<rscale>  0 0.11775623E+03</rscale>
<asrwt>0</asrwt>
<pdfrwt beam="2">  1        1 0.58590838E-01 0.12718244E+03</pdfrwt>
<pdfrwt beam="1">  1       -1 0.10801668E-01 0.12718244E+03</pdfrwt>
<totfact> 0.33699664E+03</totfact>
</mgrwt>
</event>
<event>
 8    1  0.7550631E-006  0.1530526E+03  0.7546771E-02  0.1205445E+00
          1   -1    0    0  501    0  0.00000000000E+00  0.00000000000E+00  0.85567272642E+02  0.85567272642E+02  0.00000000000E+00 0. -1.
         -1   -1    0    0    0  501 -0.00000000000E+00 -0.00000000000E+00 -0.23797714708E+03  0.23797714708E+03  0.00000000000E+00 0.  1.
         23    2    1    2    0    0  0.53850636263E+02 -0.69996551238E+02 -0.10088477319E+03  0.16205156680E+03  0.91014090283E+02 0.  0.
         23    2    1    2    0    0 -0.53850636263E+02  0.69996551238E+02 -0.51525101246E+02  0.16149285292E+03  0.12500278907E+03 0.  0.
          5    1    4    4  502    0 -0.28834869396E+02  0.48356058550E+02  0.36553717926E+02  0.67290581703E+02  0.47000000000E+01 0. -1.
         -5    1    4    4    0  502 -0.25015766866E+02  0.21640492688E+02 -0.88078819172E+02  0.94202271217E+02  0.47000000000E+01 0. -1.
        -11    1    3    3    0    0  0.14169897602E+02 -0.77033399563E+02 -0.37257541014E+02  0.86735546396E+02  0.00000000000E+00 0. -1.
         11    1    3    3    0    0  0.39680738661E+02  0.70368483253E+01 -0.63627232181E+02  0.75316020408E+02  0.00000000000E+00 0.  1.
<mgrwt>
<rscale>  0 0.14602472E+03</rscale>
<asrwt>0</asrwt>
<pdfrwt beam="1">  1        1 0.13164196E-01 0.15305262E+03</pdfrwt>
<pdfrwt beam="2">  1       -1 0.36611869E-01 0.15305262E+03</pdfrwt>
<totfact> 0.31068857E+03</totfact>
</mgrwt>
</event>
<event>
 7    1  0.7550631E-006  0.1426626E+03  0.7546771E-02  0.1225048E+00
         -2   -1    0    0    0  501 -0.00000000000E+00  0.00000000000E+00  0.22737261422E+02  0.22737261422E+02  0.00000000000E+00 0.  1.
          2   -1    0    0  501    0  0.00000000000E+00 -0.00000000000E+00 -0.10821102987E+04  0.10821102987E+04  0.00000000000E+00 0. -1.
         23    2    1    2    0    0 -0.25360091569E+02  0.29745461103E+02 -0.13774154755E+03  0.17223980091E+03  0.95738646307E+02 0.  0.
          5    1    1    2  502    0  0.27174806611E+02  0.44756290964E+02 -0.18882282837E+03  0.19600445456E+03  0.47000000000E+01 0. -1.
         -5    1    1    2    0  502 -0.18147150421E+01 -0.74501752067E+02 -0.73280866141E+03  0.73660330469E+03  0.47000000000E+01 0.  1.
        -11    1    3    3    0    0 -0.11157533464E+02  0.57745989079E+02 -0.44204111403E+02  0.73573726783E+02  0.00000000000E+00 0.  1.
         11    1    3    3    0    0 -0.14202558105E+02 -0.28000527976E+02 -0.93537436143E+02  0.98666074128E+02  0.00000000000E+00 0. -1.
<mgrwt>
<rscale>  0 0.13163588E+03</rscale>
<asrwt>0</asrwt>
<pdfrwt beam="2">  1        2 0.16647854E+00 0.14266264E+03</pdfrwt>
<pdfrwt beam="1">  1       -2 0.34980395E-02 0.14266264E+03</pdfrwt>
<totfact> 0.76634616E+03</totfact>
</mgrwt>
</event>
<event>
 8    1  0.7550631E-006  0.1335371E+03  0.7546771E-02  0.1234653E+00
          1   -1    0    0  501    0  0.00000000000E+00  0.00000000000E+00  0.12934024694E+04  0.12934024694E+04  0.00000000000E+00 0. -1.
         -1   -1    0    0    0  501 -0.00000000000E+00 -0.00000000000E+00 -0.15525984849E+02  0.15525984849E+02  0.00000000000E+00 0.  1.
         23    2    1    2    0    0  0.45911470221E+02  0.95552813976E+01  0.22507608664E+03  0.24769293337E+03  0.92159524548E+02 0.  0.
         23    2    1    2    0    0 -0.45911470221E+02 -0.95552813976E+01  0.10528003980E+04  0.10612355209E+04  0.12503194163E+03 0.  0.
          5    1    4    4  502    0 -0.87697131723E+02 -0.65244368125E+01  0.81318916531E+03  0.81794380233E+03  0.47000000000E+01 0. -1.
         -5    1    4    4    0  502  0.41785661501E+02 -0.30308445851E+01  0.23961123264E+03  0.24329171859E+03  0.47000000000E+01 0. -1.
        -11    1    3    3    0    0  0.83903837776E+01  0.26919632495E+02  0.12002364359E+02  0.30645095918E+02  0.00000000000E+00 0.  1.
         11    1    3    3    0    0  0.37521086444E+02 -0.17364351098E+02  0.21307372228E+03  0.21704783745E+03  0.00000000000E+00 0. -1.
<mgrwt>
<rscale>  0 0.12526696E+03</rscale>
<asrwt>0</asrwt>
<pdfrwt beam="1">  1        1 0.19898491E+00 0.13353708E+03</pdfrwt>
<pdfrwt beam="2">  1       -1 0.23886141E-02 0.13353708E+03</pdfrwt>
<totfact> 0.51040550E+03</totfact>
</mgrwt>
</event>
<event>
 8    1  0.7550631E-006  0.1472455E+03  0.7546771E-02  0.1214094E+00
          1   -1    0    0  501    0  0.00000000000E+00  0.00000000000E+00  0.19673865625E+03  0.19673865625E+03  0.00000000000E+00 0. -1.
         -1   -1    0    0    0  501 -0.00000000000E+00 -0.00000000000E+00 -0.95535659631E+02  0.95535659631E+02  0.00000000000E+00 0.  1.
         23    2    1    2    0    0  0.85963342017E+01  0.77293222970E+02  0.94271259449E+01  0.11876914287E+03  0.89269811892E+02 0.  0.
         23    2    1    2    0    0 -0.85963342017E+01 -0.77293222970E+02  0.91775870672E+02  0.17350517301E+03  0.12503237719E+03 0.  0.
          5    1    4    4  502    0  0.46941935508E+02 -0.19451445341E+02  0.76160294079E+02  0.91675429801E+02  0.47000000000E+01 0. -1.
         -5    1    4    4    0  502 -0.55538269709E+02 -0.57841777629E+02  0.15615576592E+02  0.81829743210E+02  0.47000000000E+01 0. -1.
        -11    1    3    3    0    0  0.43450327712E+02  0.51005430215E+02 -0.15115337269E+02  0.68687395572E+02  0.00000000000E+00 0.  1.
         11    1    3    3    0    0 -0.34853993510E+02  0.26287792755E+02  0.24542463214E+02  0.50081747296E+02  0.00000000000E+00 0. -1.
<mgrwt>
<rscale>  0 0.13943260E+03</rscale>
<asrwt>0</asrwt>
<pdfrwt beam="1">  1        1 0.30267485E-01 0.14724549E+03</pdfrwt>
<pdfrwt beam="2">  1       -1 0.14697794E-01 0.14724549E+03</pdfrwt>
<totfact> 0.47834675E+03</totfact>
</mgrwt>
</event>
<event>
 8    1  0.7550631E-006  0.1269789E+03  0.7546771E-02  0.1243993E+00
         -3   -1    0    0    0  501 -0.00000000000E+00  0.00000000000E+00  0.25395334277E+02  0.25395334277E+02  0.00000000000E+00 0.  1.
          3   -1    0    0  501    0  0.00000000000E+00 -0.00000000000E+00 -0.58518706575E+03  0.58518706575E+03  0.00000000000E+00 0. -1.
         23    2    1    2    0    0 -0.47021156441E+01  0.21851190644E+02 -0.13812744480E+03  0.17021390095E+03  0.96922632256E+02 0.  0.
         23    2    1    2    0    0  0.47021156441E+01 -0.21851190644E+02 -0.42166428667E+03  0.44036849908E+03  0.12499623957E+03 0.  0.
          5    1    4    4  502    0 -0.13406157128E+02  0.35554411746E+02 -0.31882183189E+03  0.32111258420E+03  0.47000000000E+01 0.  1.
         -5    1    4    4    0  502  0.18108272772E+02 -0.57405602390E+02 -0.10284245478E+03  0.11925591488E+03  0.47000000000E+01 0.  1.
        -11    1    3    3    0    0 -0.30282586580E+02  0.38340521835E+02 -0.28766236536E+02  0.56696799107E+02  0.00000000000E+00 0.  1.
         11    1    3    3    0    0  0.25580470936E+02 -0.16489331191E+02 -0.10936120827E+03  0.11351710184E+03  0.00000000000E+00 0. -1.
<mgrwt>
<rscale>  0 0.11945873E+03</rscale>
<asrwt>0</asrwt>
<pdfrwt beam="2">  1        3 0.90028771E-01 0.12697891E+03</pdfrwt>
<pdfrwt beam="1">  1       -3 0.39069749E-02 0.12697891E+03</pdfrwt>
<totfact> 0.88561006E+02</totfact>
</mgrwt>
</event>
<event>
 7    1  0.7550631E-006  0.4551256E+03  0.7546771E-02  0.1026204E+00
         -1   -1    0    0    0  501 -0.00000000000E+00  0.00000000000E+00  0.42024400701E+03  0.42024400701E+03  0.00000000000E+00 0.  1.
          1   -1    0    0  501    0  0.00000000000E+00 -0.00000000000E+00 -0.12322562634E+03  0.12322562634E+03  0.00000000000E+00 0. -1.
         23    2    1    2    0    0  0.10022189226E+03 -0.53583827779E+02  0.18677443118E+03  0.23681213072E+03  0.90992542681E+02 0.  0.
          5    1    1    2  502    0  0.86568663834E+02 -0.75647135778E+01  0.52991404594E+02  0.10188982977E+03  0.47000000000E+01 0. -1.
         -5    1    1    2    0  502 -0.18679055609E+03  0.61148541356E+02  0.57252544891E+02  0.20476767287E+03  0.47000000000E+01 0.  1.
        -11    1    3    3    0    0  0.42244237846E+02 -0.67406250961E+02  0.14009887327E+03  0.16110826358E+03  0.00000000000E+00 0.  1.
         11    1    3    3    0    0  0.57977654414E+02  0.13822423182E+02  0.46675557907E+02  0.75703867140E+02  0.00000000000E+00 0. -1.
<mgrwt>
<rscale>  0 0.45512561E+03</rscale>
<asrwt>0</asrwt>
<pdfrwt beam="2">  1        1 0.18957789E-01 0.45512561E+03</pdfrwt>
<pdfrwt beam="1">  1       -1 0.64652923E-01 0.45512561E+03</pdfrwt>
<totfact> 0.68907652E+02</totfact>
</mgrwt>
</event>
<event>
 8    1  0.7550631E-006  0.1288943E+03  0.7546771E-02  0.1243776E+00
         -2   -1    0    0    0  501 -0.00000000000E+00  0.00000000000E+00  0.10977949114E+03  0.10977949114E+03  0.00000000000E+00 0.  1.
          2   -1    0    0  501    0  0.00000000000E+00 -0.00000000000E+00 -0.11917547947E+03  0.11917547947E+03  0.00000000000E+00 0. -1.
         23    2    1    2    0    0  0.31300043044E+02 -0.31733199638E+01  0.17962063394E+02  0.97189267041E+02  0.90185116580E+02 0.  0.
         23    2    1    2    0    0 -0.31300043044E+02  0.31733199638E+01 -0.27358051724E+02  0.13176570357E+03  0.12499589989E+03 0.  0.
          5    1    4    4  502    0 -0.38045881228E+02  0.46664132786E+02  0.23088616230E+02  0.64654501518E+02  0.47000000000E+01 0.  1.
         -5    1    4    4    0  502  0.67458381836E+01 -0.43490812823E+02 -0.50446667955E+02  0.67111202049E+02  0.47000000000E+01 0.  1.
        -11    1    3    3    0    0 -0.15188754890E+02  0.18542551579E+02 -0.21702918118E+02  0.32334828730E+02  0.00000000000E+00 0. -1.
         11    1    3    3    0    0  0.46488797934E+02 -0.21715871543E+02  0.39664981513E+02  0.64854438311E+02  0.00000000000E+00 0.  1.
<mgrwt>
<rscale>  0 0.11958953E+03</rscale>
<asrwt>0</asrwt>
<pdfrwt beam="2">  1        2 0.18334689E-01 0.12889429E+03</pdfrwt>
<pdfrwt beam="1">  1       -2 0.16889152E-01 0.12889429E+03</pdfrwt>
<totfact> 0.81063670E+03</totfact>
</mgrwt>
</event>
<event>
 8    1  0.7550631E-006  0.1649309E+03  0.7546771E-02  0.1190457E+00
         -2   -1    0    0    0  501 -0.00000000000E+00  0.00000000000E+00  0.11415891867E+03  0.11415891867E+03  0.00000000000E+00 0.  1.
          2   -1    0    0  501    0  0.00000000000E+00 -0.00000000000E+00 -0.20429164140E+03  0.20429164140E+03  0.00000000000E+00 0. -1.
         23    2    1    2    0    0 -0.10610039772E+03 -0.17858704846E+02 -0.41538794288E+02  0.14650999099E+03  0.90351968955E+02 0.  0.
         23    2    1    2    0    0  0.10610039772E+03  0.17858704846E+02 -0.48593928439E+02  0.17194056908E+03  0.12500384665E+03 0.  0.
          5    1    4    4  502    0  0.89552044242E+02  0.67330472610E+02 -0.38758653832E+02  0.11864773245E+03  0.47000000000E+01 0. -1.
         -5    1    4    4    0  502  0.16548353478E+02 -0.49471767764E+02 -0.98352746075E+01  0.53292836621E+02  0.47000000000E+01 0. -1.
        -11    1    3    3    0    0 -0.11756305618E+02 -0.15175978087E+02  0.24641884703E+02  0.31236893482E+02  0.00000000000E+00 0.  1.
         11    1    3    3    0    0 -0.94344092102E+02 -0.26827267588E+01 -0.66180678992E+02  0.11527309751E+03  0.00000000000E+00 0. -1.
<mgrwt>
<rscale>  0 0.15845065E+03</rscale>
<asrwt>0</asrwt>
<pdfrwt beam="2">  1        2 0.31429483E-01 0.16493086E+03</pdfrwt>
<pdfrwt beam="1">  1       -2 0.17562911E-01 0.16493086E+03</pdfrwt>
<totfact> 0.42412971E+03</totfact>
</mgrwt>
</event>
<event>
 8    1  0.7550631E-006  0.1393644E+03  0.7546771E-02  0.1225295E+00
          1   -1    0    0  501    0  0.00000000000E+00  0.00000000000E+00  0.61823508627E+02  0.61823508627E+02  0.00000000000E+00 0. -1.
         -1   -1    0    0    0  501 -0.00000000000E+00 -0.00000000000E+00 -0.29417609793E+03  0.29417609793E+03  0.00000000000E+00 0.  1.
         23    2    1    2    0    0 -0.11259787220E+02 -0.60596245489E+02 -0.17147405383E+03  0.20391864460E+03  0.91546571219E+02 0.  0.
         23    2    1    2    0    0  0.11259787220E+02  0.60596245489E+02 -0.60878535472E+02  0.15208096196E+03  0.12499494043E+03 0.  0.
          5    1    4    4  502    0  0.79181891433E+01  0.49917083842E+02 -0.99444716258E+02  0.11165014362E+03  0.47000000000E+01 0.  1.
         -5    1    4    4    0  502  0.33415980764E+01  0.10679161647E+02  0.38566180786E+02  0.40430818340E+02  0.47000000000E+01 0.  1.
        -11    1    3    3    0    0 -0.43060774710E+02 -0.32578090491E+02 -0.14301124129E+03  0.15286522637E+03  0.00000000000E+00 0. -1.
         11    1    3    3    0    0  0.31800987490E+02 -0.28018154998E+02 -0.28462812542E+02  0.51053418227E+02  0.00000000000E+00 0.  1.
<mgrwt>
<rscale>  0 0.13146716E+03</rscale>
<asrwt>0</asrwt>
<pdfrwt beam="1">  1        1 0.95113089E-02 0.13936435E+03</pdfrwt>
<pdfrwt beam="2">  1       -1 0.45257862E-01 0.13936435E+03</pdfrwt>
<totfact> 0.32684471E+03</totfact>
</mgrwt>
</event>
<event>
 8    1  0.7550631E-006  0.1575518E+03  0.7546771E-02  0.1199857E+00
         -1   -1    0    0    0  501 -0.00000000000E+00  0.00000000000E+00  0.89161716793E+02  0.89161716793E+02  0.00000000000E+00 0.  1.
          1   -1    0    0  501    0  0.00000000000E+00 -0.00000000000E+00 -0.32019092657E+03  0.32019092657E+03  0.00000000000E+00 0. -1.
         23    2    1    2    0    0  0.86285968980E+02  0.41859081161E+02 -0.18051083541E+01  0.13120474691E+03  0.89520813646E+02 0.  0.
         23    2    1    2    0    0 -0.86285968980E+02 -0.41859081161E+02 -0.22922410143E+03  0.27814789646E+03  0.12500045005E+03 0.  0.
          5    1    4    4  502    0 -0.45915675285E+02  0.42207013062E+02 -0.72834938389E+02  0.96003642841E+02  0.47000000000E+01 0. -1.
         -5    1    4    4    0  502 -0.40370293695E+02 -0.84066094224E+02 -0.15638916304E+03  0.18214425362E+03  0.47000000000E+01 0. -1.
        -11    1    3    3    0    0  0.47844186412E+02  0.48835932129E+02  0.35630960017E+02  0.77094615584E+02  0.00000000000E+00 0. -1.
         11    1    3    3    0    0  0.38441782569E+02 -0.69768509680E+01 -0.37436068371E+02  0.54110131321E+02  0.00000000000E+00 0.  1.
<mgrwt>
<rscale>  0 0.15050281E+03</rscale>
<asrwt>0</asrwt>
<pdfrwt beam="2">  1        1 0.49260143E-01 0.15755178E+03</pdfrwt>
<pdfrwt beam="1">  1       -1 0.13717187E-01 0.15755178E+03</pdfrwt>
<totfact> 0.29195145E+03</totfact>
</mgrwt>
</event>
<event>
 8    1  0.7550631E-006  0.1403145E+03  0.7546771E-02  0.1224030E+00
         -2   -1    0    0    0  501 -0.00000000000E+00  0.00000000000E+00  0.17942942383E+03  0.17942942383E+03  0.00000000000E+00 0.  1.
          2   -1    0    0  501    0  0.00000000000E+00 -0.00000000000E+00 -0.90200191536E+02  0.90200191536E+02  0.00000000000E+00 0. -1.
         23    2    1    2    0    0 -0.15178494560E+02  0.61903064615E+02  0.18696145669E+02  0.11258475501E+03  0.90903273277E+02 0.  0.
         23    2    1    2    0    0  0.15178494560E+02 -0.61903064615E+02  0.70533086630E+02  0.15704486036E+03  0.12500318296E+03 0.  0.
          5    1    4    4  502    0  0.34569006923E+01 -0.78931870064E+02  0.95667356106E+02  0.12416329288E+03  0.47000000000E+01 0. -1.
         -5    1    4    4    0  502  0.11721593867E+02  0.17028805450E+02 -0.25134269476E+02  0.32881567480E+02  0.47000000000E+01 0. -1.
        -11    1    3    3    0    0  0.12005547059E+02  0.23731468077E+02 -0.33280542962E+02  0.42601763779E+02  0.00000000000E+00 0. -1.
         11    1    3    3    0    0 -0.27184041618E+02  0.38171596538E+02  0.51976688631E+02  0.69982991233E+02  0.00000000000E+00 0.  1.
<mgrwt>
<rscale>  0 0.13233625E+03</rscale>
<asrwt>0</asrwt>
<pdfrwt beam="2">  1        2 0.13876953E-01 0.14031455E+03</pdfrwt>
<pdfrwt beam="1">  1       -2 0.27604527E-01 0.14031455E+03</pdfrwt>
<totfact> 0.48632266E+03</totfact>
</mgrwt>
</event>
<event>
 7    1  0.7550631E-006  0.4871458E+03  0.7546771E-02  0.1017819E+00
         -1   -1    0    0    0  501 -0.00000000000E+00  0.00000000000E+00  0.10192940667E+04  0.10192940667E+04  0.00000000000E+00 0.  1.
          1   -1    0    0  501    0  0.00000000000E+00 -0.00000000000E+00 -0.30489713390E+03  0.30489713390E+03  0.00000000000E+00 0. -1.
         23    2    1    2    0    0  0.44805970505E+03 -0.11832459893E+03  0.68621717792E+03  0.83623107191E+03  0.11674836340E+03 0.  0.
          5    1    3    3  502    0  0.12256312390E+02 -0.41549614414E-01  0.75778743086E+02  0.76907261188E+02  0.47000000000E+01 0. -1.
         -5    1    3    3    0  502  0.43580339266E+03 -0.11828304932E+03  0.61043843483E+03  0.75932381072E+03  0.47000000000E+01 0.  1.
        -11    1    1    2    0    0 -0.36959256991E+02 -0.19789834344E+02 -0.28350938810E+02  0.50610275164E+02  0.00000000000E+00 0.  1.
         11    1    1    2    0    0 -0.41110044806E+03  0.13811443328E+03  0.56530693716E+02  0.43734985355E+03  0.00000000000E+00 0. -1.
<mgrwt>
<rscale>  0 0.48481768E+03</rscale>
<asrwt>0</asrwt>
<pdfrwt beam="2">  1        1 0.46907252E-01 0.48714576E+03</pdfrwt>
<pdfrwt beam="1">  1       -1 0.15681447E+00 0.48714576E+03</pdfrwt>
<totfact> 0.27992271E+01</totfact>
</mgrwt>
</event>
<event>
 8    1  0.7550631E-006  0.2540761E+03  0.7546771E-02  0.1111778E+00
         -1   -1    0    0    0  501 -0.00000000000E+00  0.00000000000E+00  0.25199281502E+03  0.25199281502E+03  0.00000000000E+00 0.  1.
          1   -1    0    0  501    0  0.00000000000E+00 -0.00000000000E+00 -0.25175393660E+03  0.25175393660E+03  0.00000000000E+00 0. -1.
         23    2    1    2    0    0  0.22114389849E+03 -0.49797075175E+01 -0.22912066535E+02  0.24861810988E+03  0.11116015670E+03 0.  0.
         23    2    1    2    0    0 -0.22114389849E+03  0.49797075175E+01  0.23150944957E+02  0.25512864174E+03  0.12500094502E+03 0.  0.
          5    1    4    4  502    0  0.14755906408E+02  0.77757088446E+01 -0.34560340255E+01  0.17670104503E+02  0.47000000000E+01 0.  1.
         -5    1    4    4    0  502 -0.23589980490E+03 -0.27960013272E+01  0.26606978982E+02  0.23745853724E+03  0.47000000000E+01 0.  1.
        -11    1    3    3    0    0  0.21885951337E+03 -0.28623177861E+02 -0.32304967100E+02  0.22307483902E+03  0.00000000000E+00 0.  1.
         11    1    3    3    0    0  0.22843851262E+01  0.23643470343E+02  0.93929005651E+01  0.25543270862E+02  0.00000000000E+00 0. -1.
<mgrwt>
<rscale>  0 0.25243118E+03</rscale>
<asrwt>0</asrwt>
<pdfrwt beam="2">  1        1 0.38731375E-01 0.25407609E+03</pdfrwt>
<pdfrwt beam="1">  1       -1 0.38768125E-01 0.25407609E+03</pdfrwt>
<totfact> 0.71650969E+02</totfact>
</mgrwt>
</event>
<event>
 8    1  0.7550631E-006  0.1711074E+03  0.7546771E-02  0.1182920E+00
          1   -1    0    0  501    0  0.00000000000E+00  0.00000000000E+00  0.34616868575E+03  0.34616868575E+03  0.00000000000E+00 0. -1.
         -1   -1    0    0    0  501 -0.00000000000E+00 -0.00000000000E+00 -0.92283177607E+02  0.92283177607E+02  0.00000000000E+00 0.  1.
         23    2    1    2    0    0  0.58645502315E+02  0.10105129496E+03  0.22172784399E+02  0.15040930164E+03  0.92090534238E+02 0.  0.
         23    2    1    2    0    0 -0.58645502315E+02 -0.10105129496E+03  0.23171272375E+03  0.28804256172E+03  0.12500828717E+03 0.  0.
          5    1    4    4  502    0 -0.58595814868E+02  0.74008406940E+01  0.56139843081E+02  0.81621161130E+02  0.47000000000E+01 0. -1.
         -5    1    4    4    0  502 -0.49687446546E-01 -0.10845213565E+03  0.17557288067E+03  0.20642140059E+03  0.47000000000E+01 0. -1.
        -11    1    3    3    0    0  0.43370186423E+02  0.16596920075E+02  0.41676037875E+02  0.62396497973E+02  0.00000000000E+00 0.  1.
         11    1    3    3    0    0  0.15275315892E+02  0.84454374886E+02 -0.19503253475E+02  0.88012803665E+02  0.00000000000E+00 0. -1.
<mgrwt>
<rscale>  0 0.16522565E+03</rscale>
<asrwt>0</asrwt>
<pdfrwt beam="1">  1        1 0.53256720E-01 0.17110737E+03</pdfrwt>
<pdfrwt beam="2">  1       -1 0.14197412E-01 0.17110737E+03</pdfrwt>
<totfact> 0.25166804E+03</totfact>
</mgrwt>
</event>
<event>
 8    1  0.7550631E-006  0.1339853E+03  0.7546771E-02  0.1234718E+00
         -1   -1    0    0    0  501 -0.00000000000E+00  0.00000000000E+00  0.86192905594E+02  0.86192905594E+02  0.00000000000E+00 0.  1.
          1   -1    0    0  501    0  0.00000000000E+00 -0.00000000000E+00 -0.22351628210E+03  0.22351628210E+03  0.00000000000E+00 0. -1.
         23    2    1    2    0    0  0.16478281036E+02  0.45330919716E+02  0.18828953163E+02  0.10395297492E+03  0.90140254547E+02 0.  0.
         23    2    1    2    0    0 -0.16478281036E+02 -0.45330919716E+02 -0.15615232967E+03  0.20575621277E+03  0.12500257199E+03 0.  0.
          5    1    4    4  502    0  0.44856191671E+02 -0.55621093179E+02 -0.82401368677E+02  0.10916894933E+03  0.47000000000E+01 0.  1.
         -5    1    4    4    0  502 -0.61334472707E+02  0.10290173463E+02 -0.73750960994E+02  0.96587263445E+02  0.47000000000E+01 0.  1.
        -11    1    3    3    0    0  0.34687729113E+02 -0.42742784230E+01 -0.18222791059E+02  0.39415455358E+02  0.00000000000E+00 0. -1.
         11    1    3    3    0    0 -0.18209448077E+02  0.49605198139E+02  0.37051744222E+02  0.64537519564E+02  0.00000000000E+00 0.  1.
<mgrwt>
<rscale>  0 0.12522506E+03</rscale>
<asrwt>0</asrwt>
<pdfrwt beam="2">  1        1 0.34387120E-01 0.13398533E+03</pdfrwt>
<pdfrwt beam="1">  1       -1 0.13260447E-01 0.13398533E+03</pdfrwt>
<totfact> 0.47675002E+03</totfact>
</mgrwt>
</event>
<event>
 8    1  0.7550631E-006  0.1459815E+03  0.7546771E-02  0.1214483E+00
          4   -1    0    0  501    0  0.00000000000E+00  0.00000000000E+00  0.52898489709E+02  0.52898489709E+02  0.00000000000E+00 0.  1.
         -4   -1    0    0    0  501 -0.00000000000E+00 -0.00000000000E+00 -0.34176894107E+03  0.34176894107E+03  0.00000000000E+00 0. -1.
         23    2    1    2    0    0 -0.30771978134E+02 -0.68855568447E+02 -0.15725027141E+03  0.19811091327E+03  0.93980222131E+02 0.  0.
         23    2    1    2    0    0  0.30771978134E+02  0.68855568447E+02 -0.13162017995E+03  0.19655651752E+03  0.12499035508E+03 0.  0.
          5    1    4    4  502    0  0.55958748876E+02 -0.93169821490E+01 -0.84100300499E+02  0.10155362266E+03  0.47000000000E+01 0. -1.
         -5    1    4    4    0  502 -0.25186770742E+02  0.78172550596E+02 -0.47519879454E+02  0.95002894853E+02  0.47000000000E+01 0. -1.
        -11    1    3    3    0    0 -0.21027639783E+02 -0.85888528775E+02 -0.82876997440E+02  0.12119239957E+03  0.00000000000E+00 0.  1.
         11    1    3    3    0    0 -0.97443383511E+01  0.17032960328E+02 -0.74373273970E+02  0.76918513691E+02  0.00000000000E+00 0. -1.
<mgrwt>
<rscale>  0 0.13914584E+03</rscale>
<asrwt>0</asrwt>
<pdfrwt beam="1">  1        4 0.81382291E-02 0.14598148E+03</pdfrwt>
<pdfrwt beam="2">  1       -4 0.52579838E-01 0.14598148E+03</pdfrwt>
<totfact> 0.63080791E+02</totfact>
</mgrwt>
</event>
<event>
 8    1  0.7550631E-006  0.2050000E+03  0.7546771E-02  0.1149770E+00
          2   -1    0    0  501    0  0.00000000000E+00  0.00000000000E+00  0.15249277135E+04  0.15249277135E+04  0.00000000000E+00 0. -1.
         -2   -1    0    0    0  501 -0.00000000000E+00 -0.00000000000E+00 -0.32636743056E+02  0.32636743056E+02  0.00000000000E+00 0.  1.
         23    2    1    2    0    0  0.13677636447E+03 -0.87704290393E+02  0.34160531901E+03  0.38876060253E+03  0.89670483817E+02 0.  0.
         23    2    1    2    0    0 -0.13677636447E+03  0.87704290393E+02  0.11506856515E+04  0.11688038541E+04  0.12500065742E+03 0.  0.
          5    1    4    4  502    0 -0.86725731335E+02  0.88244632518E+02  0.46257892670E+03  0.47886305043E+03  0.47000000000E+01 0.  1.
         -5    1    4    4    0  502 -0.50050633136E+02 -0.54034212450E+00  0.68810672476E+03  0.68994080362E+03  0.47000000000E+01 0.  1.
        -11    1    3    3    0    0  0.20401626511E+02 -0.55953355736E+02  0.72285596375E+02  0.93660086620E+02  0.00000000000E+00 0.  1.
         11    1    3    3    0    0  0.11637473796E+03 -0.31750934658E+02  0.26931972264E+03  0.29510051591E+03  0.00000000000E+00 0. -1.
<mgrwt>
<rscale>  0 0.19996279E+03</rscale>
<asrwt>0</asrwt>
<pdfrwt beam="1">  1        2 0.23460421E+00 0.20499995E+03</pdfrwt>
<pdfrwt beam="2">  1       -2 0.50210386E-02 0.20499995E+03</pdfrwt>
<totfact> 0.25739076E+03</totfact>
</mgrwt>
</event>
<event>
 8    1  0.7550631E-006  0.1419614E+03  0.7546771E-02  0.1221539E+00
          2   -1    0    0  501    0  0.00000000000E+00  0.00000000000E+00  0.33568772954E+03  0.33568772954E+03  0.00000000000E+00 0.  1.
         -2   -1    0    0    0  501 -0.00000000000E+00 -0.00000000000E+00 -0.54779851126E+02  0.54779851126E+02  0.00000000000E+00 0. -1.
         23    2    1    2    0    0  0.66705205703E+02 -0.79805913456E+01  0.60004704133E+02  0.12788190259E+03  0.90774127293E+02 0.  0.
         23    2    1    2    0    0 -0.66705205703E+02  0.79805913456E+01  0.22090317428E+03  0.26258567808E+03  0.12505899255E+03 0.  0.
          5    1    4    4  502    0 -0.52128017029E+02  0.39619518488E+02  0.37000199035E+02  0.75353441416E+02  0.47000000000E+01 0.  1.
         -5    1    4    4    0  502 -0.14577188673E+02 -0.31638927142E+02  0.18390297525E+03  0.18723223666E+03  0.47000000000E+01 0.  1.
        -11    1    3    3    0    0  0.59523282670E+02 -0.30147282265E+02  0.74835916622E+02  0.10026113018E+03  0.00000000000E+00 0.  1.
         11    1    3    3    0    0  0.71819230329E+01  0.22166690920E+02 -0.14831212489E+02  0.27620772412E+02  0.00000000000E+00 0. -1.
<mgrwt>
<rscale>  0 0.13406952E+03</rscale>
<asrwt>0</asrwt>
<pdfrwt beam="1">  1        2 0.51644265E-01 0.14196135E+03</pdfrwt>
<pdfrwt beam="2">  1       -2 0.84276696E-02 0.14196135E+03</pdfrwt>
<totfact> 0.80384254E+03</totfact>
</mgrwt>
</event>
<event>
 8    1  0.7550631E-006  0.1348611E+03  0.7546771E-02  0.1235877E+00
          4   -1    0    0  501    0  0.00000000000E+00  0.00000000000E+00  0.10548134440E+03  0.10548134440E+03  0.00000000000E+00 0.  1.
         -4   -1    0    0    0  501 -0.00000000000E+00 -0.00000000000E+00 -0.12842689983E+03  0.12842689983E+03  0.00000000000E+00 0. -1.
         23    2    1    2    0    0  0.21326822764E+02 -0.45911521558E+02 -0.83729602393E+01  0.98262086999E+02  0.83801134224E+02 0.  0.
         23    2    1    2    0    0 -0.21326822764E+02  0.45911521558E+02 -0.14572595185E+02  0.13564615724E+03  0.12499927304E+03 0.  0.
          5    1    4    4  502    0  0.96511367215E+01  0.22810370385E+02  0.52418609734E+02  0.58165781036E+02  0.47000000000E+01 0. -1.
         -5    1    4    4    0  502 -0.30977959485E+02  0.23101151173E+02 -0.66991204919E+02  0.77480376199E+02  0.47000000000E+01 0. -1.
        -11    1    3    3    0    0  0.38292613352E+02 -0.13262346987E+02  0.25805291281E+02  0.48042971839E+02  0.00000000000E+00 0.  1.
         11    1    3    3    0    0 -0.16965790589E+02 -0.32649174571E+02 -0.34178251521E+02  0.50219115160E+02  0.00000000000E+00 0. -1.
<mgrwt>
<rscale>  0 0.12448469E+03</rscale>
<asrwt>0</asrwt>
<pdfrwt beam="1">  1        4 0.16227899E-01 0.13486111E+03</pdfrwt>
<pdfrwt beam="2">  1       -4 0.19757985E-01 0.13486111E+03</pdfrwt>
<totfact> 0.12454807E+03</totfact>
</mgrwt>
</event>
<event>
 8    1  0.7550631E-006  0.1379755E+03  0.7546771E-02  0.1223753E+00
          1   -1    0    0  501    0  0.00000000000E+00  0.00000000000E+00  0.32859327058E+03  0.32859327058E+03  0.00000000000E+00 0. -1.
         -1   -1    0    0    0  501 -0.00000000000E+00 -0.00000000000E+00 -0.61351703952E+02  0.61351703952E+02  0.00000000000E+00 0.  1.
         23    2    1    2    0    0  0.27947545814E+01 -0.58340325891E+02  0.39942971436E+02  0.12404668889E+03  0.10188589588E+03 0.  0.
         23    2    1    2    0    0 -0.27947545814E+01  0.58340325891E+02  0.22729859519E+03  0.26589828564E+03  0.12500337056E+03 0.  0.
          5    1    4    4  502    0  0.53672851748E+02  0.27366815824E+02  0.16680413466E+03  0.17741315330E+03  0.47000000000E+01 0.  1.
         -5    1    4    4    0  502 -0.56467606330E+02  0.30973510067E+02  0.60494460530E+02  0.88485132340E+02  0.47000000000E+01 0.  1.
        -11    1    3    3    0    0  0.48029785882E+02 -0.94591415182E+01  0.60693198461E+01  0.49327196693E+02  0.00000000000E+00 0. -1.
         11    1    3    3    0    0 -0.45235031301E+02 -0.48881184373E+02  0.33873651590E+02  0.74719492200E+02  0.00000000000E+00 0.  1.
<mgrwt>
<rscale>  0 0.13252735E+03</rscale>
<asrwt>0</asrwt>
<pdfrwt beam="1">  1        1 0.50552810E-01 0.13797553E+03</pdfrwt>
<pdfrwt beam="2">  1       -1 0.94387239E-02 0.13797553E+03</pdfrwt>
<totfact> 0.49977900E+03</totfact>
</mgrwt>
</event>
<event>
 8    1  0.7550631E-006  0.1299773E+03  0.7546771E-02  0.1241294E+00
          2   -1    0    0  501    0  0.00000000000E+00  0.00000000000E+00  0.39067474362E+03  0.39067474362E+03  0.00000000000E+00 0. -1.
         -2   -1    0    0    0  501 -0.00000000000E+00 -0.00000000000E+00 -0.34913638881E+02  0.34913638881E+02  0.00000000000E+00 0.  1.
         23    2    1    2    0    0  0.25712079325E+02 -0.24764953200E+02  0.10794880889E+03  0.14575800822E+03  0.91203276745E+02 0.  0.
         23    2    1    2    0    0 -0.25712079325E+02  0.24764953200E+02  0.24781229585E+03  0.27983037428E+03  0.12497876006E+03 0.  0.
          5    1    4    4  502    0 -0.56691239762E+02  0.30949372169E+02  0.23764825671E+03  0.24631391398E+03  0.47000000000E+01 0.  1.
         -5    1    4    4    0  502  0.30979160437E+02 -0.61844189687E+01  0.10164039137E+02  0.33516460298E+02  0.47000000000E+01 0.  1.
        -11    1    3    3    0    0 -0.41122515974E+01 -0.38664107272E+02  0.10587470911E+03  0.11278864230E+03  0.00000000000E+00 0. -1.
         11    1    3    3    0    0  0.29824330923E+02  0.13899154072E+02  0.20740997824E+01  0.32969365914E+02  0.00000000000E+00 0.  1.
<mgrwt>
<rscale>  0 0.12109937E+03</rscale>
<asrwt>0</asrwt>
<pdfrwt beam="1">  1        2 0.60103803E-01 0.12997732E+03</pdfrwt>
<pdfrwt beam="2">  1       -2 0.53713293E-02 0.12997732E+03</pdfrwt>
<totfact> 0.13522838E+04</totfact>
</mgrwt>
</event>
<event>
 8    1  0.7550631E-006  0.1571221E+03  0.7546771E-02  0.1199354E+00
          1   -1    0    0  501    0  0.00000000000E+00  0.00000000000E+00  0.58800171677E+02  0.58800171677E+02  0.00000000000E+00 0. -1.
         -1   -1    0    0    0  501 -0.00000000000E+00 -0.00000000000E+00 -0.37016639450E+03  0.37016639450E+03  0.00000000000E+00 0.  1.
         23    2    1    2    0    0 -0.75150735458E+02 -0.58407853625E+02 -0.17953692108E+03  0.22386582911E+03  0.93932385301E+02 0.  0.
         23    2    1    2    0    0  0.75150735458E+02  0.58407853625E+02 -0.13182930175E+03  0.20510073707E+03  0.12501294790E+03 0.  0.
          5    1    4    4  502    0 -0.18914057169E+02  0.59772364925E+02 -0.55570513410E+02  0.83908576010E+02  0.47000000000E+01 0.  1.
         -5    1    4    4    0  502  0.94064792627E+02 -0.13645113009E+01 -0.76258788335E+02  0.12119216106E+03  0.47000000000E+01 0.  1.
        -11    1    3    3    0    0 -0.64171023921E+02  0.78567595601E+01 -0.10693398583E+03  0.12495809821E+03  0.00000000000E+00 0.  1.
         11    1    3    3    0    0 -0.10979711537E+02 -0.66264613185E+02 -0.72602935247E+02  0.98907730903E+02  0.00000000000E+00 0. -1.
<mgrwt>
<rscale>  0 0.15091456E+03</rscale>
<asrwt>0</asrwt>
<pdfrwt beam="1">  1        1 0.90461803E-02 0.15712208E+03</pdfrwt>
<pdfrwt beam="2">  1       -1 0.56948676E-01 0.15712208E+03</pdfrwt>
<totfact> 0.23056306E+03</totfact>
</mgrwt>
</event>
<event>
 8    1  0.7550631E-006  0.1301566E+03  0.7546771E-02  0.1240764E+00
         -3   -1    0    0    0  501 -0.00000000000E+00  0.00000000000E+00  0.15341018131E+03  0.15341018131E+03  0.00000000000E+00 0.  1.
          3   -1    0    0  501    0  0.00000000000E+00 -0.00000000000E+00 -0.90256761977E+02  0.90256761977E+02  0.00000000000E+00 0. -1.
         23    2    1    2    0    0 -0.26273910322E+02  0.25002707356E+02  0.55836866016E+02  0.11330483714E+03  0.91677569637E+02 0.  0.
         23    2    1    2    0    0  0.26273910322E+02 -0.25002707356E+02  0.73165533158E+01  0.13036210614E+03  0.12500117210E+03 0.  0.
          5    1    4    4  502    0  0.23271704675E+02 -0.45080498642E+02 -0.48770023975E+02  0.70529630899E+02  0.47000000000E+01 0.  1.
         -5    1    4    4    0  502  0.30022056475E+01  0.20077791286E+02  0.56086577291E+02  0.59832475245E+02  0.47000000000E+01 0.  1.
        -11    1    3    3    0    0 -0.19020606673E+01 -0.34082549540E+02  0.25183188322E+02  0.42419700518E+02  0.00000000000E+00 0. -1.
         11    1    3    3    0    0 -0.24371849655E+02  0.59085256896E+02  0.30653677694E+02  0.70885136624E+02  0.00000000000E+00 0.  1.
<mgrwt>
<rscale>  0 0.12142533E+03</rscale>
<asrwt>0</asrwt>
<pdfrwt beam="2">  1        3 0.13885656E-01 0.13015662E+03</pdfrwt>
<pdfrwt beam="1">  1       -3 0.23601566E-01 0.13015662E+03</pdfrwt>
<totfact> 0.16119466E+03</totfact>
</mgrwt>
</event>
<event>
 8    1  0.7550631E-006  0.1414601E+03  0.7546771E-02  0.1222096E+00
         -1   -1    0    0    0  501 -0.00000000000E+00  0.00000000000E+00  0.49435761587E+02  0.49435761587E+02  0.00000000000E+00 0.  1.
          1   -1    0    0  501    0  0.00000000000E+00 -0.00000000000E+00 -0.35865619169E+03  0.35865619169E+03  0.00000000000E+00 0. -1.
         23    2    1    2    0    0  0.63637971679E+02 -0.18253103136E+02 -0.78429001663E+02  0.13739720213E+03  0.91345036194E+02 0.  0.
         23    2    1    2    0    0 -0.63637971679E+02  0.18253103136E+02 -0.23079142844E+03  0.27069475115E+03  0.12501199000E+03 0.  0.
          5    1    4    4  502    0  0.34800755156E+02  0.24316954003E+02 -0.71079747278E+02  0.82926637967E+02  0.47000000000E+01 0. -1.
         -5    1    4    4    0  502 -0.98438726835E+02 -0.60638508680E+01 -0.15971168117E+03  0.18776811319E+03  0.47000000000E+01 0. -1.
        -11    1    3    3    0    0 -0.19566657492E+02 -0.22071305465E+02 -0.21804960521E+02  0.36680415942E+02  0.00000000000E+00 0. -1.
         11    1    3    3    0    0  0.83204629171E+02  0.38182023296E+01 -0.56624041142E+02  0.10071678619E+03  0.00000000000E+00 0.  1.
<mgrwt>
<rscale>  0 0.13367979E+03</rscale>
<asrwt>0</asrwt>
<pdfrwt beam="2">  1        1 0.55177876E-01 0.14146012E+03</pdfrwt>
<pdfrwt beam="1">  1       -1 0.76055017E-02 0.14146012E+03</pdfrwt>
<totfact> 0.62227248E+03</totfact>
</mgrwt>
</event>
<event>
 8    1  0.7550631E-006  0.1260440E+03  0.7546771E-02  0.1246605E+00
         -2   -1    0    0    0  501 -0.00000000000E+00  0.00000000000E+00  0.19559042196E+02  0.19559042196E+02  0.00000000000E+00 0.  1.
          2   -1    0    0  501    0  0.00000000000E+00 -0.00000000000E+00 -0.65575169612E+03  0.65575169612E+03  0.00000000000E+00 0. -1.
         23    2    1    2    0    0 -0.15730289956E+02 -0.18715225378E+01 -0.21489042765E+03  0.23555779691E+03  0.95176862576E+02 0.  0.
         23    2    1    2    0    0  0.15730289956E+02  0.18715225378E+01 -0.42130222627E+03  0.43975294140E+03  0.12504454804E+03 0.  0.
          5    1    4    4  502    0  0.39958336825E+01  0.61710333089E+02 -0.16542730345E+03  0.17667035582E+03  0.47000000000E+01 0. -1.
         -5    1    4    4    0  502  0.11734456273E+02 -0.59838810551E+02 -0.25587492281E+03  0.26308258558E+03  0.47000000000E+01 0. -1.
        -11    1    3    3    0    0 -0.31376920078E+02  0.33302669225E+02 -0.17173887560E+03  0.17772962692E+03  0.00000000000E+00 0. -1.
         11    1    3    3    0    0  0.15646630122E+02 -0.35174191763E+02 -0.43151552050E+02  0.57828169992E+02  0.00000000000E+00 0.  1.
<mgrwt>
<rscale>  0 0.11789838E+03</rscale>
<asrwt>0</asrwt>
<pdfrwt beam="2">  1        2 0.10088487E+00 0.12604397E+03</pdfrwt>
<pdfrwt beam="1">  1       -2 0.30090836E-02 0.12604397E+03</pdfrwt>
<totfact> 0.18014022E+04</totfact>
</mgrwt>
</event>
<event>
 8    1  0.7550631E-006  0.1692379E+03  0.7546771E-02  0.1184937E+00
          3   -1    0    0  501    0  0.00000000000E+00  0.00000000000E+00  0.17228214778E+03  0.17228214778E+03  0.00000000000E+00 0. -1.
         -3   -1    0    0    0  501 -0.00000000000E+00 -0.00000000000E+00 -0.16907047723E+03  0.16907047723E+03  0.00000000000E+00 0.  1.
         23    2    1    2    0    0  0.11217680369E+03  0.20792412998E+02 -0.62616941202E+02  0.15976276737E+03  0.92667690103E+02 0.  0.
         23    2    1    2    0    0 -0.11217680369E+03 -0.20792412998E+02  0.65828611743E+02  0.18158985764E+03  0.12500204217E+03 0.  0.
          5    1    4    4  502    0 -0.13212296284E+03 -0.22090801678E+02  0.80498804389E+02  0.15635417595E+03  0.47000000000E+01 0. -1.
         -5    1    4    4    0  502  0.19946159148E+02  0.12983886803E+01 -0.14670192647E+02  0.25235681687E+02  0.47000000000E+01 0. -1.
        -11    1    3    3    0    0  0.55231430697E+02 -0.32652899143E+02 -0.48429254354E+02  0.80387284048E+02  0.00000000000E+00 0. -1.
         11    1    3    3    0    0  0.56945372994E+02  0.53445312140E+02 -0.14187686847E+02  0.79375483327E+02  0.00000000000E+00 0.  1.
<mgrwt>
<rscale>  0 0.16337596E+03</rscale>
<asrwt>0</asrwt>
<pdfrwt beam="1">  1        3 0.26504946E-01 0.16923791E+03</pdfrwt>
<pdfrwt beam="2">  1       -3 0.26010843E-01 0.16923791E+03</pdfrwt>
<totfact> 0.45120081E+02</totfact>
</mgrwt>
</event>
<event>
 8    1  0.7550631E-006  0.1442609E+03  0.7546771E-02  0.1217368E+00
          1   -1    0    0  501    0  0.00000000000E+00  0.00000000000E+00  0.57830986203E+03  0.57830986203E+03  0.00000000000E+00 0. -1.
         -1   -1    0    0    0  501 -0.00000000000E+00 -0.00000000000E+00 -0.40219315449E+02  0.40219315449E+02  0.00000000000E+00 0.  1.
         23    2    1    2    0    0 -0.71708246999E+02 -0.65662929119E+01  0.90578670784E+02  0.14833975130E+03  0.92817009890E+02 0.  0.
         23    2    1    2    0    0  0.71708246999E+02  0.65662929119E+01  0.44751187579E+03  0.47018942617E+03  0.12500411441E+03 0.  0.
          5    1    4    4  502    0 -0.17102390765E+02 -0.16191178211E+02  0.15618106687E+02  0.28647186218E+02  0.47000000000E+01 0.  1.
         -5    1    4    4    0  502  0.88810637763E+02  0.22757471123E+02  0.43189376911E+03  0.44154223995E+03  0.47000000000E+01 0.  1.
        -11    1    3    3    0    0 -0.80443293719E+02 -0.33081489442E+02  0.80916259292E+02  0.11879793545E+03  0.00000000000E+00 0. -1.
         11    1    3    3    0    0  0.87350467208E+01  0.26515196530E+02  0.96624114915E+01  0.29541815856E+02  0.00000000000E+00 0.  1.
<mgrwt>
<rscale>  0 0.13703995E+03</rscale>
<asrwt>0</asrwt>
<pdfrwt beam="1">  1        1 0.88970742E-01 0.14426094E+03</pdfrwt>
<pdfrwt beam="2">  1       -1 0.61875874E-02 0.14426094E+03</pdfrwt>
<totfact> 0.45829477E+03</totfact>
</mgrwt>
</event>
<event>
 8    1  0.7550631E-006  0.1477848E+03  0.7546771E-02  0.1211170E+00
         -1   -1    0    0    0  501 -0.00000000000E+00  0.00000000000E+00  0.22119095769E+02  0.22119095769E+02  0.00000000000E+00 0.  1.
          1   -1    0    0  501    0  0.00000000000E+00 -0.00000000000E+00 -0.13566609610E+04  0.13566609610E+04  0.00000000000E+00 0. -1.
         23    2    1    2    0    0 -0.51993930652E+02  0.59260287510E+02 -0.20715316064E+03  0.24174635088E+03  0.96507593991E+02 0.  0.
         23    2    1    2    0    0  0.51993930652E+02 -0.59260287510E+02 -0.11273887046E+04  0.11370337059E+04  0.12500082640E+03 0.  0.
          5    1    4    4  502    0  0.56128153265E+02 -0.71486449550E+02 -0.11144627224E+04  0.11181725859E+04  0.47000000000E+01 0. -1.
         -5    1    4    4    0  502 -0.41342226128E+01  0.12226162041E+02 -0.12925982190E+02  0.18861120074E+02  0.47000000000E+01 0. -1.
        -11    1    3    3    0    0 -0.58018330773E+02  0.38817074991E+02 -0.20900444996E+03  0.22035369777E+03  0.00000000000E+00 0. -1.
         11    1    3    3    0    0  0.60244001207E+01  0.20443212519E+02  0.18512893188E+01  0.21392653109E+02  0.00000000000E+00 0.  1.
<mgrwt>
<rscale>  0 0.14161683E+03</rscale>
<asrwt>0</asrwt>
<pdfrwt beam="2">  1        1 0.20871706E+00 0.14778483E+03</pdfrwt>
<pdfrwt beam="1">  1       -1 0.34029380E-02 0.14778483E+03</pdfrwt>
<totfact> 0.27742446E+03</totfact>
</mgrwt>
</event>
<event>
 8    1  0.7550631E-006  0.1344086E+03  0.7546771E-02  0.1234399E+00
         -1   -1    0    0    0  501 -0.00000000000E+00  0.00000000000E+00  0.20173833349E+03  0.20173833349E+03  0.00000000000E+00 0.  1.
          1   -1    0    0  501    0  0.00000000000E+00 -0.00000000000E+00 -0.78223029652E+02  0.78223029652E+02  0.00000000000E+00 0. -1.
         23    2    1    2    0    0  0.39780987353E+02 -0.29307642277E+02  0.10133755320E+03  0.14373534811E+03  0.89157645531E+02 0.  0.
         23    2    1    2    0    0 -0.39780987353E+02  0.29307642277E+02  0.22177750638E+02  0.13622601503E+03  0.12499683875E+03 0.  0.
          5    1    4    4  502    0  0.39407687781E+02  0.33858564164E+02 -0.46165967546E+01  0.52371473047E+02  0.47000000000E+01 0. -1.
         -5    1    4    4    0  502 -0.79188675134E+02 -0.45509218876E+01  0.26794347393E+02  0.83854541986E+02  0.47000000000E+01 0. -1.
        -11    1    3    3    0    0 -0.82122815421E+01 -0.26174893160E+02  0.90319894286E+02  0.94394120071E+02  0.00000000000E+00 0.  1.
         11    1    3    3    0    0  0.47993268895E+02 -0.31327491167E+01  0.11017658913E+02  0.49341228037E+02  0.00000000000E+00 0. -1.
<mgrwt>
<rscale>  0 0.12542963E+03</rscale>
<asrwt>0</asrwt>
<pdfrwt beam="2">  1        1 0.12034312E-01 0.13440861E+03</pdfrwt>
<pdfrwt beam="1">  1       -1 0.31036666E-01 0.13440861E+03</pdfrwt>
<totfact> 0.46012298E+03</totfact>
</mgrwt>
</event>
<event>
 7    1  0.7550631E-006  0.1414527E+03  0.7546771E-02  0.1231281E+00
          2   -1    0    0  501    0  0.00000000000E+00  0.00000000000E+00  0.38413700788E+03  0.38413700788E+03  0.00000000000E+00 0. -1.
         -2   -1    0    0    0  501 -0.00000000000E+00 -0.00000000000E+00 -0.23048145084E+03  0.23048145084E+03  0.00000000000E+00 0.  1.
         23    2    1    2    0    0 -0.67244994689E+01  0.18587029376E+02 -0.20710070762E+03  0.22712143154E+03  0.91119399775E+02 0.  0.
          5    1    1    2  502    0  0.31467112357E+02 -0.11586822763E+02  0.35974777124E+03  0.36133776793E+03  0.47000000000E+01 0. -1.
         -5    1    1    2    0  502 -0.24742612888E+02 -0.70002066136E+01  0.10084934187E+01  0.26159259243E+02  0.47000000000E+01 0.  1.
        -11    1    3    3    0    0  0.36248412868E+02  0.26697649004E+02 -0.70106427817E+02  0.83316403662E+02  0.00000000000E+00 0. -1.
         11    1    3    3    0    0 -0.42972912337E+02 -0.81106196281E+01 -0.13699427980E+03  0.14380502788E+03  0.00000000000E+00 0.  1.
<mgrwt>
<rscale>  0 0.12745515E+03</rscale>
<asrwt>0</asrwt>
<pdfrwt beam="1">  1        2 0.59098001E-01 0.14145269E+03</pdfrwt>
<pdfrwt beam="2">  1       -2 0.35458685E-01 0.14145269E+03</pdfrwt>
<totfact> 0.62668223E+02</totfact>
</mgrwt>
</event>
<event>
 8    1  0.7550631E-006  0.1552387E+03  0.7546771E-02  0.1202198E+00
         -2   -1    0    0    0  501 -0.00000000000E+00  0.00000000000E+00  0.14525272881E+02  0.14525272881E+02  0.00000000000E+00 0.  1.
          2   -1    0    0  501    0  0.00000000000E+00 -0.00000000000E+00 -0.14886936676E+04  0.14886936676E+04  0.00000000000E+00 0. -1.
         23    2    1    2    0    0  0.50096035407E+02  0.77234325764E+02 -0.49771310190E+03  0.51450058762E+03  0.92291760263E+02 0.  0.
         23    2    1    2    0    0 -0.50096035407E+02 -0.77234325764E+02 -0.97645529284E+03  0.98871835289E+03  0.12499715430E+03 0.  0.
          5    1    4    4  502    0  0.96633719383E+01  0.22330794613E+02 -0.59893924753E+02  0.64818341290E+02  0.47000000000E+01 0.  1.
         -5    1    4    4    0  502 -0.59759407346E+02 -0.99565120377E+02 -0.91656136809E+03  0.92390001160E+03  0.47000000000E+01 0.  1.
        -11    1    3    3    0    0  0.45894374538E+02 -0.66365869732E+01 -0.17972153286E+03  0.18560756255E+03  0.00000000000E+00 0.  1.
         11    1    3    3    0    0  0.42016608690E+01  0.83870912737E+02 -0.31799156905E+03  0.32889302507E+03  0.00000000000E+00 0. -1.
<mgrwt>
<rscale>  0 0.14860457E+03</rscale>
<asrwt>0</asrwt>
<pdfrwt beam="2">  1        2 0.22902957E+00 0.15523866E+03</pdfrwt>
<pdfrwt beam="1">  1       -2 0.22346596E-02 0.15523866E+03</pdfrwt>
<totfact> 0.89139640E+03</totfact>
</mgrwt>
</event>
<event>
 8    1  0.7550631E-006  0.2096077E+03  0.7546771E-02  0.1145952E+00
          2   -1    0    0  501    0  0.00000000000E+00  0.00000000000E+00  0.15415841276E+04  0.15415841276E+04  0.00000000000E+00 0. -1.
         -2   -1    0    0    0  501 -0.00000000000E+00 -0.00000000000E+00 -0.28378279771E+02  0.28378279771E+02  0.00000000000E+00 0.  1.
         23    2    1    2    0    0 -0.13227981901E+03 -0.10396831136E+03  0.49171160323E+03  0.52718443701E+03  0.88519882479E+02 0.  0.
         23    2    1    2    0    0  0.13227981901E+03  0.10396831136E+03  0.10214942446E+04  0.10427779704E+04  0.12501217312E+03 0.  0.
          5    1    4    4  502    0  0.98950356038E+02  0.29837872031E+02  0.31377199803E+03  0.33038829930E+03  0.47000000000E+01 0.  1.
         -5    1    4    4    0  502  0.33329462973E+02  0.74130439330E+02  0.70772224658E+03  0.71238967106E+03  0.47000000000E+01 0.  1.
        -11    1    3    3    0    0 -0.22854325080E+02 -0.71203905133E+02  0.16736705711E+03  0.18331406953E+03  0.00000000000E+00 0.  1.
         11    1    3    3    0    0 -0.10942549393E+03 -0.32764406228E+02  0.32434454612E+03  0.34387036749E+03  0.00000000000E+00 0. -1.
<mgrwt>
<rscale>  0 0.20455434E+03</rscale>
<asrwt>0</asrwt>
<pdfrwt beam="1">  1        2 0.23716672E+00 0.20960774E+03</pdfrwt>
<pdfrwt beam="2">  1       -2 0.43658904E-02 0.20960774E+03</pdfrwt>
<totfact> 0.31163736E+03</totfact>
</mgrwt>
</event>
<event>
 8    1  0.7550631E-006  0.1489983E+03  0.7546771E-02  0.1211403E+00
         -1   -1    0    0    0  501 -0.00000000000E+00  0.00000000000E+00  0.19298824541E+02  0.19298824541E+02  0.00000000000E+00 0.  1.
          1   -1    0    0  501    0  0.00000000000E+00 -0.00000000000E+00 -0.96173899400E+03  0.96173899400E+03  0.00000000000E+00 0. -1.
         23    2    1    2    0    0 -0.80870299187E+02 -0.59761429826E+01 -0.35750619842E+03  0.37742515142E+03  0.89796121506E+02 0.  0.
         23    2    1    2    0    0  0.80870299187E+02  0.59761429826E+01 -0.58493397103E+03  0.60361266712E+03  0.12499912744E+03 0.  0.
          5    1    4    4  502    0  0.10482560890E+03 -0.86118533392E+01 -0.31379459319E+03  0.33098596498E+03  0.47000000000E+01 0.  1.
         -5    1    4    4    0  502 -0.23955309716E+02  0.14587996322E+02 -0.27113937784E+03  0.27262670214E+03  0.47000000000E+01 0.  1.
        -11    1    3    3    0    0 -0.65899704852E+02 -0.37788498427E+02 -0.30439601567E+03  0.31373185377E+03  0.00000000000E+00 0. -1.
         11    1    3    3    0    0 -0.14970594335E+02  0.31812355444E+02 -0.53110182752E+02  0.63693297651E+02  0.00000000000E+00 0.  1.
<mgrwt>
<rscale>  0 0.14144096E+03</rscale>
<asrwt>0</asrwt>
<pdfrwt beam="2">  1        1 0.14795983E+00 0.14899833E+03</pdfrwt>
<pdfrwt beam="1">  1       -1 0.29690503E-02 0.14899833E+03</pdfrwt>
<totfact> 0.63885655E+03</totfact>
</mgrwt>
</event>
<event>
 8    1  0.7550631E-006  0.1576547E+03  0.7546771E-02  0.1200767E+00
         -1   -1    0    0    0  501 -0.00000000000E+00  0.00000000000E+00  0.30171624108E+03  0.30171624108E+03  0.00000000000E+00 0.  1.
          1   -1    0    0  501    0  0.00000000000E+00 -0.00000000000E+00 -0.68594030325E+02  0.68594030325E+02  0.00000000000E+00 0. -1.
         23    2    1    2    0    0 -0.73106955465E+02  0.62319774105E+02  0.12473186719E+03  0.17898992295E+03  0.85152643197E+02 0.  0.
         23    2    1    2    0    0  0.73106955465E+02 -0.62319774105E+02  0.10839034357E+03  0.19132034846E+03  0.12500651172E+03 0.  0.
          5    1    4    4  502    0  0.89295159718E+02 -0.82768655370E+02  0.59245918905E+02  0.13548595782E+03  0.47000000000E+01 0. -1.
         -5    1    4    4    0  502 -0.16188204253E+02  0.20448881265E+02  0.49144424665E+02  0.55834390635E+02  0.47000000000E+01 0. -1.
        -11    1    3    3    0    0 -0.60462051699E+02  0.80270820742E+01  0.27487342371E+02  0.66900282009E+02  0.00000000000E+00 0. -1.
         11    1    3    3    0    0 -0.12644903765E+02  0.54292692031E+02  0.97244524817E+02  0.11208964094E+03  0.00000000000E+00 0.  1.
<mgrwt>
<rscale>  0 0.14976066E+03</rscale>
<asrwt>0</asrwt>
<pdfrwt beam="2">  1        1 0.10552928E-01 0.15765471E+03</pdfrwt>
<pdfrwt beam="1">  1       -1 0.46417883E-01 0.15765471E+03</pdfrwt>
<totfact> 0.27372983E+03</totfact>
</mgrwt>
</event>
<event>
 7    1  0.7550631E-006  0.1825655E+03  0.7546771E-02  0.1195999E+00
          3   -1    0    0  501    0  0.00000000000E+00  0.00000000000E+00  0.24824628543E+03  0.24824628543E+03  0.00000000000E+00 0. -1.
         -3   -1    0    0    0  501 -0.00000000000E+00 -0.00000000000E+00 -0.10423760432E+03  0.10423760432E+03  0.00000000000E+00 0.  1.
         23    2    1    2    0    0 -0.12190465832E+00  0.11033752410E+02 -0.33699369210E+02  0.97708860698E+02  0.91047325171E+02 0.  0.
          5    1    1    2  502    0 -0.58378676186E+02  0.50986517082E+02  0.28222370286E+02  0.82621346769E+02  0.47000000000E+01 0. -1.
         -5    1    1    2    0  502  0.58500580844E+02 -0.62020269493E+02  0.14948568003E+03  0.17215368228E+03  0.47000000000E+01 0.  1.
        -11    1    3    3    0    0 -0.92332468730E+01  0.15749317990E+02 -0.63562645311E+02  0.66132471177E+02  0.00000000000E+00 0.  1.
         11    1    3    3    0    0  0.91113422146E+01 -0.47155655797E+01  0.29863276101E+02  0.31576389521E+02  0.00000000000E+00 0. -1.
<mgrwt>
<rscale>  0 0.15369949E+03</rscale>
<asrwt>0</asrwt>
<pdfrwt beam="1">  1        3 0.38191736E-01 0.18256551E+03</pdfrwt>
<pdfrwt beam="2">  1       -3 0.16036555E-01 0.18256551E+03</pdfrwt>
<totfact> 0.54224608E+02</totfact>
</mgrwt>
</event>
<event>
 8    1  0.7550631E-006  0.1446680E+03  0.7546771E-02  0.1216090E+00
         -1   -1    0    0    0  501 -0.00000000000E+00  0.00000000000E+00  0.19389922960E+03  0.19389922960E+03  0.00000000000E+00 0.  1.
          1   -1    0    0  501    0  0.00000000000E+00 -0.00000000000E+00 -0.20066022076E+03  0.20066022076E+03  0.00000000000E+00 0. -1.
         23    2    1    2    0    0 -0.53749689654E+02  0.49136016049E+02  0.14291060064E+03  0.18639986028E+03  0.94963629497E+02 0.  0.
         23    2    1    2    0    0  0.53749689654E+02 -0.49136016049E+02 -0.14967159180E+03  0.20815959007E+03  0.12500180934E+03 0.  0.
          5    1    4    4  502    0  0.51497807976E+02 -0.77810200087E+02 -0.15253767523E+03  0.17887505088E+03  0.47000000000E+01 0.  1.
         -5    1    4    4    0  502  0.22518816781E+01  0.28674184038E+02  0.28660834323E+01  0.29284539190E+02  0.47000000000E+01 0.  1.
        -11    1    3    3    0    0 -0.41532840024E+02  0.57200585307E+02  0.15305461993E+03  0.16859003660E+03  0.00000000000E+00 0.  1.
         11    1    3    3    0    0 -0.12216849629E+02 -0.80645692585E+01 -0.10144019290E+02  0.17809823681E+02  0.00000000000E+00 0. -1.
<mgrwt>
<rscale>  0 0.13796782E+03</rscale>
<asrwt>0</asrwt>
<pdfrwt beam="2">  1        1 0.30870803E-01 0.14466800E+03</pdfrwt>
<pdfrwt beam="1">  1       -1 0.29830651E-01 0.14466800E+03</pdfrwt>
<totfact> 0.14831954E+03</totfact>
</mgrwt>
</event>
<event>
 8    1  0.7550631E-006  0.1263005E+03  0.7546771E-02  0.1246651E+00
          1   -1    0    0  501    0  0.00000000000E+00  0.00000000000E+00  0.91478039707E+03  0.91478039707E+03  0.00000000000E+00 0. -1.
         -1   -1    0    0    0  501 -0.00000000000E+00 -0.00000000000E+00 -0.14919733802E+02  0.14919733802E+02  0.00000000000E+00 0.  1.
         23    2    1    2    0    0 -0.56707482198E+01 -0.17260498194E+02  0.25105881677E+03  0.26871931400E+03  0.94071558161E+02 0.  0.
         23    2    1    2    0    0  0.56707482198E+01  0.17260498194E+02  0.64880184649E+03  0.66098081687E+03  0.12498688760E+03 0.  0.
          5    1    4    4  502    0 -0.20706467633E+02 -0.25021273164E+01  0.14562849472E+02  0.25868610857E+02  0.47000000000E+01 0. -1.
         -5    1    4    4    0  502  0.26377215853E+02  0.19762625511E+02  0.63423899702E+03  0.63511220601E+03  0.47000000000E+01 0. -1.
        -11    1    3    3    0    0 -0.41531759253E+02  0.13504204838E+02  0.78740902882E+02  0.90040992673E+02  0.00000000000E+00 0.  1.
         11    1    3    3    0    0  0.35861011033E+02 -0.30764703032E+02  0.17231791389E+03  0.17867832133E+03  0.00000000000E+00 0. -1.
<mgrwt>
<rscale>  0 0.11787082E+03</rscale>
<asrwt>0</asrwt>
<pdfrwt beam="1">  1        1 0.14073540E+00 0.12630045E+03</pdfrwt>
<pdfrwt beam="2">  1       -1 0.22953444E-02 0.12630045E+03</pdfrwt>
<totfact> 0.99818929E+03</totfact>
</mgrwt>
</event>
<event>
 8    1  0.7550631E-006  0.1331036E+03  0.7546771E-02  0.1235663E+00
         -1   -1    0    0    0  501 -0.00000000000E+00  0.00000000000E+00  0.20357824592E+03  0.20357824592E+03  0.00000000000E+00 0.  1.
          1   -1    0    0  501    0  0.00000000000E+00 -0.00000000000E+00 -0.71994421026E+02  0.71994421026E+02  0.00000000000E+00 0. -1.
         23    2    1    2    0    0 -0.43156892346E+02  0.15491362843E+02  0.89680541051E+02  0.13602895027E+03  0.91426342965E+02 0.  0.
         23    2    1    2    0    0  0.43156892346E+02 -0.15491362843E+02  0.41903283841E+02  0.13954371668E+03  0.12495624829E+03 0.  0.
          5    1    4    4  502    0  0.39144238111E+02  0.51989906204E+02  0.23147036324E+02  0.69232196375E+02  0.47000000000E+01 0.  1.
         -5    1    4    4    0  502  0.40126542352E+01 -0.67481269046E+02  0.18756247517E+02  0.70311520301E+02  0.47000000000E+01 0.  1.
        -11    1    3    3    0    0  0.15964085324E+02 -0.16422294609E+02  0.56771770513E+02  0.61217462440E+02  0.00000000000E+00 0.  1.
         11    1    3    3    0    0 -0.59120977670E+02  0.31913657451E+02  0.32908770538E+02  0.74811487827E+02  0.00000000000E+00 0. -1.
<mgrwt>
<rscale>  0 0.12462076E+03</rscale>
<asrwt>0</asrwt>
<pdfrwt beam="2">  1        1 0.11076065E-01 0.13310358E+03</pdfrwt>
<pdfrwt beam="1">  1       -1 0.31319730E-01 0.13310358E+03</pdfrwt>
<totfact> 0.50503814E+03</totfact>
</mgrwt>
</event>
<event>
 8    1  0.7550631E-006  0.1347142E+03  0.7546771E-02  0.1233959E+00
         -2   -1    0    0    0  501 -0.00000000000E+00  0.00000000000E+00  0.88988347941E+02  0.88988347941E+02  0.00000000000E+00 0.  1.
          2   -1    0    0  501    0  0.00000000000E+00 -0.00000000000E+00 -0.15826549637E+03  0.15826549637E+03  0.00000000000E+00 0. -1.
         23    2    1    2    0    0 -0.49534728423E+02 -0.82535398673E+01 -0.37645069449E+02  0.10887571390E+03  0.88966058599E+02 0.  0.
         23    2    1    2    0    0  0.49534728423E+02  0.82535398673E+01 -0.31632078978E+02  0.13837813041E+03  0.12500443318E+03 0.  0.
          5    1    4    4  502    0  0.13859493425E+02 -0.19794730291E+02  0.43787293700E+02  0.50232797999E+02  0.47000000000E+01 0. -1.
         -5    1    4    4    0  502  0.35675234998E+02  0.28048270158E+02 -0.75419372677E+02  0.88145332412E+02  0.47000000000E+01 0. -1.
        -11    1    3    3    0    0 -0.16146739398E+02 -0.17245918659E+02 -0.62154191739E+02  0.66492724823E+02  0.00000000000E+00 0. -1.
         11    1    3    3    0    0 -0.33387989025E+02  0.89923787913E+01  0.24509122291E+02  0.42382989075E+02  0.00000000000E+00 0.  1.
<mgrwt>
<rscale>  0 0.12571318E+03</rscale>
<asrwt>0</asrwt>
<pdfrwt beam="2">  1        2 0.24348538E-01 0.13471421E+03</pdfrwt>
<pdfrwt beam="1">  1       -2 0.13690515E-01 0.13471421E+03</pdfrwt>
<totfact> 0.83389073E+03</totfact>
</mgrwt>
</event>
<event>
 8    1  0.7550631E-006  0.1856376E+03  0.7546771E-02  0.1167644E+00
         -2   -1    0    0    0  501 -0.00000000000E+00  0.00000000000E+00  0.32313038382E+02  0.32313038382E+02  0.00000000000E+00 0. -1.
          2   -1    0    0  501    0  0.00000000000E+00 -0.00000000000E+00 -0.13891502272E+04  0.13891502272E+04  0.00000000000E+00 0.  1.
         23    2    1    2    0    0  0.59034791965E+02  0.12389332226E+03 -0.25137113272E+03  0.30051878494E+03  0.91046316634E+02 0.  0.
         23    2    1    2    0    0 -0.59034791965E+02 -0.12389332226E+03 -0.11054660561E+04  0.11209444806E+04  0.12500666199E+03 0.  0.
          5    1    4    4  502    0 -0.55328723471E+02 -0.11179334059E+03 -0.10988390684E+04  0.11059061474E+04  0.47000000000E+01 0.  1.
         -5    1    4    4    0  502 -0.37060684935E+01 -0.12099981667E+02 -0.66269876697E+01  0.15038333205E+02  0.47000000000E+01 0.  1.
        -11    1    3    3    0    0  0.69736933335E+02  0.46737880195E+02 -0.15803822325E+03  0.17895180727E+03  0.00000000000E+00 0. -1.
         11    1    3    3    0    0 -0.10702141370E+02  0.77155442062E+02 -0.93332909476E+02  0.12156697768E+03  0.00000000000E+00 0.  1.
<mgrwt>
<rscale>  0 0.18016437E+03</rscale>
<asrwt>0</asrwt>
<pdfrwt beam="2">  1        2 0.21371545E+00 0.18563762E+03</pdfrwt>
<pdfrwt beam="1">  1       -2 0.49712360E-02 0.18563762E+03</pdfrwt>
<totfact> 0.30844526E+03</totfact>
</mgrwt>
</event>
<event>
 8    1  0.7550631E-006  0.1304785E+03  0.7546771E-02  0.1240541E+00
         -2   -1    0    0    0  501 -0.00000000000E+00  0.00000000000E+00  0.16305706579E+03  0.16305706579E+03  0.00000000000E+00 0.  1.
          2   -1    0    0  501    0  0.00000000000E+00 -0.00000000000E+00 -0.10657616186E+03  0.10657616186E+03  0.00000000000E+00 0. -1.
         23    2    1    2    0    0 -0.34533264177E+02 -0.14356945453E+02  0.91752127331E+02  0.13447148208E+03  0.90914566522E+02 0.  0.
         23    2    1    2    0    0  0.34533264177E+02  0.14356945453E+02 -0.35271223399E+02  0.13516174557E+03  0.12500388013E+03 0.  0.
          5    1    4    4  502    0 -0.44865601854E+02 -0.66537202052E+01  0.13641077546E+00  0.45599373133E+02  0.47000000000E+01 0. -1.
         -5    1    4    4    0  502  0.79398866031E+02  0.21010665658E+02 -0.35407634174E+02  0.89562372435E+02  0.47000000000E+01 0. -1.
        -11    1    3    3    0    0 -0.23883372517E+02 -0.30987963378E+01  0.10879931336E+03  0.11143297811E+03  0.00000000000E+00 0.  1.
         11    1    3    3    0    0 -0.10649891660E+02 -0.11258149115E+02 -0.17047186031E+02  0.23038503976E+02  0.00000000000E+00 0. -1.
<mgrwt>
<rscale>  0 0.12156248E+03</rscale>
<asrwt>0</asrwt>
<pdfrwt beam="2">  1        2 0.16396332E-01 0.13047850E+03</pdfrwt>
<pdfrwt beam="1">  1       -2 0.25085703E-01 0.13047850E+03</pdfrwt>
<totfact> 0.47125454E+03</totfact>
</mgrwt>
</event>
<event>
 8    1  0.7550631E-006  0.1416591E+03  0.7546771E-02  0.1221824E+00
          4   -1    0    0  501    0  0.00000000000E+00  0.00000000000E+00  0.51745575301E+02  0.51745575301E+02  0.00000000000E+00 0. -1.
         -4   -1    0    0    0  501 -0.00000000000E+00 -0.00000000000E+00 -0.31346107967E+03  0.31346107967E+03  0.00000000000E+00 0.  1.
         23    2    1    2    0    0 -0.24562096600E+02 -0.61956962644E+02 -0.11161422648E+03  0.15881459271E+03  0.91227065585E+02 0.  0.
         23    2    1    2    0    0  0.24562096600E+02  0.61956962644E+02 -0.15010127788E+03  0.20639206226E+03  0.12500131172E+03 0.  0.
          5    1    4    4  502    0  0.41020321076E+02  0.41519329667E+02 -0.16553671937E+03  0.17558763322E+03  0.47000000000E+01 0.  1.
         -5    1    4    4    0  502 -0.16458224476E+02  0.20437632977E+02  0.15435441490E+02  0.30804429042E+02  0.47000000000E+01 0.  1.
        -11    1    3    3    0    0  0.13880729719E+02  0.13595792528E+02 -0.10031272760E+01  0.19455757408E+02  0.00000000000E+00 0. -1.
         11    1    3    3    0    0 -0.38442826319E+02 -0.75552755172E+02 -0.11061109921E+03  0.13935883530E+03  0.00000000000E+00 0.  1.
<mgrwt>
<rscale>  0 0.13386994E+03</rscale>
<asrwt>0</asrwt>
<pdfrwt beam="1">  1        4 0.79608579E-02 0.14165906E+03</pdfrwt>
<pdfrwt beam="2">  1       -4 0.48224781E-01 0.14165906E+03</pdfrwt>
<totfact> 0.77603554E+02</totfact>
</mgrwt>
</event>
<event>
 8    1  0.7550631E-006  0.1292670E+03  0.7546771E-02  0.1243176E+00
          1   -1    0    0  501    0  0.00000000000E+00  0.00000000000E+00  0.17637374664E+03  0.17637374664E+03  0.00000000000E+00 0. -1.
         -1   -1    0    0    0  501 -0.00000000000E+00 -0.00000000000E+00 -0.97137381200E+02  0.97137381200E+02  0.00000000000E+00 0.  1.
         23    2    1    2    0    0  0.19577479082E+02  0.28453066603E+02 -0.33963716044E+02  0.10168499216E+03  0.89406090038E+02 0.  0.
         23    2    1    2    0    0 -0.19577479082E+02 -0.28453066603E+02  0.11320008149E+03  0.17182613569E+03  0.12456768349E+03 0.  0.
          5    1    4    4  502    0 -0.70821705541E+02 -0.11173449798E+02  0.82730177726E+02  0.10957614824E+03  0.47000000000E+01 0. -1.
         -5    1    4    4    0  502  0.51244226459E+02 -0.17279616806E+02  0.30469903762E+02  0.62249987450E+02  0.47000000000E+01 0.  1.
        -11    1    3    3    0    0  0.41411279043E+02  0.40953656375E+02 -0.45596125150E+02  0.73966902268E+02  0.00000000000E+00 0.  1.
         11    1    3    3    0    0 -0.21833799961E+02 -0.12500589772E+02  0.11632409106E+02  0.27718089888E+02  0.00000000000E+00 0. -1.
<mgrwt>
<rscale>  0 0.11995225E+03</rscale>
<asrwt>0</asrwt>
<pdfrwt beam="1">  1        1 0.27134423E-01 0.12926702E+03</pdfrwt>
<pdfrwt beam="2">  1       -1 0.14944212E-01 0.12926702E+03</pdfrwt>
<totfact> 0.52990487E+03</totfact>
</mgrwt>
</event>
<event>
 8    1  0.7550631E-006  0.1480959E+03  0.7546771E-02  0.1211885E+00
         -1   -1    0    0    0  501 -0.00000000000E+00  0.00000000000E+00  0.39048853188E+02  0.39048853188E+02  0.00000000000E+00 0.  1.
          1   -1    0    0  501    0  0.00000000000E+00 -0.00000000000E+00 -0.59914202986E+03  0.59914202986E+03  0.00000000000E+00 0. -1.
         23    2    1    2    0    0 -0.57440769722E+02 -0.54831475094E+02 -0.10956442701E+03  0.16394563156E+03  0.92562809784E+02 0.  0.
         23    2    1    2    0    0  0.57440769722E+02  0.54831475094E+02 -0.45052874966E+03  0.47424525148E+03  0.12500588624E+03 0.  0.
          5    1    4    4  502    0  0.47556122580E+02 -0.33434389002E+02 -0.15440365915E+03  0.16505157716E+03  0.47000000000E+01 0.  1.
         -5    1    4    4    0  502  0.98846471425E+01  0.88265864096E+02 -0.29612509051E+03  0.30919367432E+03  0.47000000000E+01 0.  1.
        -11    1    3    3    0    0 -0.36505212344E+02 -0.63003174894E+02 -0.25850602347E+02  0.77267614281E+02  0.00000000000E+00 0.  1.
         11    1    3    3    0    0 -0.20935557379E+02  0.81716998001E+01 -0.83713824659E+02  0.86678017279E+02  0.00000000000E+00 0. -1.
<mgrwt>
<rscale>  0 0.14107826E+03</rscale>
<asrwt>0</asrwt>
<pdfrwt beam="2">  1        1 0.92175699E-01 0.14809593E+03</pdfrwt>
<pdfrwt beam="1">  1       -1 0.60075158E-02 0.14809593E+03</pdfrwt>
<totfact> 0.45703712E+03</totfact>
</mgrwt>
</event>
<event>
 8    1  0.7550631E-006  0.3057848E+03  0.7546771E-02  0.1084072E+00
          1   -1    0    0  501    0  0.00000000000E+00  0.00000000000E+00  0.21818637981E+03  0.21818637981E+03  0.00000000000E+00 0. -1.
         -1   -1    0    0    0  501 -0.00000000000E+00 -0.00000000000E+00 -0.45225628675E+03  0.45225628675E+03  0.00000000000E+00 0.  1.
         23    2    1    2    0    0  0.26556387509E+03 -0.85761261408E+02 -0.21729586148E+03  0.36419815894E+03  0.86854141233E+02 0.  0.
         23    2    1    2    0    0 -0.26556387509E+03  0.85761261408E+02 -0.16774045452E+02  0.30624450761E+03  0.12500065652E+03 0.  0.
          5    1    4    4  502    0 -0.26080009158E+03  0.54600069134E+02  0.68313415084E+01  0.26658321879E+03  0.47000000000E+01 0. -1.
         -5    1    4    4    0  502 -0.47637835149E+01  0.31161192275E+02 -0.23605386960E+02  0.39661288820E+02  0.47000000000E+01 0. -1.
        -11    1    3    3    0    0  0.24501089885E+03 -0.10265991989E+03 -0.19645210217E+03  0.33039798449E+03  0.00000000000E+00 0. -1.
         11    1    3    3    0    0  0.20552976241E+02  0.16898658484E+02 -0.20843759309E+02  0.33800174453E+02  0.00000000000E+00 0.  1.
<mgrwt>
<rscale>  0 0.30234906E+03</rscale>
<asrwt>0</asrwt>
<pdfrwt beam="1">  1        1 0.33567136E-01 0.30578478E+03</pdfrwt>
<pdfrwt beam="2">  1       -1 0.69577890E-01 0.30578478E+03</pdfrwt>
<totfact> 0.28596811E+02</totfact>
</mgrwt>
</event>
<event>
 8    1  0.7550631E-006  0.1369626E+03  0.7546771E-02  0.1229019E+00
         -1   -1    0    0    0  501 -0.00000000000E+00  0.00000000000E+00  0.26255588441E+02  0.26255588441E+02  0.00000000000E+00 0.  1.
          1   -1    0    0  501    0  0.00000000000E+00 -0.00000000000E+00 -0.58124165198E+03  0.58124165198E+03  0.00000000000E+00 0. -1.
         23    2    1    2    0    0  0.79508815542E+01 -0.55410821295E+02 -0.20222358793E+03  0.22907931837E+03  0.91920503457E+02 0.  0.
         23    2    1    2    0    0 -0.79508815542E+01  0.55410821295E+02 -0.35276247561E+03  0.37841792206E+03  0.12500073559E+03 0.  0.
          5    1    4    4  502    0 -0.59284387543E+02 -0.96809333361E+00 -0.17843458886E+03  0.18808659791E+03  0.47000000000E+01 0.  1.
         -5    1    4    4    0  502  0.51333505988E+02  0.56378914628E+02 -0.17432788675E+03  0.19033132415E+03  0.47000000000E+01 0.  1.
        -11    1    3    3    0    0 -0.18729014595E+02 -0.63532270438E+02 -0.18451576806E+03  0.19604385743E+03  0.00000000000E+00 0. -1.
         11    1    3    3    0    0  0.26679896149E+02  0.81214491433E+01 -0.17707819868E+02  0.33035460935E+02  0.00000000000E+00 0.  1.
<mgrwt>
<rscale>  0 0.12895226E+03</rscale>
<asrwt>0</asrwt>
<pdfrwt beam="2">  1        1 0.89421800E-01 0.13696262E+03</pdfrwt>
<pdfrwt beam="1">  1       -1 0.40393210E-02 0.13696262E+03</pdfrwt>
<totfact> 0.85354955E+03</totfact>
</mgrwt>
</event>
<event>
 8    1  0.7550631E-006  0.1941958E+03  0.7546771E-02  0.1159201E+00
         -2   -1    0    0    0  501 -0.00000000000E+00  0.00000000000E+00  0.10580593353E+04  0.10580593353E+04  0.00000000000E+00 0.  1.
          2   -1    0    0  501    0  0.00000000000E+00 -0.00000000000E+00 -0.39584474318E+02  0.39584474318E+02  0.00000000000E+00 0. -1.
         23    2    1    2    0    0  0.14493349456E+03  0.32832457722E+02  0.72453646878E+03  0.74534876535E+03  0.92238816569E+02 0.  0.
         23    2    1    2    0    0 -0.14493349456E+03 -0.32832457722E+02  0.29393839223E+03  0.35229504431E+03  0.12501332604E+03 0.  0.
          5    1    4    4  502    0  0.21140056634E+02 -0.12281088982E+02  0.23499058753E+02  0.34234820042E+02  0.47000000000E+01 0.  1.
         -5    1    4    4    0  502 -0.16607355120E+03 -0.20551368740E+02  0.27043933348E+03  0.31806022426E+03  0.47000000000E+01 0.  1.
        -11    1    3    3    0    0  0.15490459797E+03  0.34055470563E+02  0.71109548469E+03  0.72856845794E+03  0.00000000000E+00 0.  1.
         11    1    3    3    0    0 -0.99711034059E+01 -0.12230128416E+01  0.13440984090E+02  0.16780307413E+02  0.00000000000E+00 0. -1.
<mgrwt>
<rscale>  0 0.18918223E+03</rscale>
<asrwt>0</asrwt>
<pdfrwt beam="2">  1        2 0.60899199E-02 0.19419583E+03</pdfrwt>
<pdfrwt beam="1">  1       -2 0.16277834E+00 0.19419583E+03</pdfrwt>
<totfact> 0.30833606E+02</totfact>
</mgrwt>
</event>
<event>
 8    1  0.7550631E-006  0.1443513E+03  0.7546771E-02  0.1218272E+00
          1   -1    0    0  501    0  0.00000000000E+00  0.00000000000E+00  0.22017440618E+03  0.22017440618E+03  0.00000000000E+00 0. -1.
         -1   -1    0    0    0  501 -0.00000000000E+00 -0.00000000000E+00 -0.11676098513E+03  0.11676098513E+03  0.00000000000E+00 0.  1.
         23    2    1    2    0    0 -0.23393199986E+02 -0.68303526926E+02 -0.50751306695E+02  0.12573866615E+03  0.89565079340E+02 0.  0.
         23    2    1    2    0    0  0.23393199986E+02  0.68303526926E+02  0.15416472775E+03  0.21119672516E+03  0.12499871936E+03 0.  0.
          5    1    4    4  502    0  0.12062639619E+02 -0.42982284064E+01  0.13422156616E+03  0.13491293809E+03  0.47000000000E+01 0.  1.
         -5    1    4    4    0  502  0.11330560368E+02  0.72601755333E+02  0.19943161587E+02  0.76283787070E+02  0.47000000000E+01 0.  1.
        -11    1    3    3    0    0  0.32847857722E+02 -0.17565033177E+02 -0.59111708511E+01  0.37715435676E+02  0.00000000000E+00 0. -1.
         11    1    3    3    0    0 -0.56241057708E+02 -0.50738493749E+02 -0.44840135844E+02  0.88023230472E+02  0.00000000000E+00 0.  1.
<mgrwt>
<rscale>  0 0.13638889E+03</rscale>
<asrwt>0</asrwt>
<pdfrwt beam="1">  1        1 0.33872985E-01 0.14435128E+03</pdfrwt>
<pdfrwt beam="2">  1       -1 0.17963229E-01 0.14435128E+03</pdfrwt>
<totfact> 0.30259285E+03</totfact>
</mgrwt>
</event>
<event>
 8    1  0.7550631E-006  0.1496742E+03  0.7546771E-02  0.1211040E+00
          1   -1    0    0  501    0  0.00000000000E+00  0.00000000000E+00  0.13773623842E+03  0.13773623842E+03  0.00000000000E+00 0. -1.
         -1   -1    0    0    0  501 -0.00000000000E+00 -0.00000000000E+00 -0.15730759018E+03  0.15730759018E+03  0.00000000000E+00 0.  1.
         23    2    1    2    0    0 -0.11177762379E+02  0.81569405164E+02 -0.67437576729E+02  0.13790205313E+03  0.87696289957E+02 0.  0.
         23    2    1    2    0    0  0.11177762379E+02 -0.81569405164E+02  0.47866224968E+02  0.15714177547E+03  0.12499540742E+03 0.  0.
          5    1    4    4  502    0  0.17261596855E+01 -0.84947601786E+02 -0.20789066523E+02  0.87597659577E+02  0.47000000000E+01 0. -1.
         -5    1    4    4    0  502  0.94516026937E+01  0.33781966225E+01  0.68655291491E+02  0.69544115895E+02  0.47000000000E+01 0. -1.
        -11    1    3    3    0    0 -0.62918445169E+01  0.47516176032E+02 -0.86263996709E+02  0.98685619116E+02  0.00000000000E+00 0.  1.
         11    1    3    3    0    0 -0.48859178623E+01  0.34053229132E+02  0.18826419980E+02  0.39216434016E+02  0.00000000000E+00 0. -1.
<mgrwt>
<rscale>  0 0.14171491E+03</rscale>
<asrwt>0</asrwt>
<pdfrwt beam="1">  1        1 0.21190191E-01 0.14967419E+03</pdfrwt>
<pdfrwt beam="2">  1       -1 0.24201168E-01 0.14967419E+03</pdfrwt>
<totfact> 0.33725397E+03</totfact>
</mgrwt>
</event>
<event>
 7    1  0.7550631E-006  0.1424392E+03  0.7546771E-02  0.1223963E+00
          2   -1    0    0  501    0  0.00000000000E+00  0.00000000000E+00  0.81460625059E+03  0.81460625059E+03  0.00000000000E+00 0. -1.
         -2   -1    0    0    0  501 -0.00000000000E+00 -0.00000000000E+00 -0.19011845372E+02  0.19011845372E+02  0.00000000000E+00 0.  1.
         23    2    1    2    0    0 -0.24768729021E+02  0.52035439753E+02  0.35573591170E+03  0.37127144146E+03  0.89293154539E+02 0.  0.
          5    1    1    2  502    0 -0.30049259770E+02  0.20343555779E+02  0.24009268010E+03  0.24286498989E+03  0.47000000000E+01 0. -1.
         -5    1    1    2    0  502  0.54817988790E+02 -0.72378995533E+02  0.19976581342E+03  0.21948166461E+03  0.47000000000E+01 0.  1.
        -11    1    3    3    0    0 -0.32570029828E+02 -0.55548823635E+01  0.49132307612E+02  0.59208506250E+02  0.00000000000E+00 0. -1.
         11    1    3    3    0    0  0.78013008076E+01  0.57590322117E+02  0.30660360408E+03  0.31206293521E+03  0.00000000000E+00 0.  1.
<mgrwt>
<rscale>  0 0.13238242E+03</rscale>
<asrwt>0</asrwt>
<pdfrwt beam="1">  1        2 0.12532401E+00 0.14243923E+03</pdfrwt>
<pdfrwt beam="2">  1       -2 0.29248999E-02 0.14243923E+03</pdfrwt>
<totfact> 0.14594679E+04</totfact>
</mgrwt>
</event>
<event>
 8    1  0.7550631E-006  0.1345393E+03  0.7546771E-02  0.1232577E+00
         -1   -1    0    0    0  501 -0.00000000000E+00  0.00000000000E+00  0.13610570554E+03  0.13610570554E+03  0.00000000000E+00 0.  1.
          1   -1    0    0  501    0  0.00000000000E+00 -0.00000000000E+00 -0.11277692811E+03  0.11277692811E+03  0.00000000000E+00 0. -1.
         23    2    1    2    0    0  0.52285379276E+01 -0.49695947005E+02  0.40978478170E+02  0.11319060686E+03  0.92929290595E+02 0.  0.
         23    2    1    2    0    0 -0.52285379276E+01  0.49695947005E+02 -0.17649700745E+02  0.13569202680E+03  0.12491512896E+03 0.  0.
          5    1    4    4  502    0  0.52124349950E+02 -0.80234153162E+01 -0.93449379961E+01  0.53765610916E+02  0.47000000000E+01 0. -1.
         -5    1    4    4    0  502 -0.57352887877E+02  0.57719362321E+02 -0.83047627487E+01  0.81926415880E+02  0.47000000000E+01 0. -1.
        -11    1    3    3    0    0  0.23742969070E+02 -0.62658476341E+02  0.54918397873E+02  0.86636272210E+02  0.00000000000E+00 0.  1.
         11    1    3    3    0    0 -0.18514431142E+02  0.12962529336E+02 -0.13939919703E+02  0.26554334649E+02  0.00000000000E+00 0. -1.
<mgrwt>
<rscale>  0 0.12660846E+03</rscale>
<asrwt>0</asrwt>
<pdfrwt beam="2">  1        1 0.17350297E-01 0.13453927E+03</pdfrwt>
<pdfrwt beam="1">  1       -1 0.20939339E-01 0.13453927E+03</pdfrwt>
<totfact> 0.54747197E+03</totfact>
</mgrwt>
</event>
<event>
 8    1  0.7550631E-006  0.1330111E+03  0.7546771E-02  0.1235431E+00
          2   -1    0    0  501    0  0.00000000000E+00  0.00000000000E+00  0.30392603371E+02  0.30392603371E+02  0.00000000000E+00 0. -1.
         -2   -1    0    0    0  501 -0.00000000000E+00 -0.00000000000E+00 -0.47757172584E+03  0.47757172584E+03  0.00000000000E+00 0.  1.
         23    2    1    2    0    0  0.42716830762E+02 -0.15582395976E+02 -0.24716923710E+03  0.26776463302E+03  0.92399828084E+02 0.  0.
         23    2    1    2    0    0 -0.42716830762E+02  0.15582395976E+02 -0.20000988537E+03  0.24019969620E+03  0.12499760443E+03 0.  0.
          5    1    4    4  502    0  0.32340311646E+02 -0.30112089614E+02 -0.56854052369E+02  0.72160286648E+02  0.47000000000E+01 0. -1.
         -5    1    4    4    0  502 -0.75057142409E+02  0.45694485590E+02 -0.14315583300E+03  0.16803940955E+03  0.47000000000E+01 0. -1.
        -11    1    3    3    0    0  0.33692009787E+02  0.33344544571E+02 -0.76539793399E+02  0.90029718148E+02  0.00000000000E+00 0. -1.
         11    1    3    3    0    0  0.90248209756E+01 -0.48926940547E+02 -0.17062944371E+03  0.17773491487E+03  0.00000000000E+00 0.  1.
<mgrwt>
<rscale>  0 0.12476880E+03</rscale>
<asrwt>0</asrwt>
<pdfrwt beam="1">  1        2 0.46757854E-02 0.13301105E+03</pdfrwt>
<pdfrwt beam="2">  1       -2 0.73472569E-01 0.13301105E+03</pdfrwt>
<totfact> 0.28191373E+03</totfact>
</mgrwt>
</event>
<event>
 8    1  0.7550631E-006  0.1271763E+03  0.7546771E-02  0.1246342E+00
          1   -1    0    0  501    0  0.00000000000E+00  0.00000000000E+00  0.79938332393E+02  0.79938332393E+02  0.00000000000E+00 0. -1.
         -1   -1    0    0    0  501 -0.00000000000E+00 -0.00000000000E+00 -0.16813682511E+03  0.16813682511E+03  0.00000000000E+00 0.  1.
         23    2    1    2    0    0 -0.23251315464E+02  0.28731520093E+01 -0.74272582908E+02  0.12013869253E+03  0.91476828747E+02 0.  0.
         23    2    1    2    0    0  0.23251315464E+02 -0.28731520093E+01 -0.13925909812E+02  0.12793646498E+03  0.12499971773E+03 0.  0.
          5    1    4    4  502    0  0.47359896732E+02  0.28036919652E+02  0.34752607365E+02  0.65259960164E+02  0.47000000000E+01 0.  1.
         -5    1    4    4    0  502 -0.24108581267E+02 -0.30910071661E+02 -0.48678517177E+02  0.62676504811E+02  0.47000000000E+01 0.  1.
        -11    1    3    3    0    0 -0.42392784944E+02 -0.19232991919E+02 -0.77821829003E+02  0.90682375701E+02  0.00000000000E+00 0.  1.
         11    1    3    3    0    0  0.19141469480E+02  0.22106143928E+02  0.35492460950E+01  0.29456316828E+02  0.00000000000E+00 0. -1.
<mgrwt>
<rscale>  0 0.11805415E+03</rscale>
<asrwt>0</asrwt>
<pdfrwt beam="1">  1        1 0.12298205E-01 0.12717629E+03</pdfrwt>
<pdfrwt beam="2">  1       -1 0.25867204E-01 0.12717629E+03</pdfrwt>
<totfact> 0.60359112E+03</totfact>
</mgrwt>
</event>
<event>
 8    1  0.7550631E-006  0.1872110E+03  0.7546771E-02  0.1166280E+00
         -2   -1    0    0    0  501 -0.00000000000E+00  0.00000000000E+00  0.20787636547E+03  0.20787636547E+03  0.00000000000E+00 0.  1.
          2   -1    0    0  501    0  0.00000000000E+00 -0.00000000000E+00 -0.15617848772E+03  0.15617848772E+03  0.00000000000E+00 0. -1.
         23    2    1    2    0    0 -0.13936126029E+03  0.11336133990E+01  0.61117638964E+02  0.17660698247E+03  0.89620391182E+02 0.  0.
         23    2    1    2    0    0  0.13936126029E+03 -0.11336133990E+01 -0.94197612104E+01  0.18744787072E+03  0.12500050556E+03 0.  0.
          5    1    4    4  502    0 -0.18372123316E+02 -0.10063781805E+02 -0.19592543850E+02  0.29064968499E+02  0.47000000000E+01 0.  1.
         -5    1    4    4    0  502  0.15773338360E+03  0.89301684057E+01  0.10172782639E+02  0.15838290222E+03  0.47000000000E+01 0.  1.
        -11    1    3    3    0    0 -0.90478447814E+02  0.34728277494E+02  0.65749198493E+02  0.11711259488E+03  0.00000000000E+00 0.  1.
         11    1    3    3    0    0 -0.48882812471E+02 -0.33594664095E+02 -0.46315595294E+01  0.59494387588E+02  0.00000000000E+00 0. -1.
<mgrwt>
<rscale>  0 0.18158317E+03</rscale>
<asrwt>0</asrwt>
<pdfrwt beam="2">  1        2 0.24027460E-01 0.18721104E+03</pdfrwt>
<pdfrwt beam="1">  1       -2 0.31980979E-01 0.18721104E+03</pdfrwt>
<totfact> 0.20141782E+03</totfact>
</mgrwt>
</event>
<event>
 7    1  0.7550631E-006  0.2396970E+03  0.7546771E-02  0.1127969E+00
         -1   -1    0    0    0  501 -0.00000000000E+00  0.00000000000E+00  0.79421120299E+02  0.79421120299E+02  0.00000000000E+00 0.  1.
          1   -1    0    0  501    0  0.00000000000E+00 -0.00000000000E+00 -0.81928723205E+03  0.81928723205E+03  0.00000000000E+00 0. -1.
         23    2    1    2    0    0 -0.15212851262E+03  0.85333883911E+02 -0.11122167734E+03  0.22591681174E+03  0.90792005264E+02 0.  0.
          5    1    1    2  502    0  0.17189449987E+03 -0.10155827399E+03 -0.60684396749E+03  0.63886109052E+03  0.47000000000E+01 0. -1.
         -5    1    1    2    0  502 -0.19765987244E+02  0.16224390083E+02 -0.21800466916E+02  0.33930450086E+02  0.47000000000E+01 0.  1.
        -11    1    3    3    0    0 -0.87529667230E+02  0.96746300799E+02 -0.82066573843E+02  0.15413050284E+03  0.00000000000E+00 0. -1.
         11    1    3    3    0    0 -0.64598845394E+02 -0.11412416888E+02 -0.29155103502E+02  0.71786308901E+02  0.00000000000E+00 0.  1.
<mgrwt>
<rscale>  0 0.22812142E+03</rscale>
<asrwt>0</asrwt>
<pdfrwt beam="2">  1        1 0.12604419E+00 0.23969696E+03</pdfrwt>
<pdfrwt beam="1">  1       -1 0.12218634E-01 0.23969696E+03</pdfrwt>
<totfact> 0.99084473E+02</totfact>
</mgrwt>
</event>
<event>
 8    1  0.7550631E-006  0.1462710E+03  0.7546771E-02  0.1215216E+00
         -1   -1    0    0    0  501 -0.00000000000E+00  0.00000000000E+00  0.61093313438E+02  0.61093313438E+02  0.00000000000E+00 0.  1.
          1   -1    0    0  501    0  0.00000000000E+00 -0.00000000000E+00 -0.28906397609E+03  0.28906397609E+03  0.00000000000E+00 0. -1.
         23    2    1    2    0    0 -0.47806812055E+01 -0.75802889358E+02 -0.83025074525E+02  0.14423389765E+03  0.90229270655E+02 0.  0.
         23    2    1    2    0    0  0.47806812055E+01  0.75802889358E+02 -0.14494558813E+03  0.20592339188E+03  0.12500514733E+03 0.  0.
          5    1    4    4  502    0  0.36846159062E+02  0.35842060067E+02 -0.14558932355E+03  0.15446887660E+03  0.47000000000E+01 0.  1.
         -5    1    4    4    0  502 -0.32065477856E+02  0.39960829290E+02  0.64373541665E+00  0.51454515283E+02  0.47000000000E+01 0.  1.
        -11    1    3    3    0    0  0.65636621354E+01 -0.63040419788E+02 -0.41338432761E+01  0.63515862963E+02  0.00000000000E+00 0.  1.
         11    1    3    3    0    0 -0.11344343341E+02 -0.12762469570E+02 -0.78891231249E+02  0.80718034685E+02  0.00000000000E+00 0. -1.
<mgrwt>
<rscale>  0 0.13860716E+03</rscale>
<asrwt>0</asrwt>
<pdfrwt beam="2">  1        1 0.44471380E-01 0.14627105E+03</pdfrwt>
<pdfrwt beam="1">  1       -1 0.93989714E-02 0.14627105E+03</pdfrwt>
<totfact> 0.59171892E+03</totfact>
</mgrwt>
</event>
<event>
 8    1  0.7550631E-006  0.2610077E+03  0.7546771E-02  0.1108783E+00
         -2   -1    0    0    0  501 -0.00000000000E+00  0.00000000000E+00  0.14423835404E+03  0.14423835404E+03  0.00000000000E+00 0.  1.
          2   -1    0    0  501    0  0.00000000000E+00 -0.00000000000E+00 -0.47183753271E+03  0.47183753271E+03  0.00000000000E+00 0. -1.
         23    2    1    2    0    0  0.22903647128E+03  0.60415253031E+01 -0.87756408329E+02  0.26160501758E+03  0.90784320337E+02 0.  0.
         23    2    1    2    0    0 -0.22903647128E+03 -0.60415253031E+01 -0.23984277034E+03  0.35447086916E+03  0.12502334742E+03 0.  0.
          5    1    4    4  502    0 -0.18747840956E+03  0.28829539263E+02 -0.23159679556E+03  0.29939683047E+03  0.47000000000E+01 0. -1.
         -5    1    4    4    0  502 -0.41558061717E+02 -0.34871064566E+02 -0.82459747817E+01  0.55074038691E+02  0.47000000000E+01 0. -1.
        -11    1    3    3    0    0  0.16987617945E+03 -0.45848382840E+01 -0.20127916919E+02  0.17112588970E+03  0.00000000000E+00 0.  1.
         11    1    3    3    0    0  0.59160291832E+02  0.10626363587E+02 -0.67628491410E+02  0.90479127887E+02  0.00000000000E+00 0. -1.
<mgrwt>
<rscale>  0 0.25728876E+03</rscale>
<asrwt>0</asrwt>
<pdfrwt beam="2">  1        2 0.72590391E-01 0.26100774E+03</pdfrwt>
<pdfrwt beam="1">  1       -2 0.22190516E-01 0.26100774E+03</pdfrwt>
<totfact> 0.11665524E+03</totfact>
</mgrwt>
</event>
