<event>
 8    1  0.6787197E-009  0.1096968E+03  0.7561462E-02  0.1261132E+00
          2   -1    0    0  501    0  0.00000000000E+00  0.00000000000E+00  0.29550612431E+03  0.29550612431E+03  0.00000000000E+00 0. -1.
         -2   -1    0    0    0  501 -0.00000000000E+00 -0.00000000000E+00 -0.46693213997E+02  0.46693213997E+02  0.00000000000E+00 0.  1.
         25    2    1    2    0    0  0.10144287924E+02  0.20603831533E+02  0.85659338697E+02  0.15333850678E+03  0.12509097051E+03 0.  0.
         23    2    1    2    0    0 -0.10144287924E+02 -0.20603831533E+02  0.16315357162E+03  0.18886083153E+03  0.92314144651E+02 0.  0.
          5    1    3    3  502    0  0.99792240894E+01 -0.52615651029E+02  0.39602776727E+02  0.66737125883E+02  0.41800000000E+01 0. -1.
         -5    1    3    3    0  502  0.16506383449E+00  0.73219482563E+02  0.46056561970E+02  0.86601380897E+02  0.41800000000E+01 0. -1.
        -11    1    4    4    0    0 -0.33493893510E+01  0.35583859947E+02  0.86365132024E+02  0.93468526934E+02  0.00000000000E+00 0.  1.
         11    1    4    4    0    0 -0.67948985729E+01 -0.56187691481E+02  0.76788439597E+02  0.95392304597E+02  0.00000000000E+00 0. -1.
</event>
<event>
 8    1  0.6787197E-009  0.1222975E+03  0.7561462E-02  0.1239354E+00
          1   -1    0    0  501    0  0.00000000000E+00  0.00000000000E+00  0.79417294518E+03  0.79417294518E+03  0.00000000000E+00 0. -1.
         -1   -1    0    0    0  501 -0.00000000000E+00 -0.00000000000E+00 -0.19354278113E+02  0.19354278113E+02  0.00000000000E+00 0.  1.
         25    2    1    2    0    0  0.43290401056E+02  0.27689277497E+02  0.48049921819E+03  0.49916706028E+03  0.12508996950E+03 0.  0.
         23    2    1    2    0    0 -0.43290401056E+02 -0.27689277497E+02  0.29431944888E+03  0.31436016302E+03  0.97763076844E+02 0.  0.
          5    1    3    3  502    0  0.30795277962E+02  0.77079196294E+02  0.32621884148E+03  0.33663891127E+03  0.41800000000E+01 0. -1.
         -5    1    3    3    0  502  0.12495123093E+02 -0.49389918797E+02  0.15428037672E+03  0.16252814901E+03  0.41800000000E+01 0. -1.
        -11    1    4    4    0    0  0.22672308003E+02 -0.37360180164E+02  0.11084307569E+03  0.11914698502E+03  0.00000000000E+00 0.  1.
         11    1    4    4    0    0 -0.65962709058E+02  0.96709026662E+01  0.18347637319E+03  0.19521317800E+03  0.00000000000E+00 0. -1.
</event>
<event>
 8    1  0.6787197E-009  0.2265062E+03  0.7561462E-02  0.1129123E+00
         -1   -1    0    0    0  501 -0.00000000000E+00  0.00000000000E+00  0.60204387627E+03  0.60204387627E+03  0.00000000000E+00 0.  1.
          1   -1    0    0  501    0  0.00000000000E+00 -0.00000000000E+00 -0.89762838726E+02  0.89762838726E+02  0.00000000000E+00 0. -1.
         25    2    1    2    0    0  0.20204835068E+03  0.21744261369E+02  0.22182958263E+03  0.32581031827E+03  0.12509057055E+03 0.  0.
         23    2    1    2    0    0 -0.20204835068E+03 -0.21744261369E+02  0.29045145491E+03  0.36599639673E+03  0.91076703085E+02 0.  0.
          5    1    3    3  502    0 -0.81407361568E+01 -0.15063742997E+02 -0.48111304477E+00  0.17632124319E+02  0.41800000000E+01 0.  1.
         -5    1    3    3    0  502  0.21018908684E+03  0.36808004366E+02  0.22231069568E+03  0.30817819395E+03  0.41800000000E+01 0.  1.
        -11    1    4    4    0    0 -0.16809062799E+03  0.18723815406E+02  0.20817092905E+03  0.26821665903E+03  0.00000000000E+00 0.  1.
         11    1    4    4    0    0 -0.33957722689E+02 -0.40468076774E+02  0.82280525862E+02  0.97779737698E+02  0.00000000000E+00 0. -1.
</event>
<event>
 8    1  0.6787197E-009  0.7921805E+02  0.7561462E-02  0.1331285E+00
         -2   -1    0    0    0  501 -0.00000000000E+00  0.00000000000E+00  0.55828994246E+02  0.55828994246E+02  0.00000000000E+00 0.  1.
          2   -1    0    0  501    0  0.00000000000E+00 -0.00000000000E+00 -0.29902145061E+03  0.29902145061E+03  0.00000000000E+00 0. -1.
         25    2    1    2    0    0  0.67051910505E+02  0.16286758720E+02 -0.13404309313E+03  0.19590104511E+03  0.12509377062E+03 0.  0.
         23    2    1    2    0    0 -0.67051910505E+02 -0.16286758720E+02 -0.10914936323E+03  0.15894939974E+03  0.92682851558E+02 0.  0.
          5    1    3    3  502    0  0.48048990475E+02 -0.13465920628E+02 -0.14910721137E+03  0.15729103403E+03  0.41800000000E+01 0.  1.
         -5    1    3    3    0  502  0.19002920030E+02  0.29752679348E+02  0.15064118231E+02  0.38610011087E+02  0.41800000000E+01 0.  1.
        -11    1    4    4    0    0 -0.42954020605E+02 -0.21682711305E+02 -0.11157458840E+01  0.48129333515E+02  0.00000000000E+00 0.  1.
         11    1    4    4    0    0 -0.24097889899E+02  0.53959525853E+01 -0.10803361734E+03  0.11082006623E+03  0.00000000000E+00 0. -1.
</event>
<event>
 8    1  0.6787197E-009  0.1171950E+03  0.7561462E-02  0.1247797E+00
         -1   -1    0    0    0  501 -0.00000000000E+00  0.00000000000E+00  0.12645886294E+02  0.12645886294E+02  0.00000000000E+00 0.  1.
          1   -1    0    0  501    0  0.00000000000E+00 -0.00000000000E+00 -0.17033733933E+04  0.17033733933E+04  0.00000000000E+00 0. -1.
         25    2    1    2    0    0 -0.86246900806E+01  0.48227707020E+02 -0.13955687424E+04  0.14020185062E+04  0.12507389827E+03 0.  0.
         23    2    1    2    0    0  0.86246900806E+01 -0.48227707020E+02 -0.29515876455E+03  0.31400077332E+03  0.95275874952E+02 0.  0.
          5    1    3    3  502    0 -0.60074845411E+02  0.55336739422E+02 -0.90650373674E+03  0.91018549698E+03  0.41800000000E+01 0. -1.
         -5    1    3    3    0  502  0.51450155331E+02 -0.71090324014E+01 -0.48906500567E+03  0.49183300926E+03  0.41800000000E+01 0. -1.
        -11    1    4    4    0    0 -0.21506639389E+02  0.17802546740E+02 -0.13931016542E+03  0.14208021818E+03  0.00000000000E+00 0.  1.
         11    1    4    4    0    0  0.30131329470E+02 -0.66030253761E+02 -0.15584859913E+03  0.17192055513E+03  0.00000000000E+00 0. -1.
</event>
<event>
 8    1  0.6787197E-009  0.7479727E+02  0.7561462E-02  0.1344500E+00
          1   -1    0    0  501    0  0.00000000000E+00  0.00000000000E+00  0.34506481022E+03  0.34506481022E+03  0.00000000000E+00 0. -1.
         -1   -1    0    0    0  501 -0.00000000000E+00 -0.00000000000E+00 -0.39133673213E+02  0.39133673213E+02  0.00000000000E+00 0.  1.
         25    2    1    2    0    0  0.94304581233E+01  0.27186771858E+02  0.21831796185E+03  0.25325034695E+03  0.12507978118E+03 0.  0.
         23    2    1    2    0    0 -0.94304581233E+01 -0.27186771858E+02  0.87613175154E+02  0.13094813648E+03  0.92969306133E+02 0.  0.
          5    1    3    3  502    0  0.25252854368E+02  0.26008876196E+02  0.22506861788E+01  0.36560994010E+02  0.41800000000E+01 0. -1.
         -5    1    3    3    0  502 -0.15822396245E+02  0.11778956616E+01  0.21606727568E+03  0.21668935294E+03  0.41800000000E+01 0. -1.
        -11    1    4    4    0    0 -0.50892760465E+02 -0.10291688284E+02  0.39613166158E+02  0.65308459242E+02  0.00000000000E+00 0. -1.
         11    1    4    4    0    0  0.41462302342E+02 -0.16895083574E+02  0.48000008996E+02  0.65639677239E+02  0.00000000000E+00 0.  1.
</event>
<event>
 8    1  0.6787197E-009  0.1505618E+03  0.7561462E-02  0.1199784E+00
          2   -1    0    0  501    0  0.00000000000E+00  0.00000000000E+00  0.21775191808E+03  0.21775191808E+03  0.00000000000E+00 0.  1.
         -2   -1    0    0    0  501 -0.00000000000E+00 -0.00000000000E+00 -0.11149306259E+03  0.11149306259E+03  0.00000000000E+00 0. -1.
         25    2    1    2    0    0  0.22371136196E+01  0.11049599429E+03  0.71371556610E+02  0.18153198648E+03  0.12508234724E+03 0.  0.
         23    2    1    2    0    0 -0.22371136196E+01 -0.11049599429E+03  0.34887298883E+02  0.14771299418E+03  0.91584035704E+02 0.  0.
          5    1    3    3  502    0 -0.48741669973E+02  0.18440991951E+02 -0.33764624373E+01  0.52389822241E+02  0.41800000000E+01 0.  1.
         -5    1    3    3    0  502  0.50978783593E+02  0.92055002341E+02  0.74748019048E+02  0.12914216424E+03  0.41800000000E+01 0.  1.
        -11    1    4    4    0    0  0.43198206367E+02 -0.35810277263E+02  0.14059572666E+02  0.57845765398E+02  0.00000000000E+00 0.  1.
         11    1    4    4    0    0 -0.45435319986E+02 -0.74685717029E+02  0.20827726217E+02  0.89867228786E+02  0.00000000000E+00 0. -1.
</event>
<event>
 8    1  0.6787197E-009  0.1368026E+03  0.7561462E-02  0.1217697E+00
         -2   -1    0    0    0  501 -0.00000000000E+00  0.00000000000E+00  0.13819493269E+03  0.13819493269E+03  0.00000000000E+00 0.  1.
          2   -1    0    0  501    0  0.00000000000E+00 -0.00000000000E+00 -0.17289593236E+03  0.17289593236E+03  0.00000000000E+00 0. -1.
         25    2    1    2    0    0 -0.10283149803E+03 -0.37499072850E+02 -0.24133361526E+02  0.16796274232E+03  0.12509422935E+03 0.  0.
         23    2    1    2    0    0  0.10283149803E+03  0.37499072850E+02 -0.10567638142E+02  0.14312812274E+03  0.91615976181E+02 0.  0.
          5    1    3    3  502    0 -0.58722998926E+02  0.41410277247E+02  0.68658286133E+01  0.72303621397E+02  0.41800000000E+01 0.  1.
         -5    1    3    3    0  502 -0.44108499100E+02 -0.78909350097E+02 -0.30999190139E+02  0.95659120918E+02  0.41800000000E+01 0.  1.
        -11    1    4    4    0    0  0.25128716814E+02  0.65841834144E+00  0.37094204278E+02  0.44809216847E+02  0.00000000000E+00 0.  1.
         11    1    4    4    0    0  0.77702781211E+02  0.36840654508E+02 -0.47661842419E+02  0.98318905890E+02  0.00000000000E+00 0. -1.
</event>
<event>
 8    1  0.6787197E-009  0.7842512E+02  0.7561462E-02  0.1333581E+00
         -2   -1    0    0    0  501 -0.00000000000E+00  0.00000000000E+00  0.58245681501E+02  0.58245681501E+02  0.00000000000E+00 0. -1.
          2   -1    0    0  501    0  0.00000000000E+00 -0.00000000000E+00 -0.35489365105E+03  0.35489365105E+03  0.00000000000E+00 0.  1.
         25    2    1    2    0    0  0.37606240192E+02  0.10479015549E+02 -0.29092771495E+03  0.31907819516E+03  0.12509164732E+03 0.  0.
         23    2    1    2    0    0 -0.37606240192E+02 -0.10479015549E+02 -0.57202545977E+01  0.94061137392E+02  0.85385813731E+02 0.  0.
          5    1    3    3  502    0  0.74266275042E+02  0.11812702266E+02 -0.26069914641E+03  0.27136052933E+03  0.41800000000E+01 0. -1.
         -5    1    3    3    0  502 -0.36660034849E+02 -0.13336867166E+01 -0.30228568544E+02  0.47717665823E+02  0.41800000000E+01 0. -1.
        -11    1    4    4    0    0 -0.62038824635E+01 -0.11638652203E+02  0.37997651318E+02  0.40221485408E+02  0.00000000000E+00 0. -1.
         11    1    4    4    0    0 -0.31402357729E+02  0.11596366540E+01 -0.43717905916E+02  0.53839651984E+02  0.00000000000E+00 0.  1.
</event>
<event>
 8    1  0.6787197E-009  0.1108233E+03  0.7561462E-02  0.1259053E+00
         -1   -1    0    0    0  501 -0.00000000000E+00  0.00000000000E+00  0.13497260314E+03  0.13497260314E+03  0.00000000000E+00 0.  1.
          1   -1    0    0  501    0  0.00000000000E+00 -0.00000000000E+00 -0.12140062979E+03  0.12140062979E+03  0.00000000000E+00 0. -1.
         25    2    1    2    0    0 -0.47763101921E+02 -0.14223114075E+02  0.52037940201E+02  0.14436029624E+03  0.12509331329E+03 0.  0.
         23    2    1    2    0    0  0.47763101921E+02  0.14223114075E+02 -0.38465966851E+02  0.11201293670E+03  0.92648024816E+02 0.  0.
          5    1    3    3  502    0  0.26267624472E+02 -0.42628084855E+02  0.39630309506E+02  0.63993558624E+02  0.41800000000E+01 0. -1.
         -5    1    3    3    0  502 -0.74030726394E+02  0.28404970780E+02  0.12407630695E+02  0.80366737615E+02  0.41800000000E+01 0. -1.
        -11    1    4    4    0    0 -0.19886612389E+02 -0.70229363428E+01 -0.35194604268E+02  0.41029978757E+02  0.00000000000E+00 0. -1.
         11    1    4    4    0    0  0.67649714310E+02  0.21246050418E+02 -0.32713625834E+01  0.70982957939E+02  0.00000000000E+00 0.  1.
</event>
<event>
 8    1  0.6787197E-009  0.7457238E+02  0.7561462E-02  0.1345200E+00
          1   -1    0    0  501    0  0.00000000000E+00  0.00000000000E+00  0.89095414951E+03  0.89095414951E+03  0.00000000000E+00 0. -1.
         -1   -1    0    0    0  501 -0.00000000000E+00 -0.00000000000E+00 -0.16072050452E+02  0.16072050452E+02  0.00000000000E+00 0.  1.
         25    2    1    2    0    0  0.14370774108E+01 -0.21665224941E+02  0.65763310843E+03  0.66977469319E+03  0.12508152209E+03 0.  0.
         23    2    1    2    0    0 -0.14370774108E+01  0.21665224941E+02  0.21724899063E+03  0.23725150677E+03  0.92842373808E+02 0.  0.
          5    1    3    3  502    0 -0.10854831852E+02  0.21299274035E+02  0.22614547141E+02  0.33171924746E+02  0.41800000000E+01 0. -1.
         -5    1    3    3    0  502  0.12291909263E+02 -0.42964498976E+02  0.63501856129E+03  0.63660276845E+03  0.41800000000E+01 0. -1.
        -11    1    4    4    0    0 -0.35032345413E+02 -0.71244912516E+01  0.36207740657E+02  0.50882453598E+02  0.00000000000E+00 0.  1.
         11    1    4    4    0    0  0.33595268002E+02  0.28789716193E+02  0.18104124997E+03  0.18636905317E+03  0.00000000000E+00 0. -1.
</event>
<event>
 8    1  0.6787197E-009  0.1219898E+03  0.7561462E-02  0.1239850E+00
         -4   -1    0    0    0  501 -0.00000000000E+00  0.00000000000E+00  0.82527843199E+02  0.82527843199E+02  0.00000000000E+00 0.  1.
          4   -1    0    0  501    0  0.00000000000E+00 -0.00000000000E+00 -0.26998910507E+03  0.26998910507E+03  0.00000000000E+00 0. -1.
         25    2    1    2    0    0 -0.13791776053E+02  0.98487590820E+02 -0.74612148243E+02  0.17636377543E+03  0.12508872846E+03 0.  0.
         23    2    1    2    0    0  0.13791776053E+02 -0.98487590820E+02 -0.11284911363E+03  0.17615317284E+03  0.91678782835E+02 0.  0.
          5    1    3    3  502    0 -0.55424323006E+02  0.32438363635E+02 -0.74140276002E+02  0.98175128936E+02  0.41800000000E+01 0.  1.
         -5    1    3    3    0  502  0.41632546953E+02  0.66049227185E+02 -0.47187224054E+00  0.78188646496E+02  0.41800000000E+01 0.  1.
        -11    1    4    4    0    0  0.92519700219E+00 -0.71840229670E+02 -0.12499034831E+03  0.14416817179E+03  0.00000000000E+00 0. -1.
         11    1    4    4    0    0  0.12866579051E+02 -0.26647361149E+02  0.12141234672E+02  0.31985001048E+02  0.00000000000E+00 0.  1.
</event>
<event>
 8    1  0.6787197E-009  0.9851064E+02  0.7561462E-02  0.1283459E+00
          4   -1    0    0  501    0  0.00000000000E+00  0.00000000000E+00  0.27689630512E+03  0.27689630512E+03  0.00000000000E+00 0. -1.
         -4   -1    0    0    0  501 -0.00000000000E+00 -0.00000000000E+00 -0.90716811592E+02  0.90716811592E+02  0.00000000000E+00 0.  1.
         25    2    1    2    0    0 -0.84321888733E+02  0.44539930279E+01  0.94391521177E+01  0.15122294498E+03  0.12509701244E+03 0.  0.
         23    2    1    2    0    0  0.84321888733E+02 -0.44539930279E+01  0.17674034141E+03  0.21639017174E+03  0.91964880077E+02 0.  0.
          5    1    3    3  502    0 -0.78010337729E+02 -0.77904861116E+00  0.60829711169E+02  0.99014877015E+02  0.41800000000E+01 0.  1.
         -5    1    3    3    0  502 -0.63115510036E+01  0.52330416390E+01 -0.51390559051E+02  0.52208067964E+02  0.41800000000E+01 0.  1.
        -11    1    4    4    0    0  0.24243840102E+02  0.31444979937E+02  0.11966771138E+03  0.12608295560E+03  0.00000000000E+00 0. -1.
         11    1    4    4    0    0  0.60078048631E+02 -0.35898972964E+02  0.57072630034E+02  0.90307216136E+02  0.00000000000E+00 0.  1.
</event>
<event>
 8    1  0.6787197E-009  0.1018542E+03  0.7561462E-02  0.1276444E+00
          1   -1    0    0  501    0  0.00000000000E+00  0.00000000000E+00  0.24894468104E+03  0.24894468104E+03  0.00000000000E+00 0. -1.
         -1   -1    0    0    0  501 -0.00000000000E+00 -0.00000000000E+00 -0.63957409818E+02  0.63957409818E+02  0.00000000000E+00 0.  1.
         25    2    1    2    0    0 -0.70068482625E+01 -0.52429042382E+02  0.85427810196E+02  0.16044865726E+03  0.12509180810E+03 0.  0.
         23    2    1    2    0    0  0.70068482625E+01  0.52429042382E+02  0.99559461023E+02  0.15245343360E+03  0.10262583850E+03 0.  0.
          5    1    3    3  502    0  0.21226236214E+02  0.33783354528E+02  0.47124596004E+02  0.61887543945E+02  0.41800000000E+01 0.  1.
         -5    1    3    3    0  502 -0.28233084476E+02 -0.86212396910E+02  0.38303214191E+02  0.98561113313E+02  0.41800000000E+01 0.  1.
        -11    1    4    4    0    0  0.19975841287E+02  0.12871176270E+01  0.97626291667E+02  0.99657331549E+02  0.00000000000E+00 0. -1.
         11    1    4    4    0    0 -0.12968993024E+02  0.51141924755E+02  0.19331693567E+01  0.52796102049E+02  0.00000000000E+00 0.  1.
</event>
<event>
 8    1  0.6787197E-009  0.1336642E+03  0.7561462E-02  0.1222118E+00
         -1   -1    0    0    0  501 -0.00000000000E+00  0.00000000000E+00  0.16907695517E+03  0.16907695517E+03  0.00000000000E+00 0.  1.
          1   -1    0    0  501    0  0.00000000000E+00 -0.00000000000E+00 -0.15582319511E+03  0.15582319511E+03  0.00000000000E+00 0. -1.
         25    2    1    2    0    0 -0.50951464132E+02  0.10571649668E+03 -0.12661177074E+02  0.17198047823E+03  0.12507977503E+03 0.  0.
         23    2    1    2    0    0  0.50951464132E+02 -0.10571649668E+03  0.25914937129E+02  0.15291967205E+03  0.94555871138E+02 0.  0.
          5    1    3    3  502    0 -0.16671509169E+02  0.12819915077E+02  0.50221094261E+02  0.54606960631E+02  0.41800000000E+01 0. -1.
         -5    1    3    3    0  502 -0.34279954963E+02  0.92896581599E+02 -0.62882271336E+02  0.11737351760E+03  0.41800000000E+01 0. -1.
        -11    1    4    4    0    0 -0.74984230246E+01  0.12685112827E+02  0.14024143051E+02  0.20342443894E+02  0.00000000000E+00 0.  1.
         11    1    4    4    0    0  0.58449887157E+02 -0.11840160950E+03  0.11890794079E+02  0.13257722816E+03  0.00000000000E+00 0. -1.
</event>
<event>
 8    1  0.6787197E-009  0.1257590E+03  0.7561462E-02  0.1233888E+00
         -1   -1    0    0    0  501 -0.00000000000E+00  0.00000000000E+00  0.20181409134E+02  0.20181409134E+02  0.00000000000E+00 0.  1.
          1   -1    0    0  501    0  0.00000000000E+00 -0.00000000000E+00 -0.11467875010E+04  0.11467875010E+04  0.00000000000E+00 0. -1.
         25    2    1    2    0    0  0.94186137661E+02 -0.11933531358E+01 -0.79691567905E+03  0.81215473539E+03  0.12509301372E+03 0.  0.
         23    2    1    2    0    0 -0.94186137661E+02  0.11933531358E+01 -0.32969041283E+03  0.35481417476E+03  0.91240767632E+02 0.  0.
          5    1    3    3  502    0  0.67724311650E+02  0.37528880262E+02 -0.70130289694E+03  0.70557651952E+03  0.41800000000E+01 0. -1.
         -5    1    3    3    0  502  0.26461826011E+02 -0.38722233398E+02 -0.95612782118E+02  0.10657821588E+03  0.41800000000E+01 0. -1.
        -11    1    4    4    0    0 -0.80386077693E+02 -0.35360436601E+02 -0.18256364833E+03  0.20258767894E+03  0.00000000000E+00 0.  1.
         11    1    4    4    0    0 -0.13800059967E+02  0.36553789737E+02 -0.14712676450E+03  0.15222649582E+03  0.00000000000E+00 0. -1.
</event>
<event>
 8    1  0.6787197E-009  0.1101528E+03  0.7561462E-02  0.1260287E+00
         -3   -1    0    0    0  501 -0.00000000000E+00  0.00000000000E+00  0.19889687481E+03  0.19889687481E+03  0.00000000000E+00 0.  1.
          3   -1    0    0  501    0  0.00000000000E+00 -0.00000000000E+00 -0.75583535427E+02  0.75583535427E+02  0.00000000000E+00 0. -1.
         25    2    1    2    0    0  0.16337206390E+02  0.23490295973E+02  0.17046402790E+02  0.12944855934E+03  0.12509057259E+03 0.  0.
         23    2    1    2    0    0 -0.16337206390E+02 -0.23490295973E+02  0.10626693659E+03  0.14503185089E+03  0.94460984767E+02 0.  0.
          5    1    3    3  502    0 -0.40596102056E+02 -0.29550112662E+02  0.58496324466E+01  0.50724188118E+02  0.41800000000E+01 0.  1.
         -5    1    3    3    0  502  0.56933308446E+02  0.53040408636E+02  0.11196770344E+02  0.78724371226E+02  0.41800000000E+01 0.  1.
        -11    1    4    4    0    0  0.25939248684E+02  0.18925280279E+02  0.13988384019E+02  0.35024073770E+02  0.00000000000E+00 0. -1.
         11    1    4    4    0    0 -0.42276455075E+02 -0.42415576252E+02  0.92278552576E+02  0.11000777712E+03  0.00000000000E+00 0.  1.
</event>
<event>
 8    1  0.6787197E-009  0.1902679E+03  0.7561462E-02  0.1158220E+00
         -2   -1    0    0    0  501 -0.00000000000E+00  0.00000000000E+00  0.34024446239E+02  0.34024446239E+02  0.00000000000E+00 0.  1.
          2   -1    0    0  501    0  0.00000000000E+00 -0.00000000000E+00 -0.12348348256E+04  0.12348348256E+04  0.00000000000E+00 0. -1.
         25    2    1    2    0    0 -0.16489383559E+03 -0.43461590355E+01 -0.78879471948E+03  0.81550820838E+03  0.12509061649E+03 0.  0.
         23    2    1    2    0    0  0.16489383559E+03  0.43461590355E+01 -0.41201565985E+03  0.45335106343E+03  0.92527923564E+02 0.  0.
          5    1    3    3  502    0 -0.13461548268E+03 -0.44631322945E+02 -0.42127827898E+03  0.44452912605E+03  0.41800000000E+01 0. -1.
         -5    1    3    3    0  502 -0.30278352914E+02  0.40285163910E+02 -0.36751644050E+03  0.37097908233E+03  0.41800000000E+01 0. -1.
        -11    1    4    4    0    0  0.14430053749E+03  0.37465599499E+02 -0.34460899859E+03  0.37547526972E+03  0.00000000000E+00 0. -1.
         11    1    4    4    0    0  0.20593298101E+02 -0.33119440464E+02 -0.67406661259E+02  0.77875793707E+02  0.00000000000E+00 0.  1.
</event>
<event>
 8    1  0.6787197E-009  0.1021458E+03  0.7561462E-02  0.1275847E+00
         -2   -1    0    0    0  501 -0.00000000000E+00  0.00000000000E+00  0.34732855254E+02  0.34732855254E+02  0.00000000000E+00 0.  1.
          2   -1    0    0  501    0  0.00000000000E+00 -0.00000000000E+00 -0.37538999316E+03  0.37538999316E+03  0.00000000000E+00 0. -1.
         25    2    1    2    0    0 -0.20694213941E+02 -0.30130828794E+02 -0.18772545125E+03  0.22852525292E+03  0.12508728489E+03 0.  0.
         23    2    1    2    0    0  0.20694213941E+02  0.30130828794E+02 -0.15293168666E+03  0.18159759549E+03  0.90848602467E+02 0.  0.
          5    1    3    3  502    0  0.41491696385E+02 -0.49104547534E+02 -0.81136730116E+02  0.10360240746E+03  0.41800000000E+01 0. -1.
         -5    1    3    3    0  502 -0.62185910326E+02  0.18973718740E+02 -0.10658872113E+03  0.12492284546E+03  0.41800000000E+01 0. -1.
        -11    1    4    4    0    0  0.43613321075E+02  0.11294176645E+02 -0.27669801640E+02  0.52870579003E+02  0.00000000000E+00 0.  1.
         11    1    4    4    0    0 -0.22919107134E+02  0.18836652149E+02 -0.12526188502E+03  0.12872701649E+03  0.00000000000E+00 0. -1.
</event>
<event>
 8    1  0.6787197E-009  0.9586020E+02  0.7561462E-02  0.1289250E+00
         -2   -1    0    0    0  501 -0.00000000000E+00  0.00000000000E+00  0.94754498492E+02  0.94754498492E+02  0.00000000000E+00 0.  1.
          2   -1    0    0  501    0  0.00000000000E+00 -0.00000000000E+00 -0.15613734064E+03  0.15613734064E+03  0.00000000000E+00 0. -1.
         25    2    1    2    0    0  0.38694566222E+02  0.43225139933E+02 -0.62662122326E+02  0.15146040442E+03  0.12509208750E+03 0.  0.
         23    2    1    2    0    0 -0.38694566222E+02 -0.43225139933E+02  0.12792801754E+01  0.99431434713E+02  0.80742129486E+02 0.  0.
          5    1    3    3  502    0  0.71377828498E+02  0.10283087973E+02 -0.74101298721E+02  0.10348435230E+03  0.41800000000E+01 0.  1.
         -5    1    3    3    0  502 -0.32683262276E+02  0.32942051961E+02  0.11439176395E+02  0.47976052119E+02  0.41800000000E+01 0.  1.
        -11    1    4    4    0    0 -0.24697820322E+02  0.27343457818E+01 -0.32346754825E+02  0.40789355514E+02  0.00000000000E+00 0. -1.
         11    1    4    4    0    0 -0.13996745900E+02 -0.45959485715E+02  0.33626035000E+02  0.58642079200E+02  0.00000000000E+00 0.  1.
</event>
<event>
 8    1  0.6787197E-009  0.1596004E+03  0.7561462E-02  0.1189149E+00
          1   -1    0    0  501    0  0.00000000000E+00  0.00000000000E+00  0.37309304084E+03  0.37309304084E+03  0.00000000000E+00 0. -1.
         -1   -1    0    0    0  501 -0.00000000000E+00 -0.00000000000E+00 -0.10944459032E+03  0.10944459032E+03  0.00000000000E+00 0.  1.
         25    2    1    2    0    0 -0.11806664198E+03 -0.69855916634E+02  0.22664947852E+02  0.18703106799E+03  0.12508932606E+03 0.  0.
         23    2    1    2    0    0  0.11806664198E+03  0.69855916634E+02  0.24098350267E+03  0.29550656317E+03  0.10213471145E+03 0.  0.
          5    1    3    3  502    0 -0.30944691827E+02 -0.85149464362E+02  0.35809634683E+02  0.97507987208E+02  0.41800000000E+01 0.  1.
         -5    1    3    3    0  502 -0.87121950151E+02  0.15293547727E+02 -0.13144686830E+02  0.89523080778E+02  0.41800000000E+01 0.  1.
        -11    1    4    4    0    0  0.27625900264E+02  0.36416214792E+01 -0.19787420331E+01  0.27935053113E+02  0.00000000000E+00 0.  1.
         11    1    4    4    0    0  0.90440741714E+02  0.66214295155E+02  0.24296224471E+03  0.26757151006E+03  0.00000000000E+00 0. -1.
</event>
<event>
 8    1  0.6787197E-009  0.1065723E+03  0.7561462E-02  0.1267052E+00
         -1   -1    0    0    0  501 -0.00000000000E+00  0.00000000000E+00  0.93474566003E+02  0.93474566003E+02  0.00000000000E+00 0.  1.
          1   -1    0    0  501    0  0.00000000000E+00 -0.00000000000E+00 -0.23928953780E+03  0.23928953780E+03  0.00000000000E+00 0. -1.
         25    2    1    2    0    0 -0.19598138999E+02  0.17448075641E+02  0.31591678538E+02  0.13165979843E+03  0.12509095081E+03 0.  0.
         23    2    1    2    0    0  0.19598138999E+02 -0.17448075641E+02 -0.17740665034E+03  0.20110430537E+03  0.91001646472E+02 0.  0.
          5    1    3    3  502    0  0.31969426015E+02  0.54266664394E+02  0.67834892852E+01  0.63485456532E+02  0.41800000000E+01 0. -1.
         -5    1    3    3    0  502 -0.51567565014E+02 -0.36818588754E+02  0.24808189253E+02  0.68174341899E+02  0.41800000000E+01 0. -1.
        -11    1    4    4    0    0  0.14427546531E+02  0.32892102304E+02 -0.35735212066E+02  0.50666062352E+02  0.00000000000E+00 0.  1.
         11    1    4    4    0    0  0.51705924686E+01 -0.50340177945E+02 -0.14167143827E+03  0.15043824302E+03  0.00000000000E+00 0. -1.
</event>
<event>
 8    1  0.6787197E-009  0.2298261E+03  0.7561462E-02  0.1126762E+00
          1   -1    0    0  501    0  0.00000000000E+00  0.00000000000E+00  0.14713350468E+04  0.14713350468E+04  0.00000000000E+00 0.  1.
         -1   -1    0    0    0  501 -0.00000000000E+00 -0.00000000000E+00 -0.43641276449E+02  0.43641276449E+02  0.00000000000E+00 0. -1.
         25    2    1    2    0    0  0.10214052262E+02 -0.22425785729E+03  0.60304045574E+03  0.65551578885E+03  0.12508894739E+03 0.  0.
         23    2    1    2    0    0 -0.10214052262E+02  0.22425785729E+03  0.82465331461E+03  0.85946053440E+03  0.90683005380E+02 0.  0.
          5    1    3    3  502    0 -0.25900570826E+02 -0.10876022814E+03  0.43001155714E+03  0.44432762515E+03  0.41800000000E+01 0.  1.
         -5    1    3    3    0  502  0.36114623088E+02 -0.11549762914E+03  0.17302889860E+03  0.21118816370E+03  0.41800000000E+01 0.  1.
        -11    1    4    4    0    0  0.10754864789E+02  0.10977197423E+03  0.25172021409E+03  0.27482470709E+03  0.00000000000E+00 0.  1.
         11    1    4    4    0    0 -0.20968917050E+02  0.11448588306E+03  0.57293310052E+03  0.58463582731E+03  0.00000000000E+00 0. -1.
</event>
<event>
 8    1  0.6787197E-009  0.1056843E+03  0.7561462E-02  0.1268777E+00
          2   -1    0    0  501    0  0.00000000000E+00  0.00000000000E+00  0.53006943067E+02  0.53006943067E+02  0.00000000000E+00 0. -1.
         -2   -1    0    0    0  501 -0.00000000000E+00 -0.00000000000E+00 -0.46105370988E+03  0.46105370988E+03  0.00000000000E+00 0.  1.
         25    2    1    2    0    0 -0.50256442289E+02  0.88839525125E+02 -0.29538554770E+03  0.33662747905E+03  0.12508903489E+03 0.  0.
         23    2    1    2    0    0  0.50256442289E+02 -0.88839525125E+02 -0.11266121911E+03  0.17743317389E+03  0.91497593896E+02 0.  0.
          5    1    3    3  502    0 -0.30605181681E+02  0.77807544253E+02 -0.67352578352E+02  0.10744548990E+03  0.41800000000E+01 0.  1.
         -5    1    3    3    0  502 -0.19651260609E+02  0.11031980872E+02 -0.22803296935E+03  0.22918198916E+03  0.41800000000E+01 0.  1.
        -11    1    4    4    0    0  0.24652319872E+02 -0.65885458123E+02 -0.12285276025E+03  0.14156776175E+03  0.00000000000E+00 0.  1.
         11    1    4    4    0    0  0.25604122418E+02 -0.22954067002E+02  0.10191541141E+02  0.35865412134E+02  0.00000000000E+00 0. -1.
</event>
<event>
 8    1  0.6787197E-009  0.1393322E+03  0.7561462E-02  0.1214230E+00
         -1   -1    0    0    0  501 -0.00000000000E+00  0.00000000000E+00  0.11517172204E+02  0.11517172204E+02  0.00000000000E+00 0.  1.
          1   -1    0    0  501    0  0.00000000000E+00 -0.00000000000E+00 -0.19253885136E+04  0.19253885136E+04  0.00000000000E+00 0. -1.
         25    2    1    2    0    0 -0.11604590977E+02  0.96829989954E+02 -0.12259408392E+04  0.12361592471E+04  0.12509208335E+03 0.  0.
         23    2    1    2    0    0  0.11604590977E+02 -0.96829989954E+02 -0.68793050215E+03  0.70074643873E+03  0.91030116530E+02 0.  0.
          5    1    3    3  502    0 -0.58128388816E+02  0.71135329452E+02 -0.50910506080E+03  0.51734377353E+03  0.41800000000E+01 0. -1.
         -5    1    3    3    0  502  0.46523797839E+02  0.25694660502E+02 -0.71683577844E+03  0.71881547354E+03  0.41800000000E+01 0. -1.
        -11    1    4    4    0    0 -0.38314241576E+02 -0.60661364770E+02 -0.36504948839E+03  0.37203348137E+03  0.00000000000E+00 0. -1.
         11    1    4    4    0    0  0.49918832553E+02 -0.36168625184E+02 -0.32288101376E+03  0.32871295736E+03  0.00000000000E+00 0.  1.
</event>
<event>
 8    1  0.6787197E-009  0.1496866E+03  0.7561462E-02  0.1200859E+00
         -2   -1    0    0    0  501 -0.00000000000E+00  0.00000000000E+00  0.35148061081E+02  0.35148061081E+02  0.00000000000E+00 0.  1.
          2   -1    0    0  501    0  0.00000000000E+00 -0.00000000000E+00 -0.76459834547E+03  0.76459834547E+03  0.00000000000E+00 0. -1.
         25    2    1    2    0    0  0.79681766563E+02 -0.81772384515E+02 -0.49596947508E+03  0.52408807872E+03  0.12508671891E+03 0.  0.
         23    2    1    2    0    0 -0.79681766563E+02  0.81772384515E+02 -0.23348080931E+03  0.27565832783E+03  0.91860321131E+02 0.  0.
          5    1    3    3  502    0  0.17284444301E+02  0.33205062234E+02 -0.90796289706E+02  0.98299373330E+02  0.41800000000E+01 0.  1.
         -5    1    3    3    0  502  0.62397322262E+02 -0.11497744675E+03 -0.40517318538E+03  0.42578870539E+03  0.41800000000E+01 0.  1.
        -11    1    4    4    0    0 -0.34536791283E+02  0.78258197100E+02 -0.85657473530E+02  0.12105510372E+03  0.00000000000E+00 0.  1.
         11    1    4    4    0    0 -0.45144975280E+02  0.35141874154E+01 -0.14782333578E+03  0.15460322411E+03  0.00000000000E+00 0. -1.
</event>
<event>
 8    1  0.6787197E-009  0.1056816E+03  0.7561462E-02  0.1268783E+00
         -2   -1    0    0    0  501 -0.00000000000E+00  0.00000000000E+00  0.76386234688E+03  0.76386234688E+03  0.00000000000E+00 0.  1.
          2   -1    0    0  501    0  0.00000000000E+00 -0.00000000000E+00 -0.27799478524E+02  0.27799478524E+02  0.00000000000E+00 0. -1.
         25    2    1    2    0    0  0.39159362783E+01  0.58105059025E+01  0.66376217085E+03  0.67548295146E+03  0.12509157333E+03 0.  0.
         23    2    1    2    0    0 -0.39159362783E+01 -0.58105059025E+01  0.72300697505E+02  0.11617887395E+03  0.90669969430E+02 0.  0.
          5    1    3    3  502    0  0.58264390493E+02 -0.18699820185E+02  0.24931606735E+03  0.25674967637E+03  0.41800000000E+01 0.  1.
         -5    1    3    3    0  502 -0.54348454214E+02  0.24510326087E+02  0.41444610350E+03  0.41873327509E+03  0.41800000000E+01 0.  1.
        -11    1    4    4    0    0  0.72996666771E+00 -0.47906084529E+02  0.31280099693E+02  0.57218619548E+02  0.00000000000E+00 0.  1.
         11    1    4    4    0    0 -0.46459029460E+01  0.42095578626E+02  0.41020597812E+02  0.58960254400E+02  0.00000000000E+00 0. -1.
</event>
<event>
 8    1  0.6787197E-009  0.1232271E+03  0.7561462E-02  0.1237866E+00
         -2   -1    0    0    0  501 -0.00000000000E+00  0.00000000000E+00  0.10182986108E+03  0.10182986108E+03  0.00000000000E+00 0. -1.
          2   -1    0    0  501    0  0.00000000000E+00 -0.00000000000E+00 -0.23026075684E+03  0.23026075684E+03  0.00000000000E+00 0.  1.
         25    2    1    2    0    0 -0.14175175592E+02  0.10279316087E+03 -0.37033772471E+02  0.16669275532E+03  0.12509038671E+03 0.  0.
         23    2    1    2    0    0  0.14175175592E+02 -0.10279316087E+03 -0.91397123289E+02  0.16539786260E+03  0.90750478148E+02 0.  0.
          5    1    3    3  502    0 -0.34747823361E+02  0.68013994522E+02 -0.77826344737E+02  0.10912253211E+03  0.41800000000E+01 0.  1.
         -5    1    3    3    0  502  0.20572647770E+02  0.34779166348E+02  0.40792572266E+02  0.57570223207E+02  0.41800000000E+01 0.  1.
        -11    1    4    4    0    0 -0.32160308716E+02 -0.41405080896E+02 -0.66237298812E+02  0.84475120211E+02  0.00000000000E+00 0.  1.
         11    1    4    4    0    0  0.46335484308E+02 -0.61388079974E+02 -0.25159824477E+02  0.80922742394E+02  0.00000000000E+00 0. -1.
</event>
<event>
 8    1  0.6787197E-009  0.2782814E+03  0.7561462E-02  0.1096631E+00
         -1   -1    0    0    0  501 -0.00000000000E+00  0.00000000000E+00  0.16055560118E+03  0.16055560118E+03  0.00000000000E+00 0.  1.
          1   -1    0    0  501    0  0.00000000000E+00 -0.00000000000E+00 -0.50696008507E+03  0.50696008507E+03  0.00000000000E+00 0. -1.
         25    2    1    2    0    0 -0.15584296266E+03 -0.20478937977E+03 -0.11059562652E+03  0.30676006119E+03  0.12507846920E+03 0.  0.
         23    2    1    2    0    0  0.15584296266E+03  0.20478937977E+03 -0.23580885737E+03  0.36075562506E+03  0.91176119215E+02 0.  0.
          5    1    3    3  502    0 -0.10735088331E+03 -0.43804626431E+02 -0.62766300736E+02  0.13190958400E+03  0.41800000000E+01 0. -1.
         -5    1    3    3    0  502 -0.48492079355E+02 -0.16098475334E+03 -0.47829325787E+02  0.17485047719E+03  0.41800000000E+01 0. -1.
        -11    1    4    4    0    0  0.15470604696E+03  0.14334580910E+03 -0.17183087961E+03  0.27204380739E+03  0.00000000000E+00 0.  1.
         11    1    4    4    0    0  0.11369156983E+01  0.61443570672E+02 -0.63977977767E+02  0.88711817664E+02  0.00000000000E+00 0. -1.
</event>
<event>
 8    1  0.6787197E-009  0.8311652E+02  0.7561462E-02  0.1320433E+00
          2   -1    0    0  501    0  0.00000000000E+00  0.00000000000E+00  0.37576793765E+03  0.37576793765E+03  0.00000000000E+00 0. -1.
         -2   -1    0    0    0  501 -0.00000000000E+00 -0.00000000000E+00 -0.42779398201E+02  0.42779398201E+02  0.00000000000E+00 0.  1.
         25    2    1    2    0    0 -0.57845146436E+02 -0.10139851124E+02  0.23378680644E+03  0.27157482243E+03  0.12509091001E+03 0.  0.
         23    2    1    2    0    0  0.57845146436E+02  0.10139851124E+02  0.99201733005E+02  0.14697251341E+03  0.91165006009E+02 0.  0.
          5    1    3    3  502    0 -0.49643179246E+02 -0.11890421534E+02  0.16103700608E+02  0.53690119605E+02  0.41800000000E+01 0. -1.
         -5    1    3    3    0  502 -0.82019671897E+01  0.17505704104E+01  0.21768310583E+03  0.21788470283E+03  0.41800000000E+01 0. -1.
        -11    1    4    4    0    0  0.25273518518E+02 -0.39129417713E+02  0.60517764804E+02  0.76369247251E+02  0.00000000000E+00 0.  1.
         11    1    4    4    0    0  0.32571627918E+02  0.49269268837E+02  0.38683968201E+02  0.70603266162E+02  0.00000000000E+00 0. -1.
</event>
<event>
 8    1  0.6787197E-009  0.1196218E+03  0.7561462E-02  0.1243722E+00
         -1   -1    0    0    0  501 -0.00000000000E+00  0.00000000000E+00  0.24386585369E+02  0.24386585369E+02  0.00000000000E+00 0.  1.
          1   -1    0    0  501    0  0.00000000000E+00 -0.00000000000E+00 -0.92525853744E+03  0.92525853744E+03  0.00000000000E+00 0. -1.
         25    2    1    2    0    0 -0.55437777363E+02  0.56026307807E+02 -0.69011209615E+03  0.70577223115E+03  0.12508973855E+03 0.  0.
         23    2    1    2    0    0  0.55437777363E+02 -0.56026307807E+02 -0.21075985592E+03  0.24387289165E+03  0.94031782345E+02 0.  0.
          5    1    3    3  502    0 -0.47961850307E+02 -0.10678301008E+02 -0.52752579297E+03  0.52982572592E+03  0.41800000000E+01 0.  1.
         -5    1    3    3    0  502 -0.74759270561E+01  0.66704608816E+02 -0.16258630318E+03  0.17594650523E+03  0.41800000000E+01 0.  1.
        -11    1    4    4    0    0  0.18887141110E+02 -0.77849406845E+02 -0.13561722926E+03  0.15750964135E+03  0.00000000000E+00 0. -1.
         11    1    4    4    0    0  0.36550636253E+02  0.21823099038E+02 -0.75142626662E+02  0.86363250308E+02  0.00000000000E+00 0.  1.
</event>
<event>
 8    1  0.6787197E-009  0.9164565E+02  0.7561462E-02  0.1298915E+00
          2   -1    0    0  501    0  0.00000000000E+00  0.00000000000E+00  0.53710103881E+03  0.53710103881E+03  0.00000000000E+00 0. -1.
         -2   -1    0    0    0  501 -0.00000000000E+00 -0.00000000000E+00 -0.32765440885E+02  0.32765440885E+02  0.00000000000E+00 0.  1.
         25    2    1    2    0    0  0.23363541930E+02  0.72221284947E+02  0.29481681173E+03  0.32912612454E+03  0.12508111082E+03 0.  0.
         23    2    1    2    0    0 -0.23363541930E+02 -0.72221284947E+02  0.20951878620E+03  0.24074035516E+03  0.91082532579E+02 0.  0.
          5    1    3    3  502    0  0.13818205579E+02  0.51087046352E+02  0.25702852583E+02  0.58982524033E+02  0.41800000000E+01 0. -1.
         -5    1    3    3    0  502  0.95453363512E+01  0.21134238595E+02  0.26911395915E+03  0.27014360051E+03  0.41800000000E+01 0. -1.
        -11    1    4    4    0    0  0.25842607156E+02 -0.40674200093E+02  0.14902018918E+03  0.15661815885E+03  0.00000000000E+00 0. -1.
         11    1    4    4    0    0 -0.49206149086E+02 -0.31547084854E+02  0.60498597012E+02  0.84122196305E+02  0.00000000000E+00 0.  1.
</event>
<event>
 8    1  0.6787197E-009  0.1192712E+03  0.7561462E-02  0.1244304E+00
         -1   -1    0    0    0  501 -0.00000000000E+00  0.00000000000E+00  0.14062211761E+03  0.14062211761E+03  0.00000000000E+00 0.  1.
          1   -1    0    0  501    0  0.00000000000E+00 -0.00000000000E+00 -0.11640768964E+03  0.11640768964E+03  0.00000000000E+00 0. -1.
         25    2    1    2    0    0  0.53439311208E+02 -0.53719082057E+01  0.55201468748E+02  0.14689758083E+03  0.12508828770E+03 0.  0.
         23    2    1    2    0    0 -0.53439311208E+02  0.53719082057E+01 -0.30987040773E+02  0.11013222643E+03  0.91018092827E+02 0.  0.
          5    1    3    3  502    0  0.16594521576E+02  0.59118328760E+02  0.28912173927E+02  0.67998096613E+02  0.41800000000E+01 0. -1.
         -5    1    3    3    0  502  0.36844789631E+02 -0.64490236966E+02  0.26289294820E+02  0.78899484213E+02  0.41800000000E+01 0. -1.
        -11    1    4    4    0    0 -0.23077802114E+02  0.46248937576E+02 -0.28793333808E+02  0.59165912898E+02  0.00000000000E+00 0.  1.
         11    1    4    4    0    0 -0.30361509093E+02 -0.40877029370E+02 -0.21937069647E+01  0.50966313529E+02  0.00000000000E+00 0. -1.
</event>
<event>
 8    1  0.6787197E-009  0.1237429E+03  0.7561462E-02  0.1237047E+00
          1   -1    0    0  501    0  0.00000000000E+00  0.00000000000E+00  0.16119099317E+04  0.16119099317E+04  0.00000000000E+00 0. -1.
         -1   -1    0    0    0  501 -0.00000000000E+00 -0.00000000000E+00 -0.11492827284E+02  0.11492827284E+02  0.00000000000E+00 0.  1.
         25    2    1    2    0    0  0.25619555846E+02 -0.68130539249E+02  0.11115028276E+04  0.11208852783E+04  0.12508852603E+03 0.  0.
         23    2    1    2    0    0 -0.25619555846E+02  0.68130539249E+02  0.48891427675E+03  0.50251748061E+03  0.90490420975E+02 0.  0.
          5    1    3    3  502    0 -0.44172845734E+02 -0.55024512531E+02  0.44234526900E+03  0.44795730453E+03  0.41800000000E+01 0. -1.
         -5    1    3    3    0  502  0.69792401580E+02 -0.13106026718E+02  0.66915755864E+03  0.67292797381E+03  0.41800000000E+01 0. -1.
        -11    1    4    4    0    0 -0.32924935795E+02 -0.39989135751E+01  0.71042817297E+02  0.78403600660E+02  0.00000000000E+00 0.  1.
         11    1    4    4    0    0  0.73053799491E+01  0.72129452824E+02  0.41787145945E+03  0.42411387995E+03  0.00000000000E+00 0. -1.
</event>
<event>
 8    1  0.6787197E-009  0.1424220E+03  0.7561462E-02  0.1210107E+00
         -2   -1    0    0    0  501 -0.00000000000E+00  0.00000000000E+00  0.26613241723E+02  0.26613241723E+02  0.00000000000E+00 0. -1.
          2   -1    0    0  501    0  0.00000000000E+00 -0.00000000000E+00 -0.87908213232E+03  0.87908213232E+03  0.00000000000E+00 0.  1.
         25    2    1    2    0    0 -0.74117808788E+01  0.10349718836E+03 -0.51810310397E+03  0.54299634874E+03  0.12509039093E+03 0.  0.
         23    2    1    2    0    0  0.74117808788E+01 -0.10349718836E+03 -0.33436578662E+03  0.36269902530E+03  0.94781333589E+02 0.  0.
          5    1    3    3  502    0 -0.48541671267E+02  0.86702750887E+01 -0.26479127587E+03  0.26937587067E+03  0.41800000000E+01 0.  1.
         -5    1    3    3    0  502  0.41129890388E+02  0.94826913275E+02 -0.25331182810E+03  0.27362047807E+03  0.41800000000E+01 0.  1.
        -11    1    4    4    0    0 -0.35782663715E+02 -0.64281054058E+02 -0.24637126807E+03  0.25712108950E+03  0.00000000000E+00 0.  1.
         11    1    4    4    0    0  0.43194444594E+02 -0.39216134306E+02 -0.87994518544E+02  0.10557793580E+03  0.00000000000E+00 0. -1.
</event>
<event>
 8    1  0.6787197E-009  0.1480143E+03  0.7561462E-02  0.1202934E+00
          1   -1    0    0  501    0  0.00000000000E+00  0.00000000000E+00  0.11842210298E+03  0.11842210298E+03  0.00000000000E+00 0. -1.
         -1   -1    0    0    0  501 -0.00000000000E+00 -0.00000000000E+00 -0.21041953333E+03  0.21041953333E+03  0.00000000000E+00 0.  1.
         25    2    1    2    0    0 -0.38268227774E+02  0.98439911105E+02 -0.33864092572E+01  0.16374563345E+03  0.12508513641E+03 0.  0.
         23    2    1    2    0    0  0.38268227774E+02 -0.98439911105E+02 -0.88611021090E+02  0.16509600286E+03  0.90828980771E+02 0.  0.
          5    1    3    3  502    0 -0.53846605202E+02  0.12288669465E+03 -0.58113227792E+01  0.13435713783E+03  0.41800000000E+01 0. -1.
         -5    1    3    3    0  502  0.15578377429E+02 -0.24446783545E+02  0.24249135220E+01  0.29388495616E+02  0.41800000000E+01 0. -1.
        -11    1    4    4    0    0  0.39834674555E+02 -0.62693617394E+01 -0.52247347367E+02  0.65999178029E+02  0.00000000000E+00 0.  1.
         11    1    4    4    0    0 -0.15664467813E+01 -0.92170549366E+02 -0.36363673722E+02  0.99096824836E+02  0.00000000000E+00 0. -1.
</event>
<event>
 8    1  0.6787197E-009  0.8611208E+02  0.7561462E-02  0.1312550E+00
         -2   -1    0    0    0  501 -0.00000000000E+00  0.00000000000E+00  0.15679013722E+02  0.15679013722E+02  0.00000000000E+00 0. -1.
          2   -1    0    0  501    0  0.00000000000E+00 -0.00000000000E+00 -0.97376803419E+03  0.97376803419E+03  0.00000000000E+00 0.  1.
         25    2    1    2    0    0 -0.57280063277E+01  0.54819456596E+02 -0.45345010699E+03  0.47360575073E+03  0.12508966671E+03 0.  0.
         23    2    1    2    0    0  0.57280063277E+01 -0.54819456596E+02 -0.50463891348E+03  0.51584129718E+03  0.91617836712E+02 0.  0.
          5    1    3    3  502    0  0.78174154877E+01  0.54080925645E+02 -0.65527666826E+02  0.85423685376E+02  0.41800000000E+01 0. -1.
         -5    1    3    3    0  502 -0.13545421815E+02  0.73853095138E+00 -0.38792244016E+03  0.38818206535E+03  0.41800000000E+01 0. -1.
        -11    1    4    4    0    0  0.32748288497E+02  0.89664746904E+01 -0.10841861133E+03  0.11361092971E+03  0.00000000000E+00 0. -1.
         11    1    4    4    0    0 -0.27020282169E+02 -0.63785931287E+02 -0.39622030215E+03  0.40223036747E+03  0.00000000000E+00 0.  1.
</event>
<event>
 8    1  0.6787197E-009  0.1078425E+03  0.7561462E-02  0.1264618E+00
         -1   -1    0    0    0  501 -0.00000000000E+00  0.00000000000E+00  0.45407640462E+03  0.45407640462E+03  0.00000000000E+00 0.  1.
          1   -1    0    0  501    0  0.00000000000E+00 -0.00000000000E+00 -0.29831089487E+02  0.29831089487E+02  0.00000000000E+00 0. -1.
         25    2    1    2    0    0 -0.33231111629E+01  0.19160071577E+02  0.32591209463E+03  0.34963490483E+03  0.12509085434E+03 0.  0.
         23    2    1    2    0    0  0.33231111629E+01 -0.19160071577E+02  0.98333220503E+02  0.13427258927E+03  0.89339546481E+02 0.  0.
          5    1    3    3  502    0 -0.61300543087E+02  0.28372969128E+02  0.16883963531E+03  0.18189853438E+03  0.41800000000E+01 0. -1.
         -5    1    3    3    0  502  0.57977431924E+02 -0.92128975518E+01  0.15707245932E+03  0.16773637045E+03  0.41800000000E+01 0. -1.
        -11    1    4    4    0    0  0.32001077824E+01 -0.54109584460E+02  0.73820175301E+02  0.91583328732E+02  0.00000000000E+00 0. -1.
         11    1    4    4    0    0  0.12300338052E+00  0.34949512883E+02  0.24513045202E+02  0.42689260543E+02  0.00000000000E+00 0.  1.
</event>
<event>
 8    1  0.6787197E-009  0.1053482E+03  0.7561462E-02  0.1269435E+00
          1   -1    0    0  501    0  0.00000000000E+00  0.00000000000E+00  0.72427977766E+02  0.72427977766E+02  0.00000000000E+00 0. -1.
         -1   -1    0    0    0  501 -0.00000000000E+00 -0.00000000000E+00 -0.20751895079E+03  0.20751895079E+03  0.00000000000E+00 0.  1.
         25    2    1    2    0    0  0.35594880147E+02  0.41744181874E+02 -0.58196975443E+02  0.14846982357E+03  0.12508728291E+03 0.  0.
         23    2    1    2    0    0 -0.35594880147E+02 -0.41744181874E+02 -0.76893997584E+02  0.13147710499E+03  0.91454743233E+02 0.  0.
          5    1    3    3  502    0  0.33016058147E+02  0.78912683371E+02 -0.82816759867E+01  0.86042607175E+02  0.41800000000E+01 0. -1.
         -5    1    3    3    0  502  0.25788220002E+01 -0.37168501496E+02 -0.49915299456E+02  0.62427216390E+02  0.41800000000E+01 0. -1.
        -11    1    4    4    0    0 -0.50260105492E+02 -0.49863760595E+02 -0.86795212752E+02  0.11200840049E+03  0.00000000000E+00 0.  1.
         11    1    4    4    0    0  0.14665225344E+02  0.81195787212E+01  0.99012151682E+01  0.19468704498E+02  0.00000000000E+00 0. -1.
</event>
<event>
 8    1  0.6787197E-009  0.7862114E+02  0.7561462E-02  0.1333011E+00
          1   -1    0    0  501    0  0.00000000000E+00  0.00000000000E+00  0.27324203289E+02  0.27324203289E+02  0.00000000000E+00 0. -1.
         -1   -1    0    0    0  501 -0.00000000000E+00 -0.00000000000E+00 -0.24539971273E+04  0.24539971273E+04  0.00000000000E+00 0.  1.
         25    2    1    2    0    0 -0.12976780609E+02 -0.14880700527E+02 -0.23697857671E+04  0.23731670353E+04  0.12508942157E+03 0.  0.
         23    2    1    2    0    0  0.12976780609E+02  0.14880700527E+02 -0.56887156890E+02  0.10815429527E+03  0.89840808563E+02 0.  0.
          5    1    3    3  502    0 -0.27527701851E+02 -0.52608797041E+02 -0.60674117972E+03  0.60965382920E+03  0.41800000000E+01 0.  1.
         -5    1    3    3    0  502  0.14550921241E+02  0.37728096514E+02 -0.17630445874E+04  0.17635132061E+04  0.41800000000E+01 0.  1.
        -11    1    4    4    0    0  0.14211026196E+02 -0.18687166254E+02  0.15651401196E+02  0.28215772319E+02  0.00000000000E+00 0. -1.
         11    1    4    4    0    0 -0.12342455868E+01  0.33567866781E+02 -0.72538558086E+02  0.79938522951E+02  0.00000000000E+00 0.  1.
</event>
<event>
 8    1  0.6787197E-009  0.1311440E+03  0.7561462E-02  0.1225768E+00
         -1   -1    0    0    0  501 -0.00000000000E+00  0.00000000000E+00  0.19145354800E+03  0.19145354800E+03  0.00000000000E+00 0.  1.
          1   -1    0    0  501    0  0.00000000000E+00 -0.00000000000E+00 -0.14946019984E+03  0.14946019984E+03  0.00000000000E+00 0. -1.
         25    2    1    2    0    0 -0.62379753033E+02  0.90164154331E+02 -0.44194337630E+02  0.17210372767E+03  0.12508295362E+03 0.  0.
         23    2    1    2    0    0  0.62379753033E+02 -0.90164154331E+02  0.86187685783E+02  0.16881002016E+03  0.95119385049E+02 0.  0.
          5    1    3    3  502    0  0.30087728678E+02  0.24937146511E+02  0.17647418175E+02  0.43081741624E+02  0.41800000000E+01 0. -1.
         -5    1    3    3    0  502 -0.92467481711E+02  0.65227007820E+02 -0.61841755805E+02  0.12902198605E+03  0.41800000000E+01 0. -1.
        -11    1    4    4    0    0  0.14847584756E+02 -0.25310106145E+02  0.83336883297E+02  0.88352070512E+02  0.00000000000E+00 0.  1.
         11    1    4    4    0    0  0.47532168277E+02 -0.64854048186E+02  0.28508024861E+01  0.80457949651E+02  0.00000000000E+00 0. -1.
</event>
<event>
 8    1  0.6787197E-009  0.9544423E+02  0.7561462E-02  0.1290179E+00
          1   -1    0    0  501    0  0.00000000000E+00  0.00000000000E+00  0.21045902229E+03  0.21045902229E+03  0.00000000000E+00 0. -1.
         -1   -1    0    0    0  501 -0.00000000000E+00 -0.00000000000E+00 -0.65359822436E+02  0.65359822436E+02  0.00000000000E+00 0.  1.
         25    2    1    2    0    0 -0.16379538781E+02  0.49222297950E+02  0.65967076552E+02  0.15063082904E+03  0.12508743966E+03 0.  0.
         23    2    1    2    0    0  0.16379538781E+02 -0.49222297950E+02  0.79132123307E+02  0.12518801569E+03  0.81969643334E+02 0.  0.
          5    1    3    3  502    0  0.20905215798E+02  0.59786675685E+02  0.85935934139E+02  0.10683600429E+03  0.41800000000E+01 0. -1.
         -5    1    3    3    0  502 -0.37284754578E+02 -0.10564377735E+02 -0.19968857588E+02  0.43794824743E+02  0.41800000000E+01 0. -1.
        -11    1    4    4    0    0 -0.13938249937E+02 -0.55714939078E+02  0.74141475970E+02  0.93783728369E+02  0.00000000000E+00 0. -1.
         11    1    4    4    0    0  0.30317788718E+02  0.64926411279E+01  0.49906473369E+01  0.31404287325E+02  0.00000000000E+00 0.  1.
</event>
<event>
 8    1  0.6787197E-009  0.1435590E+03  0.7561462E-02  0.1208619E+00
          1   -1    0    0  501    0  0.00000000000E+00  0.00000000000E+00  0.11399444662E+03  0.11399444662E+03  0.00000000000E+00 0. -1.
         -1   -1    0    0    0  501 -0.00000000000E+00 -0.00000000000E+00 -0.20539028000E+03  0.20539028000E+03  0.00000000000E+00 0.  1.
         25    2    1    2    0    0 -0.10617087831E+03  0.12901181653E+02 -0.35708681645E+02  0.16840433391E+03  0.12508482660E+03 0.  0.
         23    2    1    2    0    0  0.10617087831E+03 -0.12901181653E+02 -0.55687151731E+02  0.15098039271E+03  0.90858814784E+02 0.  0.
          5    1    3    3  502    0 -0.80047243829E+02 -0.44223929873E+02 -0.49333099028E+02  0.10399300110E+03  0.41800000000E+01 0.  1.
         -5    1    3    3    0  502 -0.26123634486E+02  0.57125111526E+02  0.13624417384E+02  0.64411332812E+02  0.41800000000E+01 0.  1.
        -11    1    4    4    0    0  0.89035553464E+02 -0.42312705459E+02 -0.61868367771E+02  0.11638466288E+03  0.00000000000E+00 0.  1.
         11    1    4    4    0    0  0.17135324851E+02  0.29411523806E+02  0.61812160397E+01  0.34595729824E+02  0.00000000000E+00 0. -1.
</event>
<event>
 8    1  0.6787197E-009  0.5868220E+02  0.7561462E-02  0.1403447E+00
         -2   -1    0    0    0  501 -0.00000000000E+00  0.00000000000E+00  0.30386570642E+03  0.30386570642E+03  0.00000000000E+00 0.  1.
          2   -1    0    0  501    0  0.00000000000E+00 -0.00000000000E+00 -0.49509665321E+02  0.49509665321E+02  0.00000000000E+00 0. -1.
         25    2    1    2    0    0 -0.45750229705E+02  0.19583626175E+01  0.19569901950E+03  0.23673216332E+03  0.12508833765E+03 0.  0.
         23    2    1    2    0    0  0.45750229705E+02 -0.19583626175E+01  0.58657021602E+02  0.11664320842E+03  0.89822453685E+02 0.  0.
          5    1    3    3  502    0 -0.50138703056E+02  0.18092289987E+02  0.20851108443E+03  0.21525697488E+03  0.41800000000E+01 0.  1.
         -5    1    3    3    0  502  0.43884733504E+01 -0.16133927370E+02 -0.12812064936E+02  0.21475188443E+02  0.41800000000E+01 0.  1.
        -11    1    4    4    0    0  0.12714454360E+02 -0.46017436588E+01  0.77397788102E+02  0.78570038803E+02  0.00000000000E+00 0.  1.
         11    1    4    4    0    0  0.33035775345E+02  0.26433810413E+01 -0.18740766500E+02  0.38073169621E+02  0.00000000000E+00 0. -1.
</event>
<event>
 8    1  0.6787197E-009  0.9116292E+02  0.7561462E-02  0.1300060E+00
         -1   -1    0    0    0  501 -0.00000000000E+00  0.00000000000E+00  0.22525329063E+03  0.22525329063E+03  0.00000000000E+00 0.  1.
          1   -1    0    0  501    0  0.00000000000E+00 -0.00000000000E+00 -0.82506933235E+02  0.82506933235E+02  0.00000000000E+00 0. -1.
         25    2    1    2    0    0 -0.57457148965E+02  0.68786390568E+01  0.14205216634E+03  0.19792434770E+03  0.12508632941E+03 0.  0.
         23    2    1    2    0    0  0.57457148965E+02 -0.68786390568E+01  0.69419104845E+00  0.10983587616E+03  0.93353083232E+02 0.  0.
          5    1    3    3  502    0 -0.32731940291E+02 -0.34660179800E+02  0.44165368428E-01  0.47855849481E+02  0.41800000000E+01 0. -1.
         -5    1    3    3    0  502 -0.24725208675E+02  0.41538818857E+02  0.14200800098E+03  0.15006849822E+03  0.41800000000E+01 0. -1.
        -11    1    4    4    0    0  0.30470045704E+01 -0.27569676516E+02  0.33121333459E+02  0.43201782719E+02  0.00000000000E+00 0.  1.
         11    1    4    4    0    0  0.54410144395E+02  0.20691037459E+02 -0.32427142410E+02  0.66634093444E+02  0.00000000000E+00 0. -1.
</event>
<event>
 8    1  0.6787197E-009  0.1248349E+03  0.7561462E-02  0.1235327E+00
         -2   -1    0    0    0  501 -0.00000000000E+00  0.00000000000E+00  0.20254556365E+02  0.20254556365E+02  0.00000000000E+00 0. -1.
          2   -1    0    0  501    0  0.00000000000E+00 -0.00000000000E+00 -0.23223370181E+04  0.23223370181E+04  0.00000000000E+00 0.  1.
         25    2    1    2    0    0  0.45077680770E+02 -0.10368537798E+03 -0.20088104193E+04  0.20158742211E+04  0.12508764687E+03 0.  0.
         23    2    1    2    0    0 -0.45077680770E+02  0.10368537798E+03 -0.29327204237E+03  0.32671735337E+03  0.89180060832E+02 0.  0.
          5    1    3    3  502    0  0.47485789127E+02 -0.19281548183E+02 -0.26082159611E+03  0.26584216307E+03  0.41800000000E+01 0.  1.
         -5    1    3    3    0  502 -0.24081083575E+01 -0.84403829792E+02 -0.17479888232E+04  0.17500320580E+04  0.41800000000E+01 0.  1.
        -11    1    4    4    0    0 -0.35291168075E+02  0.66848577994E+02 -0.27355020165E+03  0.28380259292E+03  0.00000000000E+00 0.  1.
         11    1    4    4    0    0 -0.97865126946E+01  0.36836799981E+02 -0.19721840719E+02  0.42914760455E+02  0.00000000000E+00 0. -1.
</event>
<event>
 8    1  0.6787197E-009  0.9158399E+02  0.7561462E-02  0.1299061E+00
          1   -1    0    0  501    0  0.00000000000E+00  0.00000000000E+00  0.46859423414E+03  0.46859423414E+03  0.00000000000E+00 0. -1.
         -1   -1    0    0    0  501 -0.00000000000E+00 -0.00000000000E+00 -0.47062388910E+02  0.47062388910E+02  0.00000000000E+00 0.  1.
         25    2    1    2    0    0  0.76857464622E+02  0.36485149877E+02  0.13630084218E+03  0.20362550643E+03  0.12508873354E+03 0.  0.
         23    2    1    2    0    0 -0.76857464622E+02 -0.36485149877E+02  0.28523100305E+03  0.31203111662E+03  0.93640037438E+02 0.  0.
          5    1    3    3  502    0  0.31853382797E+02  0.25363402296E+02  0.14969533336E+03  0.15519054546E+03  0.41800000000E+01 0.  1.
         -5    1    3    3    0  502  0.45004081825E+02  0.11121747581E+02 -0.13394491172E+02  0.48434960968E+02  0.41800000000E+01 0.  1.
        -11    1    4    4    0    0 -0.31804282282E+02  0.75531354456E+01  0.17682310722E+02  0.37164853545E+02  0.00000000000E+00 0.  1.
         11    1    4    4    0    0 -0.45053182340E+02 -0.44038285323E+02  0.26754869233E+03  0.27486626308E+03  0.00000000000E+00 0. -1.
</event>
<event>
 8    1  0.6787197E-009  0.1661252E+03  0.7561462E-02  0.1181950E+00
          1   -1    0    0  501    0  0.00000000000E+00  0.00000000000E+00  0.81955644686E+03  0.81955644686E+03  0.00000000000E+00 0. -1.
         -1   -1    0    0    0  501 -0.00000000000E+00 -0.00000000000E+00 -0.33933552285E+02  0.33933552285E+02  0.00000000000E+00 0.  1.
         25    2    1    2    0    0 -0.61898085282E+02 -0.11314025329E+03  0.45526322620E+03  0.48943263179E+03  0.12509039153E+03 0.  0.
         23    2    1    2    0    0  0.61898085282E+02  0.11314025329E+03  0.33035966837E+03  0.36405736735E+03  0.82268866292E+02 0.  0.
          5    1    3    3  502    0 -0.77596085204E+02 -0.13756530235E+02  0.20553447149E+03  0.22016422492E+03  0.41800000000E+01 0. -1.
         -5    1    3    3    0  502  0.15697999922E+02 -0.99383723056E+02  0.24972875471E+03  0.26926840687E+03  0.41800000000E+01 0. -1.
        -11    1    4    4    0    0  0.50050424067E+02  0.12890913463E+02  0.10061047926E+03  0.11310919121E+03  0.00000000000E+00 0.  1.
         11    1    4    4    0    0  0.11847661215E+02  0.10024933983E+03  0.22974918911E+03  0.25094817614E+03  0.00000000000E+00 0. -1.
</event>
<event>
 8    1  0.6787197E-009  0.1221284E+03  0.7561462E-02  0.1239627E+00
          1   -1    0    0  501    0  0.00000000000E+00  0.00000000000E+00  0.29424029361E+02  0.29424029361E+02  0.00000000000E+00 0. -1.
         -1   -1    0    0    0  501 -0.00000000000E+00 -0.00000000000E+00 -0.10265995838E+04  0.10265995838E+04  0.00000000000E+00 0.  1.
         25    2    1    2    0    0 -0.11528814614E+03  0.10533131942E+02 -0.74541781711E+03  0.76465492331E+03  0.12508847332E+03 0.  0.
         23    2    1    2    0    0  0.11528814614E+03 -0.10533131942E+02 -0.25175773730E+03  0.29136868983E+03  0.90063597610E+02 0.  0.
          5    1    3    3  502    0 -0.44569308311E+02  0.14856379296E+02 -0.60949845960E+03  0.61132068499E+03  0.41800000000E+01 0. -1.
         -5    1    3    3    0  502 -0.70718837827E+02 -0.43232473533E+01 -0.13591935752E+03  0.15333423831E+03  0.41800000000E+01 0. -1.
        -11    1    4    4    0    0  0.59578846843E+02 -0.30507142312E+02 -0.57322194117E+02  0.88125811551E+02  0.00000000000E+00 0. -1.
         11    1    4    4    0    0  0.55709299295E+02  0.19974010370E+02 -0.19443554318E+03  0.20324287828E+03  0.00000000000E+00 0.  1.
</event>
<event>
 8    1  0.6787197E-009  0.1468392E+03  0.7561462E-02  0.1204412E+00
         -2   -1    0    0    0  501 -0.00000000000E+00  0.00000000000E+00  0.56620189054E+02  0.56620189054E+02  0.00000000000E+00 0. -1.
          2   -1    0    0  501    0  0.00000000000E+00 -0.00000000000E+00 -0.94896931980E+03  0.94896931980E+03  0.00000000000E+00 0.  1.
         25    2    1    2    0    0  0.39585574816E+02 -0.12256621035E+03 -0.81029309036E+03  0.82994676973E+03  0.12508898689E+03 0.  0.
         23    2    1    2    0    0 -0.39585574816E+02  0.12256621035E+03 -0.82056040387E+02  0.17564273913E+03  0.86762229056E+02 0.  0.
          5    1    3    3  502    0 -0.77857330034E+01 -0.62491444298E+02 -0.64127252533E+03  0.64437079573E+03  0.41800000000E+01 0.  1.
         -5    1    3    3    0  502  0.47371307819E+02 -0.60074766053E+02 -0.16902056503E+03  0.18557597399E+03  0.41800000000E+01 0.  1.
        -11    1    4    4    0    0 -0.55346436647E+02  0.36154570411E+02 -0.46782650006E+02  0.80987637037E+02  0.00000000000E+00 0.  1.
         11    1    4    4    0    0  0.15760861832E+02  0.86411639940E+02 -0.35273390381E+02  0.94655102091E+02  0.00000000000E+00 0. -1.
</event>
<event>
 8    1  0.6787197E-009  0.1954838E+03  0.7561462E-02  0.1153606E+00
          2   -1    0    0  501    0  0.00000000000E+00  0.00000000000E+00  0.41092116702E+03  0.41092116702E+03  0.00000000000E+00 0. -1.
         -2   -1    0    0    0  501 -0.00000000000E+00 -0.00000000000E+00 -0.11632754604E+03  0.11632754604E+03  0.00000000000E+00 0.  1.
         25    2    1    2    0    0 -0.98801911212E+02 -0.16250899577E+03  0.14936525753E+03  0.27226467689E+03  0.12508829986E+03 0.  0.
         23    2    1    2    0    0  0.98801911212E+02  0.16250899577E+03  0.14522836346E+03  0.25498403617E+03  0.88060148670E+02 0.  0.
          5    1    3    3  502    0 -0.38647434144E+02 -0.83969991442E+02  0.14641518128E+03  0.17320352577E+03  0.41800000000E+01 0. -1.
         -5    1    3    3    0  502 -0.60154477068E+02 -0.78539004330E+02  0.29500762465E+01  0.99061151125E+02  0.41800000000E+01 0. -1.
        -11    1    4    4    0    0  0.26789930621E+02  0.10169211708E+03  0.37038320595E+02  0.11149360633E+03  0.00000000000E+00 0.  1.
         11    1    4    4    0    0  0.72011980591E+02  0.60816878688E+02  0.10819004286E+03  0.14349042984E+03  0.00000000000E+00 0. -1.
</event>
<event>
 8    1  0.6787197E-009  0.1807380E+03  0.7561462E-02  0.1167091E+00
          1   -1    0    0  501    0  0.00000000000E+00  0.00000000000E+00  0.65594930366E+03  0.65594930366E+03  0.00000000000E+00 0. -1.
         -1   -1    0    0    0  501 -0.00000000000E+00 -0.00000000000E+00 -0.57556360608E+02  0.57556360608E+02  0.00000000000E+00 0.  1.
         25    2    1    2    0    0  0.13804541271E+03  0.68747704627E+02  0.39909117305E+03  0.44576234246E+03  0.12509004235E+03 0.  0.
         23    2    1    2    0    0 -0.13804541271E+03 -0.68747704627E+02  0.19930177000E+03  0.26774332180E+03  0.90457216313E+02 0.  0.
          5    1    3    3  502    0  0.58912104035E+02  0.83629086707E+02  0.30566091321E+03  0.32235155717E+03  0.41800000000E+01 0.  1.
         -5    1    3    3    0  502  0.79133308670E+02 -0.14881382079E+02  0.93430259833E+02  0.12341078529E+03  0.41800000000E+01 0.  1.
        -11    1    4    4    0    0 -0.72882600839E+02 -0.84335550010E+02  0.11660394819E+03  0.16130976174E+03  0.00000000000E+00 0.  1.
         11    1    4    4    0    0 -0.65162811866E+02  0.15587845383E+02  0.82697821815E+02  0.10643356006E+03  0.00000000000E+00 0. -1.
</event>
<event>
 8    1  0.6787197E-009  0.9893085E+02  0.7561462E-02  0.1282560E+00
         -1   -1    0    0    0  501 -0.00000000000E+00  0.00000000000E+00  0.23617573412E+02  0.23617573412E+02  0.00000000000E+00 0.  1.
          1   -1    0    0  501    0  0.00000000000E+00 -0.00000000000E+00 -0.67828360484E+03  0.67828360484E+03  0.00000000000E+00 0. -1.
         25    2    1    2    0    0 -0.61232995901E+02  0.15991467588E+02 -0.40579860832E+03  0.42933158038E+03  0.12509152081E+03 0.  0.
         23    2    1    2    0    0  0.61232995901E+02 -0.15991467588E+02 -0.24886742311E+03  0.27256959787E+03  0.91400134436E+02 0.  0.
          5    1    3    3  502    0 -0.48587222378E+02 -0.25804040563E+02 -0.63025888980E+02  0.83763367706E+02  0.41800000000E+01 0.  1.
         -5    1    3    3    0  502 -0.12645773523E+02  0.41795508151E+02 -0.34277271934E+03  0.34556821268E+03  0.41800000000E+01 0.  1.
        -11    1    4    4    0    0  0.45365614728E+02 -0.46169321446E+02 -0.94900420282E+02  0.11487269045E+03  0.00000000000E+00 0.  1.
         11    1    4    4    0    0  0.15867381174E+02  0.30177853858E+02 -0.15396700283E+03  0.15769690742E+03  0.00000000000E+00 0. -1.
</event>
<event>
 8    1  0.6787197E-009  0.1261432E+03  0.7561462E-02  0.1233293E+00
         -1   -1    0    0    0  501 -0.00000000000E+00  0.00000000000E+00  0.42295270697E+02  0.42295270697E+02  0.00000000000E+00 0.  1.
          1   -1    0    0  501    0  0.00000000000E+00 -0.00000000000E+00 -0.38398022229E+03  0.38398022229E+03  0.00000000000E+00 0. -1.
         25    2    1    2    0    0 -0.23072305678E+02  0.61157257423E+02 -0.17340863154E+03  0.22358647371E+03  0.12509123195E+03 0.  0.
         23    2    1    2    0    0  0.23072305678E+02 -0.61157257423E+02 -0.16827632005E+03  0.20268901927E+03  0.92159520497E+02 0.  0.
          5    1    3    3  502    0  0.47462543322E+02 -0.61606140242E-01 -0.57833745658E+02  0.74932712154E+02  0.41800000000E+01 0. -1.
         -5    1    3    3    0  502 -0.70534848999E+02  0.61218863563E+02 -0.11557488588E+03  0.14865376156E+03  0.41800000000E+01 0. -1.
        -11    1    4    4    0    0 -0.33613584475E+02 -0.10741505823E+02 -0.37431772160E+02  0.51443080931E+02  0.00000000000E+00 0.  1.
         11    1    4    4    0    0  0.56685890152E+02 -0.50415751599E+02 -0.13084454789E+03  0.15124593834E+03  0.00000000000E+00 0. -1.
</event>
<event>
 8    1  0.6787197E-009  0.9386402E+02  0.7561462E-02  0.1293755E+00
         -2   -1    0    0    0  501 -0.00000000000E+00  0.00000000000E+00  0.66602781504E+02  0.66602781504E+02  0.00000000000E+00 0. -1.
          2   -1    0    0  501    0  0.00000000000E+00 -0.00000000000E+00 -0.18517240280E+03  0.18517240280E+03  0.00000000000E+00 0.  1.
         25    2    1    2    0    0  0.47866305430E+01  0.16536512477E+02 -0.69165564195E+02  0.14396311475E+03  0.12508051432E+03 0.  0.
         23    2    1    2    0    0 -0.47866305430E+01 -0.16536512477E+02 -0.49404057100E+02  0.10781206955E+03  0.94267244608E+02 0.  0.
          5    1    3    3  502    0  0.26015362868E+01 -0.50664205024E+02 -0.53731620639E+01  0.51185671162E+02  0.41800000000E+01 0. -1.
         -5    1    3    3    0  502  0.21850942563E+01  0.67200717501E+02 -0.63792402131E+02  0.92777443591E+02  0.41800000000E+01 0. -1.
        -11    1    4    4    0    0  0.27828359144E+02  0.76429480968E+01 -0.59364884718E+02  0.66007740196E+02  0.00000000000E+00 0.  1.
         11    1    4    4    0    0 -0.32614989687E+02 -0.24179460574E+02  0.99608276178E+01  0.41804329355E+02  0.00000000000E+00 0. -1.
</event>
<event>
 8    1  0.6787197E-009  0.1461315E+03  0.7561462E-02  0.1205309E+00
         -2   -1    0    0    0  501 -0.00000000000E+00  0.00000000000E+00  0.77006815225E+03  0.77006815225E+03  0.00000000000E+00 0.  1.
          2   -1    0    0  501    0  0.00000000000E+00 -0.00000000000E+00 -0.38421441275E+02  0.38421441275E+02  0.00000000000E+00 0. -1.
         25    2    1    2    0    0  0.94557543620E+02  0.35671129686E+02  0.59572378285E+03  0.61704810979E+03  0.12509190938E+03 0.  0.
         23    2    1    2    0    0 -0.94557543620E+02 -0.35671129686E+02  0.13592292813E+03  0.19144148374E+03  0.89225785269E+02 0.  0.
          5    1    3    3  502    0  0.30250566277E+02  0.77778702620E+02  0.29196080742E+03  0.30368274368E+03  0.41800000000E+01 0. -1.
         -5    1    3    3    0  502  0.64306977343E+02 -0.42107572934E+02  0.30376297543E+03  0.31336536611E+03  0.41800000000E+01 0. -1.
        -11    1    4    4    0    0  0.16018222902E+02 -0.20428029443E+01  0.32747330820E+02  0.36512247050E+02  0.00000000000E+00 0.  1.
         11    1    4    4    0    0 -0.11057576652E+03 -0.33628326742E+02  0.10317559731E+03  0.15492923669E+03  0.00000000000E+00 0. -1.
</event>
<event>
 8    1  0.6787197E-009  0.1630258E+03  0.7561462E-02  0.1185322E+00
         -3   -1    0    0    0  501 -0.00000000000E+00  0.00000000000E+00  0.63266446080E+03  0.63266446080E+03  0.00000000000E+00 0.  1.
          3   -1    0    0  501    0  0.00000000000E+00 -0.00000000000E+00 -0.63450129934E+02  0.63450129934E+02  0.00000000000E+00 0. -1.
         25    2    1    2    0    0 -0.12034626878E+03  0.51201604532E+02  0.11266210462E+03  0.21317742311E+03  0.12508810970E+03 0.  0.
         23    2    1    2    0    0  0.12034626878E+03 -0.51201604532E+02  0.45655222624E+03  0.48293716762E+03  0.87655826226E+02 0.  0.
          5    1    3    3  502    0 -0.30205478947E+02 -0.33541795697E+02  0.67697233672E+02  0.81472761484E+02  0.41800000000E+01 0.  1.
         -5    1    3    3    0  502 -0.90140789831E+02  0.84743400229E+02  0.44964870950E+02  0.13170466162E+03  0.41800000000E+01 0.  1.
        -11    1    4    4    0    0  0.72701610972E+02  0.16106919973E+02  0.23618336214E+03  0.24764397360E+03  0.00000000000E+00 0.  1.
         11    1    4    4    0    0  0.47644657806E+02 -0.67308524505E+02  0.22036886410E+03  0.23529319402E+03  0.00000000000E+00 0. -1.
</event>
<event>
 8    1  0.6787197E-009  0.1047773E+03  0.7561462E-02  0.1270559E+00
          1   -1    0    0  501    0  0.00000000000E+00  0.00000000000E+00  0.43112553265E+03  0.43112553265E+03  0.00000000000E+00 0. -1.
         -1   -1    0    0    0  501 -0.00000000000E+00 -0.00000000000E+00 -0.29585574262E+02  0.29585574262E+02  0.00000000000E+00 0.  1.
         25    2    1    2    0    0  0.15571937123E+02  0.67345467720E+01  0.17327423080E+03  0.21438161314E+03  0.12509067771E+03 0.  0.
         23    2    1    2    0    0 -0.15571937123E+02 -0.67345467720E+01  0.22826572758E+03  0.24632949376E+03  0.91022732121E+02 0.  0.
          5    1    3    3  502    0  0.50150713918E+02  0.47468502913E+02  0.12177812052E+03  0.14005618841E+03  0.41800000000E+01 0.  1.
         -5    1    3    3    0  502 -0.34578776795E+02 -0.40733956141E+02  0.51496110283E+02  0.74325424734E+02  0.41800000000E+01 0.  1.
        -11    1    4    4    0    0 -0.42297726174E+02 -0.29584867824E+02  0.90883469789E+02  0.10451874054E+03  0.00000000000E+00 0.  1.
         11    1    4    4    0    0  0.26725789051E+02  0.22850321052E+02  0.13738225780E+03  0.14181075322E+03  0.00000000000E+00 0. -1.
</event>
<event>
 8    1  0.6787197E-009  0.1139890E+03  0.7561462E-02  0.1253356E+00
          4   -1    0    0  501    0  0.00000000000E+00  0.00000000000E+00  0.78125077284E+02  0.78125077284E+02  0.00000000000E+00 0. -1.
         -4   -1    0    0    0  501 -0.00000000000E+00 -0.00000000000E+00 -0.40718715524E+03  0.40718715524E+03  0.00000000000E+00 0.  1.
         25    2    1    2    0    0  0.11945818611E+02 -0.50568851840E+02 -0.35191580188E+03  0.37708466630E+03  0.12509277594E+03 0.  0.
         23    2    1    2    0    0 -0.11945818611E+02  0.50568851840E+02  0.22853723917E+02  0.10822756622E+03  0.92146633335E+02 0.  0.
          5    1    3    3  502    0 -0.22830483044E+02 -0.75704514644E+02 -0.14012079805E+03  0.16094631073E+03  0.41800000000E+01 0.  1.
         -5    1    3    3    0  502  0.34776301655E+02  0.25135662804E+02 -0.21179500383E+03  0.21613835557E+03  0.41800000000E+01 0.  1.
        -11    1    4    4    0    0 -0.51511579998E+02  0.38527316952E+02  0.11565492823E+02  0.65357154541E+02  0.00000000000E+00 0.  1.
         11    1    4    4    0    0  0.39565761387E+02  0.12041534888E+02  0.11288231094E+02  0.42870411683E+02  0.00000000000E+00 0. -1.
</event>
<event>
 8    1  0.6787197E-009  0.1973491E+03  0.7561462E-02  0.1151995E+00
          2   -1    0    0  501    0  0.00000000000E+00  0.00000000000E+00  0.46206122432E+03  0.46206122432E+03  0.00000000000E+00 0. -1.
         -2   -1    0    0    0  501 -0.00000000000E+00 -0.00000000000E+00 -0.10061691252E+03  0.10061691252E+03  0.00000000000E+00 0.  1.
         25    2    1    2    0    0  0.96397780988E+02 -0.15840576238E+03  0.20890163308E+03  0.30605280420E+03  0.12507401378E+03 0.  0.
         23    2    1    2    0    0 -0.96397780988E+02  0.15840576238E+03  0.15254267873E+03  0.25662533264E+03  0.90566963001E+02 0.  0.
          5    1    3    3  502    0  0.11437837549E+03 -0.14315734299E+03  0.13298118411E+03  0.22644625269E+03  0.41800000000E+01 0. -1.
         -5    1    3    3    0  502 -0.17980594499E+02 -0.15248419392E+02  0.75920448964E+02  0.79606551510E+02  0.41800000000E+01 0. -1.
        -11    1    4    4    0    0 -0.58679564289E+02  0.12031929893E+03  0.15263733659E+03  0.20302261322E+03  0.00000000000E+00 0. -1.
         11    1    4    4    0    0 -0.37718216699E+02  0.38086463447E+02 -0.94657860999E-01  0.53602719418E+02  0.00000000000E+00 0.  1.
</event>
<event>
 8    1  0.6787197E-009  0.8052007E+02  0.7561462E-02  0.1327582E+00
         -1   -1    0    0    0  501 -0.00000000000E+00  0.00000000000E+00  0.93098654016E+02  0.93098654016E+02  0.00000000000E+00 0.  1.
          1   -1    0    0  501    0  0.00000000000E+00 -0.00000000000E+00 -0.29322282147E+03  0.29322282147E+03  0.00000000000E+00 0. -1.
         25    2    1    2    0    0 -0.21466351473E+02  0.75395639241E+01 -0.24920708870E+03  0.27976659314E+03  0.12509006478E+03 0.  0.
         23    2    1    2    0    0  0.21466351473E+02 -0.75395639241E+01  0.49082921255E+02  0.10655488234E+03  0.91799567111E+02 0.  0.
          5    1    3    3  502    0  0.26714537106E+02 -0.26222755956E+02 -0.19122748978E+02  0.42242766851E+02  0.41800000000E+01 0.  1.
         -5    1    3    3    0  502 -0.48180888579E+02  0.33762319880E+02 -0.23008433973E+03  0.23752382629E+03  0.41800000000E+01 0.  1.
        -11    1    4    4    0    0  0.18124628964E+02 -0.33568997769E+02  0.65356261930E+02  0.75675760715E+02  0.00000000000E+00 0.  1.
         11    1    4    4    0    0  0.33417225096E+01  0.26029433845E+02 -0.16273340675E+02  0.30879121625E+02  0.00000000000E+00 0. -1.
</event>
<event>
 8    1  0.6787197E-009  0.1412536E+03  0.7561462E-02  0.1211652E+00
          2   -1    0    0  501    0  0.00000000000E+00  0.00000000000E+00  0.27241276675E+04  0.27241276675E+04  0.00000000000E+00 0. -1.
         -2   -1    0    0    0  501 -0.00000000000E+00 -0.00000000000E+00 -0.20318611049E+02  0.20318611049E+02  0.00000000000E+00 0.  1.
         25    2    1    2    0    0 -0.12628359656E+03  0.19831150226E+01  0.23428848192E+04  0.23496185924E+04  0.12508706593E+03 0.  0.
         23    2    1    2    0    0  0.12628359656E+03 -0.19831150226E+01  0.36092423727E+03  0.39482768620E+03  0.98341838686E+02 0.  0.
          5    1    3    3  502    0 -0.11013887303E+03  0.10035765034E+02  0.23028491086E+04  0.23055070543E+04  0.41800000000E+01 0. -1.
         -5    1    3    3    0  502 -0.16144723523E+02 -0.80526500112E+01  0.40035710612E+02  0.44111538105E+02  0.41800000000E+01 0. -1.
        -11    1    4    4    0    0  0.47639805846E+02 -0.43387679753E+02  0.97984467458E+02  0.11727317561E+03  0.00000000000E+00 0.  1.
         11    1    4    4    0    0  0.78643790712E+02  0.41404564731E+02  0.26293976981E+03  0.27755451059E+03  0.00000000000E+00 0. -1.
</event>
<event>
 8    1  0.6787197E-009  0.1101393E+03  0.7561462E-02  0.1260312E+00
         -1   -1    0    0    0  501 -0.00000000000E+00  0.00000000000E+00  0.34534096101E+02  0.34534096101E+02  0.00000000000E+00 0.  1.
          1   -1    0    0  501    0  0.00000000000E+00 -0.00000000000E+00 -0.47091373314E+03  0.47091373314E+03  0.00000000000E+00 0. -1.
         25    2    1    2    0    0 -0.61867733010E+02 -0.65489087862E+01 -0.29661479011E+03  0.32786972492E+03  0.12509083983E+03 0.  0.
         23    2    1    2    0    0  0.61867733010E+02  0.65489087862E+01 -0.13976484693E+03  0.17757810432E+03  0.90162442871E+02 0.  0.
          5    1    3    3  502    0  0.12049231297E+02 -0.49074822784E+02 -0.14838549636E+03  0.15680959835E+03  0.41800000000E+01 0.  1.
         -5    1    3    3    0  502 -0.73916964307E+02  0.42525913998E+02 -0.14822929375E+03  0.17106012656E+03  0.41800000000E+01 0.  1.
        -11    1    4    4    0    0  0.58674540762E+02  0.26219395011E+02 -0.39681325947E+02  0.75529901611E+02  0.00000000000E+00 0.  1.
         11    1    4    4    0    0  0.31931922474E+01 -0.19670486225E+02 -0.10008352098E+03  0.10204820271E+03  0.00000000000E+00 0. -1.
</event>
<event>
 8    1  0.6787197E-009  0.1476215E+03  0.7561462E-02  0.1203427E+00
         -4   -1    0    0    0  501 -0.00000000000E+00  0.00000000000E+00  0.25847607776E+03  0.25847607776E+03  0.00000000000E+00 0. -1.
          4   -1    0    0  501    0  0.00000000000E+00 -0.00000000000E+00 -0.10245393238E+03  0.10245393238E+03  0.00000000000E+00 0.  1.
         25    2    1    2    0    0  0.70789612087E+01 -0.11159311722E+03  0.12954045941E+03  0.21197026409E+03  0.12509007446E+03 0.  0.
         23    2    1    2    0    0 -0.70789612087E+01  0.11159311722E+03  0.26481685967E+02  0.14895974605E+03  0.94787081122E+02 0.  0.
          5    1    3    3  502    0 -0.92701057918E+01 -0.13222195801E+03  0.77749014130E+02  0.15372365673E+03  0.41800000000E+01 0. -1.
         -5    1    3    3    0  502  0.16349067000E+02  0.20628840784E+02  0.51791445284E+02  0.58246607355E+02  0.41800000000E+01 0. -1.
        -11    1    4    4    0    0 -0.13431904876E+02  0.12256586040E+03  0.42575279356E+01  0.12337314436E+03  0.00000000000E+00 0.  1.
         11    1    4    4    0    0  0.63529436676E+01 -0.10972743175E+02  0.22224158032E+02  0.25586601694E+02  0.00000000000E+00 0. -1.
</event>
<event>
 8    1  0.6787197E-009  0.1922371E+03  0.7561462E-02  0.1156459E+00
         -2   -1    0    0    0  501 -0.00000000000E+00  0.00000000000E+00  0.41433558502E+03  0.41433558502E+03  0.00000000000E+00 0.  1.
          2   -1    0    0  501    0  0.00000000000E+00 -0.00000000000E+00 -0.11370641600E+03  0.11370641600E+03  0.00000000000E+00 0. -1.
         25    2    1    2    0    0 -0.14411067606E+03 -0.12013486560E+03  0.19009991756E+03  0.29493283850E+03  0.12508847943E+03 0.  0.
         23    2    1    2    0    0  0.14411067606E+03  0.12013486560E+03  0.11052925146E+03  0.23310916252E+03  0.83203926207E+02 0.  0.
          5    1    3    3  502    0 -0.56489366585E+02 -0.49503729212E+02  0.16236555807E+03  0.17894612203E+03  0.41800000000E+01 0. -1.
         -5    1    3    3    0  502 -0.87621309478E+02 -0.70631136384E+02  0.27734359486E+02  0.11598671647E+03  0.41800000000E+01 0. -1.
        -11    1    4    4    0    0  0.12724261061E+03  0.73300702639E+02  0.10974483130E+03  0.18332376539E+03  0.00000000000E+00 0.  1.
         11    1    4    4    0    0  0.16868065455E+02  0.46834162957E+02  0.78442016005E+00  0.49785397127E+02  0.00000000000E+00 0. -1.
</event>
<event>
 8    1  0.6787197E-009  0.1630479E+03  0.7561462E-02  0.1185298E+00
          1   -1    0    0  501    0  0.00000000000E+00  0.00000000000E+00  0.32029280738E+03  0.32029280738E+03  0.00000000000E+00 0. -1.
         -1   -1    0    0    0  501 -0.00000000000E+00 -0.00000000000E+00 -0.10330409544E+03  0.10330409544E+03  0.00000000000E+00 0.  1.
         25    2    1    2    0    0  0.37515326933E+02  0.12641009890E+03  0.45065650372E+02  0.18725601614E+03  0.12508792858E+03 0.  0.
         23    2    1    2    0    0 -0.37515326933E+02 -0.12641009890E+03  0.17192306157E+03  0.23634088668E+03  0.94406370318E+02 0.  0.
          5    1    3    3  502    0  0.77708202798E+02  0.43654457408E+02  0.28606441655E+02  0.93702066882E+02  0.41800000000E+01 0.  1.
         -5    1    3    3    0  502 -0.40192875865E+02  0.82755641496E+02  0.16459208717E+02  0.93553949255E+02  0.41800000000E+01 0.  1.
        -11    1    4    4    0    0 -0.14150464359E+02 -0.11960167093E+03  0.88541713747E+02  0.14948053520E+03  0.00000000000E+00 0.  1.
         11    1    4    4    0    0 -0.23364862574E+02 -0.68084279779E+01  0.83381347819E+02  0.86860351478E+02  0.00000000000E+00 0. -1.
</event>
<event>
 8    1  0.6787197E-009  0.1510459E+03  0.7561462E-02  0.1199194E+00
         -2   -1    0    0    0  501 -0.00000000000E+00  0.00000000000E+00  0.53022696504E+02  0.53022696504E+02  0.00000000000E+00 0.  1.
          2   -1    0    0  501    0  0.00000000000E+00 -0.00000000000E+00 -0.53148881328E+03  0.53148881328E+03  0.00000000000E+00 0. -1.
         25    2    1    2    0    0  0.12018447183E+03  0.14105041357E+02 -0.32433052762E+03  0.36807748926E+03  0.12508991763E+03 0.  0.
         23    2    1    2    0    0 -0.12018447183E+03 -0.14105041357E+02 -0.15413558916E+03  0.21643402053E+03  0.91883872010E+02 0.  0.
          5    1    3    3  502    0 -0.11889162930E+02 -0.10780285846E+02  0.42092719149E+00  0.16589645500E+02  0.41800000000E+01 0.  1.
         -5    1    3    3    0  502  0.13207363476E+03  0.24885327203E+02 -0.32475145481E+03  0.35148784376E+03  0.41800000000E+01 0.  1.
        -11    1    4    4    0    0 -0.50216361615E+02 -0.51315052618E+02 -0.61593833956E+02  0.94597663715E+02  0.00000000000E+00 0.  1.
         11    1    4    4    0    0 -0.69968110217E+02  0.37210011261E+02 -0.92541755208E+02  0.12183635682E+03  0.00000000000E+00 0. -1.
</event>
<event>
 8    1  0.6787197E-009  0.9596548E+02  0.7561462E-02  0.1289016E+00
         -2   -1    0    0    0  501 -0.00000000000E+00  0.00000000000E+00  0.19577264340E+02  0.19577264340E+02  0.00000000000E+00 0.  1.
          2   -1    0    0  501    0  0.00000000000E+00 -0.00000000000E+00 -0.68634219145E+03  0.68634219145E+03  0.00000000000E+00 0. -1.
         25    2    1    2    0    0 -0.13019247070E+01  0.24199659965E+01 -0.25476968269E+03  0.28383421200E+03  0.12508683960E+03 0.  0.
         23    2    1    2    0    0  0.13019247070E+01 -0.24199659965E+01 -0.41199524442E+03  0.42208524379E+03  0.91696893931E+02 0.  0.
          5    1    3    3  502    0  0.57877626840E+01  0.51721909192E+02 -0.21109829408E+03  0.21745945887E+03  0.41800000000E+01 0. -1.
         -5    1    3    3    0  502 -0.70896873910E+01 -0.49301943195E+02 -0.43671388606E+02  0.66374753128E+02  0.41800000000E+01 0. -1.
        -11    1    4    4    0    0  0.12391725756E+02 -0.44512700861E+02 -0.16802818693E+03  0.17426533508E+03  0.00000000000E+00 0.  1.
         11    1    4    4    0    0 -0.11089801049E+02  0.42092734865E+02 -0.24396705749E+03  0.24781990872E+03  0.00000000000E+00 0. -1.
</event>
<event>
 8    1  0.6787197E-009  0.1219923E+03  0.7561462E-02  0.1239846E+00
         -2   -1    0    0    0  501 -0.00000000000E+00  0.00000000000E+00  0.37936944843E+02  0.37936944843E+02  0.00000000000E+00 0.  1.
          2   -1    0    0  501    0  0.00000000000E+00 -0.00000000000E+00 -0.68551118133E+03  0.68551118133E+03  0.00000000000E+00 0. -1.
         25    2    1    2    0    0 -0.52769941202E+02  0.82319214567E+02 -0.50323806671E+03  0.52769046714E+03  0.12509019761E+03 0.  0.
         23    2    1    2    0    0  0.52769941202E+02 -0.82319214567E+02 -0.14433616977E+03  0.19575765903E+03  0.89033765417E+02 0.  0.
          5    1    3    3  502    0 -0.64141992059E+02  0.10260322118E+03 -0.30663420322E+03  0.32967199324E+03  0.41800000000E+01 0.  1.
         -5    1    3    3    0  502  0.11372050857E+02 -0.20284006611E+02 -0.19660386349E+03  0.19801847390E+03  0.41800000000E+01 0.  1.
        -11    1    4    4    0    0  0.16662162780E+02 -0.41860673719E+02 -0.13291017492E+03  0.14033908319E+03  0.00000000000E+00 0. -1.
         11    1    4    4    0    0  0.36107778422E+02 -0.40458540848E+02 -0.11425994850E+02  0.55418575843E+02  0.00000000000E+00 0.  1.
</event>
<event>
 8    1  0.6787197E-009  0.9906537E+02  0.7561462E-02  0.1282274E+00
         -2   -1    0    0    0  501 -0.00000000000E+00  0.00000000000E+00  0.73652598335E+02  0.73652598335E+02  0.00000000000E+00 0. -1.
          2   -1    0    0  501    0  0.00000000000E+00 -0.00000000000E+00 -0.28326521832E+03  0.28326521832E+03  0.00000000000E+00 0.  1.
         25    2    1    2    0    0  0.56062652146E+02 -0.52737594051E+02 -0.18323831695E+03  0.23483394085E+03  0.12508566739E+03 0.  0.
         23    2    1    2    0    0 -0.56062652146E+02  0.52737594051E+02 -0.26374303033E+02  0.12208387580E+03  0.91019745535E+02 0.  0.
          5    1    3    3  502    0  0.71232556684E+02 -0.12894205759E+02 -0.17734041661E+03  0.19159184074E+03  0.41800000000E+01 0.  1.
         -5    1    3    3    0  502 -0.15169904538E+02 -0.39843388292E+02 -0.58979003415E+01  0.43242100119E+02  0.41800000000E+01 0.  1.
        -11    1    4    4    0    0 -0.44785441616E+02  0.55356687339E+02  0.20262511345E+02  0.74031533686E+02  0.00000000000E+00 0. -1.
         11    1    4    4    0    0 -0.11277210530E+02 -0.26190932883E+01 -0.46636814379E+02  0.48052342111E+02  0.00000000000E+00 0.  1.
</event>
<event>
 8    1  0.6787197E-009  0.9840780E+02  0.7561462E-02  0.1283680E+00
          2   -1    0    0  501    0  0.00000000000E+00  0.00000000000E+00  0.73934203485E+03  0.73934203485E+03  0.00000000000E+00 0. -1.
         -2   -1    0    0    0  501 -0.00000000000E+00 -0.00000000000E+00 -0.17605310355E+02  0.17605310355E+02  0.00000000000E+00 0.  1.
         25    2    1    2    0    0 -0.14499979426E+02  0.23547451398E+02  0.48983710550E+03  0.50631300009E+03  0.12509089601E+03 0.  0.
         23    2    1    2    0    0  0.14499979426E+02 -0.23547451398E+02  0.23189961900E+03  0.25063434512E+03  0.90969279383E+02 0.  0.
          5    1    3    3  502    0  0.42128095435E+02  0.19284358810E+02  0.37762840076E+03  0.38048304086E+03  0.41800000000E+01 0.  1.
         -5    1    3    3    0  502 -0.56628074861E+02  0.42630925873E+01  0.11220870474E+03  0.12582995923E+03  0.41800000000E+01 0.  1.
        -11    1    4    4    0    0 -0.36589495895E+02  0.11497943232E+01  0.11506924916E+03  0.12075199931E+03  0.00000000000E+00 0.  1.
         11    1    4    4    0    0  0.51089475321E+02 -0.24697245721E+02  0.11683036984E+03  0.12988234581E+03  0.00000000000E+00 0. -1.
</event>
<event>
 8    1  0.6787197E-009  0.8807937E+02  0.7561462E-02  0.1307571E+00
         -1   -1    0    0    0  501 -0.00000000000E+00  0.00000000000E+00  0.34917308936E+03  0.34917308936E+03  0.00000000000E+00 0.  1.
          1   -1    0    0  501    0  0.00000000000E+00 -0.00000000000E+00 -0.95215984777E+02  0.95215984777E+02  0.00000000000E+00 0. -1.
         25    2    1    2    0    0 -0.71066481976E+02  0.16007790722E+01  0.28246205262E+03  0.31699554293E+03  0.12509338796E+03 0.  0.
         23    2    1    2    0    0  0.71066481976E+02 -0.16007790722E+01 -0.28504948037E+02  0.12739353121E+03  0.10180163249E+03 0.  0.
          5    1    3    3  502    0  0.15217520930E+02  0.38611686406E+01  0.18903373472E+03  0.18973061648E+03  0.41800000000E+01 0.  1.
         -5    1    3    3    0  502 -0.86284002906E+02 -0.22603895684E+01  0.93428317899E+02  0.12726492645E+03  0.41800000000E+01 0.  1.
        -11    1    4    4    0    0  0.28220141919E+02  0.85077455414E+01 -0.64248828581E+02  0.70687128377E+02  0.00000000000E+00 0.  1.
         11    1    4    4    0    0  0.42846340057E+02 -0.10108524614E+02  0.35743880544E+02  0.56706402835E+02  0.00000000000E+00 0. -1.
</event>
<event>
 8    1  0.6787197E-009  0.1025756E+03  0.7561462E-02  0.1274971E+00
         -2   -1    0    0    0  501 -0.00000000000E+00  0.00000000000E+00  0.20980231648E+02  0.20980231648E+02  0.00000000000E+00 0.  1.
          2   -1    0    0  501    0  0.00000000000E+00 -0.00000000000E+00 -0.72459322857E+03  0.72459322857E+03  0.00000000000E+00 0. -1.
         25    2    1    2    0    0 -0.30329268370E+02 -0.48952427771E+02 -0.33161472290E+03  0.35906825072E+03  0.12508189128E+03 0.  0.
         23    2    1    2    0    0  0.30329268370E+02  0.48952427771E+02 -0.37199827402E+03  0.38650520950E+03  0.87677570620E+02 0.  0.
          5    1    3    3  502    0  0.26185493770E+02  0.65696846730E+01 -0.22244338036E+03  0.22411463742E+03  0.41800000000E+01 0. -1.
         -5    1    3    3    0  502 -0.56514762140E+02 -0.55522112444E+02 -0.10917134254E+03  0.13495361330E+03  0.41800000000E+01 0. -1.
        -11    1    4    4    0    0  0.57459145207E+02  0.39670282766E+02 -0.31565576095E+03  0.32328600978E+03  0.00000000000E+00 0. -1.
         11    1    4    4    0    0 -0.27129876836E+02  0.92821450047E+01 -0.56342513073E+02  0.63219199713E+02  0.00000000000E+00 0.  1.
</event>
<event>
 8    1  0.6787197E-009  0.1538844E+03  0.7561462E-02  0.1195780E+00
         -1   -1    0    0    0  501 -0.00000000000E+00  0.00000000000E+00  0.19425601343E+02  0.19425601343E+02  0.00000000000E+00 0.  1.
          1   -1    0    0  501    0  0.00000000000E+00 -0.00000000000E+00 -0.16423571856E+04  0.16423571856E+04  0.00000000000E+00 0. -1.
         25    2    1    2    0    0 -0.11095156912E+03  0.13333853542E+02 -0.12787084413E+04  0.12896629934E+04  0.12508923346E+03 0.  0.
         23    2    1    2    0    0  0.11095156912E+03 -0.13333853542E+02 -0.34422314300E+03  0.37211979360E+03  0.86576707421E+02 0.  0.
          5    1    3    3  502    0  0.18137121642E+01  0.48722433749E+02 -0.32890862293E+03  0.33252897579E+03  0.41800000000E+01 0.  1.
         -5    1    3    3    0  502 -0.11276528129E+03 -0.35388580207E+02 -0.94979981835E+03  0.95713401758E+03  0.41800000000E+01 0.  1.
        -11    1    4    4    0    0 -0.13113237289E+02  0.69798444338E+01 -0.50089119671E+02  0.52245527367E+02  0.00000000000E+00 0.  1.
         11    1    4    4    0    0  0.12406480641E+03 -0.20313697976E+02 -0.29413402333E+03  0.31987426623E+03  0.00000000000E+00 0. -1.
</event>
<event>
 8    1  0.6787197E-009  0.1049619E+03  0.7561462E-02  0.1270195E+00
          3   -1    0    0  501    0  0.00000000000E+00  0.00000000000E+00  0.29135227772E+03  0.29135227772E+03  0.00000000000E+00 0. -1.
         -3   -1    0    0    0  501 -0.00000000000E+00 -0.00000000000E+00 -0.52837639998E+02  0.52837639998E+02  0.00000000000E+00 0.  1.
         25    2    1    2    0    0  0.56950418227E+02 -0.72052797597E+00  0.16911253699E+03  0.21792066668E+03  0.12508596044E+03 0.  0.
         23    2    1    2    0    0 -0.56950418227E+02  0.72052797597E+00  0.69402100727E+02  0.12626925104E+03  0.88788528963E+02 0.  0.
          5    1    3    3  502    0  0.90383354810E+02  0.13607404440E+02  0.79848274777E+02  0.12143941562E+03  0.41800000000E+01 0. -1.
         -5    1    3    3    0  502 -0.33432936583E+02 -0.14327932416E+02  0.89264262216E+02  0.96481251054E+02  0.41800000000E+01 0. -1.
        -11    1    4    4    0    0 -0.68351805990E+01  0.25148886733E+02  0.65367916870E+02  0.70371519478E+02  0.00000000000E+00 0. -1.
         11    1    4    4    0    0 -0.50115237628E+02 -0.24428358757E+02  0.40341838570E+01  0.55897731560E+02  0.00000000000E+00 0.  1.
</event>
<event>
 8    1  0.6787197E-009  0.9235995E+02  0.7561462E-02  0.1297235E+00
         -1   -1    0    0    0  501 -0.00000000000E+00  0.00000000000E+00  0.18553118287E+02  0.18553118287E+02  0.00000000000E+00 0.  1.
          1   -1    0    0  501    0  0.00000000000E+00 -0.00000000000E+00 -0.74300361408E+03  0.74300361408E+03  0.00000000000E+00 0. -1.
         25    2    1    2    0    0 -0.31303024013E+02 -0.35623835622E+02 -0.42998750032E+03  0.45031829401E+03  0.12509347910E+03 0.  0.
         23    2    1    2    0    0  0.31303024013E+02  0.35623835622E+02 -0.29446299547E+03  0.31123843835E+03  0.88949271104E+02 0.  0.
          5    1    3    3  502    0  0.17752821639E+02  0.65294377359E+01 -0.33362279366E+03  0.33418473497E+03  0.41800000000E+01 0.  1.
         -5    1    3    3    0  502 -0.49055845652E+02 -0.42153273358E+02 -0.96364706656E+02  0.11613355904E+03  0.41800000000E+01 0.  1.
        -11    1    4    4    0    0  0.58502764087E+02  0.37364916122E+01 -0.18274044518E+03  0.19191301436E+03  0.00000000000E+00 0. -1.
         11    1    4    4    0    0 -0.27199740073E+02  0.31887344010E+02 -0.11172255029E+03  0.11932542400E+03  0.00000000000E+00 0.  1.
</event>
<event>
 8    1  0.6787197E-009  0.1180524E+03  0.7561462E-02  0.1246345E+00
          4   -1    0    0  501    0  0.00000000000E+00  0.00000000000E+00  0.39266084905E+02  0.39266084905E+02  0.00000000000E+00 0. -1.
         -4   -1    0    0    0  501 -0.00000000000E+00 -0.00000000000E+00 -0.43774374257E+03  0.43774374257E+03  0.00000000000E+00 0.  1.
         25    2    1    2    0    0  0.14299676958E+02  0.71241243956E+02 -0.22519060667E+03  0.26765145262E+03  0.12508675051E+03 0.  0.
         23    2    1    2    0    0 -0.14299676958E+02 -0.71241243956E+02 -0.17328705100E+03  0.20935837486E+03  0.92318641023E+02 0.  0.
          5    1    3    3  502    0  0.50547102278E+02 -0.23074830693E+01 -0.14184932380E+03  0.15066199617E+03  0.41800000000E+01 0. -1.
         -5    1    3    3    0  502 -0.36247425320E+02  0.73548727025E+02 -0.83341282867E+02  0.11698945644E+03  0.41800000000E+01 0. -1.
        -11    1    4    4    0    0  0.25433937781E+02 -0.49016491928E+01 -0.83847655057E+01  0.27225275911E+02  0.00000000000E+00 0. -1.
         11    1    4    4    0    0 -0.39733614738E+02 -0.66339594763E+02 -0.16490228549E+03  0.18213309895E+03  0.00000000000E+00 0.  1.
</event>
<event>
 8    1  0.6787197E-009  0.8019708E+02  0.7561462E-02  0.1328493E+00
          2   -1    0    0  501    0  0.00000000000E+00  0.00000000000E+00  0.18088781516E+03  0.18088781516E+03  0.00000000000E+00 0. -1.
         -2   -1    0    0    0  501 -0.00000000000E+00 -0.00000000000E+00 -0.81615021985E+02  0.81615021985E+02  0.00000000000E+00 0.  1.
         25    2    1    2    0    0  0.48159838928E+02  0.26193723147E+01  0.85286811720E+02  0.15889674914E+03  0.12509238761E+03 0.  0.
         23    2    1    2    0    0 -0.48159838928E+02 -0.26193723147E+01  0.13985981459E+02  0.10360608801E+03  0.90622197048E+02 0.  0.
          5    1    3    3  502    0 -0.41926730847E+00  0.46374317895E+02  0.80767063692E+02  0.93228451251E+02  0.41800000000E+01 0.  1.
         -5    1    3    3    0  502  0.48579106237E+02 -0.43754945580E+02  0.45197480281E+01  0.65668297890E+02  0.41800000000E+01 0.  1.
        -11    1    4    4    0    0 -0.33630308300E+02 -0.49953759282E+00  0.52521505994E+02  0.62367906539E+02  0.00000000000E+00 0. -1.
         11    1    4    4    0    0 -0.14529530628E+02 -0.21198347218E+01 -0.38535524536E+02  0.41238181468E+02  0.00000000000E+00 0.  1.
</event>
<event>
 8    1  0.6787197E-009  0.1345323E+03  0.7561462E-02  0.1220881E+00
          1   -1    0    0  501    0  0.00000000000E+00  0.00000000000E+00  0.89561200402E+03  0.89561200402E+03  0.00000000000E+00 0. -1.
         -1   -1    0    0    0  501 -0.00000000000E+00 -0.00000000000E+00 -0.25963948387E+02  0.25963948387E+02  0.00000000000E+00 0.  1.
         25    2    1    2    0    0  0.78459998373E+02  0.58753727568E+02  0.59489204372E+03  0.61575364884E+03  0.12509212817E+03 0.  0.
         23    2    1    2    0    0 -0.78459998373E+02 -0.58753727568E+02  0.27475601191E+03  0.30582230356E+03  0.91806554391E+02 0.  0.
          5    1    3    3  502    0 -0.26293889822E+02  0.31294731208E+02  0.84210796295E+02  0.93699837011E+02  0.41800000000E+01 0. -1.
         -5    1    3    3    0  502  0.10475388820E+03  0.27458996360E+02  0.51068124743E+03  0.52205381183E+03  0.41800000000E+01 0. -1.
        -11    1    4    4    0    0 -0.44552278922E+02 -0.70772921239E+02  0.11576414757E+03  0.14281123836E+03  0.00000000000E+00 0.  1.
         11    1    4    4    0    0 -0.33907719451E+02  0.12019193671E+02  0.15899186433E+03  0.16301106520E+03  0.00000000000E+00 0. -1.
</event>
<event>
 8    1  0.6787197E-009  0.2542562E+03  0.7561462E-02  0.1110644E+00
          1   -1    0    0  501    0  0.00000000000E+00  0.00000000000E+00  0.42821389338E+03  0.42821389338E+03  0.00000000000E+00 0. -1.
         -1   -1    0    0    0  501 -0.00000000000E+00 -0.00000000000E+00 -0.16252684288E+03  0.16252684288E+03  0.00000000000E+00 0.  1.
         25    2    1    2    0    0 -0.19422434401E+03  0.14063982868E+03  0.15311161414E+03  0.31079481624E+03  0.12509034415E+03 0.  0.
         23    2    1    2    0    0  0.19422434401E+03 -0.14063982868E+03  0.11257543636E+03  0.27994592001E+03  0.90519788120E+02 0.  0.
          5    1    3    3  502    0 -0.14015428825E+03  0.15225258610E+03  0.87058302812E+02  0.22454552986E+03  0.41800000000E+01 0.  1.
         -5    1    3    3    0  502 -0.54070055759E+02 -0.11612757419E+02  0.66053311326E+02  0.86249286384E+02  0.41800000000E+01 0.  1.
        -11    1    4    4    0    0  0.23199714429E+02 -0.43713667184E+02  0.57359195462E+02  0.75757433644E+02  0.00000000000E+00 0. -1.
         11    1    4    4    0    0  0.17102462958E+03 -0.96926161496E+02  0.55216240902E+02  0.20418848637E+03  0.00000000000E+00 0.  1.
</event>
<event>
 8    1  0.6787197E-009  0.9789061E+02  0.7561462E-02  0.1284795E+00
          1   -1    0    0  501    0  0.00000000000E+00  0.00000000000E+00  0.18402339084E+02  0.18402339084E+02  0.00000000000E+00 0. -1.
         -1   -1    0    0    0  501 -0.00000000000E+00 -0.00000000000E+00 -0.80637226324E+03  0.80637226324E+03  0.00000000000E+00 0.  1.
         25    2    1    2    0    0  0.37277987571E+02 -0.31046550817E+02 -0.54830546621E+03  0.56448076598E+03  0.12508442831E+03 0.  0.
         23    2    1    2    0    0 -0.37277987571E+02  0.31046550817E+02 -0.23966445794E+03  0.26029383635E+03  0.89220469421E+02 0.  0.
          5    1    3    3  502    0  0.26657719127E+02  0.25497798893E+02 -0.47126029110E+02  0.59992555847E+02  0.41800000000E+01 0. -1.
         -5    1    3    3    0  502  0.10620268444E+02 -0.56544349710E+02 -0.50117943710E+03  0.50448821013E+03  0.41800000000E+01 0. -1.
        -11    1    4    4    0    0  0.28805164208E+02  0.22684947368E+01 -0.81799499992E+02  0.86752762217E+02  0.00000000000E+00 0. -1.
         11    1    4    4    0    0 -0.66083151780E+02  0.28778056080E+02 -0.15786495795E+03  0.17354107413E+03  0.00000000000E+00 0.  1.
</event>
<event>
 8    1  0.6787197E-009  0.1866742E+03  0.7561462E-02  0.1161496E+00
         -2   -1    0    0    0  501 -0.00000000000E+00  0.00000000000E+00  0.95557290551E+02  0.95557290551E+02  0.00000000000E+00 0.  1.
          2   -1    0    0  501    0  0.00000000000E+00 -0.00000000000E+00 -0.47962149359E+03  0.47962149359E+03  0.00000000000E+00 0. -1.
         25    2    1    2    0    0  0.13671831883E+03  0.10816980658E+03 -0.27950322013E+03  0.35236652732E+03  0.12509002260E+03 0.  0.
         23    2    1    2    0    0 -0.13671831883E+03 -0.10816980658E+03 -0.10456098290E+03  0.22281225681E+03  0.91212372412E+02 0.  0.
          5    1    3    3  502    0  0.99236706260E+02  0.10248396978E+03 -0.11438231661E+03  0.18289798983E+03  0.41800000000E+01 0.  1.
         -5    1    3    3    0  502  0.37481612571E+02  0.56858368033E+01 -0.16512090352E+03  0.16946853749E+03  0.41800000000E+01 0.  1.
        -11    1    4    4    0    0 -0.31691731301E+02  0.11090915706E+02 -0.37479512790E+02  0.50319858138E+02  0.00000000000E+00 0. -1.
         11    1    4    4    0    0 -0.10502658753E+03 -0.11926072228E+03 -0.67081470114E+02  0.17249239868E+03  0.00000000000E+00 0.  1.
</event>
<event>
 8    1  0.6787197E-009  0.1187268E+03  0.7561462E-02  0.1245212E+00
          1   -1    0    0  501    0  0.00000000000E+00  0.00000000000E+00  0.16532870479E+03  0.16532870479E+03  0.00000000000E+00 0. -1.
         -1   -1    0    0    0  501 -0.00000000000E+00 -0.00000000000E+00 -0.14129348491E+03  0.14129348491E+03  0.00000000000E+00 0.  1.
         25    2    1    2    0    0  0.50503105635E+02  0.44766625644E+02  0.96228457874E+02  0.17164291615E+03  0.12508701016E+03 0.  0.
         23    2    1    2    0    0 -0.50503105635E+02 -0.44766625644E+02 -0.72193237999E+02  0.13497927355E+03  0.91939796740E+02 0.  0.
          5    1    3    3  502    0  0.59826834298E+02  0.80513713523E+02  0.88137078795E+02  0.13359388169E+03  0.41800000000E+01 0.  1.
         -5    1    3    3    0  502 -0.93237286638E+01 -0.35747087879E+02  0.80913790788E+01  0.38049034461E+02  0.41800000000E+01 0.  1.
        -11    1    4    4    0    0 -0.50522156682E+02  0.43998060261E+01 -0.39467518155E+01  0.50866722508E+02  0.00000000000E+00 0. -1.
         11    1    4    4    0    0  0.19051047065E-01 -0.49166431670E+02 -0.68246486183E+02  0.84112551040E+02  0.00000000000E+00 0.  1.
</event>
<event>
 8    1  0.6787197E-009  0.1570116E+03  0.7561462E-02  0.1192113E+00
         -2   -1    0    0    0  501 -0.00000000000E+00  0.00000000000E+00  0.46916891009E+02  0.46916891009E+02  0.00000000000E+00 0.  1.
          2   -1    0    0  501    0  0.00000000000E+00 -0.00000000000E+00 -0.15322013113E+04  0.15322013113E+04  0.00000000000E+00 0. -1.
         25    2    1    2    0    0  0.14132977486E+03 -0.32152193512E+02 -0.13502777881E+04  0.13637839724E+04  0.12509496202E+03 0.  0.
         23    2    1    2    0    0 -0.14132977486E+03  0.32152193512E+02 -0.13500663217E+03  0.21533422989E+03  0.84464022068E+02 0.  0.
          5    1    3    3  502    0  0.12459820227E+03  0.82802986251E+01 -0.12180485926E+04  0.12244399216E+04  0.41800000000E+01 0. -1.
         -5    1    3    3    0  502  0.16731572587E+02 -0.40432492137E+02 -0.13222919558E+03  0.13934405084E+03  0.41800000000E+01 0. -1.
        -11    1    4    4    0    0 -0.51217131827E+02  0.15249765563E+02 -0.16041544906E+01  0.53463288844E+02  0.00000000000E+00 0.  1.
         11    1    4    4    0    0 -0.90112643031E+02  0.16902427949E+02 -0.13340247768E+03  0.16187094105E+03  0.00000000000E+00 0. -1.
</event>
<event>
 8    1  0.6787197E-009  0.1031399E+03  0.7561462E-02  0.1273828E+00
          1   -1    0    0  501    0  0.00000000000E+00  0.00000000000E+00  0.25852123250E+03  0.25852123250E+03  0.00000000000E+00 0. -1.
         -1   -1    0    0    0  501 -0.00000000000E+00 -0.00000000000E+00 -0.55012568094E+02  0.55012568094E+02  0.00000000000E+00 0.  1.
         25    2    1    2    0    0  0.59134842496E+01 -0.48444176543E+02  0.12921376055E+03  0.18634883424E+03  0.12509150478E+03 0.  0.
         23    2    1    2    0    0 -0.59134842496E+01  0.48444176543E+02  0.74294903860E+02  0.12718496636E+03  0.90964143439E+02 0.  0.
          5    1    3    3  502    0  0.44011114949E+02 -0.31265926420E+01  0.11786506818E+03  0.12592220026E+03  0.41800000000E+01 0. -1.
         -5    1    3    3    0  502 -0.38097630699E+02 -0.45317583901E+02  0.11348692370E+02  0.60426633979E+02  0.41800000000E+01 0. -1.
        -11    1    4    4    0    0 -0.18084602957E+02  0.72997521163E+02  0.60415799623E+02  0.96466366181E+02  0.00000000000E+00 0.  1.
         11    1    4    4    0    0  0.12171118707E+02 -0.24553344619E+02  0.13879104237E+02  0.30718600179E+02  0.00000000000E+00 0. -1.
</event>
<event>
 8    1  0.6787197E-009  0.2332682E+03  0.7561462E-02  0.1124360E+00
          2   -1    0    0  501    0  0.00000000000E+00  0.00000000000E+00  0.67850692790E+02  0.67850692790E+02  0.00000000000E+00 0. -1.
         -2   -1    0    0    0  501 -0.00000000000E+00 -0.00000000000E+00 -0.12032435401E+04  0.12032435401E+04  0.00000000000E+00 0.  1.
         25    2    1    2    0    0 -0.12273043431E+03  0.18602740321E+03 -0.26597088410E+03  0.36885860644E+03  0.12508879288E+03 0.  0.
         23    2    1    2    0    0  0.12273043431E+03 -0.18602740321E+03 -0.86942196325E+03  0.90223562649E+03  0.92008810936E+02 0.  0.
          5    1    3    3  502    0 -0.63689333626E+02  0.32807074337E+02 -0.22588896270E+02  0.75235403761E+02  0.41800000000E+01 0.  1.
         -5    1    3    3    0  502 -0.59041100679E+02  0.15322032887E+03 -0.24338198783E+03  0.29362320268E+03  0.41800000000E+01 0.  1.
        -11    1    4    4    0    0  0.16994829322E+02 -0.53323354196E+00 -0.19348279778E+02  0.25757804489E+02  0.00000000000E+00 0. -1.
         11    1    4    4    0    0  0.10573560498E+03 -0.18549416966E+03 -0.85007368347E+03  0.87647782201E+03  0.00000000000E+00 0.  1.
</event>
<event>
 8    1  0.6787197E-009  0.9762296E+02  0.7561462E-02  0.1285375E+00
         -2   -1    0    0    0  501 -0.00000000000E+00  0.00000000000E+00  0.28939352055E+02  0.28939352055E+02  0.00000000000E+00 0.  1.
          2   -1    0    0  501    0  0.00000000000E+00 -0.00000000000E+00 -0.40423422845E+03  0.40423422845E+03  0.00000000000E+00 0. -1.
         25    2    1    2    0    0  0.10100041517E+02  0.63671220708E+01 -0.23412767860E+03  0.26571755086E+03  0.12508995110E+03 0.  0.
         23    2    1    2    0    0 -0.10100041517E+02 -0.63671220708E+01 -0.14116719779E+03  0.16745602964E+03  0.89279297985E+02 0.  0.
          5    1    3    3  502    0  0.27314131522E+02 -0.54688947071E+02 -0.13000455344E+03  0.14372055882E+03  0.41800000000E+01 0. -1.
         -5    1    3    3    0  502 -0.17214090005E+02  0.61056069142E+02 -0.10412312516E+03  0.12199699204E+03  0.41800000000E+01 0. -1.
        -11    1    4    4    0    0 -0.34460851348E+02  0.15385568975E+02 -0.21546500654E+02  0.43457078811E+02  0.00000000000E+00 0.  1.
         11    1    4    4    0    0  0.24360809831E+02 -0.21752691045E+02 -0.11962069714E+03  0.12399895083E+03  0.00000000000E+00 0. -1.
</event>
<event>
 8    1  0.6787197E-009  0.1295680E+03  0.7561462E-02  0.1228098E+00
         -1   -1    0    0    0  501 -0.00000000000E+00  0.00000000000E+00  0.13729194956E+03  0.13729194956E+03  0.00000000000E+00 0.  1.
          1   -1    0    0  501    0  0.00000000000E+00 -0.00000000000E+00 -0.14372928680E+03  0.14372928680E+03  0.00000000000E+00 0. -1.
         25    2    1    2    0    0  0.46162206247E+02 -0.76038282776E+02 -0.85694694093E+01  0.15373126648E+03  0.12508835579E+03 0.  0.
         23    2    1    2    0    0 -0.46162206247E+02  0.76038282776E+02  0.21321321729E+01  0.12728996988E+03  0.91024286379E+02 0.  0.
          5    1    3    3  502    0  0.68470520408E+02 -0.19163583689E+02  0.34227865689E+02  0.79021986145E+02  0.41800000000E+01 0. -1.
         -5    1    3    3    0  502 -0.22308314160E+02 -0.56874699086E+02 -0.42797335098E+02  0.74709280336E+02  0.41800000000E+01 0. -1.
        -11    1    4    4    0    0  0.25390900530E+02  0.37827009391E+02  0.66801888328E+01  0.46045688094E+02  0.00000000000E+00 0.  1.
         11    1    4    4    0    0 -0.71553106778E+02  0.38211273385E+02 -0.45480566599E+01  0.81244281784E+02  0.00000000000E+00 0. -1.
</event>
<event>
 8    1  0.6787197E-009  0.1481512E+03  0.7561462E-02  0.1202763E+00
         -3   -1    0    0    0  501 -0.00000000000E+00  0.00000000000E+00  0.10956840005E+03  0.10956840005E+03  0.00000000000E+00 0.  1.
          3   -1    0    0  501    0  0.00000000000E+00 -0.00000000000E+00 -0.24924578013E+03  0.24924578013E+03  0.00000000000E+00 0. -1.
         25    2    1    2    0    0 -0.82110366361E+01 -0.11407624243E+03 -0.11904283228E+03  0.20711891683E+03  0.12508492947E+03 0.  0.
         23    2    1    2    0    0  0.82110366361E+01  0.11407624243E+03 -0.20634547805E+02  0.15169526335E+03  0.97492862047E+02 0.  0.
          5    1    3    3  502    0 -0.47261678597E+02 -0.10100443591E+02 -0.71104605597E+02  0.86075679269E+02  0.41800000000E+01 0. -1.
         -5    1    3    3    0  502  0.39050641961E+02 -0.10397579884E+03 -0.47938226684E+02  0.12104323756E+03  0.41800000000E+01 0. -1.
        -11    1    4    4    0    0  0.39647820352E+02  0.40695502541E+02  0.22318181532E+02  0.61042401760E+02  0.00000000000E+00 0.  1.
         11    1    4    4    0    0 -0.31436783715E+02  0.73380739887E+02 -0.42952729337E+02  0.90652861589E+02  0.00000000000E+00 0. -1.
</event>
<event>
 8    1  0.6787197E-009  0.1141558E+03  0.7561462E-02  0.1253062E+00
         -1   -1    0    0    0  501 -0.00000000000E+00  0.00000000000E+00  0.33592310183E+02  0.33592310183E+02  0.00000000000E+00 0.  1.
          1   -1    0    0  501    0  0.00000000000E+00 -0.00000000000E+00 -0.61714167978E+03  0.61714167978E+03  0.00000000000E+00 0. -1.
         25    2    1    2    0    0  0.91171033200E+02 -0.97940831810E+01 -0.36986724028E+03  0.40107123153E+03  0.12509306922E+03 0.  0.
         23    2    1    2    0    0 -0.91171033200E+02  0.97940831810E+01 -0.21368212932E+03  0.24966275844E+03  0.90903020850E+02 0.  0.
          5    1    3    3  502    0 -0.17723659616E+02 -0.20006004670E+02 -0.17912805924E+03  0.18115932861E+03  0.41800000000E+01 0.  1.
         -5    1    3    3    0  502  0.10889469282E+03  0.10211921489E+02 -0.19073918103E+03  0.21991190292E+03  0.41800000000E+01 0.  1.
        -11    1    4    4    0    0 -0.36508495006E+02  0.16984931707E+01 -0.18268255907E+03  0.18630263679E+03  0.00000000000E+00 0. -1.
         11    1    4    4    0    0 -0.54662538194E+02  0.80955900103E+01 -0.30999570250E+02  0.63360121646E+02  0.00000000000E+00 0.  1.
</event>
<event>
 8    1  0.6787197E-009  0.9390490E+02  0.7561462E-02  0.1293662E+00
         -1   -1    0    0    0  501 -0.00000000000E+00  0.00000000000E+00  0.16962161678E+03  0.16962161678E+03  0.00000000000E+00 0.  1.
          1   -1    0    0  501    0  0.00000000000E+00 -0.00000000000E+00 -0.10435472914E+03  0.10435472914E+03  0.00000000000E+00 0. -1.
         25    2    1    2    0    0 -0.17729983043E+01 -0.74608762656E+02  0.13919907998E+02  0.14631864125E+03  0.12508305221E+03 0.  0.
         23    2    1    2    0    0  0.17729983043E+01  0.74608762656E+02  0.51346979640E+02  0.12765770467E+03  0.89946463275E+02 0.  0.
          5    1    3    3  502    0  0.32102803743E+02 -0.71581427897E+02  0.52675319123E+02  0.94586745756E+02  0.41800000000E+01 0. -1.
         -5    1    3    3    0  502 -0.33875802047E+02 -0.30273347584E+01 -0.38755411124E+02  0.51731895495E+02  0.41800000000E+01 0. -1.
        -11    1    4    4    0    0 -0.22995097462E+01  0.48709477438E+02 -0.19191672450E+02  0.52404400854E+02  0.00000000000E+00 0. -1.
         11    1    4    4    0    0  0.40725080504E+01  0.25899285217E+02  0.70538652091E+02  0.75253303817E+02  0.00000000000E+00 0.  1.
</event>
<event>
 8    1  0.6787197E-009  0.2051850E+03  0.7561462E-02  0.1145437E+00
          2   -1    0    0  501    0  0.00000000000E+00  0.00000000000E+00  0.18055042121E+04  0.18055042121E+04  0.00000000000E+00 0. -1.
         -2   -1    0    0    0  501 -0.00000000000E+00 -0.00000000000E+00 -0.28420467819E+02  0.28420467819E+02  0.00000000000E+00 0.  1.
         25    2    1    2    0    0 -0.13738942448E+03  0.13045547152E+03  0.11517266802E+04  0.11738892417E+04  0.12508845647E+03 0.  0.
         23    2    1    2    0    0  0.13738942448E+03 -0.13045547152E+03  0.62535706409E+03  0.66003543821E+03  0.93171015174E+02 0.  0.
          5    1    3    3  502    0 -0.51676526577E+02  0.12381095475E+03  0.83300135346E+03  0.84374661077E+03  0.41800000000E+01 0. -1.
         -5    1    3    3    0  502 -0.85712897902E+02  0.66445167724E+01  0.31872532676E+03  0.33014263097E+03  0.41800000000E+01 0. -1.
        -11    1    4    4    0    0  0.49548572351E+02 -0.37198670775E+02  0.88037550044E+02  0.10765413298E+03  0.00000000000E+00 0.  1.
         11    1    4    4    0    0  0.87840852128E+02 -0.93256800748E+02  0.53731951405E+03  0.55238130523E+03  0.00000000000E+00 0. -1.
</event>
<event>
 8    1  0.6787197E-009  0.9870587E+02  0.7561462E-02  0.1283041E+00
         -2   -1    0    0    0  501 -0.00000000000E+00  0.00000000000E+00  0.72004695984E+02  0.72004695984E+02  0.00000000000E+00 0.  1.
          2   -1    0    0  501    0  0.00000000000E+00 -0.00000000000E+00 -0.21116233133E+03  0.21116233133E+03  0.00000000000E+00 0. -1.
         25    2    1    2    0    0  0.29471195034E+02 -0.41126434884E+02 -0.46473307561E+02  0.14271218703E+03  0.12508822898E+03 0.  0.
         23    2    1    2    0    0 -0.29471195034E+02  0.41126434884E+02 -0.92684327790E+02  0.14045484029E+03  0.92613403778E+02 0.  0.
          5    1    3    3  502    0 -0.16707092084E+02 -0.42191475179E+02 -0.75363844523E+02  0.88070590806E+02  0.41800000000E+01 0. -1.
         -5    1    3    3    0  502  0.46178287118E+02  0.10650402947E+01  0.28890536963E+02  0.54641596225E+02  0.41800000000E+01 0. -1.
        -11    1    4    4    0    0  0.26811973453E+02 -0.10779316883E+02 -0.27729996667E+02  0.40050322197E+02  0.00000000000E+00 0.  1.
         11    1    4    4    0    0 -0.56283168487E+02  0.51905751767E+02 -0.64954331123E+02  0.10040451809E+03  0.00000000000E+00 0. -1.
</event>
<event>
 8    1  0.6787197E-009  0.5585012E+02  0.7561462E-02  0.1416121E+00
          3   -1    0    0  501    0  0.00000000000E+00  0.00000000000E+00  0.73102476884E+02  0.73102476884E+02  0.00000000000E+00 0. -1.
         -3   -1    0    0    0  501 -0.00000000000E+00 -0.00000000000E+00 -0.15790987402E+03  0.15790987402E+03  0.00000000000E+00 0.  1.
         25    2    1    2    0    0 -0.69412104123E+01 -0.20159912472E+02 -0.52510836625E+02  0.13733393755E+03  0.12509444419E+03 0.  0.
         23    2    1    2    0    0  0.69412104123E+01  0.20159912472E+02 -0.32296560512E+02  0.93678413360E+02  0.85311047560E+02 0.  0.
          5    1    3    3  502    0 -0.23526032722E+02  0.18420286349E+02 -0.80986644607E+02  0.86423898139E+02  0.41800000000E+01 0.  1.
         -5    1    3    3    0  502  0.16584822310E+02 -0.38580198821E+02  0.28475807982E+02  0.50910039407E+02  0.41800000000E+01 0.  1.
        -11    1    4    4    0    0  0.19194501910E+02  0.49987800568E+01 -0.58069533786E+02  0.61363567854E+02  0.00000000000E+00 0.  1.
         11    1    4    4    0    0 -0.12253291498E+02  0.15161132416E+02  0.25772973274E+02  0.32314845506E+02  0.00000000000E+00 0. -1.
</event>
<event>
 8    1  0.6787197E-009  0.1074678E+03  0.7561462E-02  0.1265332E+00
          1   -1    0    0  501    0  0.00000000000E+00  0.00000000000E+00  0.15823011057E+04  0.15823011057E+04  0.00000000000E+00 0. -1.
         -1   -1    0    0    0  501 -0.00000000000E+00 -0.00000000000E+00 -0.10789407253E+02  0.10789407253E+02  0.00000000000E+00 0.  1.
         25    2    1    2    0    0  0.19937459486E+02 -0.17729652777E+01  0.13010117858E+04  0.13071647567E+04  0.12508952219E+03 0.  0.
         23    2    1    2    0    0 -0.19937459486E+02  0.17729652777E+01  0.27049991264E+03  0.28592575629E+03  0.90458220604E+02 0.  0.
          5    1    3    3  502    0 -0.52853611854E+02  0.46479395766E+01  0.50639142949E+03  0.50918057690E+03  0.41800000000E+01 0.  1.
         -5    1    3    3    0  502  0.72791071340E+02 -0.64209048542E+01  0.79462035633E+03  0.79798417978E+03  0.41800000000E+01 0.  1.
        -11    1    4    4    0    0 -0.40545315848E+02 -0.30147856486E+02  0.19452843862E+03  0.20098290803E+03  0.00000000000E+00 0.  1.
         11    1    4    4    0    0  0.20607856362E+02  0.31920821764E+02  0.75971474026E+02  0.84942848266E+02  0.00000000000E+00 0. -1.
</event>
<event>
 8    1  0.6787197E-009  0.1117137E+03  0.7561462E-02  0.1257429E+00
         -1   -1    0    0    0  501 -0.00000000000E+00  0.00000000000E+00  0.90970594383E+02  0.90970594383E+02  0.00000000000E+00 0.  1.
          1   -1    0    0  501    0  0.00000000000E+00 -0.00000000000E+00 -0.21512584864E+03  0.21512584864E+03  0.00000000000E+00 0. -1.
         25    2    1    2    0    0  0.73860471835E+02 -0.19219206187E+02 -0.20361736025E+02  0.14794361047E+03  0.12509182387E+03 0.  0.
         23    2    1    2    0    0 -0.73860471835E+02  0.19219206187E+02 -0.10379351823E+03  0.15815283255E+03  0.91730457494E+02 0.  0.
          5    1    3    3  502    0 -0.25125483899E+02  0.25601577404E+02  0.45107320749E+01  0.36394365093E+02  0.41800000000E+01 0. -1.
         -5    1    3    3    0  502  0.98985955734E+02 -0.44820783590E+02 -0.24872468100E+02  0.11154924537E+03  0.41800000000E+01 0. -1.
        -11    1    4    4    0    0 -0.17951478276E+02 -0.33836459791E+01  0.15840436711E+02  0.24179000550E+02  0.00000000000E+00 0.  1.
         11    1    4    4    0    0 -0.55908993559E+02  0.22602852166E+02 -0.11963395494E+03  0.13397383200E+03  0.00000000000E+00 0. -1.
</event>
<event>
 8    1  0.6787197E-009  0.8368369E+02  0.7561462E-02  0.1318911E+00
         -1   -1    0    0    0  501 -0.00000000000E+00  0.00000000000E+00  0.13686506591E+03  0.13686506591E+03  0.00000000000E+00 0.  1.
          1   -1    0    0  501    0  0.00000000000E+00 -0.00000000000E+00 -0.11802005743E+03  0.11802005743E+03  0.00000000000E+00 0. -1.
         25    2    1    2    0    0 -0.32109841066E+02  0.56611849510E+02  0.92984207284E+01  0.14131733280E+03  0.12509270371E+03 0.  0.
         23    2    1    2    0    0  0.32109841066E+02 -0.56611849510E+02  0.95465877512E+01  0.11356779055E+03  0.92577331533E+02 0.  0.
          5    1    3    3  502    0 -0.38142631617E+02  0.14600250474E+02 -0.52242164593E+02  0.66443538602E+02  0.41800000000E+01 0. -1.
         -5    1    3    3    0  502  0.60327905506E+01  0.42011599036E+02  0.61540585321E+02  0.74873794194E+02  0.41800000000E+01 0. -1.
        -11    1    4    4    0    0 -0.10515331365E+02  0.24796687650E+01 -0.29136344066E+02  0.31074869210E+02  0.00000000000E+00 0. -1.
         11    1    4    4    0    0  0.42625172431E+02 -0.59091518275E+02  0.38682931817E+02  0.82492921337E+02  0.00000000000E+00 0.  1.
</event>
<event>
 8    1  0.6787197E-009  0.2065072E+03  0.7561462E-02  0.1144362E+00
         -1   -1    0    0    0  501 -0.00000000000E+00  0.00000000000E+00  0.22889346836E+03  0.22889346836E+03  0.00000000000E+00 0.  1.
          1   -1    0    0  501    0  0.00000000000E+00 -0.00000000000E+00 -0.21966140681E+03  0.21966140681E+03  0.00000000000E+00 0. -1.
         25    2    1    2    0    0 -0.16546200105E+03 -0.10621431085E+03  0.64049636279E+01  0.23312764447E+03  0.12509325097E+03 0.  0.
         23    2    1    2    0    0  0.16546200105E+03  0.10621431085E+03  0.28270979205E+01  0.21542723070E+03  0.87987190119E+02 0.  0.
          5    1    3    3  502    0 -0.22031983007E+02 -0.83377287217E+01 -0.45873154361E+02  0.51737265936E+02  0.41800000000E+01 0. -1.
         -5    1    3    3    0  502 -0.14343001804E+03 -0.97876582129E+02  0.52278117989E+02  0.18139037853E+03  0.41800000000E+01 0. -1.
        -11    1    4    4    0    0  0.76027214930E+02  0.10017371285E+03  0.49374252412E+00  0.12575831558E+03  0.00000000000E+00 0. -1.
         11    1    4    4    0    0  0.89434786115E+02  0.60405980045E+01  0.23333553964E+01  0.89668915122E+02  0.00000000000E+00 0.  1.
</event>
<event>
 8    1  0.6787197E-009  0.1021975E+03  0.7561462E-02  0.1275742E+00
         -3   -1    0    0    0  501 -0.00000000000E+00  0.00000000000E+00  0.16076744460E+03  0.16076744460E+03  0.00000000000E+00 0.  1.
          3   -1    0    0  501    0  0.00000000000E+00 -0.00000000000E+00 -0.88635687798E+02  0.88635687798E+02  0.00000000000E+00 0. -1.
         25    2    1    2    0    0  0.17111268450E+02 -0.36688690471E+02  0.11495296993E+02  0.13197666716E+03  0.12508734271E+03 0.  0.
         23    2    1    2    0    0 -0.17111268450E+02  0.36688690471E+02  0.60636459813E+02  0.11742646524E+03  0.92050741242E+02 0.  0.
          5    1    3    3  502    0  0.40183582821E+02 -0.75787909556E+02  0.73759201514E+01  0.86199792118E+02  0.41800000000E+01 0.  1.
         -5    1    3    3    0  502 -0.23072314370E+02  0.39099219085E+02  0.41193768411E+01  0.45776875046E+02  0.41800000000E+01 0.  1.
        -11    1    4    4    0    0  0.85274641361E+01  0.45129295572E+02 -0.52483305627E+01  0.46226788090E+02  0.00000000000E+00 0. -1.
         11    1    4    4    0    0 -0.25638732587E+02 -0.84406051008E+01  0.65884790376E+02  0.71199677148E+02  0.00000000000E+00 0.  1.
</event>
<event>
 8    1  0.6787197E-009  0.1125078E+03  0.7561462E-02  0.1255995E+00
         -1   -1    0    0    0  501 -0.00000000000E+00  0.00000000000E+00  0.30424950705E+03  0.30424950705E+03  0.00000000000E+00 0.  1.
          1   -1    0    0  501    0  0.00000000000E+00 -0.00000000000E+00 -0.46009287576E+02  0.46009287576E+02  0.00000000000E+00 0. -1.
         25    2    1    2    0    0 -0.40794644649E+02  0.17796879656E+02  0.11945382135E+03  0.17860114661E+03  0.12509285423E+03 0.  0.
         23    2    1    2    0    0  0.40794644649E+02 -0.17796879656E+02  0.13878639812E+03  0.17165764801E+03  0.90684904245E+02 0.  0.
          5    1    3    3  502    0 -0.18675561957E+01 -0.47961762361E+02  0.77688578811E+02  0.91415568108E+02  0.41800000000E+01 0.  1.
         -5    1    3    3    0  502 -0.38927088454E+02  0.65758642016E+02  0.41765242537E+02  0.87185578506E+02  0.41800000000E+01 0.  1.
        -11    1    4    4    0    0  0.54723386264E+01 -0.51317713047E+02  0.61201316908E+02  0.80056575955E+02  0.00000000000E+00 0. -1.
         11    1    4    4    0    0  0.35322306023E+02  0.33520833391E+02  0.77585081214E+02  0.91601072052E+02  0.00000000000E+00 0.  1.
</event>
<event>
 8    1  0.6787197E-009  0.2396387E+03  0.7561462E-02  0.1120034E+00
          1   -1    0    0  501    0  0.00000000000E+00  0.00000000000E+00  0.42212711430E+03  0.42212711430E+03  0.00000000000E+00 0. -1.
         -1   -1    0    0    0  501 -0.00000000000E+00 -0.00000000000E+00 -0.24233797234E+03  0.24233797234E+03  0.00000000000E+00 0.  1.
         25    2    1    2    0    0 -0.12316558956E+03 -0.18204977284E+03 -0.12151489856E+03  0.28058031780E+03  0.12509021515E+03 0.  0.
         23    2    1    2    0    0  0.12316558956E+03  0.18204977284E+03  0.30130404052E+03  0.38388476884E+03  0.90947834885E+02 0.  0.
          5    1    3    3  502    0 -0.12996791112E+03 -0.11408589806E+03 -0.12279036294E+03  0.21213720959E+03  0.41800000000E+01 0. -1.
         -5    1    3    3    0  502  0.68023215654E+01 -0.67963874776E+02  0.12754643846E+01  0.68443108219E+02  0.41800000000E+01 0. -1.
        -11    1    4    4    0    0  0.43693109174E+02  0.52363481121E+01  0.54126720899E+02  0.69758218485E+02  0.00000000000E+00 0.  1.
         11    1    4    4    0    0  0.79472480385E+02  0.17681342473E+03  0.24717731962E+03  0.31412655036E+03  0.00000000000E+00 0. -1.
</event>
<event>
 8    1  0.6787197E-009  0.2707933E+03  0.7561462E-02  0.1100826E+00
          3   -1    0    0  501    0  0.00000000000E+00  0.00000000000E+00  0.18452239428E+04  0.18452239428E+04  0.00000000000E+00 0. -1.
         -3   -1    0    0    0  501 -0.00000000000E+00 -0.00000000000E+00 -0.41335456528E+02  0.41335456528E+02  0.00000000000E+00 0.  1.
         25    2    1    2    0    0  0.24951478131E+03  0.46622522790E+02  0.90152159704E+03  0.94489147195E+03  0.12508964029E+03 0.  0.
         23    2    1    2    0    0 -0.24951478131E+03 -0.46622522790E+02  0.90236688923E+03  0.94166792738E+03  0.89672721304E+02 0.  0.
          5    1    3    3  502    0  0.26976700674E+02  0.53753516066E+02  0.19055614449E+03  0.19986570359E+03  0.41800000000E+01 0. -1.
         -5    1    3    3    0  502  0.22253808064E+03 -0.71309932766E+01  0.71096545254E+03  0.74502576835E+03  0.41800000000E+01 0. -1.
        -11    1    4    4    0    0 -0.14055997234E+03 -0.12055088568E+01  0.35708266111E+03  0.38375328786E+03  0.00000000000E+00 0. -1.
         11    1    4    4    0    0 -0.10895480897E+03 -0.45417013933E+02  0.54528422812E+03  0.55791463952E+03  0.00000000000E+00 0.  1.
</event>
<event>
 8    1  0.6787197E-009  0.1485912E+03  0.7561462E-02  0.1202215E+00
          2   -1    0    0  501    0  0.00000000000E+00  0.00000000000E+00  0.14939293154E+04  0.14939293154E+04  0.00000000000E+00 0. -1.
         -2   -1    0    0    0  501 -0.00000000000E+00 -0.00000000000E+00 -0.20115186046E+02  0.20115186046E+02  0.00000000000E+00 0.  1.
         25    2    1    2    0    0  0.11768702176E+03  0.66538740183E+02  0.79491664520E+03  0.81597682928E+03  0.12509226226E+03 0.  0.
         23    2    1    2    0    0 -0.11768702176E+03 -0.66538740183E+02  0.67889748413E+03  0.69806767214E+03  0.90105726183E+02 0.  0.
          5    1    3    3  502    0  0.95103649371E+02  0.51599896828E+02  0.27813021987E+03  0.29846464629E+03  0.41800000000E+01 0.  1.
         -5    1    3    3    0  502  0.22583372387E+02  0.14938843356E+02  0.51678642533E+03  0.51751218300E+03  0.41800000000E+01 0.  1.
        -11    1    4    4    0    0 -0.63899123560E+02 -0.83463816842E+02  0.40437630165E+03  0.41781515057E+03  0.00000000000E+00 0. -1.
         11    1    4    4    0    0 -0.53787898197E+02  0.16925076659E+02  0.27452118248E+03  0.28025252157E+03  0.00000000000E+00 0.  1.
</event>
<event>
 8    1  0.6787197E-009  0.9508648E+02  0.7561462E-02  0.1290981E+00
         -1   -1    0    0    0  501 -0.00000000000E+00  0.00000000000E+00  0.43822309893E+02  0.43822309893E+02  0.00000000000E+00 0.  1.
          1   -1    0    0  501    0  0.00000000000E+00 -0.00000000000E+00 -0.33978942564E+03  0.33978942564E+03  0.00000000000E+00 0. -1.
         25    2    1    2    0    0 -0.39510284212E+02  0.34891983199E+01 -0.22693542528E+03  0.26214553031E+03  0.12508938705E+03 0.  0.
         23    2    1    2    0    0  0.39510284212E+02 -0.34891983199E+01 -0.69031690468E+02  0.12146620522E+03  0.91735640068E+02 0.  0.
          5    1    3    3  502    0 -0.67335490796E+02 -0.91189705740E+01 -0.22033658406E+03  0.23061419432E+03  0.41800000000E+01 0.  1.
         -5    1    3    3    0  502  0.27825206583E+02  0.12608168894E+02 -0.65988412197E+01  0.31531335996E+02  0.41800000000E+01 0.  1.
        -11    1    4    4    0    0  0.11443317979E+01 -0.38980170420E+02 -0.57921221840E+01  0.39424762024E+02  0.00000000000E+00 0.  1.
         11    1    4    4    0    0  0.38365952414E+02  0.35490972100E+02 -0.63239568284E+02  0.82041443198E+02  0.00000000000E+00 0. -1.
</event>
<event>
 8    1  0.6787197E-009  0.8626809E+02  0.7561462E-02  0.1312149E+00
          1   -1    0    0  501    0  0.00000000000E+00  0.00000000000E+00  0.82666023438E+03  0.82666023438E+03  0.00000000000E+00 0. -1.
         -1   -1    0    0    0  501 -0.00000000000E+00 -0.00000000000E+00 -0.23151248960E+02  0.23151248960E+02  0.00000000000E+00 0.  1.
         25    2    1    2    0    0 -0.57094869459E+02 -0.22274964609E+02  0.62759311825E+03  0.64286552140E+03  0.12508780264E+03 0.  0.
         23    2    1    2    0    0  0.57094869459E+02  0.22274964609E+02  0.17591586718E+03  0.20694596194E+03  0.90134569799E+02 0.  0.
          5    1    3    3  502    0 -0.46688763573E+02 -0.11308205916E+02  0.62513116206E+03  0.62698816444E+03  0.41800000000E+01 0. -1.
         -5    1    3    3    0  502 -0.10406105886E+02 -0.10966758693E+02  0.24619561879E+01  0.15877356966E+02  0.41800000000E+01 0. -1.
        -11    1    4    4    0    0  0.28464567260E+02  0.56947628743E+02  0.11134285313E+03  0.12825948289E+03  0.00000000000E+00 0.  1.
         11    1    4    4    0    0  0.28630302199E+02 -0.34672664134E+02  0.64573014047E+02  0.78686479050E+02  0.00000000000E+00 0. -1.
</event>
<event>
 8    1  0.6787197E-009  0.1523586E+03  0.7561462E-02  0.1197604E+00
          1   -1    0    0  501    0  0.00000000000E+00  0.00000000000E+00  0.28801063176E+03  0.28801063176E+03  0.00000000000E+00 0. -1.
         -1   -1    0    0    0  501 -0.00000000000E+00 -0.00000000000E+00 -0.98457919324E+02  0.98457919324E+02  0.00000000000E+00 0.  1.
         25    2    1    2    0    0  0.23666547514E+02  0.10585675256E+03  0.18149060632E+03  0.24566691273E+03  0.12509050440E+03 0.  0.
         23    2    1    2    0    0 -0.23666547514E+02 -0.10585675256E+03  0.80621061153E+01  0.14080163836E+03  0.89411108234E+02 0.  0.
          5    1    3    3  502    0 -0.47249194479E+02  0.14294352534E+02  0.49777843668E+02  0.70229061032E+02  0.41800000000E+01 0. -1.
         -5    1    3    3    0  502  0.70915741993E+02  0.91562400026E+02  0.13171276265E+03  0.17543785169E+03  0.41800000000E+01 0. -1.
        -11    1    4    4    0    0 -0.55319028636E+02 -0.47563193492E+02  0.13698166824E+02  0.74229994469E+02  0.00000000000E+00 0. -1.
         11    1    4    4    0    0  0.31652481122E+02 -0.58293559067E+02 -0.56360607092E+01  0.66571643890E+02  0.00000000000E+00 0.  1.
</event>
<event>
 8    1  0.6787197E-009  0.7680297E+02  0.7561462E-02  0.1338377E+00
          2   -1    0    0  501    0  0.00000000000E+00  0.00000000000E+00  0.70642554198E+02  0.70642554198E+02  0.00000000000E+00 0. -1.
         -2   -1    0    0    0  501 -0.00000000000E+00 -0.00000000000E+00 -0.19582626658E+03  0.19582626658E+03  0.00000000000E+00 0.  1.
         25    2    1    2    0    0  0.39641408534E+02  0.25655143812E+01 -0.93035218660E+02  0.16087635542E+03  0.12509047400E+03 0.  0.
         23    2    1    2    0    0 -0.39641408534E+02 -0.25655143812E+01 -0.32148493726E+02  0.10559246536E+03  0.92402488919E+02 0.  0.
          5    1    3    3  502    0  0.42793508412E+02 -0.30520830533E+02 -0.11098396909E+03  0.12287277670E+03  0.41800000000E+01 0.  1.
         -5    1    3    3    0  502 -0.31520998783E+01  0.33086344915E+02  0.17948750430E+02  0.38003578719E+02  0.41800000000E+01 0.  1.
        -11    1    4    4    0    0 -0.62320393883E+01 -0.25892819445E+02 -0.53373092112E+02  0.59648666165E+02  0.00000000000E+00 0.  1.
         11    1    4    4    0    0 -0.33409369146E+02  0.23327305063E+02  0.21224598386E+02  0.45943799199E+02  0.00000000000E+00 0. -1.
</event>
<event>
 8    1  0.6787197E-009  0.1114564E+03  0.7561462E-02  0.1257896E+00
          3   -1    0    0  501    0  0.00000000000E+00  0.00000000000E+00  0.66258059060E+02  0.66258059060E+02  0.00000000000E+00 0. -1.
         -3   -1    0    0    0  501 -0.00000000000E+00 -0.00000000000E+00 -0.24614718364E+03  0.24614718364E+03  0.00000000000E+00 0.  1.
         25    2    1    2    0    0 -0.22536858427E+01  0.41614568457E+02 -0.34167287096E+02  0.13620620152E+03  0.12509146420E+03 0.  0.
         23    2    1    2    0    0  0.22536858427E+01 -0.41614568457E+02 -0.14572183748E+03  0.17619904118E+03  0.89857647345E+02 0.  0.
          5    1    3    3  502    0  0.52791150087E+02 -0.12278372016E+02 -0.18965032451E+02  0.57574376269E+02  0.41800000000E+01 0. -1.
         -5    1    3    3    0  502 -0.55044835930E+02  0.53892940473E+02 -0.15202254645E+02  0.78631825247E+02  0.41800000000E+01 0. -1.
        -11    1    4    4    0    0 -0.37132473018E+02 -0.47116392444E+01 -0.95101489748E+02  0.10220231626E+03  0.00000000000E+00 0.  1.
         11    1    4    4    0    0  0.39386158860E+02 -0.36902929213E+02 -0.50620347732E+02  0.73996724919E+02  0.00000000000E+00 0. -1.
</event>
<event>
 8    1  0.6787197E-009  0.1079214E+03  0.7561462E-02  0.1264468E+00
         -1   -1    0    0    0  501 -0.00000000000E+00  0.00000000000E+00  0.11470363578E+03  0.11470363578E+03  0.00000000000E+00 0.  1.
          1   -1    0    0  501    0  0.00000000000E+00 -0.00000000000E+00 -0.10444160734E+03  0.10444160734E+03  0.00000000000E+00 0. -1.
         25    2    1    2    0    0  0.95020398540E+01 -0.15216528145E+02  0.14202850063E+02  0.12716775232E+03  0.12509230508E+03 0.  0.
         23    2    1    2    0    0 -0.95020398540E+01  0.15216528145E+02 -0.39408216188E+01  0.91977490793E+02  0.90124898044E+02 0.  0.
          5    1    3    3  502    0  0.64627237833E+02 -0.22084256170E+02 -0.40537175990E+01  0.68544141010E+02  0.41800000000E+01 0.  1.
         -5    1    3    3    0  502 -0.55125197979E+02  0.68677280255E+01  0.18256567662E+02  0.58623611312E+02  0.41800000000E+01 0.  1.
        -11    1    4    4    0    0  0.58794864757E+01  0.51743629394E+02  0.63639192502E+00  0.52080481360E+02  0.00000000000E+00 0. -1.
         11    1    4    4    0    0 -0.15381526330E+02 -0.36527101249E+02 -0.45772135438E+01  0.39897009433E+02  0.00000000000E+00 0.  1.
</event>
<event>
 8    1  0.6787197E-009  0.9193533E+02  0.7561462E-02  0.1298232E+00
         -4   -1    0    0    0  501 -0.00000000000E+00  0.00000000000E+00  0.41103611917E+03  0.41103611917E+03  0.00000000000E+00 0.  1.
          4   -1    0    0  501    0  0.00000000000E+00 -0.00000000000E+00 -0.42901957389E+02  0.42901957389E+02  0.00000000000E+00 0. -1.
         25    2    1    2    0    0 -0.27976275916E+02  0.70576311758E+02  0.21898878554E+03  0.26337625699E+03  0.12508907530E+03 0.  0.
         23    2    1    2    0    0  0.27976275916E+02 -0.70576311758E+02  0.14914537624E+03  0.19056181957E+03  0.91136030346E+02 0.  0.
          5    1    3    3  502    0  0.13985701494E+02  0.22632573493E+02 -0.75836112599E+01  0.27978863253E+02  0.41800000000E+01 0. -1.
         -5    1    3    3    0  502 -0.41961977410E+02  0.47943738265E+02  0.22657239680E+03  0.23539739374E+03  0.41800000000E+01 0. -1.
        -11    1    4    4    0    0  0.28419071831E+02 -0.66835743662E+01  0.98463717851E+00  0.29211013684E+02  0.00000000000E+00 0. -1.
         11    1    4    4    0    0 -0.44279591578E+00 -0.63892737392E+02  0.14816073906E+03  0.16135080588E+03  0.00000000000E+00 0.  1.
</event>
<event>
 8    1  0.6787197E-009  0.1080258E+03  0.7561462E-02  0.1264270E+00
         -1   -1    0    0    0  501 -0.00000000000E+00  0.00000000000E+00  0.11817279208E+03  0.11817279208E+03  0.00000000000E+00 0.  1.
          1   -1    0    0  501    0  0.00000000000E+00 -0.00000000000E+00 -0.10716484015E+03  0.10716484015E+03  0.00000000000E+00 0. -1.
         25    2    1    2    0    0  0.19588602703E+02  0.22572053898E+02  0.13964649903E+02  0.12936780048E+03  0.12509118826E+03 0.  0.
         23    2    1    2    0    0 -0.19588602703E+02 -0.22572053898E+02 -0.29566979747E+01  0.95969831760E+02  0.91149632869E+02 0.  0.
          5    1    3    3  502    0  0.42137227780E+02 -0.38525565835E+02  0.26222056704E+02  0.62966926602E+02  0.41800000000E+01 0.  1.
         -5    1    3    3    0  502 -0.22548625077E+02  0.61097619733E+02 -0.12257406801E+02  0.66400873875E+02  0.41800000000E+01 0.  1.
        -11    1    4    4    0    0  0.21840419039E+02 -0.42339938343E+02 -0.12124624196E+02  0.49159747706E+02  0.00000000000E+00 0. -1.
         11    1    4    4    0    0 -0.41429021742E+02  0.19767884445E+02  0.91679262209E+01  0.46810084054E+02  0.00000000000E+00 0.  1.
</event>
<event>
 8    1  0.6787197E-009  0.7150939E+02  0.7561462E-02  0.1355034E+00
         -3   -1    0    0    0  501 -0.00000000000E+00  0.00000000000E+00  0.53083128705E+03  0.53083128705E+03  0.00000000000E+00 0.  1.
          3   -1    0    0  501    0  0.00000000000E+00 -0.00000000000E+00 -0.26299154668E+02  0.26299154668E+02  0.00000000000E+00 0. -1.
         25    2    1    2    0    0 -0.45876892551E+02 -0.11686397122E+02  0.30236105738E+03  0.33062232627E+03  0.12509057704E+03 0.  0.
         23    2    1    2    0    0  0.45876892551E+02  0.11686397122E+02  0.20217107500E+03  0.22650811544E+03  0.90507025395E+02 0.  0.
          5    1    3    3  502    0 -0.35936479968E+02  0.20833452789E+02  0.20181689078E+02  0.46370640729E+02  0.41800000000E+01 0.  1.
         -5    1    3    3    0  502 -0.99404125831E+01 -0.32519849911E+02  0.28217936830E+03  0.28425168554E+03  0.41800000000E+01 0.  1.
        -11    1    4    4    0    0 -0.92805063353E+01  0.70550484892E+01 -0.45430140418E+01  0.12511613949E+02  0.00000000000E+00 0. -1.
         11    1    4    4    0    0  0.55157398887E+02  0.46313486332E+01  0.20671408905E+03  0.21399650150E+03  0.00000000000E+00 0.  1.
</event>
<event>
 8    1  0.6787197E-009  0.1068137E+03  0.7561462E-02  0.1266587E+00
          2   -1    0    0  501    0  0.00000000000E+00  0.00000000000E+00  0.11256282383E+04  0.11256282383E+04  0.00000000000E+00 0. -1.
         -2   -1    0    0    0  501 -0.00000000000E+00 -0.00000000000E+00 -0.14577860536E+02  0.14577860536E+02  0.00000000000E+00 0.  1.
         25    2    1    2    0    0 -0.49238159187E+02 -0.20140805600E+02  0.81061971451E+03  0.82193825802E+03  0.12509248611E+03 0.  0.
         23    2    1    2    0    0  0.49238159187E+02  0.20140805600E+02  0.30043066327E+03  0.31826784083E+03  0.90585797463E+02 0.  0.
          5    1    3    3  502    0  0.26687629391E+02  0.92561847504E+01  0.49946602870E+03  0.50028161344E+03  0.41800000000E+01 0. -1.
         -5    1    3    3    0  502 -0.75925788578E+02 -0.29396990351E+02  0.31115368580E+03  0.32165664458E+03  0.41800000000E+01 0. -1.
        -11    1    4    4    0    0  0.41466260013E+02  0.54408812639E+02  0.17165433348E+03  0.18478360267E+03  0.00000000000E+00 0.  1.
         11    1    4    4    0    0  0.77718991744E+01 -0.34268007039E+02  0.12877632979E+03  0.13348423816E+03  0.00000000000E+00 0. -1.
</event>
<event>
 8    1  0.6787197E-009  0.1016378E+03  0.7561462E-02  0.1276889E+00
          2   -1    0    0  501    0  0.00000000000E+00  0.00000000000E+00  0.73172130726E+03  0.73172130726E+03  0.00000000000E+00 0.  1.
         -2   -1    0    0    0  501 -0.00000000000E+00 -0.00000000000E+00 -0.19425751926E+02  0.19425751926E+02  0.00000000000E+00 0. -1.
         25    2    1    2    0    0 -0.16886139556E+02 -0.10037485153E+02  0.54980690815E+03  0.56419926750E+03  0.12508910577E+03 0.  0.
         23    2    1    2    0    0  0.16886139556E+02  0.10037485153E+02  0.16248864719E+03  0.18694779169E+03  0.90338383510E+02 0.  0.
          5    1    3    3  502    0 -0.70995676864E+02 -0.76622499588E+01  0.34279567844E+03  0.35017916238E+03  0.41800000000E+01 0.  1.
         -5    1    3    3    0  502  0.54109537309E+02 -0.23752351944E+01  0.20701122970E+03  0.21402010512E+03  0.41800000000E+01 0.  1.
        -11    1    4    4    0    0  0.46739714119E+02  0.35638899124E+01  0.14354135005E+03  0.15100139523E+03  0.00000000000E+00 0.  1.
         11    1    4    4    0    0 -0.29853574563E+02  0.64735952408E+01  0.18947297137E+02  0.35946396458E+02  0.00000000000E+00 0. -1.
</event>
<event>
 8    1  0.6787197E-009  0.1103307E+03  0.7561462E-02  0.1259959E+00
         -1   -1    0    0    0  501 -0.00000000000E+00  0.00000000000E+00  0.84766122494E+03  0.84766122494E+03  0.00000000000E+00 0.  1.
          1   -1    0    0  501    0  0.00000000000E+00 -0.00000000000E+00 -0.19250231684E+02  0.19250231684E+02  0.00000000000E+00 0. -1.
         25    2    1    2    0    0 -0.11659703881E+02 -0.45441932179E+02  0.62102203087E+03  0.63522944177E+03  0.12508862046E+03 0.  0.
         23    2    1    2    0    0  0.11659703881E+02  0.45441932179E+02  0.20738896239E+03  0.23168201485E+03  0.92007914839E+02 0.  0.
          5    1    3    3  502    0 -0.52003874267E+02  0.18747918759E+02  0.32075799858E+03  0.32551352268E+03  0.41800000000E+01 0.  1.
         -5    1    3    3    0  502  0.40344170386E+02 -0.64189850938E+02  0.30026403229E+03  0.30971591909E+03  0.41800000000E+01 0.  1.
        -11    1    4    4    0    0  0.51162141120E+00 -0.21461220489E+02  0.11546687720E+03  0.11744550001E+03  0.00000000000E+00 0.  1.
         11    1    4    4    0    0  0.11148082470E+02  0.66903152669E+02  0.91922085182E+02  0.11423651484E+03  0.00000000000E+00 0. -1.
</event>
<event>
 8    1  0.6787197E-009  0.1702742E+03  0.7561462E-02  0.1177562E+00
         -1   -1    0    0    0  501 -0.00000000000E+00  0.00000000000E+00  0.12536867644E+03  0.12536867644E+03  0.00000000000E+00 0.  1.
          1   -1    0    0  501    0  0.00000000000E+00 -0.00000000000E+00 -0.81020963959E+03  0.81020963959E+03  0.00000000000E+00 0. -1.
         25    2    1    2    0    0  0.27291550633E+02 -0.14663728761E+03  0.32144413528E+02  0.19730090498E+03  0.12508821259E+03 0.  0.
         23    2    1    2    0    0 -0.27291550633E+02  0.14663728761E+03 -0.71698537667E+03  0.73827741105E+03  0.93478245867E+02 0.  0.
          5    1    3    3  502    0  0.15091996186E+02 -0.15065070233E+03 -0.11224364514E+02  0.15187778382E+03  0.41800000000E+01 0. -1.
         -5    1    3    3    0  502  0.12199554448E+02  0.40134147170E+01  0.43368778042E+02  0.45423121153E+02  0.41800000000E+01 0. -1.
        -11    1    4    4    0    0 -0.43624230116E+02  0.20168177659E+02 -0.22053750152E+03  0.22571357606E+03  0.00000000000E+00 0. -1.
         11    1    4    4    0    0  0.16332679482E+02  0.12646910995E+03 -0.49644787516E+03  0.51256383499E+03  0.00000000000E+00 0.  1.
</event>
<event>
 8    1  0.6787197E-009  0.6638396E+02  0.7561462E-02  0.1372840E+00
          1   -1    0    0  501    0  0.00000000000E+00  0.00000000000E+00  0.34667464072E+02  0.34667464072E+02  0.00000000000E+00 0. -1.
         -1   -1    0    0    0  501 -0.00000000000E+00 -0.00000000000E+00 -0.36319021715E+03  0.36319021715E+03  0.00000000000E+00 0.  1.
         25    2    1    2    0    0  0.22169815354E+02 -0.76779314854E+01 -0.15869763175E+03  0.20342704796E+03  0.12508866525E+03 0.  0.
         23    2    1    2    0    0 -0.22169815354E+02  0.76779314854E+01 -0.16982512133E+03  0.19443063326E+03  0.91718307721E+02 0.  0.
          5    1    3    3  502    0  0.29695128390E+02 -0.10397699251E+02 -0.17869209949E+03  0.18148898485E+03  0.41800000000E+01 0.  1.
         -5    1    3    3    0  502 -0.75253130358E+01  0.27197677652E+01  0.19994467741E+02  0.21938063115E+02  0.41800000000E+01 0.  1.
        -11    1    4    4    0    0  0.34743979407E+02  0.19297279122E+01 -0.43106728139E+02  0.55399079105E+02  0.00000000000E+00 0.  1.
         11    1    4    4    0    0 -0.56913794761E+02  0.57482035731E+01 -0.12671839319E+03  0.13903155416E+03  0.00000000000E+00 0. -1.
</event>
<event>
 8    1  0.6787197E-009  0.1117322E+03  0.7561462E-02  0.1257395E+00
          1   -1    0    0  501    0  0.00000000000E+00  0.00000000000E+00  0.57790337232E+02  0.57790337232E+02  0.00000000000E+00 0. -1.
         -1   -1    0    0    0  501 -0.00000000000E+00 -0.00000000000E+00 -0.35647452158E+03  0.35647452158E+03  0.00000000000E+00 0.  1.
         25    2    1    2    0    0 -0.33434337659E+02 -0.69641040364E+02 -0.88511330407E+02  0.17160799861E+03  0.12508924869E+03 0.  0.
         23    2    1    2    0    0  0.33434337659E+02  0.69641040364E+02 -0.21017285394E+03  0.24265686020E+03  0.93498630114E+02 0.  0.
          5    1    3    3  502    0  0.24545134960E+01 -0.99310223349E+02 -0.68573566585E+02  0.12078224842E+03  0.41800000000E+01 0. -1.
         -5    1    3    3    0  502 -0.35888851155E+02  0.29669182984E+02 -0.19937763822E+02  0.50825750190E+02  0.41800000000E+01 0. -1.
        -11    1    4    4    0    0  0.87532734982E+01  0.16015575259E+02  0.54909600740E+01  0.19059619365E+02  0.00000000000E+00 0. -1.
         11    1    4    4    0    0  0.24681064161E+02  0.53625465106E+02 -0.21566381401E+03  0.22359724084E+03  0.00000000000E+00 0.  1.
</event>
<event>
 8    1  0.6787197E-009  0.9158873E+02  0.7561462E-02  0.1299049E+00
         -3   -1    0    0    0  501 -0.00000000000E+00  0.00000000000E+00  0.11583854420E+03  0.11583854420E+03  0.00000000000E+00 0.  1.
          3   -1    0    0  501    0  0.00000000000E+00 -0.00000000000E+00 -0.11330488643E+03  0.11330488643E+03  0.00000000000E+00 0. -1.
         25    2    1    2    0    0  0.80775641045E+01 -0.96216874506E+01 -0.33988618922E+02  0.13023406612E+03  0.12509141398E+03 0.  0.
         23    2    1    2    0    0 -0.80775641045E+01  0.96216874506E+01  0.36522276692E+02  0.98909364507E+02  0.91056915065E+02 0.  0.
          5    1    3    3  502    0  0.56949880412E+02  0.12466469064E+02  0.11756932622E+02  0.59618785584E+02  0.41800000000E+01 0.  1.
         -5    1    3    3    0  502 -0.48872316308E+02 -0.22088156515E+02 -0.45745551544E+02  0.70615280539E+02  0.41800000000E+01 0.  1.
        -11    1    4    4    0    0  0.37532204010E+01  0.39043462982E+02  0.50759789124E+02  0.64148537450E+02  0.00000000000E+00 0.  1.
         11    1    4    4    0    0 -0.11830784505E+02 -0.29421775531E+02 -0.14237512433E+02  0.34760827057E+02  0.00000000000E+00 0. -1.
</event>
<event>
 8    1  0.6787197E-009  0.1478656E+03  0.7561462E-02  0.1203120E+00
         -2   -1    0    0    0  501 -0.00000000000E+00  0.00000000000E+00  0.11153070043E+03  0.11153070043E+03  0.00000000000E+00 0.  1.
          2   -1    0    0  501    0  0.00000000000E+00 -0.00000000000E+00 -0.24752148527E+03  0.24752148527E+03  0.00000000000E+00 0. -1.
         25    2    1    2    0    0 -0.11587481712E+03 -0.21254875802E+02 -0.27491458014E+02  0.17401733627E+03  0.12509000788E+03 0.  0.
         23    2    1    2    0    0  0.11587481712E+03  0.21254875802E+02 -0.10849932682E+03  0.18503484944E+03  0.92666329357E+02 0.  0.
          5    1    3    3  502    0 -0.77682168272E+02  0.48870498356E+02 -0.14597674424E+02  0.93023703300E+02  0.41800000000E+01 0. -1.
         -5    1    3    3    0  502 -0.38192648847E+02 -0.70125374158E+02 -0.12893783590E+02  0.80993632972E+02  0.41800000000E+01 0. -1.
        -11    1    4    4    0    0  0.12927091216E+02 -0.99647216103E+01  0.14355646191E+02  0.21736833753E+02  0.00000000000E+00 0.  1.
         11    1    4    4    0    0  0.10294772590E+03  0.31219597412E+02 -0.12285497302E+03  0.16329801568E+03  0.00000000000E+00 0. -1.
</event>
<event>
 8    1  0.6787197E-009  0.1055276E+03  0.7561462E-02  0.1269084E+00
          1   -1    0    0  501    0  0.00000000000E+00  0.00000000000E+00  0.11251896702E+03  0.11251896702E+03  0.00000000000E+00 0. -1.
         -1   -1    0    0    0  501 -0.00000000000E+00 -0.00000000000E+00 -0.14340810608E+03  0.14340810608E+03  0.00000000000E+00 0.  1.
         25    2    1    2    0    0  0.49446461633E+02 -0.23141394620E+02 -0.51791853489E+02  0.14598216578E+03  0.12509164611E+03 0.  0.
         23    2    1    2    0    0 -0.49446461633E+02  0.23141394620E+02  0.20902714432E+02  0.10994490732E+03  0.93115425482E+02 0.  0.
          5    1    3    3  502    0 -0.31976007991E+02  0.13015446427E+02 -0.44529202971E+02  0.56499462387E+02  0.41800000000E+01 0.  1.
         -5    1    3    3    0  502  0.81422469624E+02 -0.36156841047E+02 -0.72626505181E+01  0.89482703394E+02  0.41800000000E+01 0.  1.
        -11    1    4    4    0    0 -0.30891086463E+02 -0.22239893913E+02  0.41901330228E+02  0.56609129820E+02  0.00000000000E+00 0. -1.
         11    1    4    4    0    0 -0.18555375169E+02  0.45381288533E+02 -0.20998615795E+02  0.53335777503E+02  0.00000000000E+00 0.  1.
</event>
<event>
 8    1  0.6787197E-009  0.1221063E+03  0.7561462E-02  0.1239662E+00
         -2   -1    0    0    0  501 -0.00000000000E+00  0.00000000000E+00  0.91150647038E+01  0.91150647038E+01  0.00000000000E+00 0.  1.
          2   -1    0    0  501    0  0.00000000000E+00 -0.00000000000E+00 -0.24834976151E+04  0.24834976151E+04  0.00000000000E+00 0. -1.
         25    2    1    2    0    0  0.68230107816E+02 -0.37895937919E+02 -0.18830810609E+04  0.18888443217E+04  0.12508852926E+03 0.  0.
         23    2    1    2    0    0 -0.68230107816E+02  0.37895937919E+02 -0.59130148953E+03  0.60376835809E+03  0.93847370700E+02 0.  0.
          5    1    3    3  502    0 -0.22348269138E+02  0.12296737503E+02 -0.88891544207E+03  0.88929117303E+03  0.41800000000E+01 0.  1.
         -5    1    3    3    0  502  0.90578376953E+02 -0.50192675423E+02 -0.99416561881E+03  0.99955314870E+03  0.41800000000E+01 0.  1.
        -11    1    4    4    0    0  0.19991106773E+02  0.53858332780E+01 -0.46326162323E+02  0.50742140925E+02  0.00000000000E+00 0.  1.
         11    1    4    4    0    0 -0.88221214589E+02  0.32510104641E+02 -0.54497532721E+03  0.55302621716E+03  0.00000000000E+00 0. -1.
</event>
<event>
 8    1  0.6787197E-009  0.1125257E+03  0.7561462E-02  0.1255963E+00
         -2   -1    0    0    0  501 -0.00000000000E+00  0.00000000000E+00  0.10314755873E+03  0.10314755873E+03  0.00000000000E+00 0.  1.
          2   -1    0    0  501    0  0.00000000000E+00 -0.00000000000E+00 -0.13042000437E+03  0.13042000437E+03  0.00000000000E+00 0. -1.
         25    2    1    2    0    0 -0.26184779663E+02 -0.32933376513E+02 -0.14989636217E+01  0.13198327166E+03  0.12508831732E+03 0.  0.
         23    2    1    2    0    0  0.26184779663E+02  0.32933376513E+02 -0.25773482014E+02  0.10158429144E+03  0.88796654878E+02 0.  0.
          5    1    3    3  502    0  0.40184844666E+02 -0.47562883100E+02  0.91198820529E+01  0.63068964144E+02  0.41800000000E+01 0. -1.
         -5    1    3    3    0  502 -0.66369624329E+02  0.14629506587E+02 -0.10618845675E+02  0.68914307513E+02  0.41800000000E+01 0. -1.
        -11    1    4    4    0    0 -0.99926800937E+01 -0.24622207189E+02 -0.20192527607E+02  0.33374315176E+02  0.00000000000E+00 0.  1.
         11    1    4    4    0    0  0.36177459757E+02  0.57555583702E+02 -0.55809544070E+01  0.68209976263E+02  0.00000000000E+00 0. -1.
</event>
<event>
 8    1  0.6787197E-009  0.1082950E+03  0.7561462E-02  0.1263760E+00
          2   -1    0    0  501    0  0.00000000000E+00  0.00000000000E+00  0.64844667643E+03  0.64844667643E+03  0.00000000000E+00 0. -1.
         -2   -1    0    0    0  501 -0.00000000000E+00 -0.00000000000E+00 -0.24104125487E+02  0.24104125487E+02  0.00000000000E+00 0.  1.
         25    2    1    2    0    0 -0.91225363075E+01 -0.31652968907E+02  0.49821583413E+03  0.51473461780E+03  0.12509028047E+03 0.  0.
         23    2    1    2    0    0  0.91225363075E+01  0.31652968907E+02  0.12612671681E+03  0.15781618412E+03  0.88954303817E+02 0.  0.
          5    1    3    3  502    0 -0.17167026676E+02 -0.75660846057E+02  0.38816553759E+03  0.39586516316E+03  0.41800000000E+01 0. -1.
         -5    1    3    3    0  502  0.80444903683E+01  0.44007877151E+02  0.11005029654E+03  0.11886945464E+03  0.41800000000E+01 0. -1.
        -11    1    4    4    0    0  0.43649557401E+02 -0.46076644228E+01  0.69793940220E+02  0.82448217228E+02  0.00000000000E+00 0.  1.
         11    1    4    4    0    0 -0.34527021093E+02  0.36260633329E+02  0.56332776589E+02  0.75367966891E+02  0.00000000000E+00 0. -1.
</event>
<event>
 8    1  0.6787197E-009  0.9487653E+02  0.7561462E-02  0.1291454E+00
          1   -1    0    0  501    0  0.00000000000E+00  0.00000000000E+00  0.80077511371E+02  0.80077511371E+02  0.00000000000E+00 0. -1.
         -1   -1    0    0    0  501 -0.00000000000E+00 -0.00000000000E+00 -0.24810194757E+03  0.24810194757E+03  0.00000000000E+00 0.  1.
         25    2    1    2    0    0 -0.29363067694E+02  0.40287411950E+02 -0.18264970400E+03  0.22692285214E+03  0.12509117134E+03 0.  0.
         23    2    1    2    0    0  0.29363067694E+02 -0.40287411950E+02  0.14625267806E+02  0.10125660680E+03  0.86912235360E+02 0.  0.
          5    1    3    3  502    0 -0.17124190626E+02  0.85404182431E+02 -0.10901585257E+03  0.13960315467E+03  0.41800000000E+01 0.  1.
         -5    1    3    3    0  502 -0.12238877068E+02 -0.45116770481E+02 -0.73633851430E+02  0.87319697474E+02  0.41800000000E+01 0.  1.
        -11    1    4    4    0    0 -0.30719276498E+01 -0.12601767750E+02 -0.34113132877E+02  0.36495850786E+02  0.00000000000E+00 0.  1.
         11    1    4    4    0    0  0.32434995344E+02 -0.27685644199E+02  0.48738400684E+02  0.64760756009E+02  0.00000000000E+00 0. -1.
</event>
<event>
 8    1  0.6787197E-009  0.1620358E+03  0.7561462E-02  0.1186417E+00
          1   -1    0    0  501    0  0.00000000000E+00  0.00000000000E+00  0.35111738256E+03  0.35111738256E+03  0.00000000000E+00 0. -1.
         -1   -1    0    0    0  501 -0.00000000000E+00 -0.00000000000E+00 -0.85670794587E+02  0.85670794587E+02  0.00000000000E+00 0.  1.
         25    2    1    2    0    0 -0.15815380066E+02  0.12182149882E+03  0.72895636994E+02  0.18987279857E+03  0.12508917588E+03 0.  0.
         23    2    1    2    0    0  0.15815380066E+02 -0.12182149882E+03  0.19255095098E+03  0.24691537858E+03  0.93812214741E+02 0.  0.
          5    1    3    3  502    0 -0.29737894461E+02  0.14311740532E+03  0.74345777052E+02  0.16404786203E+03  0.41800000000E+01 0. -1.
         -5    1    3    3    0  502  0.13922514395E+02 -0.21295906503E+02 -0.14501400577E+01  0.25824936535E+02  0.41800000000E+01 0. -1.
        -11    1    4    4    0    0 -0.22967073450E+02 -0.10871739339E+03  0.11951558107E+03  0.16318986552E+03  0.00000000000E+00 0.  1.
         11    1    4    4    0    0  0.38782453516E+02 -0.13104105426E+02  0.73035369910E+02  0.83725513063E+02  0.00000000000E+00 0. -1.
</event>
<event>
 8    1  0.6787197E-009  0.1013962E+03  0.7561462E-02  0.1277387E+00
          2   -1    0    0  501    0  0.00000000000E+00  0.00000000000E+00  0.11016836844E+03  0.11016836844E+03  0.00000000000E+00 0. -1.
         -2   -1    0    0    0  501 -0.00000000000E+00 -0.00000000000E+00 -0.18777214931E+03  0.18777214931E+03  0.00000000000E+00 0.  1.
         25    2    1    2    0    0  0.19374805470E+02 -0.52984578028E+02 -0.12069333254E+03  0.18274892364E+03  0.12509012741E+03 0.  0.
         23    2    1    2    0    0 -0.19374805470E+02  0.52984578028E+02  0.43089551669E+02  0.11519159411E+03  0.90717392457E+02 0.  0.
          5    1    3    3  502    0 -0.17262967627E+02  0.33173155022E+02 -0.60881245753E+02  0.71571410142E+02  0.41800000000E+01 0.  1.
         -5    1    3    3    0  502  0.36637773097E+02 -0.86157733050E+02 -0.59812086786E+02  0.11117751350E+03  0.41800000000E+01 0.  1.
        -11    1    4    4    0    0 -0.25727114249E+02  0.93841257684E+01 -0.22999246845E+02  0.35761873265E+02  0.00000000000E+00 0.  1.
         11    1    4    4    0    0  0.63523087791E+01  0.43600452259E+02  0.66088798514E+02  0.79429720842E+02  0.00000000000E+00 0. -1.
</event>
<event>
 8    1  0.6787197E-009  0.9426419E+02  0.7561462E-02  0.1292842E+00
         -2   -1    0    0    0  501 -0.00000000000E+00  0.00000000000E+00  0.47900296950E+02  0.47900296950E+02  0.00000000000E+00 0. -1.
          2   -1    0    0  501    0  0.00000000000E+00 -0.00000000000E+00 -0.31202401909E+03  0.31202401909E+03  0.00000000000E+00 0.  1.
         25    2    1    2    0    0  0.11677908631E+02 -0.59196443200E+02 -0.12792877188E+03  0.18882650859E+03  0.12509631183E+03 0.  0.
         23    2    1    2    0    0 -0.11677908631E+02  0.59196443200E+02 -0.13619495026E+03  0.17109780745E+03  0.84171270639E+02 0.  0.
          5    1    3    3  502    0  0.59685252781E+02 -0.45349924060E+02 -0.11450348518E+03  0.13692138449E+03  0.41800000000E+01 0. -1.
         -5    1    3    3    0  502 -0.48007344150E+02 -0.13846519140E+02 -0.13425286696E+02  0.51905124096E+02  0.41800000000E+01 0. -1.
        -11    1    4    4    0    0 -0.12581576402E+02  0.17216492901E+02  0.65484562762E+01  0.22306635160E+02  0.00000000000E+00 0. -1.
         11    1    4    4    0    0  0.90366777042E+00  0.41979950299E+02 -0.14274340653E+03  0.14879117229E+03  0.00000000000E+00 0.  1.
</event>
<event>
 8    1  0.6787197E-009  0.1099602E+03  0.7561462E-02  0.1260644E+00
          2   -1    0    0  501    0  0.00000000000E+00  0.00000000000E+00  0.63377757470E+02  0.63377757470E+02  0.00000000000E+00 0. -1.
         -2   -1    0    0    0  501 -0.00000000000E+00 -0.00000000000E+00 -0.39751170979E+03  0.39751170979E+03  0.00000000000E+00 0.  1.
         25    2    1    2    0    0  0.62609575303E+02 -0.62486712946E+02 -0.71960472791E+02  0.16925925547E+03  0.12508332304E+03 0.  0.
         23    2    1    2    0    0 -0.62609575303E+02  0.62486712946E+02 -0.26217347953E+03  0.29163021179E+03  0.92134135080E+02 0.  0.
          5    1    3    3  502    0  0.21733454189E+02  0.27914675575E+01 -0.87737435918E+02  0.90528809688E+02  0.41800000000E+01 0.  1.
         -5    1    3    3    0  502  0.40876121114E+02 -0.65278180503E+02  0.15776963127E+02  0.78730445780E+02  0.41800000000E+01 0.  1.
        -11    1    4    4    0    0 -0.17292449989E+01  0.59501213726E+02 -0.17810926617E+03  0.18779322517E+03  0.00000000000E+00 0. -1.
         11    1    4    4    0    0 -0.60880330304E+02  0.29854992193E+01 -0.84064213358E+02  0.10383698662E+03  0.00000000000E+00 0.  1.
</event>
<event>
 8    1  0.6787197E-009  0.1041627E+03  0.7561462E-02  0.1271778E+00
         -1   -1    0    0    0  501 -0.00000000000E+00  0.00000000000E+00  0.13705859706E+03  0.13705859706E+03  0.00000000000E+00 0.  1.
          1   -1    0    0  501    0  0.00000000000E+00 -0.00000000000E+00 -0.12182966028E+03  0.12182966028E+03  0.00000000000E+00 0. -1.
         25    2    1    2    0    0 -0.36919866108E+02 -0.31303960421E+02 -0.43941267408E+02  0.14114253310E+03  0.12508942887E+03 0.  0.
         23    2    1    2    0    0  0.36919866108E+02  0.31303960421E+02  0.59170204187E+02  0.11774572425E+03  0.89554051070E+02 0.  0.
          5    1    3    3  502    0 -0.70839045204E+02 -0.39348898787E+02  0.45568485874E+01  0.81269572598E+02  0.41800000000E+01 0. -1.
         -5    1    3    3    0  502  0.33919179095E+02  0.80449383661E+01 -0.48498115995E+02  0.59872960499E+02  0.41800000000E+01 0. -1.
        -11    1    4    4    0    0 -0.14496086197E+02 -0.16433607371E+02  0.39014789336E+02  0.44747667573E+02  0.00000000000E+00 0.  1.
         11    1    4    4    0    0  0.51415952306E+02  0.47737567792E+02  0.20155414851E+02  0.72998056673E+02  0.00000000000E+00 0. -1.
</event>
<event>
 8    1  0.6787197E-009  0.1345699E+03  0.7561462E-02  0.1220828E+00
         -1   -1    0    0    0  501 -0.00000000000E+00  0.00000000000E+00  0.18362993226E+02  0.18362993226E+02  0.00000000000E+00 0.  1.
          1   -1    0    0  501    0  0.00000000000E+00 -0.00000000000E+00 -0.10142904918E+04  0.10142904918E+04  0.00000000000E+00 0. -1.
         25    2    1    2    0    0 -0.76590756890E+02 -0.33931289388E+01 -0.60952405985E+03  0.62693300184E+03  0.12509097445E+03 0.  0.
         23    2    1    2    0    0  0.76590756890E+02  0.33931289388E+01 -0.38640343868E+03  0.40572048314E+03  0.97076442332E+02 0.  0.
          5    1    3    3  502    0 -0.60907157429E+02 -0.61231836544E+02 -0.34443586710E+03  0.35512330053E+03  0.41800000000E+01 0.  1.
         -5    1    3    3    0  502 -0.15683599461E+02  0.57838707605E+02 -0.26508819275E+03  0.27180970131E+03  0.41800000000E+01 0.  1.
        -11    1    4    4    0    0  0.46330086466E+02  0.49276792495E+02 -0.18597914118E+03  0.19789623580E+03  0.00000000000E+00 0.  1.
         11    1    4    4    0    0  0.30260670425E+02 -0.45883663557E+02 -0.20042429749E+03  0.20782424734E+03  0.00000000000E+00 0. -1.
</event>
<event>
 8    1  0.6787197E-009  0.1710533E+03  0.7561462E-02  0.1176754E+00
          4   -1    0    0  501    0  0.00000000000E+00  0.00000000000E+00  0.13998050154E+03  0.13998050154E+03  0.00000000000E+00 0. -1.
         -4   -1    0    0    0  501 -0.00000000000E+00 -0.00000000000E+00 -0.27954737408E+03  0.27954737408E+03  0.00000000000E+00 0.  1.
         25    2    1    2    0    0 -0.14315803971E+03  0.28475582603E+02 -0.15374844458E+03  0.24615272351E+03  0.12508995141E+03 0.  0.
         23    2    1    2    0    0  0.14315803971E+03 -0.28475582603E+02  0.14181572037E+02  0.17337515211E+03  0.92481042641E+02 0.  0.
          5    1    3    3  502    0 -0.11269514870E+03  0.75457401856E+02 -0.10146369403E+03  0.16942954182E+03  0.41800000000E+01 0.  1.
         -5    1    3    3    0  502 -0.30462891007E+02 -0.46981819253E+02 -0.52284750547E+02  0.76723181689E+02  0.41800000000E+01 0.  1.
        -11    1    4    4    0    0  0.54759357960E+02 -0.28795705655E+02 -0.36145379946E+02  0.71653809667E+02  0.00000000000E+00 0. -1.
         11    1    4    4    0    0  0.88398681748E+02  0.32012305254E+00  0.50326951983E+02  0.10172134245E+03  0.00000000000E+00 0.  1.
</event>
<event>
 8    1  0.6787197E-009  0.2165594E+03  0.7561462E-02  0.1136474E+00
          2   -1    0    0  501    0  0.00000000000E+00  0.00000000000E+00  0.43368538302E+03  0.43368538302E+03  0.00000000000E+00 0. -1.
         -2   -1    0    0    0  501 -0.00000000000E+00 -0.00000000000E+00 -0.13131780357E+03  0.13131780357E+03  0.00000000000E+00 0.  1.
         25    2    1    2    0    0  0.69865893993E+02 -0.20227913307E+03  0.15521465589E+03  0.29246851706E+03  0.12509257871E+03 0.  0.
         23    2    1    2    0    0 -0.69865893993E+02  0.20227913307E+03  0.14715292356E+03  0.27253466953E+03  0.82601890790E+02 0.  0.
          5    1    3    3  502    0  0.61221193033E+02 -0.15595302979E+03  0.17398221605E+03  0.24157124390E+03  0.41800000000E+01 0.  1.
         -5    1    3    3    0  502  0.86447009597E+01 -0.46326103282E+02 -0.18767560167E+02  0.50897273155E+02  0.41800000000E+01 0.  1.
        -11    1    4    4    0    0 -0.11476996238E+01  0.61996753624E+02  0.65243477847E+01  0.62349673522E+02  0.00000000000E+00 0. -1.
         11    1    4    4    0    0 -0.68718194369E+02  0.14028237945E+03  0.14062857577E+03  0.21018499601E+03  0.00000000000E+00 0.  1.
</event>
<event>
 8    1  0.6787197E-009  0.9009429E+02  0.7561462E-02  0.1302624E+00
          1   -1    0    0  501    0  0.00000000000E+00  0.00000000000E+00  0.30953333595E+02  0.30953333595E+02  0.00000000000E+00 0. -1.
         -1   -1    0    0    0  501 -0.00000000000E+00 -0.00000000000E+00 -0.61746183839E+03  0.61746183839E+03  0.00000000000E+00 0.  1.
         25    2    1    2    0    0  0.65538863533E+02 -0.23019773971E+02 -0.20503009422E+03  0.25002003069E+03  0.12508966218E+03 0.  0.
         23    2    1    2    0    0 -0.65538863533E+02  0.23019773971E+02 -0.38147841058E+03  0.39839514129E+03  0.91474904994E+02 0.  0.
          5    1    3    3  502    0  0.44044129147E+02 -0.31095671081E+02 -0.11753464021E+02  0.55339338529E+02  0.41800000000E+01 0. -1.
         -5    1    3    3    0  502  0.21494734386E+02  0.80758971100E+01 -0.19327663020E+03  0.19468069216E+03  0.41800000000E+01 0. -1.
        -11    1    4    4    0    0 -0.27624678388E+02  0.49389308560E+02 -0.29478772475E+03  0.30017033384E+03  0.00000000000E+00 0. -1.
         11    1    4    4    0    0 -0.37914185145E+02 -0.26369534589E+02 -0.86690685825E+02  0.98224807450E+02  0.00000000000E+00 0.  1.
</event>
<event>
 8    1  0.6787197E-009  0.1130904E+03  0.7561462E-02  0.1254952E+00
          1   -1    0    0  501    0  0.00000000000E+00  0.00000000000E+00  0.98353328614E+03  0.98353328614E+03  0.00000000000E+00 0. -1.
         -1   -1    0    0    0  501 -0.00000000000E+00 -0.00000000000E+00 -0.15254360129E+02  0.15254360129E+02  0.00000000000E+00 0.  1.
         25    2    1    2    0    0  0.29424235260E+02 -0.32223780535E+02  0.70579001294E+03  0.71811690021E+03  0.12509269505E+03 0.  0.
         23    2    1    2    0    0 -0.29424235260E+02  0.32223780535E+02  0.26248891308E+03  0.28067074606E+03  0.89283148210E+02 0.  0.
          5    1    3    3  502    0 -0.44142488228E+02  0.48127720630E+01  0.35351445121E+03  0.35631679957E+03  0.41800000000E+01 0.  1.
         -5    1    3    3    0  502  0.73566723488E+02 -0.37036552598E+02  0.35227556173E+03  0.36180010064E+03  0.41800000000E+01 0.  1.
        -11    1    4    4    0    0 -0.49826258001E+02 -0.11256451661E+02  0.12502047035E+03  0.13505362526E+03  0.00000000000E+00 0. -1.
         11    1    4    4    0    0  0.20402022741E+02  0.43480232196E+02  0.13746844273E+03  0.14561712080E+03  0.00000000000E+00 0.  1.
</event>
<event>
 8    1  0.6787197E-009  0.8358451E+02  0.7561462E-02  0.1319176E+00
          2   -1    0    0  501    0  0.00000000000E+00  0.00000000000E+00  0.17924782943E+03  0.17924782943E+03  0.00000000000E+00 0. -1.
         -2   -1    0    0    0  501 -0.00000000000E+00 -0.00000000000E+00 -0.10755699782E+03  0.10755699782E+03  0.00000000000E+00 0.  1.
         25    2    1    2    0    0  0.31375159621E+02  0.29974416597E+02  0.11661532178E+03  0.17644302754E+03  0.12510052919E+03 0.  0.
         23    2    1    2    0    0 -0.31375159621E+02 -0.29974416597E+02 -0.44924490162E+02  0.11036179971E+03  0.90987090990E+02 0.  0.
          5    1    3    3  502    0 -0.14716636634E+02  0.49597147454E+01 -0.22531893032E+02  0.27682788295E+02  0.41800000000E+01 0.  1.
         -5    1    3    3    0  502  0.46091796255E+02  0.25014701852E+02  0.13914721481E+03  0.14876023925E+03  0.41800000000E+01 0.  1.
        -11    1    4    4    0    0 -0.17773989551E+02 -0.61567305783E+02 -0.17660196012E+02  0.66470522558E+02  0.00000000000E+00 0. -1.
         11    1    4    4    0    0 -0.13601170070E+02  0.31592889186E+02 -0.27264294149E+02  0.43891277150E+02  0.00000000000E+00 0.  1.
</event>
<event>
 8    1  0.6787197E-009  0.1008261E+03  0.7561462E-02  0.1278568E+00
         -1   -1    0    0    0  501 -0.00000000000E+00  0.00000000000E+00  0.23130863017E+02  0.23130863017E+02  0.00000000000E+00 0.  1.
          1   -1    0    0  501    0  0.00000000000E+00 -0.00000000000E+00 -0.65017034138E+03  0.65017034138E+03  0.00000000000E+00 0. -1.
         25    2    1    2    0    0 -0.26868092182E+02 -0.33989930632E+02 -0.25415671316E+03  0.28656400366E+03  0.12508430590E+03 0.  0.
         23    2    1    2    0    0  0.26868092182E+02  0.33989930632E+02 -0.37288276520E+03  0.38673720074E+03  0.92988687976E+02 0.  0.
          5    1    3    3  502    0 -0.63256719556E+02 -0.87189047277E+01 -0.61211422875E+02  0.88553614038E+02  0.41800000000E+01 0.  1.
         -5    1    3    3    0  502  0.36388627374E+02 -0.25271025905E+02 -0.19294529029E+03  0.19801038962E+03  0.41800000000E+01 0.  1.
        -11    1    4    4    0    0 -0.21601935628E+02  0.38845903970E+02 -0.98506210748E+02  0.10806998396E+03  0.00000000000E+00 0.  1.
         11    1    4    4    0    0  0.48470027811E+02 -0.48559733374E+01 -0.27437655445E+03  0.27866721677E+03  0.00000000000E+00 0. -1.
</event>
<event>
 8    1  0.6787197E-009  0.1245269E+03  0.7561462E-02  0.1235810E+00
          2   -1    0    0  501    0  0.00000000000E+00  0.00000000000E+00  0.75010249034E+02  0.75010249034E+02  0.00000000000E+00 0. -1.
         -2   -1    0    0    0  501 -0.00000000000E+00 -0.00000000000E+00 -0.25362490391E+03  0.25362490391E+03  0.00000000000E+00 0.  1.
         25    2    1    2    0    0 -0.50775060828E+01  0.78011866752E+02 -0.13839140239E+03  0.20226472092E+03  0.12508878708E+03 0.  0.
         23    2    1    2    0    0  0.50775060828E+01 -0.78011866752E+02 -0.40223252486E+02  0.12637043202E+03  0.90774135226E+02 0.  0.
          5    1    3    3  502    0 -0.32832570615E+02  0.92325445701E+02 -0.53514033110E+02  0.11172819589E+03  0.41800000000E+01 0. -1.
         -5    1    3    3    0  502  0.27755064532E+02 -0.14313578949E+02 -0.84877369276E+02  0.90536525032E+02  0.41800000000E+01 0. -1.
        -11    1    4    4    0    0  0.20838396260E+02  0.14651702454E+02 -0.47960238927E+01  0.25921284472E+02  0.00000000000E+00 0.  1.
         11    1    4    4    0    0 -0.15760890178E+02 -0.92663569206E+02 -0.35427228594E+02  0.10044914755E+03  0.00000000000E+00 0. -1.
</event>
<event>
 8    1  0.6787197E-009  0.9196069E+02  0.7561462E-02  0.1298172E+00
          1   -1    0    0  501    0  0.00000000000E+00  0.00000000000E+00  0.59316582266E+02  0.59316582266E+02  0.00000000000E+00 0. -1.
         -1   -1    0    0    0  501 -0.00000000000E+00 -0.00000000000E+00 -0.30873850062E+03  0.30873850062E+03  0.00000000000E+00 0.  1.
         25    2    1    2    0    0 -0.72003807275E+02 -0.32728997559E+02 -0.11319116548E+03  0.18632471103E+03  0.12509565321E+03 0.  0.
         23    2    1    2    0    0  0.72003807275E+02  0.32728997559E+02 -0.13623075287E+03  0.18173037186E+03  0.90616634703E+02 0.  0.
          5    1    3    3  502    0 -0.45996050143E+02  0.10271279332E+02 -0.12575057489E+03  0.13435704407E+03  0.41800000000E+01 0.  1.
         -5    1    3    3    0  502 -0.26007757133E+02 -0.43000276891E+02  0.12559409406E+02  0.51967666952E+02  0.41800000000E+01 0.  1.
        -11    1    4    4    0    0  0.14713538910E+02 -0.71679338494E+01  0.10355929649E+02  0.19367828526E+02  0.00000000000E+00 0. -1.
         11    1    4    4    0    0  0.57290268365E+02  0.39896931408E+02 -0.14658668252E+03  0.16236254333E+03  0.00000000000E+00 0.  1.
</event>
<event>
 8    1  0.6787197E-009  0.1282419E+03  0.7561462E-02  0.1230088E+00
          2   -1    0    0  501    0  0.00000000000E+00  0.00000000000E+00  0.65682781695E+03  0.65682781695E+03  0.00000000000E+00 0.  1.
         -2   -1    0    0    0  501 -0.00000000000E+00 -0.00000000000E+00 -0.29798405309E+02  0.29798405309E+02  0.00000000000E+00 0. -1.
         25    2    1    2    0    0  0.56256122228E+02  0.66870959670E+02  0.31815904678E+03  0.35285804616E+03  0.12508854926E+03 0.  0.
         23    2    1    2    0    0 -0.56256122228E+02 -0.66870959670E+02  0.30887036486E+03  0.33376817610E+03  0.91453903974E+02 0.  0.
          5    1    3    3  502    0  0.44559147563E+02 -0.15978024571E+02  0.39236782121E+02  0.61626393469E+02  0.41800000000E+01 0.  1.
         -5    1    3    3    0  502  0.11696974665E+02  0.82848984240E+02  0.27892226466E+03  0.29123165269E+03  0.41800000000E+01 0.  1.
        -11    1    4    4    0    0 -0.19269046481E+02 -0.82729513228E+02  0.18608100090E+03  0.20455221194E+03  0.00000000000E+00 0. -1.
         11    1    4    4    0    0 -0.36987075747E+02  0.15858553558E+02  0.12278936395E+03  0.12921596416E+03  0.00000000000E+00 0.  1.
</event>
<event>
 8    1  0.6787197E-009  0.1002390E+03  0.7561462E-02  0.1279794E+00
          1   -1    0    0  501    0  0.00000000000E+00  0.00000000000E+00  0.46907248734E+02  0.46907248734E+02  0.00000000000E+00 0. -1.
         -1   -1    0    0    0  501 -0.00000000000E+00 -0.00000000000E+00 -0.28944877532E+03  0.28944877532E+03  0.00000000000E+00 0.  1.
         25    2    1    2    0    0 -0.12561856899E+02  0.42742228215E+02 -0.11961319298E+03  0.17871145505E+03  0.12508305205E+03 0.  0.
         23    2    1    2    0    0  0.12561856899E+02 -0.42742228215E+02 -0.12292833361E+03  0.15764456901E+03  0.88066660051E+02 0.  0.
          5    1    3    3  502    0 -0.16042236729E+02  0.71198205535E+02 -0.21188504602E+02  0.76111516592E+02  0.41800000000E+01 0. -1.
         -5    1    3    3    0  502  0.34803798305E+01 -0.28455977320E+02 -0.98424688377E+02  0.10259993846E+03  0.41800000000E+01 0. -1.
        -11    1    4    4    0    0  0.50063476408E+02 -0.16812384290E+02 -0.59929343190E+02  0.79878245542E+02  0.00000000000E+00 0. -1.
         11    1    4    4    0    0 -0.37501619509E+02 -0.25929843925E+02 -0.62998990420E+02  0.77766323468E+02  0.00000000000E+00 0.  1.
</event>
<event>
 8    1  0.6787197E-009  0.1031229E+03  0.7561462E-02  0.1273863E+00
          1   -1    0    0  501    0  0.00000000000E+00  0.00000000000E+00  0.18047459338E+03  0.18047459338E+03  0.00000000000E+00 0. -1.
         -1   -1    0    0    0  501 -0.00000000000E+00 -0.00000000000E+00 -0.97354720240E+02  0.97354720240E+02  0.00000000000E+00 0.  1.
         25    2    1    2    0    0 -0.18463134280E+02 -0.67396309280E+02  0.14574560875E+02  0.14402461524E+03  0.12509005611E+03 0.  0.
         23    2    1    2    0    0  0.18463134280E+02  0.67396309280E+02  0.68545312262E+02  0.13380469838E+03  0.91225476943E+02 0.  0.
          5    1    3    3  502    0 -0.30856839859E+02 -0.95078008336E+02 -0.15344247758E+02  0.10121704686E+03  0.41800000000E+01 0.  1.
         -5    1    3    3    0  502  0.12393705580E+02  0.27681699056E+02  0.29918808633E+02  0.42807568380E+02  0.41800000000E+01 0.  1.
        -11    1    4    4    0    0  0.26007049317E+02  0.57755300660E+02  0.89434506286E+02  0.10959275653E+03  0.00000000000E+00 0. -1.
         11    1    4    4    0    0 -0.75439150378E+01  0.96410086202E+01 -0.20889194024E+02  0.24211941853E+02  0.00000000000E+00 0.  1.
</event>
<event>
 8    1  0.6787197E-009  0.9081019E+02  0.7561462E-02  0.1300901E+00
          1   -1    0    0  501    0  0.00000000000E+00  0.00000000000E+00  0.28753595103E+03  0.28753595103E+03  0.00000000000E+00 0. -1.
         -1   -1    0    0    0  501 -0.00000000000E+00 -0.00000000000E+00 -0.41975445576E+02  0.41975445576E+02  0.00000000000E+00 0.  1.
         25    2    1    2    0    0  0.14811332686E+02  0.14088200890E+02  0.13754713600E+03  0.18704154861E+03  0.12508986092E+03 0.  0.
         23    2    1    2    0    0 -0.14811332686E+02 -0.14088200890E+02  0.10801336945E+03  0.14246984800E+03  0.90625143461E+02 0.  0.
          5    1    3    3  502    0 -0.41674059322E+02 -0.31884495083E+00  0.11832313901E+03  0.12551759441E+03  0.41800000000E+01 0. -1.
         -5    1    3    3    0  502  0.56485392007E+02  0.14407045840E+02  0.19223996998E+02  0.61523954202E+02  0.41800000000E+01 0. -1.
        -11    1    4    4    0    0  0.67268900987E+01  0.30788567652E+02  0.78525611717E+02  0.84613584276E+02  0.00000000000E+00 0. -1.
         11    1    4    4    0    0 -0.21538222784E+02 -0.44876768541E+02  0.29487757736E+02  0.57856263721E+02  0.00000000000E+00 0.  1.
</event>
<event>
 8    1  0.6787197E-009  0.1343632E+03  0.7561462E-02  0.1221121E+00
          2   -1    0    0  501    0  0.00000000000E+00  0.00000000000E+00  0.98965069947E+02  0.98965069947E+02  0.00000000000E+00 0. -1.
         -2   -1    0    0    0  501 -0.00000000000E+00 -0.00000000000E+00 -0.26819824251E+03  0.26819824251E+03  0.00000000000E+00 0.  1.
         25    2    1    2    0    0 -0.94588307275E+02 -0.52452025497E+02 -0.30145199538E+02  0.16808815072E+03  0.12508689182E+03 0.  0.
         23    2    1    2    0    0  0.94588307275E+02  0.52452025497E+02 -0.13908797303E+03  0.19907516174E+03  0.92667647693E+02 0.  0.
          5    1    3    3  502    0 -0.10395743596E+03 -0.38610053423E+02  0.22031476831E+02  0.11314036896E+03  0.41800000000E+01 0.  1.
         -5    1    3    3    0  502  0.93691286884E+01 -0.13841972074E+02 -0.52176676369E+02  0.54947781759E+02  0.41800000000E+01 0.  1.
        -11    1    4    4    0    0  0.54740702281E+02 -0.19634625229E+02 -0.41892753868E+02  0.71673327122E+02  0.00000000000E+00 0. -1.
         11    1    4    4    0    0  0.39847604994E+02  0.72086650726E+02 -0.97195219159E+02  0.12740183462E+03  0.00000000000E+00 0.  1.
</event>
<event>
 8    1  0.6787197E-009  0.1033782E+03  0.7561462E-02  0.1273348E+00
         -2   -1    0    0    0  501 -0.00000000000E+00  0.00000000000E+00  0.52280404973E+02  0.52280404973E+02  0.00000000000E+00 0. -1.
          2   -1    0    0  501    0  0.00000000000E+00 -0.00000000000E+00 -0.25994782756E+03  0.25994782756E+03  0.00000000000E+00 0.  1.
         25    2    1    2    0    0 -0.34684004508E+02 -0.13354764052E+02 -0.14625866654E+03  0.19601150588E+03  0.12509029941E+03 0.  0.
         23    2    1    2    0    0  0.34684004508E+02  0.13354764052E+02 -0.61408756044E+02  0.11621672665E+03  0.91400012821E+02 0.  0.
          5    1    3    3  502    0  0.10999733253E+02  0.45194826118E+02 -0.94451193626E+02  0.10536634575E+03  0.41800000000E+01 0. -1.
         -5    1    3    3    0  502 -0.45683737761E+02 -0.58549590170E+02 -0.51807472918E+02  0.90645160130E+02  0.41800000000E+01 0. -1.
        -11    1    4    4    0    0  0.19742200780E+02 -0.32178269151E+02  0.71352741879E+00  0.37758503924E+02  0.00000000000E+00 0. -1.
         11    1    4    4    0    0  0.14941803728E+02  0.45533033203E+02 -0.62122283463E+02  0.78458222730E+02  0.00000000000E+00 0.  1.
</event>
<event>
 8    1  0.6787197E-009  0.1703675E+03  0.7561462E-02  0.1177465E+00
         -2   -1    0    0    0  501 -0.00000000000E+00  0.00000000000E+00  0.16709519103E+02  0.16709519103E+02  0.00000000000E+00 0. -1.
          2   -1    0    0  501    0  0.00000000000E+00 -0.00000000000E+00 -0.18533125930E+04  0.18533125930E+04  0.00000000000E+00 0.  1.
         25    2    1    2    0    0  0.13309364679E+03 -0.56168654202E+01 -0.11701190843E+04  0.11843020151E+04  0.12508846208E+03 0.  0.
         23    2    1    2    0    0 -0.13309364679E+03  0.56168654202E+01 -0.66648398958E+03  0.68572009706E+03  0.90915758582E+02 0.  0.
          5    1    3    3  502    0  0.10604818486E+03 -0.58495748637E+02 -0.69775015694E+03  0.70819539961E+03  0.41800000000E+01 0.  1.
         -5    1    3    3    0  502  0.27045461937E+02  0.52878883217E+02 -0.47236892740E+03  0.47610661544E+03  0.41800000000E+01 0.  1.
        -11    1    4    4    0    0 -0.75876344127E+02 -0.40965782954E+02 -0.31596057054E+03  0.32751564407E+03  0.00000000000E+00 0. -1.
         11    1    4    4    0    0 -0.57217302666E+02  0.46582648374E+02 -0.35052341904E+03  0.35820445300E+03  0.00000000000E+00 0.  1.
</event>
<event>
 8    1  0.6787197E-009  0.1226950E+03  0.7561462E-02  0.1238716E+00
          1   -1    0    0  501    0  0.00000000000E+00  0.00000000000E+00  0.11840642988E+03  0.11840642988E+03  0.00000000000E+00 0. -1.
         -1   -1    0    0    0  501 -0.00000000000E+00 -0.00000000000E+00 -0.17836646959E+03  0.17836646959E+03  0.00000000000E+00 0.  1.
         25    2    1    2    0    0 -0.87124111639E+02 -0.13066707424E+02  0.19178640922E+01  0.15301523369E+03  0.12509449975E+03 0.  0.
         23    2    1    2    0    0  0.87124111639E+02  0.13066707424E+02 -0.61877903798E+02  0.14375766578E+03  0.95268262392E+02 0.  0.
          5    1    3    3  502    0 -0.78032108432E+01 -0.59506106311E+02 -0.70327382929E+01  0.60570608348E+02  0.41800000000E+01 0. -1.
         -5    1    3    3    0  502 -0.79320900796E+02  0.46439398887E+02  0.89506023851E+01  0.92444625345E+02  0.41800000000E+01 0. -1.
        -11    1    4    4    0    0  0.14917720942E+02  0.14769605991E+02  0.23775476551E+02  0.31716761254E+02  0.00000000000E+00 0. -1.
         11    1    4    4    0    0  0.72206390697E+02 -0.17028985675E+01 -0.85653380349E+02  0.11204090452E+03  0.00000000000E+00 0.  1.
</event>
<event>
 8    1  0.6787197E-009  0.1951007E+03  0.7561462E-02  0.1153940E+00
         -1   -1    0    0    0  501 -0.00000000000E+00  0.00000000000E+00  0.72807231232E+02  0.72807231232E+02  0.00000000000E+00 0.  1.
          1   -1    0    0  501    0  0.00000000000E+00 -0.00000000000E+00 -0.62015962261E+03  0.62015962261E+03  0.00000000000E+00 0. -1.
         25    2    1    2    0    0  0.17697658611E+03 -0.27443848429E+02 -0.33840869257E+03  0.40279193629E+03  0.12508806454E+03 0.  0.
         23    2    1    2    0    0 -0.17697658611E+03  0.27443848429E+02 -0.20894369881E+03  0.29017491755E+03  0.92033345337E+02 0.  0.
          5    1    3    3  502    0  0.18619889948E+02 -0.46935635112E+02 -0.13529886414E+03  0.14447459702E+03  0.41800000000E+01 0.  1.
         -5    1    3    3    0  502  0.15835669616E+03  0.19491786682E+02 -0.20310982843E+03  0.25831733928E+03  0.41800000000E+01 0.  1.
        -11    1    4    4    0    0 -0.20646174249E+02 -0.23642843428E+01 -0.87637451732E+02  0.90067626246E+02  0.00000000000E+00 0. -1.
         11    1    4    4    0    0 -0.15633041186E+03  0.29808132772E+02 -0.12130624708E+03  0.20010729130E+03  0.00000000000E+00 0.  1.
</event>
<event>
 8    1  0.6787197E-009  0.9883679E+02  0.7561462E-02  0.1282761E+00
         -2   -1    0    0    0  501 -0.00000000000E+00  0.00000000000E+00  0.46482482500E+02  0.46482482500E+02  0.00000000000E+00 0.  1.
          2   -1    0    0  501    0  0.00000000000E+00 -0.00000000000E+00 -0.33671870304E+03  0.33671870304E+03  0.00000000000E+00 0. -1.
         25    2    1    2    0    0 -0.47036784065E+02  0.40865105096E+02 -0.16871728937E+03  0.21907674412E+03  0.12508669079E+03 0.  0.
         23    2    1    2    0    0  0.47036784065E+02 -0.40865105096E+02 -0.12151893117E+03  0.16412444142E+03  0.91036068504E+02 0.  0.
          5    1    3    3  502    0 -0.40288533974E+02 -0.60072885397E+01 -0.16652591928E+03  0.17148646499E+03  0.41800000000E+01 0. -1.
         -5    1    3    3    0  502 -0.67482500917E+01  0.46872393635E+02 -0.21913700931E+01  0.47590279126E+02  0.41800000000E+01 0. -1.
        -11    1    4    4    0    0  0.27294422235E+02 -0.69350247100E+02 -0.71561786385E+02  0.10332246381E+03  0.00000000000E+00 0.  1.
         11    1    4    4    0    0  0.19742361830E+02  0.28485142004E+02 -0.49957144782E+02  0.60801977603E+02  0.00000000000E+00 0. -1.
</event>
<event>
 8    1  0.6787197E-009  0.2333085E+03  0.7561462E-02  0.1124333E+00
         -1   -1    0    0    0  501 -0.00000000000E+00  0.00000000000E+00  0.16358751379E+04  0.16358751379E+04  0.00000000000E+00 0.  1.
          1   -1    0    0  501    0  0.00000000000E+00 -0.00000000000E+00 -0.36087528559E+02  0.36087528559E+02  0.00000000000E+00 0. -1.
         25    2    1    2    0    0 -0.87571005064E+00  0.21657352020E+03  0.78461873543E+03  0.82351648814E+03  0.12509192514E+03 0.  0.
         23    2    1    2    0    0  0.87571005064E+00 -0.21657352020E+03  0.81516887388E+03  0.84844617828E+03  0.91955249901E+02 0.  0.
          5    1    3    3  502    0 -0.48760689167E+02  0.18753613910E+03  0.61929284976E+03  0.64891333354E+03  0.41800000000E+01 0.  1.
         -5    1    3    3    0  502  0.47884979116E+02  0.29037381103E+02  0.16532588567E+03  0.17460315460E+03  0.41800000000E+01 0.  1.
        -11    1    4    4    0    0 -0.19499056741E+01 -0.14642480246E+03  0.68575273591E+03  0.70121383309E+03  0.00000000000E+00 0.  1.
         11    1    4    4    0    0  0.28256157247E+01 -0.70148717740E+02  0.12941613796E+03  0.14723234519E+03  0.00000000000E+00 0. -1.
</event>
<event>
 8    1  0.6787197E-009  0.1305022E+03  0.7561462E-02  0.1226713E+00
          1   -1    0    0  501    0  0.00000000000E+00  0.00000000000E+00  0.47088020374E+03  0.47088020374E+03  0.00000000000E+00 0. -1.
         -1   -1    0    0    0  501 -0.00000000000E+00 -0.00000000000E+00 -0.66006738141E+02  0.66006738141E+02  0.00000000000E+00 0.  1.
         25    2    1    2    0    0  0.84155427949E+02  0.67606392425E+02  0.34097023125E+03  0.37889403841E+03  0.12508890197E+03 0.  0.
         23    2    1    2    0    0 -0.84155427949E+02 -0.67606392425E+02  0.63903234347E+02  0.15799290346E+03  0.96048809648E+02 0.  0.
          5    1    3    3  502    0  0.70825815919E+02 -0.21307314444E+01  0.73701915938E+02  0.10232439118E+03  0.41800000000E+01 0.  1.
         -5    1    3    3    0  502  0.13329612030E+02  0.69737123870E+02  0.26726831531E+03  0.27656964723E+03  0.41800000000E+01 0.  1.
        -11    1    4    4    0    0 -0.36772408431E+02 -0.60766481971E+02  0.80471068328E+02  0.10733297811E+03  0.00000000000E+00 0. -1.
         11    1    4    4    0    0 -0.47383019518E+02 -0.68399104544E+01 -0.16567833981E+02  0.50659925350E+02  0.00000000000E+00 0.  1.
</event>
<event>
 8    1  0.6787197E-009  0.5337489E+02  0.7561462E-02  0.1427944E+00
         -2   -1    0    0    0  501 -0.00000000000E+00  0.00000000000E+00  0.47945283791E+02  0.47945283791E+02  0.00000000000E+00 0.  1.
          2   -1    0    0  501    0  0.00000000000E+00 -0.00000000000E+00 -0.29852784930E+03  0.29852784930E+03  0.00000000000E+00 0. -1.
         25    2    1    2    0    0 -0.52392100912E+01  0.10082839282E+02 -0.70623100328E+02  0.14409812593E+03  0.12509010603E+03 0.  0.
         23    2    1    2    0    0  0.52392100912E+01 -0.10082839282E+02 -0.17995946519E+03  0.20237500717E+03  0.91875575887E+02 0.  0.
          5    1    3    3  502    0 -0.29053649850E+01  0.62748303974E+01 -0.10695251656E+03  0.10725729738E+03  0.41800000000E+01 0. -1.
         -5    1    3    3    0  502 -0.23338451062E+01  0.38080088848E+01  0.36329416232E+02  0.36840828552E+02  0.41800000000E+01 0. -1.
        -11    1    4    4    0    0  0.45296422234E+02 -0.22551304010E+02 -0.10062855754E+03  0.11263407021E+03  0.00000000000E+00 0.  1.
         11    1    4    4    0    0 -0.40057212143E+02  0.12468464728E+02 -0.79330907649E+02  0.89740936956E+02  0.00000000000E+00 0. -1.
</event>
<event>
 8    1  0.6787197E-009  0.3924288E+03  0.7561462E-02  0.1046433E+00
         -1   -1    0    0    0  501 -0.00000000000E+00  0.00000000000E+00  0.53303984016E+03  0.53303984016E+03  0.00000000000E+00 0.  1.
          1   -1    0    0  501    0  0.00000000000E+00 -0.00000000000E+00 -0.39988937578E+03  0.39988937578E+03  0.00000000000E+00 0. -1.
         25    2    1    2    0    0 -0.37520118094E+03 -0.39637110303E+02 -0.17626910326E+03  0.43481437258E+03  0.12508283313E+03 0.  0.
         23    2    1    2    0    0  0.37520118094E+03  0.39637110303E+02  0.30941956764E+03  0.49811484337E+03  0.10015438910E+03 0.  0.
          5    1    3    3  502    0 -0.31063371011E+03  0.17452784596E+02 -0.14062309184E+03  0.34145311230E+03  0.41800000000E+01 0. -1.
         -5    1    3    3    0  502 -0.64567470833E+02 -0.57089894899E+02 -0.35646011421E+02  0.93361260272E+02  0.41800000000E+01 0. -1.
        -11    1    4    4    0    0  0.24964569345E+03 -0.15848726849E+02  0.16991094547E+03  0.30239689779E+03  0.00000000000E+00 0. -1.
         11    1    4    4    0    0  0.12555548748E+03  0.55485837152E+02  0.13950862216E+03  0.19571794557E+03  0.00000000000E+00 0.  1.
</event>
<event>
 8    1  0.6787197E-009  0.1125127E+03  0.7561462E-02  0.1255986E+00
          2   -1    0    0  501    0  0.00000000000E+00  0.00000000000E+00  0.35793908436E+03  0.35793908436E+03  0.00000000000E+00 0. -1.
         -2   -1    0    0    0  501 -0.00000000000E+00 -0.00000000000E+00 -0.70779157037E+02  0.70779157037E+02  0.00000000000E+00 0.  1.
         25    2    1    2    0    0 -0.48985491351E+02  0.64665663569E+02  0.26820067769E+03  0.30685442478E+03  0.12508720192E+03 0.  0.
         23    2    1    2    0    0  0.48985491351E+02 -0.64665663569E+02  0.18959249632E+02  0.12186381662E+03  0.88938800565E+02 0.  0.
          5    1    3    3  502    0 -0.76617912326E+02  0.80147066185E+02  0.23930611462E+03  0.26377783379E+03  0.41800000000E+01 0.  1.
         -5    1    3    3    0  502  0.27632420974E+02 -0.15481402616E+02  0.28894563077E+02  0.43076590989E+02  0.41800000000E+01 0.  1.
        -11    1    4    4    0    0  0.20990205794E+02 -0.17759266242E+02 -0.35384141403E+02  0.44810910943E+02  0.00000000000E+00 0.  1.
         11    1    4    4    0    0  0.27995285558E+02 -0.46906397327E+02  0.54343391034E+02  0.77052905674E+02  0.00000000000E+00 0. -1.
</event>
<event>
 8    1  0.6787197E-009  0.1206178E+03  0.7561462E-02  0.1242081E+00
         -2   -1    0    0    0  501 -0.00000000000E+00  0.00000000000E+00  0.18844335420E+02  0.18844335420E+02  0.00000000000E+00 0. -1.
          2   -1    0    0  501    0  0.00000000000E+00 -0.00000000000E+00 -0.86812614551E+03  0.86812614551E+03  0.00000000000E+00 0.  1.
         25    2    1    2    0    0 -0.49027868446E+02  0.44448146317E+02 -0.41872547524E+03  0.44199484099E+03  0.12509614803E+03 0.  0.
         23    2    1    2    0    0  0.49027868446E+02 -0.44448146317E+02 -0.43055633485E+03  0.44497563994E+03  0.90803045459E+02 0.  0.
          5    1    3    3  502    0 -0.85935974446E+02  0.22906213622E+02 -0.34840321766E+03  0.35959972303E+03  0.41800000000E+01 0. -1.
         -5    1    3    3    0  502  0.36908106001E+02  0.21541932696E+02 -0.70322257581E+02  0.82395117963E+02  0.41800000000E+01 0. -1.
        -11    1    4    4    0    0  0.65927971210E+02 -0.47291985374E+01 -0.20722201764E+03  0.21750822353E+03  0.00000000000E+00 0. -1.
         11    1    4    4    0    0 -0.16900102764E+02 -0.39718947780E+02 -0.22333431721E+03  0.22746741641E+03  0.00000000000E+00 0.  1.
</event>
<event>
 8    1  0.6787197E-009  0.1524888E+03  0.7561462E-02  0.1197448E+00
          3   -1    0    0  501    0  0.00000000000E+00  0.00000000000E+00  0.85024280349E+02  0.85024280349E+02  0.00000000000E+00 0. -1.
         -3   -1    0    0    0  501 -0.00000000000E+00 -0.00000000000E+00 -0.32141476654E+03  0.32141476654E+03  0.00000000000E+00 0.  1.
         25    2    1    2    0    0 -0.11773458806E+03  0.34721760651E+02 -0.15391453753E+03  0.23324594342E+03  0.12508777467E+03 0.  0.
         23    2    1    2    0    0  0.11773458806E+03 -0.34721760651E+02 -0.82475948665E+02  0.17319310347E+03  0.90147296652E+02 0.  0.
          5    1    3    3  502    0 -0.35357171121E+02  0.75327327038E+02 -0.73107053993E+02  0.11084425782E+03  0.41800000000E+01 0. -1.
         -5    1    3    3    0  502 -0.82377416935E+02 -0.40605566387E+02 -0.80807483533E+02  0.12240168560E+03  0.41800000000E+01 0. -1.
        -11    1    4    4    0    0  0.80833805223E+02 -0.43496891878E+02 -0.96095173181E+02  0.13289230970E+03  0.00000000000E+00 0.  1.
         11    1    4    4    0    0  0.36900782833E+02  0.87751312265E+01  0.13619224515E+02  0.40300793766E+02  0.00000000000E+00 0. -1.
</event>
<event>
 8    1  0.6787197E-009  0.1559902E+03  0.7561462E-02  0.1193300E+00
         -2   -1    0    0    0  501 -0.00000000000E+00  0.00000000000E+00  0.33448533140E+03  0.33448533140E+03  0.00000000000E+00 0.  1.
          2   -1    0    0  501    0  0.00000000000E+00 -0.00000000000E+00 -0.92659362310E+02  0.92659362310E+02  0.00000000000E+00 0. -1.
         25    2    1    2    0    0  0.12768706054E+03 -0.28870196059E+02  0.73329278408E+02  0.19535332112E+03  0.12509301880E+03 0.  0.
         23    2    1    2    0    0 -0.12768706054E+03  0.28870196059E+02  0.16849669068E+03  0.23179137258E+03  0.90546297468E+02 0.  0.
          5    1    3    3  502    0  0.14852610233E+03 -0.43925437057E+02  0.64799487497E+02  0.16794610169E+03  0.41800000000E+01 0. -1.
         -5    1    3    3    0  502 -0.20839041786E+02  0.15055240997E+02  0.85297909108E+01  0.27407219433E+02  0.41800000000E+01 0. -1.
        -11    1    4    4    0    0 -0.76788470015E+02  0.19690993631E+02  0.31403156677E+02  0.85266421332E+02  0.00000000000E+00 0. -1.
         11    1    4    4    0    0 -0.50898590523E+02  0.91792024281E+01  0.13709353400E+03  0.14652495125E+03  0.00000000000E+00 0.  1.
</event>
<event>
 8    1  0.6787197E-009  0.1214767E+03  0.7561462E-02  0.1240681E+00
          4   -1    0    0  501    0  0.00000000000E+00  0.00000000000E+00  0.70595745529E+03  0.70595745529E+03  0.00000000000E+00 0. -1.
         -4   -1    0    0    0  501 -0.00000000000E+00 -0.00000000000E+00 -0.33921918924E+02  0.33921918924E+02  0.00000000000E+00 0.  1.
         25    2    1    2    0    0 -0.83509439068E+02  0.61725343171E+02  0.45140067697E+03  0.47978522210E+03  0.12508974287E+03 0.  0.
         23    2    1    2    0    0  0.83509439068E+02 -0.61725343171E+02  0.22063485939E+03  0.26009415211E+03  0.90473103078E+02 0.  0.
          5    1    3    3  502    0 -0.79836492261E+02  0.23031103881E+02  0.42390392502E+03  0.43199109631E+03  0.41800000000E+01 0.  1.
         -5    1    3    3    0  502 -0.36729468071E+01  0.38694239290E+02  0.27496751957E+02  0.47794125797E+02  0.41800000000E+01 0.  1.
        -11    1    4    4    0    0  0.33654500788E+02  0.83392154312E+01  0.16120104012E+02  0.38236444535E+02  0.00000000000E+00 0.  1.
         11    1    4    4    0    0  0.49854938280E+02 -0.70064558602E+02  0.20451475537E+03  0.22185770757E+03  0.00000000000E+00 0. -1.
</event>
<event>
 8    1  0.6787197E-009  0.1726595E+03  0.7561462E-02  0.1175102E+00
          4   -1    0    0  501    0  0.00000000000E+00  0.00000000000E+00  0.18713457575E+03  0.18713457575E+03  0.00000000000E+00 0. -1.
         -4   -1    0    0    0  501 -0.00000000000E+00 -0.00000000000E+00 -0.17818605311E+03  0.17818605311E+03  0.00000000000E+00 0.  1.
         25    2    1    2    0    0 -0.90393473020E+02  0.11518912850E+03  0.94900013207E+01  0.19281485898E+03  0.12509194390E+03 0.  0.
         23    2    1    2    0    0  0.90393473020E+02 -0.11518912850E+03 -0.54147867413E+00  0.17250576988E+03  0.91205439272E+02 0.  0.
          5    1    3    3  502    0 -0.87810443248E+02  0.23508713953E+02 -0.25591147577E+02  0.94528899334E+02  0.41800000000E+01 0. -1.
         -5    1    3    3    0  502 -0.25830297726E+01  0.91680414552E+02  0.35081148898E+02  0.98285959645E+02  0.41800000000E+01 0. -1.
        -11    1    4    4    0    0 -0.66088752140E+01 -0.37921433365E+02 -0.25273616960E+02  0.46048540197E+02  0.00000000000E+00 0.  1.
         11    1    4    4    0    0  0.97002348234E+02 -0.77267695140E+02  0.24732138286E+02  0.12645722968E+03  0.00000000000E+00 0. -1.
</event>
<event>
 8    1  0.6787197E-009  0.1102773E+03  0.7561462E-02  0.1260057E+00
         -1   -1    0    0    0  501 -0.00000000000E+00  0.00000000000E+00  0.30517433821E+02  0.30517433821E+02  0.00000000000E+00 0.  1.
          1   -1    0    0  501    0  0.00000000000E+00 -0.00000000000E+00 -0.51048527157E+03  0.51048527157E+03  0.00000000000E+00 0. -1.
         25    2    1    2    0    0 -0.33558965814E+02  0.47171253440E+02 -0.26848384932E+03  0.30179804074E+03  0.12508856346E+03 0.  0.
         23    2    1    2    0    0  0.33558965814E+02 -0.47171253440E+02 -0.21148398843E+03  0.23920466466E+03  0.95614135429E+02 0.  0.
          5    1    3    3  502    0  0.40175523038E+02  0.36510709631E+02 -0.63454491592E+02  0.83612495910E+02  0.41800000000E+01 0.  1.
         -5    1    3    3    0  502 -0.73734488852E+02  0.10660543809E+02 -0.20502935773E+03  0.21818554483E+03  0.41800000000E+01 0.  1.
        -11    1    4    4    0    0 -0.18670495047E+02 -0.32088040557E+02 -0.24504877446E+02  0.44482791625E+02  0.00000000000E+00 0.  1.
         11    1    4    4    0    0  0.52229460861E+02 -0.15083212882E+02 -0.18697911098E+03  0.19472187303E+03  0.00000000000E+00 0. -1.
</event>
<event>
 8    1  0.6787197E-009  0.5906711E+02  0.7561462E-02  0.1401789E+00
         -1   -1    0    0    0  501 -0.00000000000E+00  0.00000000000E+00  0.21436352422E+03  0.21436352422E+03  0.00000000000E+00 0.  1.
          1   -1    0    0  501    0  0.00000000000E+00 -0.00000000000E+00 -0.59408935871E+02  0.59408935871E+02  0.00000000000E+00 0. -1.
         25    2    1    2    0    0 -0.10740492456E+02 -0.89138225144E+01  0.60623023770E+02  0.13970674674E+03  0.12509200479E+03 0.  0.
         23    2    1    2    0    0  0.10740492456E+02  0.89138225144E+01  0.94331564583E+02  0.13406571336E+03  0.94235646184E+02 0.  0.
          5    1    3    3  502    0 -0.36038445474E+02 -0.14466303814E+02 -0.27495773112E+02  0.47765400001E+02  0.41800000000E+01 0. -1.
         -5    1    3    3    0  502  0.25297953018E+02  0.55524812993E+01  0.88118796882E+02  0.91941346735E+02  0.41800000000E+01 0. -1.
        -11    1    4    4    0    0 -0.17739803441E+02  0.15558531022E+02 -0.10062991627E+02  0.25652140538E+02  0.00000000000E+00 0. -1.
         11    1    4    4    0    0  0.28480295897E+02 -0.66447085076E+01  0.10439455621E+03  0.10841357282E+03  0.00000000000E+00 0.  1.
</event>
<event>
 8    1  0.6787197E-009  0.1384504E+03  0.7561462E-02  0.1215429E+00
         -2   -1    0    0    0  501 -0.00000000000E+00  0.00000000000E+00  0.26935438695E+02  0.26935438695E+02  0.00000000000E+00 0.  1.
          2   -1    0    0  501    0  0.00000000000E+00 -0.00000000000E+00 -0.86754063878E+03  0.86754063878E+03  0.00000000000E+00 0. -1.
         25    2    1    2    0    0 -0.71459366882E+02 -0.81222896379E+02 -0.46096068247E+03  0.48973031628E+03  0.12508969539E+03 0.  0.
         23    2    1    2    0    0  0.71459366882E+02  0.81222896379E+02 -0.37964451762E+03  0.40474576119E+03  0.89362024577E+02 0.  0.
          5    1    3    3  502    0 -0.25325256207E+01 -0.88289755226E+02 -0.32838604490E+03  0.34008287438E+03  0.41800000000E+01 0. -1.
         -5    1    3    3    0  502 -0.68926841261E+02  0.70668588469E+01 -0.13257463757E+03  0.14964744190E+03  0.41800000000E+01 0. -1.
        -11    1    4    4    0    0  0.18767376533E+02  0.58932893665E+02 -0.30217638235E+03  0.30844102585E+03  0.00000000000E+00 0.  1.
         11    1    4    4    0    0  0.52691990349E+02  0.22290002714E+02 -0.77468135270E+02  0.96304735347E+02  0.00000000000E+00 0. -1.
</event>
<event>
 8    1  0.6787197E-009  0.1209443E+03  0.7561462E-02  0.1241547E+00
         -2   -1    0    0    0  501 -0.00000000000E+00  0.00000000000E+00  0.54017552110E+02  0.54017552110E+02  0.00000000000E+00 0.  1.
          2   -1    0    0  501    0  0.00000000000E+00 -0.00000000000E+00 -0.35048069033E+03  0.35048069033E+03  0.00000000000E+00 0. -1.
         25    2    1    2    0    0 -0.80461044806E+02  0.21135936077E+02 -0.15585371538E+03  0.21646778480E+03  0.12508882338E+03 0.  0.
         23    2    1    2    0    0  0.80461044806E+02 -0.21135936077E+02 -0.14060942284E+03  0.18803045764E+03  0.93079190383E+02 0.  0.
          5    1    3    3  502    0 -0.11264664231E+03  0.29784975712E+02 -0.12317551684E+03  0.16960569316E+03  0.41800000000E+01 0.  1.
         -5    1    3    3    0  502  0.32185597509E+02 -0.86490396350E+01 -0.32678198536E+02  0.46862091643E+02  0.41800000000E+01 0.  1.
        -11    1    4    4    0    0  0.42691812586E+02  0.87072672928E+01 -0.46703351624E+01  0.43820308033E+02  0.00000000000E+00 0.  1.
         11    1    4    4    0    0  0.37769232220E+02 -0.29843203370E+02 -0.13593908768E+03  0.14421014960E+03  0.00000000000E+00 0. -1.
</event>
<event>
 8    1  0.6787197E-009  0.7241961E+02  0.7561462E-02  0.1352053E+00
          1   -1    0    0  501    0  0.00000000000E+00  0.00000000000E+00  0.76492611715E+03  0.76492611715E+03  0.00000000000E+00 0. -1.
         -1   -1    0    0    0  501 -0.00000000000E+00 -0.00000000000E+00 -0.16329107714E+02  0.16329107714E+02  0.00000000000E+00 0.  1.
         25    2    1    2    0    0 -0.26708990430E+02  0.29761143646E+01  0.48973907059E+03  0.50617691429E+03  0.12509390020E+03 0.  0.
         23    2    1    2    0    0  0.26708990430E+02 -0.29761143646E+01  0.25885793885E+03  0.27507831058E+03  0.89097794701E+02 0.  0.
          5    1    3    3  502    0  0.12396804855E+02  0.49701695390E+01  0.45004764852E+03  0.45026519041E+03  0.41800000000E+01 0.  1.
         -5    1    3    3    0  502 -0.39105795285E+02 -0.19940551744E+01  0.39691422071E+02  0.55911723878E+02  0.41800000000E+01 0.  1.
        -11    1    4    4    0    0 -0.12848564554E+02  0.34598117257E+02  0.80388350512E+02  0.88455651187E+02  0.00000000000E+00 0.  1.
         11    1    4    4    0    0  0.39557554984E+02 -0.37574231622E+02  0.17846958833E+03  0.18662265939E+03  0.00000000000E+00 0. -1.
</event>
<event>
 8    1  0.6787197E-009  0.1079441E+03  0.7561462E-02  0.1264425E+00
         -1   -1    0    0    0  501 -0.00000000000E+00  0.00000000000E+00  0.21002011384E+03  0.21002011384E+03  0.00000000000E+00 0.  1.
          1   -1    0    0  501    0  0.00000000000E+00 -0.00000000000E+00 -0.90110556600E+02  0.90110556600E+02  0.00000000000E+00 0. -1.
         25    2    1    2    0    0 -0.83685212258E+01  0.42626512057E+02  0.14759480903E+03  0.19828218777E+03  0.12507816219E+03 0.  0.
         23    2    1    2    0    0  0.83685212258E+01 -0.42626512057E+02 -0.27685251783E+02  0.10184848268E+03  0.87861189268E+02 0.  0.
          5    1    3    3  502    0 -0.59214609028E+02 -0.73628174083E+01  0.80448491413E+02  0.10024975398E+03  0.41800000000E+01 0.  1.
         -5    1    3    3    0  502  0.50846087802E+02  0.49989329465E+02  0.67146317615E+02  0.98032433788E+02  0.41800000000E+01 0.  1.
        -11    1    4    4    0    0  0.32091444482E+02 -0.50340489075E+02  0.59246019386E+01  0.59992720870E+02  0.00000000000E+00 0.  1.
         11    1    4    4    0    0 -0.23722923256E+02  0.77139770182E+01 -0.33609853721E+02  0.41855761807E+02  0.00000000000E+00 0. -1.
</event>
<event>
 8    1  0.6787197E-009  0.9736708E+02  0.7561462E-02  0.1285932E+00
         -1   -1    0    0    0  501 -0.00000000000E+00  0.00000000000E+00  0.31874425120E+03  0.31874425120E+03  0.00000000000E+00 0.  1.
          1   -1    0    0  501    0  0.00000000000E+00 -0.00000000000E+00 -0.39231093173E+02  0.39231093173E+02  0.00000000000E+00 0. -1.
         25    2    1    2    0    0  0.19292157433E+02  0.15241645858E+02  0.20436126022E+03  0.24086689166E+03  0.12509532250E+03 0.  0.
         23    2    1    2    0    0 -0.19292157433E+02 -0.15241645858E+02  0.75151897799E+02  0.11710845271E+03  0.86383371351E+02 0.  0.
          5    1    3    3  502    0  0.60985761911E+02 -0.62164409626E+01  0.17478324526E+03  0.18526889248E+03  0.41800000000E+01 0.  1.
         -5    1    3    3    0  502 -0.41693604478E+02  0.21458086820E+02  0.29578014960E+02  0.55597999184E+02  0.41800000000E+01 0.  1.
        -11    1    4    4    0    0  0.45609906883E+01  0.32513425016E+02  0.13343776492E+02  0.35439833710E+02  0.00000000000E+00 0. -1.
         11    1    4    4    0    0 -0.23853148122E+02 -0.47755070874E+02  0.61808121308E+02  0.81668618998E+02  0.00000000000E+00 0.  1.
</event>
<event>
 8    1  0.6787197E-009  0.1556748E+03  0.7561462E-02  0.1193668E+00
          1   -1    0    0  501    0  0.00000000000E+00  0.00000000000E+00  0.57905028227E+03  0.57905028227E+03  0.00000000000E+00 0. -1.
         -1   -1    0    0    0  501 -0.00000000000E+00 -0.00000000000E+00 -0.62375518493E+02  0.62375518493E+02  0.00000000000E+00 0.  1.
         25    2    1    2    0    0 -0.13688253413E+02 -0.12960373730E+03  0.12825187146E+03  0.22154065813E+03  0.12508886309E+03 0.  0.
         23    2    1    2    0    0  0.13688253413E+02  0.12960373730E+03  0.38842289232E+03  0.41988514263E+03  0.91905890572E+02 0.  0.
          5    1    3    3  502    0 -0.30010962293E+02  0.15471341913E+02  0.31382248962E+02  0.46285399731E+02  0.41800000000E+01 0. -1.
         -5    1    3    3    0  502  0.16322708880E+02 -0.14507507921E+03  0.96869622495E+02  0.17525525840E+03  0.41800000000E+01 0. -1.
        -11    1    4    4    0    0  0.14102181017E+02  0.58620387858E+02  0.64566248081E+02  0.88340374537E+02  0.00000000000E+00 0.  1.
         11    1    4    4    0    0 -0.41392760438E+00  0.70983349443E+02  0.32385664424E+03  0.33154476810E+03  0.00000000000E+00 0. -1.
</event>
<event>
 8    1  0.6787197E-009  0.1376474E+03  0.7561462E-02  0.1216530E+00
          1   -1    0    0  501    0  0.00000000000E+00  0.00000000000E+00  0.85122366528E+03  0.85122366528E+03  0.00000000000E+00 0. -1.
         -1   -1    0    0    0  501 -0.00000000000E+00 -0.00000000000E+00 -0.41547414809E+02  0.41547414809E+02  0.00000000000E+00 0.  1.
         25    2    1    2    0    0  0.98658834702E+00  0.13197860240E+03  0.60687126235E+03  0.63352962189E+03  0.12509087858E+03 0.  0.
         23    2    1    2    0    0 -0.98658834702E+00 -0.13197860240E+03  0.20280498813E+03  0.25924145820E+03  0.93042708432E+02 0.  0.
          5    1    3    3  502    0 -0.13510330055E+02  0.12025711441E+03  0.26759239251E+03  0.29371323347E+03  0.41800000000E+01 0.  1.
         -5    1    3    3    0  502  0.14496918402E+02  0.11721487989E+02  0.33927886984E+03  0.33981638842E+03  0.41800000000E+01 0.  1.
        -11    1    4    4    0    0 -0.14931547980E+02 -0.70217899309E+02  0.34953171466E+02  0.79845029301E+02  0.00000000000E+00 0.  1.
         11    1    4    4    0    0  0.13944959633E+02 -0.61760703092E+02  0.16785181666E+03  0.17939642890E+03  0.00000000000E+00 0. -1.
</event>
<event>
 8    1  0.6787197E-009  0.8240032E+02  0.7561462E-02  0.1322374E+00
         -3   -1    0    0    0  501 -0.00000000000E+00  0.00000000000E+00  0.25515612829E+03  0.25515612829E+03  0.00000000000E+00 0.  1.
          3   -1    0    0  501    0  0.00000000000E+00 -0.00000000000E+00 -0.79576088874E+02  0.79576088874E+02  0.00000000000E+00 0. -1.
         25    2    1    2    0    0  0.34627809165E+02  0.56148824885E+02  0.20636118900E+02  0.14291631529E+03  0.12508976005E+03 0.  0.
         23    2    1    2    0    0 -0.34627809165E+02 -0.56148824885E+02  0.15494392052E+03  0.19181590188E+03  0.91836517810E+02 0.  0.
          5    1    3    3  502    0  0.53283672463E+02  0.45079002582E+02 -0.38478798554E+02  0.79808248716E+02  0.41800000000E+01 0.  1.
         -5    1    3    3    0  502 -0.18655863298E+02  0.11069822302E+02  0.59114917454E+02  0.63108066575E+02  0.41800000000E+01 0.  1.
        -11    1    4    4    0    0 -0.49846595613E+01 -0.37364396313E+02  0.15199376574E+03  0.15659837089E+03  0.00000000000E+00 0.  1.
         11    1    4    4    0    0 -0.29643149604E+02 -0.18784428572E+02  0.29501547772E+01  0.35217530981E+02  0.00000000000E+00 0. -1.
</event>
<event>
 8    1  0.6787197E-009  0.1495784E+03  0.7561462E-02  0.1200992E+00
         -2   -1    0    0    0  501 -0.00000000000E+00  0.00000000000E+00  0.10438095683E+03  0.10438095683E+03  0.00000000000E+00 0.  1.
          2   -1    0    0  501    0  0.00000000000E+00 -0.00000000000E+00 -0.26417941376E+03  0.26417941376E+03  0.00000000000E+00 0. -1.
         25    2    1    2    0    0 -0.89091941866E+02  0.88416633794E+02 -0.87039518300E+02  0.19741885931E+03  0.12507379034E+03 0.  0.
         23    2    1    2    0    0  0.89091941866E+02 -0.88416633794E+02 -0.72758938624E+02  0.17114151127E+03  0.90778182919E+02 0.  0.
          5    1    3    3  502    0 -0.39233601959E+02  0.92483528715E+02 -0.10378273738E+03  0.14450192934E+03  0.41800000000E+01 0.  1.
         -5    1    3    3    0  502 -0.49858339908E+02 -0.40668949210E+01  0.16743219076E+02  0.52916929972E+02  0.41800000000E+01 0.  1.
        -11    1    4    4    0    0  0.15909901038E+02 -0.71566337589E+02 -0.60494499360E+02  0.95049724249E+02  0.00000000000E+00 0.  1.
         11    1    4    4    0    0  0.73182040829E+02 -0.16850296204E+02 -0.12264439265E+02  0.76091787024E+02  0.00000000000E+00 0. -1.
</event>
<event>
 8    1  0.6787197E-009  0.1039949E+03  0.7561462E-02  0.1272113E+00
         -1   -1    0    0    0  501 -0.00000000000E+00  0.00000000000E+00  0.14000754390E+02  0.14000754390E+02  0.00000000000E+00 0.  1.
          1   -1    0    0  501    0  0.00000000000E+00 -0.00000000000E+00 -0.16524376700E+04  0.16524376700E+04  0.00000000000E+00 0. -1.
         25    2    1    2    0    0  0.75600035672E+01 -0.63565766321E+02 -0.13478154369E+04  0.13551208048E+04  0.12509269902E+03 0.  0.
         23    2    1    2    0    0 -0.75600035672E+01  0.63565766321E+02 -0.29062147868E+03  0.31131761956E+03  0.91433342261E+02 0.  0.
          5    1    3    3  502    0  0.17600007031E+02  0.12423392253E+02 -0.93326818659E+03  0.93352615466E+03  0.41800000000E+01 0.  1.
         -5    1    3    3    0  502 -0.10040003464E+02 -0.75989158573E+02 -0.41454725032E+03  0.42159465015E+03  0.41800000000E+01 0.  1.
        -11    1    4    4    0    0 -0.23474032155E+02  0.81787149783E+02 -0.19640300690E+03  0.21404277417E+03  0.00000000000E+00 0.  1.
         11    1    4    4    0    0  0.15914028588E+02 -0.18221383462E+02 -0.94218471780E+02  0.97274845391E+02  0.00000000000E+00 0. -1.
</event>
<event>
 8    1  0.6787197E-009  0.8932295E+02  0.7561462E-02  0.1304500E+00
         -2   -1    0    0    0  501 -0.00000000000E+00  0.00000000000E+00  0.91978671164E+02  0.91978671164E+02  0.00000000000E+00 0.  1.
          2   -1    0    0  501    0  0.00000000000E+00 -0.00000000000E+00 -0.19895199689E+03  0.19895199689E+03  0.00000000000E+00 0. -1.
         25    2    1    2    0    0 -0.54470745457E+02  0.57127851425E+01  0.45339228136E+01  0.13663012538E+03  0.12509011424E+03 0.  0.
         23    2    1    2    0    0  0.54470745457E+02 -0.57127851425E+01 -0.11150724854E+03  0.15430054268E+03  0.91515534031E+02 0.  0.
          5    1    3    3  502    0 -0.51630855790E+02 -0.47456040668E+02 -0.26237490241E+02  0.74991328563E+02  0.41800000000E+01 0.  1.
         -5    1    3    3    0  502 -0.28398896668E+01  0.53168825811E+02  0.30771413054E+02  0.61638796815E+02  0.41800000000E+01 0.  1.
        -11    1    4    4    0    0  0.28359766117E+02 -0.54208725121E+01  0.95866995236E+01  0.30423132659E+02  0.00000000000E+00 0.  1.
         11    1    4    4    0    0  0.26110979340E+02 -0.29191263031E+00 -0.12109394807E+03  0.12387741002E+03  0.00000000000E+00 0. -1.
</event>
<event>
 8    1  0.6787197E-009  0.7296423E+02  0.7561462E-02  0.1350294E+00
         -2   -1    0    0    0  501 -0.00000000000E+00  0.00000000000E+00  0.18117720225E+03  0.18117720225E+03  0.00000000000E+00 0. -1.
          2   -1    0    0  501    0  0.00000000000E+00 -0.00000000000E+00 -0.83033889072E+02  0.83033889072E+02  0.00000000000E+00 0.  1.
         25    2    1    2    0    0 -0.33824337239E+02  0.43115755588E+02  0.71307565626E+02  0.15406198852E+03  0.12508906115E+03 0.  0.
         23    2    1    2    0    0  0.33824337239E+02 -0.43115755588E+02  0.26835747549E+02  0.11014910280E+03  0.91703943930E+02 0.  0.
          5    1    3    3  502    0 -0.32176604610E+02  0.25119990739E+02 -0.30151860123E+02  0.50921065266E+02  0.41800000000E+01 0. -1.
         -5    1    3    3    0  502 -0.16477326287E+01  0.17995764848E+02  0.10145942575E+03  0.10314092325E+03  0.41800000000E+01 0. -1.
        -11    1    4    4    0    0 -0.52444445720E+01  0.15241274941E+02  0.35887107646E+02  0.39340629836E+02  0.00000000000E+00 0. -1.
         11    1    4    4    0    0  0.39068781811E+02 -0.58357030529E+02 -0.90513600973E+01  0.70808472967E+02  0.00000000000E+00 0.  1.
</event>
<event>
 8    1  0.6787197E-009  0.1598084E+03  0.7561462E-02  0.1188913E+00
         -2   -1    0    0    0  501 -0.00000000000E+00  0.00000000000E+00  0.68766911459E+02  0.68766911459E+02  0.00000000000E+00 0.  1.
          2   -1    0    0  501    0  0.00000000000E+00 -0.00000000000E+00 -0.50604559228E+03  0.50604559228E+03  0.00000000000E+00 0. -1.
         25    2    1    2    0    0  0.62471312253E+02 -0.11082239407E+03 -0.35524054265E+03  0.39752643231E+03  0.12508858208E+03 0.  0.
         23    2    1    2    0    0 -0.62471312253E+02  0.11082239407E+03 -0.82038138176E+02  0.17728607143E+03  0.92281239283E+02 0.  0.
          5    1    3    3  502    0  0.94309944787E+02 -0.11040171648E+03 -0.27304196877E+03  0.30927705023E+03  0.41800000000E+01 0. -1.
         -5    1    3    3    0  502 -0.31838632534E+02 -0.42067758901E+00 -0.82198573879E+02  0.88249382088E+02  0.41800000000E+01 0. -1.
        -11    1    4    4    0    0 -0.36823960528E+02  0.11062654895E+03 -0.31757900935E+02  0.12084205259E+03  0.00000000000E+00 0.  1.
         11    1    4    4    0    0 -0.25647351725E+02  0.19584512428E+00 -0.50280237241E+02  0.56444018840E+02  0.00000000000E+00 0. -1.
</event>
<event>
 8    1  0.6787197E-009  0.4050242E+03  0.7561462E-02  0.1042054E+00
         -2   -1    0    0    0  501 -0.00000000000E+00  0.00000000000E+00  0.65536892583E+03  0.65536892583E+03  0.00000000000E+00 0.  1.
          2   -1    0    0  501    0  0.00000000000E+00 -0.00000000000E+00 -0.37476818253E+03  0.37476818253E+03  0.00000000000E+00 0. -1.
         25    2    1    2    0    0  0.33611910044E+03  0.21375924003E+03  0.42533685589E+03  0.59601002133E+03  0.12508973648E+03 0.  0.
         23    2    1    2    0    0 -0.33611910044E+03 -0.21375924003E+03 -0.14473611259E+03  0.43412708703E+03  0.94067651326E+02 0.  0.
          5    1    3    3  502    0  0.75482454652E+01 -0.10464650575E+02  0.39739139519E+02  0.41989957502E+02  0.41800000000E+01 0. -1.
         -5    1    3    3    0  502  0.32857085498E+03  0.22422389060E+03  0.38559771637E+03  0.55402006383E+03  0.41800000000E+01 0. -1.
        -11    1    4    4    0    0 -0.27475806443E+03 -0.18214089885E+03 -0.15512275814E+03  0.36432179607E+03  0.00000000000E+00 0.  1.
         11    1    4    4    0    0 -0.61361036016E+02 -0.31618341178E+02  0.10386645549E+02  0.69805290957E+02  0.00000000000E+00 0. -1.
</event>
<event>
 8    1  0.6787197E-009  0.1049209E+03  0.7561462E-02  0.1270276E+00
         -1   -1    0    0    0  501 -0.00000000000E+00  0.00000000000E+00  0.79686118617E+02  0.79686118617E+02  0.00000000000E+00 0.  1.
          1   -1    0    0  501    0  0.00000000000E+00 -0.00000000000E+00 -0.32582273020E+03  0.32582273020E+03  0.00000000000E+00 0. -1.
         25    2    1    2    0    0  0.39042129500E+02  0.11122526613E+01  0.96397116631E+01  0.13140336222E+03  0.12509354332E+03 0.  0.
         23    2    1    2    0    0 -0.39042129500E+02 -0.11122526613E+01 -0.25577632325E+03  0.27410548659E+03  0.90480745277E+02 0.  0.
          5    1    3    3  502    0  0.75747809502E+02  0.13046990620E+02 -0.23367684177E+02  0.80445482610E+02  0.41800000000E+01 0.  1.
         -5    1    3    3    0  502 -0.36705680002E+02 -0.11934737959E+02  0.33007395840E+02  0.50957879613E+02  0.41800000000E+01 0.  1.
        -11    1    4    4    0    0 -0.55640399456E+02  0.26652316992E+02 -0.20335021409E+03  0.21250296379E+03  0.00000000000E+00 0. -1.
         11    1    4    4    0    0  0.16598269957E+02 -0.27764569653E+02 -0.52426109159E+02  0.61602522799E+02  0.00000000000E+00 0.  1.
</event>
<event>
 8    1  0.6787197E-009  0.9999458E+02  0.7561462E-02  0.1280307E+00
          1   -1    0    0  501    0  0.00000000000E+00  0.00000000000E+00  0.36801882627E+03  0.36801882627E+03  0.00000000000E+00 0.  1.
         -1   -1    0    0    0  501 -0.00000000000E+00 -0.00000000000E+00 -0.39592387459E+02  0.39592387459E+02  0.00000000000E+00 0. -1.
         25    2    1    2    0    0  0.46139216921E+02 -0.12836117717E+02  0.14582717932E+03  0.19801188161E+03  0.12509814457E+03 0.  0.
         23    2    1    2    0    0 -0.46139216921E+02  0.12836117717E+02  0.18259925949E+03  0.20959933211E+03  0.91081267014E+02 0.  0.
          5    1    3    3  502    0  0.59777270976E+02 -0.56988543327E+02  0.11738546601E+03  0.14358912294E+03  0.41800000000E+01 0.  1.
         -5    1    3    3    0  502 -0.13638054055E+02  0.44152425610E+02  0.28441713312E+02  0.54422758675E+02  0.41800000000E+01 0.  1.
        -11    1    4    4    0    0 -0.41363044899E+02 -0.13976003597E+02  0.26352647619E+02  0.50996982229E+02  0.00000000000E+00 0. -1.
         11    1    4    4    0    0 -0.47761720212E+01  0.26812121314E+02  0.15624661187E+03  0.15860234988E+03  0.00000000000E+00 0.  1.
</event>
<event>
 8    1  0.6787197E-009  0.1116057E+03  0.7561462E-02  0.1257625E+00
         -2   -1    0    0    0  501 -0.00000000000E+00  0.00000000000E+00  0.79033112840E+02  0.79033112840E+02  0.00000000000E+00 0.  1.
          2   -1    0    0  501    0  0.00000000000E+00 -0.00000000000E+00 -0.27353693984E+03  0.27353693984E+03  0.00000000000E+00 0. -1.
         25    2    1    2    0    0  0.53997379978E+02  0.59838925297E+02 -0.17354544190E+03  0.22860990884E+03  0.12509218997E+03 0.  0.
         23    2    1    2    0    0 -0.53997379978E+02 -0.59838925297E+02 -0.20958385096E+02  0.12396014383E+03  0.91817478335E+02 0.  0.
          5    1    3    3  502    0  0.88810503424E+02  0.60163715878E+02 -0.98141566425E+02  0.14545177100E+03  0.41800000000E+01 0. -1.
         -5    1    3    3    0  502 -0.34813123446E+02 -0.32479058047E+00 -0.75403875475E+02  0.83158137844E+02  0.41800000000E+01 0. -1.
        -11    1    4    4    0    0 -0.34131673305E+02 -0.33719262225E+02 -0.57472405518E+02  0.74866796136E+02  0.00000000000E+00 0. -1.
         11    1    4    4    0    0 -0.19865706674E+02 -0.26119663072E+02  0.36514020422E+02  0.49093347696E+02  0.00000000000E+00 0.  1.
</event>
<event>
 8    1  0.6787197E-009  0.1306268E+03  0.7561462E-02  0.1226529E+00
          1   -1    0    0  501    0  0.00000000000E+00  0.00000000000E+00  0.18793908460E+03  0.18793908460E+03  0.00000000000E+00 0. -1.
         -1   -1    0    0    0  501 -0.00000000000E+00 -0.00000000000E+00 -0.96466960643E+02  0.96466960643E+02  0.00000000000E+00 0.  1.
         25    2    1    2    0    0 -0.60456530632E+02  0.55205773833E+02  0.71263785611E+02  0.16561650069E+03  0.12509048166E+03 0.  0.
         23    2    1    2    0    0  0.60456530632E+02 -0.55205773833E+02  0.20208338343E+02  0.11878954455E+03  0.83665461183E+02 0.  0.
          5    1    3    3  502    0 -0.93316198451E+02  0.65645394870E+02  0.60767614904E+02  0.12933447407E+03  0.41800000000E+01 0. -1.
         -5    1    3    3    0  502  0.32859667818E+02 -0.10439621037E+02  0.10496170707E+02  0.36282026625E+02  0.41800000000E+01 0. -1.
        -11    1    4    4    0    0 -0.91300912441E+01 -0.40125873880E+02  0.23725331650E+02  0.47500901914E+02  0.00000000000E+00 0. -1.
         11    1    4    4    0    0  0.69586621876E+02 -0.15079899953E+02 -0.35169933067E+01  0.71288642635E+02  0.00000000000E+00 0.  1.
</event>
<event>
 8    1  0.6787197E-009  0.9477810E+02  0.7561462E-02  0.1291677E+00
         -2   -1    0    0    0  501 -0.00000000000E+00  0.00000000000E+00  0.37546018198E+03  0.37546018198E+03  0.00000000000E+00 0.  1.
          2   -1    0    0  501    0  0.00000000000E+00 -0.00000000000E+00 -0.61056995403E+02  0.61056995403E+02  0.00000000000E+00 0. -1.
         25    2    1    2    0    0  0.69344083925E+02 -0.30583189550E+02  0.68009342041E+02  0.16129380970E+03  0.12508592640E+03 0.  0.
         23    2    1    2    0    0 -0.69344083925E+02  0.30583189550E+02  0.24639384453E+03  0.27522336768E+03  0.96405612055E+02 0.  0.
          5    1    3    3  502    0  0.42363946745E+01  0.53340032738E+01  0.84613668657E+02  0.84990257996E+02  0.41800000000E+01 0. -1.
         -5    1    3    3    0  502  0.65107689251E+02 -0.35917192824E+02 -0.16604326615E+02  0.76303551702E+02  0.41800000000E+01 0. -1.
        -11    1    4    4    0    0 -0.60249542741E+02 -0.13778463406E+02  0.20412767953E+03  0.21327907306E+03  0.00000000000E+00 0.  1.
         11    1    4    4    0    0 -0.90945411846E+01  0.44361652956E+02  0.42266165004E+02  0.61944294624E+02  0.00000000000E+00 0. -1.
</event>
<event>
 8    1  0.6787197E-009  0.9870352E+02  0.7561462E-02  0.1283046E+00
          1   -1    0    0  501    0  0.00000000000E+00  0.00000000000E+00  0.17172097395E+02  0.17172097395E+02  0.00000000000E+00 0. -1.
         -1   -1    0    0    0  501 -0.00000000000E+00 -0.00000000000E+00 -0.10579693139E+04  0.10579693139E+04  0.00000000000E+00 0.  1.
         25    2    1    2    0    0  0.19628465372E+02  0.51572910567E+02 -0.79388579751E+03  0.80557313326E+03  0.12509345220E+03 0.  0.
         23    2    1    2    0    0 -0.19628465372E+02 -0.51572910567E+02 -0.24691141900E+03  0.26956827804E+03  0.93041742977E+02 0.  0.
          5    1    3    3  502    0  0.45676552004E+02  0.64563464463E+02 -0.73965323266E+03  0.74388115001E+03  0.41800000000E+01 0.  1.
         -5    1    3    3    0  502 -0.26048086632E+02 -0.12990553896E+02 -0.54232564849E+02  0.61691983254E+02  0.41800000000E+01 0.  1.
        -11    1    4    4    0    0 -0.41456483826E+02 -0.52573368519E+02 -0.23566892169E+03  0.24499477500E+03  0.00000000000E+00 0.  1.
         11    1    4    4    0    0  0.21828018454E+02  0.10004579511E+01 -0.11242497310E+02  0.24573503037E+02  0.00000000000E+00 0. -1.
</event>
<event>
 8    1  0.6787197E-009  0.1719524E+03  0.7561462E-02  0.1175827E+00
         -2   -1    0    0    0  501 -0.00000000000E+00  0.00000000000E+00  0.43930999053E+02  0.43930999053E+02  0.00000000000E+00 0.  1.
          2   -1    0    0  501    0  0.00000000000E+00 -0.00000000000E+00 -0.93950124629E+03  0.93950124629E+03  0.00000000000E+00 0. -1.
         25    2    1    2    0    0  0.59150629535E+02 -0.15681741598E+03 -0.38882209821E+03  0.44149792828E+03  0.12508915896E+03 0.  0.
         23    2    1    2    0    0 -0.59150629535E+02  0.15681741598E+03 -0.50674814903E+03  0.54193431707E+03  0.93854240929E+02 0.  0.
          5    1    3    3  502    0  0.47536511728E+02 -0.13678699962E+03 -0.17862729896E+03  0.22999040751E+03  0.41800000000E+01 0. -1.
         -5    1    3    3    0  502  0.11614117806E+02 -0.20030416360E+02 -0.21019479924E+03  0.21150752076E+03  0.41800000000E+01 0. -1.
        -11    1    4    4    0    0  0.47569577930E+01  0.55580179228E+02 -0.28018788201E+03  0.28568695139E+03  0.00000000000E+00 0. -1.
         11    1    4    4    0    0 -0.63907587328E+02  0.10123723675E+03 -0.22656026702E+03  0.25624736567E+03  0.00000000000E+00 0.  1.
</event>
<event>
 8    1  0.6787197E-009  0.9378830E+02  0.7561462E-02  0.1293929E+00
         -1   -1    0    0    0  501 -0.00000000000E+00  0.00000000000E+00  0.68781968967E+03  0.68781968967E+03  0.00000000000E+00 0.  1.
          1   -1    0    0  501    0  0.00000000000E+00 -0.00000000000E+00 -0.21651396063E+02  0.21651396063E+02  0.00000000000E+00 0. -1.
         25    2    1    2    0    0 -0.54298451350E+02  0.11720234535E+02  0.37626775573E+03  0.40038812622E+03  0.12509013510E+03 0.  0.
         23    2    1    2    0    0  0.54298451350E+02 -0.11720234535E+02  0.28990053788E+03  0.30908295952E+03  0.91674796337E+02 0.  0.
          5    1    3    3  502    0 -0.34968952043E+02 -0.31749584854E+02  0.43937370386E+02  0.64643860202E+02  0.41800000000E+01 0. -1.
         -5    1    3    3    0  502 -0.19329499307E+02  0.43469819390E+02  0.33233038534E+03  0.33574426601E+03  0.41800000000E+01 0. -1.
        -11    1    4    4    0    0  0.40832447094E+02  0.28627122729E+02  0.75353381775E+02  0.90360019014E+02  0.00000000000E+00 0. -1.
         11    1    4    4    0    0  0.13466004256E+02 -0.40347357264E+02  0.21454715611E+03  0.21872294050E+03  0.00000000000E+00 0.  1.
</event>
<event>
 8    1  0.6787197E-009  0.7811058E+02  0.7561462E-02  0.1334500E+00
         -1   -1    0    0    0  501 -0.00000000000E+00  0.00000000000E+00  0.25236460290E+03  0.25236460290E+03  0.00000000000E+00 0.  1.
          1   -1    0    0  501    0  0.00000000000E+00 -0.00000000000E+00 -0.67252995975E+02  0.67252995975E+02  0.00000000000E+00 0. -1.
         25    2    1    2    0    0 -0.60575636599E+02  0.34210186789E+00  0.54196746364E+02  0.14917894259E+03  0.12509014674E+03 0.  0.
         23    2    1    2    0    0  0.60575636599E+02 -0.34210186789E+00  0.13091486056E+03  0.17043865629E+03  0.90780559919E+02 0.  0.
          5    1    3    3  502    0  0.15920568305E+00  0.24964951635E+02  0.75904986518E+02  0.80014458287E+02  0.41800000000E+01 0.  1.
         -5    1    3    3    0  502 -0.60734842282E+02 -0.24622849767E+02 -0.21708240154E+02  0.69164484299E+02  0.41800000000E+01 0.  1.
        -11    1    4    4    0    0  0.18129683051E+02 -0.11348940093E+02 -0.94503160466E+01  0.23383590874E+02  0.00000000000E+00 0. -1.
         11    1    4    4    0    0  0.42445953548E+02  0.11006838225E+02  0.14036517661E+03  0.14705506542E+03  0.00000000000E+00 0.  1.
</event>
<event>
 8    1  0.6787197E-009  0.8480515E+02  0.7561462E-02  0.1315943E+00
          2   -1    0    0  501    0  0.00000000000E+00  0.00000000000E+00  0.31968010015E+03  0.31968010015E+03  0.00000000000E+00 0. -1.
         -2   -1    0    0    0  501 -0.00000000000E+00 -0.00000000000E+00 -0.44781025451E+02  0.44781025451E+02  0.00000000000E+00 0.  1.
         25    2    1    2    0    0  0.25826462720E+02  0.40765396192E+02  0.18185185890E+03  0.22593439913E+03  0.12508968951E+03 0.  0.
         23    2    1    2    0    0 -0.25826462720E+02 -0.40765396192E+02  0.93047215804E+02  0.13852672647E+03  0.90570667852E+02 0.  0.
          5    1    3    3  502    0  0.11140458333E+02  0.67454442615E+02  0.18275864229E+03  0.19517275776E+03  0.41800000000E+01 0. -1.
         -5    1    3    3    0  502  0.14686004387E+02 -0.26689046423E+02 -0.90678338949E+00  0.30761641372E+02  0.41800000000E+01 0. -1.
        -11    1    4    4    0    0  0.81630256725E+01 -0.34940221625E+02 -0.34558690111E+01  0.36047151149E+02  0.00000000000E+00 0.  1.
         11    1    4    4    0    0 -0.33989488393E+02 -0.58251745677E+01  0.96503084815E+02  0.10247957532E+03  0.00000000000E+00 0. -1.
</event>
<event>
 8    1  0.6787197E-009  0.1680285E+03  0.7561462E-02  0.1179920E+00
         -2   -1    0    0    0  501 -0.00000000000E+00  0.00000000000E+00  0.62591525071E+02  0.62591525071E+02  0.00000000000E+00 0.  1.
          2   -1    0    0  501    0  0.00000000000E+00 -0.00000000000E+00 -0.67305655860E+03  0.67305655860E+03  0.00000000000E+00 0. -1.
         25    2    1    2    0    0  0.90764371369E+01  0.13107643396E+03 -0.52258956842E+03  0.55318182365E+03  0.12508740839E+03 0.  0.
         23    2    1    2    0    0 -0.90764371369E+01 -0.13107643396E+03 -0.87875465108E+02  0.18246626003E+03  0.91150564613E+02 0.  0.
          5    1    3    3  502    0  0.37739682440E+02 -0.73751885599E+01 -0.14137312392E+03  0.14656912910E+03  0.41800000000E+01 0.  1.
         -5    1    3    3    0  502 -0.28663245304E+02  0.13845162252E+03 -0.38121644450E+03  0.40661269455E+03  0.41800000000E+01 0.  1.
        -11    1    4    4    0    0 -0.38868139237E+02 -0.26131008722E+02 -0.86161197941E+01  0.47621417292E+02  0.00000000000E+00 0.  1.
         11    1    4    4    0    0  0.29791702100E+02 -0.10494542524E+03 -0.79259345314E+02  0.13484484274E+03  0.00000000000E+00 0. -1.
</event>
<event>
 8    1  0.6787197E-009  0.1295800E+03  0.7561462E-02  0.1228080E+00
         -1   -1    0    0    0  501 -0.00000000000E+00  0.00000000000E+00  0.44777725582E+03  0.44777725582E+03  0.00000000000E+00 0.  1.
          1   -1    0    0  501    0  0.00000000000E+00 -0.00000000000E+00 -0.45897660669E+02  0.45897660669E+02  0.00000000000E+00 0. -1.
         25    2    1    2    0    0 -0.89247835284E+02  0.13398271459E+02  0.26673007528E+03  0.30811992646E+03  0.12509303036E+03 0.  0.
         23    2    1    2    0    0  0.89247835284E+02 -0.13398271459E+02  0.13514951987E+03  0.18555499002E+03  0.89557645237E+02 0.  0.
          5    1    3    3  502    0  0.21859712090E+02  0.20417505783E+02  0.12083574792E+03  0.12455308880E+03  0.41800000000E+01 0. -1.
         -5    1    3    3    0  502 -0.11110754737E+03 -0.70192343242E+01  0.14589432736E+03  0.18356683766E+03  0.41800000000E+01 0. -1.
        -11    1    4    4    0    0 -0.42949628750E+01 -0.23108680537E+02  0.62325051867E+02  0.66609833452E+02  0.00000000000E+00 0.  1.
         11    1    4    4    0    0  0.93542798159E+02  0.97104090783E+01  0.72824468005E+02  0.11894515657E+03  0.00000000000E+00 0. -1.
</event>
<event>
 8    1  0.6787197E-009  0.3407443E+03  0.7561462E-02  0.1066479E+00
         -2   -1    0    0    0  501 -0.00000000000E+00  0.00000000000E+00  0.16594643031E+03  0.16594643031E+03  0.00000000000E+00 0.  1.
          2   -1    0    0  501    0  0.00000000000E+00 -0.00000000000E+00 -0.77162052991E+03  0.77162052991E+03  0.00000000000E+00 0. -1.
         25    2    1    2    0    0  0.30234252239E+03 -0.15614526323E+03 -0.28558315694E+03  0.46151599452E+03  0.12508768763E+03 0.  0.
         23    2    1    2    0    0 -0.30234252239E+03  0.15614526323E+03 -0.32009094266E+03  0.47605096569E+03  0.91509378174E+02 0.  0.
          5    1    3    3  502    0  0.28898101578E+03 -0.14775277422E+03 -0.21563397470E+03  0.38968755846E+03  0.41800000000E+01 0.  1.
         -5    1    3    3    0  502  0.13361506603E+02 -0.83924890044E+01 -0.69949182243E+02  0.71828436061E+02  0.41800000000E+01 0.  1.
        -11    1    4    4    0    0 -0.15165643159E+03  0.70371009263E+02 -0.21838636262E+03  0.27503518968E+03  0.00000000000E+00 0.  1.
         11    1    4    4    0    0 -0.15068609080E+03  0.85774253964E+02 -0.10170458004E+03  0.20101577601E+03  0.00000000000E+00 0. -1.
</event>
<event>
 8    1  0.6787197E-009  0.8139969E+02  0.7561462E-02  0.1325126E+00
         -2   -1    0    0    0  501 -0.00000000000E+00  0.00000000000E+00  0.16747228274E+02  0.16747228274E+02  0.00000000000E+00 0.  1.
          2   -1    0    0  501    0  0.00000000000E+00 -0.00000000000E+00 -0.72660036738E+03  0.72660036738E+03  0.00000000000E+00 0. -1.
         25    2    1    2    0    0 -0.10563045632E+02 -0.75242781369E+01 -0.46856333710E+03  0.48514775354E+03  0.12509416130E+03 0.  0.
         23    2    1    2    0    0  0.10563045632E+02  0.75242781369E+01 -0.24128980200E+03  0.25819984211E+03  0.90984598825E+02 0.  0.
          5    1    3    3  502    0 -0.39771202825E+02 -0.19329433127E+02 -0.44055140755E+03  0.44278481303E+03  0.41800000000E+01 0. -1.
         -5    1    3    3    0  502  0.29208157193E+02  0.11805154990E+02 -0.28011929554E+02  0.42362940506E+02  0.41800000000E+01 0. -1.
        -11    1    4    4    0    0  0.80915927307E+00  0.46458470042E+02 -0.85362693388E+02  0.97189678464E+02  0.00000000000E+00 0.  1.
         11    1    4    4    0    0  0.97538863588E+01 -0.38934191905E+02 -0.15592710861E+03  0.16101016365E+03  0.00000000000E+00 0. -1.
</event>
<event>
 8    1  0.6787197E-009  0.1279554E+03  0.7561462E-02  0.1230521E+00
         -2   -1    0    0    0  501 -0.00000000000E+00  0.00000000000E+00  0.12777893527E+02  0.12777893527E+02  0.00000000000E+00 0.  1.
          2   -1    0    0  501    0  0.00000000000E+00 -0.00000000000E+00 -0.18607789952E+04  0.18607789952E+04  0.00000000000E+00 0. -1.
         25    2    1    2    0    0  0.72176245897E+02  0.72305255272E+02 -0.12526855039E+04  0.12630537504E+04  0.12508534786E+03 0.  0.
         23    2    1    2    0    0 -0.72176245897E+02 -0.72305255272E+02 -0.59531559781E+03  0.61050313838E+03  0.88746608799E+02 0.  0.
          5    1    3    3  502    0 -0.14347432205E+02  0.24099459746E+02 -0.61189467008E+02  0.67440759513E+02  0.41800000000E+01 0. -1.
         -5    1    3    3    0  502  0.86523678101E+02  0.48205795525E+02 -0.11914960369E+04  0.11956129908E+04  0.41800000000E+01 0. -1.
        -11    1    4    4    0    0 -0.57619862463E+02 -0.31031844426E+01 -0.17466553667E+03  0.18395034114E+03  0.00000000000E+00 0.  1.
         11    1    4    4    0    0 -0.14556383434E+02 -0.69202070829E+02 -0.42065006114E+03  0.42655279725E+03  0.00000000000E+00 0. -1.
</event>
<event>
 8    1  0.6787197E-009  0.1571189E+03  0.7561462E-02  0.1191988E+00
          2   -1    0    0  501    0  0.00000000000E+00  0.00000000000E+00  0.43385737075E+03  0.43385737075E+03  0.00000000000E+00 0. -1.
         -2   -1    0    0    0  501 -0.00000000000E+00 -0.00000000000E+00 -0.65192621440E+02  0.65192621440E+02  0.00000000000E+00 0.  1.
         25    2    1    2    0    0  0.38393688233E+02  0.11889997245E+03  0.23074027980E+03  0.29068774771E+03  0.12508801381E+03 0.  0.
         23    2    1    2    0    0 -0.38393688233E+02 -0.11889997245E+03  0.13792446951E+03  0.20836224448E+03  0.93703718675E+02 0.  0.
          5    1    3    3  502    0 -0.38129770131E+02  0.56554206831E+02  0.49880095976E+02  0.84603510891E+02  0.41800000000E+01 0. -1.
         -5    1    3    3    0  502  0.76523458364E+02  0.62345765615E+02  0.18086018383E+03  0.20608423681E+03  0.41800000000E+01 0. -1.
        -11    1    4    4    0    0 -0.58945497170E+02 -0.57443175345E+02  0.11100856392E+03  0.13819258769E+03  0.00000000000E+00 0. -1.
         11    1    4    4    0    0  0.20551808937E+02 -0.61456797101E+02  0.26915905594E+02  0.70169656793E+02  0.00000000000E+00 0.  1.
</event>
<event>
 8    1  0.6787197E-009  0.1171350E+03  0.7561462E-02  0.1247900E+00
         -1   -1    0    0    0  501 -0.00000000000E+00  0.00000000000E+00  0.68442297591E+03  0.68442297591E+03  0.00000000000E+00 0.  1.
          1   -1    0    0  501    0  0.00000000000E+00 -0.00000000000E+00 -0.24962713402E+02  0.24962713402E+02  0.00000000000E+00 0. -1.
         25    2    1    2    0    0  0.55380535727E+02  0.19069588083E+02  0.24657781975E+03  0.28262704349E+03  0.12508705606E+03 0.  0.
         23    2    1    2    0    0 -0.55380535727E+02 -0.19069588083E+02  0.41288244276E+03  0.42675864583E+03  0.90666296475E+02 0.  0.
          5    1    3    3  502    0  0.95774428492E+02  0.91075263056E+01  0.17349206602E+03  0.19842544585E+03  0.41800000000E+01 0.  1.
         -5    1    3    3    0  502 -0.40393892765E+02  0.99620617779E+01  0.73085753725E+02  0.84201597640E+02  0.41800000000E+01 0.  1.
        -11    1    4    4    0    0 -0.48977100450E+02  0.22642984562E+02  0.32283014375E+03  0.32730836046E+03  0.00000000000E+00 0. -1.
         11    1    4    4    0    0 -0.64034352765E+01 -0.41712572645E+02  0.90052299019E+02  0.99450285362E+02  0.00000000000E+00 0.  1.
</event>
<event>
 8    1  0.6787197E-009  0.1136961E+03  0.7561462E-02  0.1253874E+00
          1   -1    0    0  501    0  0.00000000000E+00  0.00000000000E+00  0.33267557957E+03  0.33267557957E+03  0.00000000000E+00 0. -1.
         -1   -1    0    0    0  501 -0.00000000000E+00 -0.00000000000E+00 -0.79031308857E+02  0.79031308857E+02  0.00000000000E+00 0.  1.
         25    2    1    2    0    0 -0.63588859197E+00  0.67803242754E+02  0.26180360757E+03  0.29797008295E+03  0.12508939730E+03 0.  0.
         23    2    1    2    0    0  0.63588859197E+00 -0.67803242754E+02 -0.81593368605E+01  0.11373680547E+03  0.90949447817E+02 0.  0.
          5    1    3    3  502    0  0.42209999801E+02  0.80468794191E+01  0.24804174930E+02  0.49791122157E+02  0.41800000000E+01 0. -1.
         -5    1    3    3    0  502 -0.42845888393E+02  0.59756363335E+02  0.23699943264E+03  0.24817896080E+03  0.41800000000E+01 0. -1.
        -11    1    4    4    0    0  0.89580124306E+01  0.20240739781E+02 -0.12074755638E+02  0.25213751353E+02  0.00000000000E+00 0.  1.
         11    1    4    4    0    0 -0.83221238386E+01 -0.88043982536E+02  0.39154187775E+01  0.88523054117E+02  0.00000000000E+00 0. -1.
</event>
<event>
 8    1  0.6787197E-009  0.1569888E+03  0.7561462E-02  0.1192139E+00
          1   -1    0    0  501    0  0.00000000000E+00  0.00000000000E+00  0.59430277001E+02  0.59430277001E+02  0.00000000000E+00 0. -1.
         -1   -1    0    0    0  501 -0.00000000000E+00 -0.00000000000E+00 -0.67402137633E+03  0.67402137633E+03  0.00000000000E+00 0.  1.
         25    2    1    2    0    0 -0.11832871883E+03 -0.34586444227E+02 -0.53040331008E+03  0.55872446573E+03  0.12508976551E+03 0.  0.
         23    2    1    2    0    0  0.11832871883E+03  0.34586444227E+02 -0.84187789250E+02  0.17472718760E+03  0.90797017603E+02 0.  0.
          5    1    3    3  502    0 -0.10371588831E+03 -0.73509890494E+02 -0.32275322250E+03  0.34691181087E+03  0.41800000000E+01 0. -1.
         -5    1    3    3    0  502 -0.14612830517E+02  0.38923446267E+02 -0.20765008758E+03  0.21181265486E+03  0.41800000000E+01 0. -1.
        -11    1    4    4    0    0  0.14758483129E+02 -0.22370392780E+02 -0.40804424880E+02  0.48818525040E+02  0.00000000000E+00 0.  1.
         11    1    4    4    0    0  0.10357023570E+03  0.56956837007E+02 -0.43383364371E+02  0.12590866256E+03  0.00000000000E+00 0. -1.
</event>
<event>
 8    1  0.6787197E-009  0.9906597E+02  0.7561462E-02  0.1282272E+00
          2   -1    0    0  501    0  0.00000000000E+00  0.00000000000E+00  0.50410000082E+03  0.50410000082E+03  0.00000000000E+00 0. -1.
         -2   -1    0    0    0  501 -0.00000000000E+00 -0.00000000000E+00 -0.22965867082E+02  0.22965867082E+02  0.00000000000E+00 0.  1.
         25    2    1    2    0    0  0.45057322805E+01  0.13439944487E+02  0.23912921973E+03  0.27024356754E+03  0.12509143989E+03 0.  0.
         23    2    1    2    0    0 -0.45057322805E+01 -0.13439944487E+02  0.24200491400E+03  0.25682230036E+03  0.84796119194E+02 0.  0.
          5    1    3    3  502    0  0.37676590639E+02  0.57172882317E+02  0.15746076609E+03  0.17175456097E+03  0.41800000000E+01 0. -1.
         -5    1    3    3    0  502 -0.33170858359E+02 -0.43732937830E+02  0.81668453642E+02  0.98489006573E+02  0.41800000000E+01 0. -1.
        -11    1    4    4    0    0  0.33956309126E+02 -0.68520265612E+00  0.49065022424E+02  0.59673083192E+02  0.00000000000E+00 0.  1.
         11    1    4    4    0    0 -0.38462041407E+02 -0.12754741831E+02  0.19293989158E+03  0.19714921717E+03  0.00000000000E+00 0. -1.
</event>
<event>
 8    1  0.6787197E-009  0.9782809E+02  0.7561462E-02  0.1284931E+00
          2   -1    0    0  501    0  0.00000000000E+00  0.00000000000E+00  0.78067279824E+02  0.78067279824E+02  0.00000000000E+00 0.  1.
         -2   -1    0    0    0  501 -0.00000000000E+00 -0.00000000000E+00 -0.23605201870E+03  0.23605201870E+03  0.00000000000E+00 0. -1.
         25    2    1    2    0    0 -0.74234371609E+02  0.26609390871E+02 -0.94405781244E+02  0.17543622252E+03  0.12508643023E+03 0.  0.
         23    2    1    2    0    0  0.74234371609E+02 -0.26609390871E+02 -0.63578957635E+02  0.13868307601E+03  0.94720167372E+02 0.  0.
          5    1    3    3  502    0 -0.45764564538E+02  0.12731286197E+02  0.23583096402E+02  0.53198833178E+02  0.41800000000E+01 0.  1.
         -5    1    3    3    0  502 -0.28469807071E+02  0.13878104673E+02 -0.11798887765E+03  0.12223738934E+03  0.41800000000E+01 0.  1.
        -11    1    4    4    0    0  0.87189243579E+02 -0.85414349510E+00 -0.66566751895E+02  0.10969879769E+03  0.00000000000E+00 0. -1.
         11    1    4    4    0    0 -0.12954871970E+02 -0.25755247376E+02  0.29877942599E+01  0.28984278319E+02  0.00000000000E+00 0.  1.
</event>
<event>
 8    1  0.6787197E-009  0.1264543E+03  0.7561462E-02  0.1232814E+00
         -2   -1    0    0    0  501 -0.00000000000E+00  0.00000000000E+00  0.32551070500E+03  0.32551070500E+03  0.00000000000E+00 0.  1.
          2   -1    0    0  501    0  0.00000000000E+00 -0.00000000000E+00 -0.65271436978E+02  0.65271436978E+02  0.00000000000E+00 0. -1.
         25    2    1    2    0    0  0.44375267310E+02 -0.78177843452E+02  0.90619808491E+02  0.17871886319E+03  0.12509013876E+03 0.  0.
         23    2    1    2    0    0 -0.44375267310E+02  0.78177843452E+02  0.16961945953E+03  0.21206327878E+03  0.90106235087E+02 0.  0.
          5    1    3    3  502    0 -0.15581445252E+01 -0.88110505263E+02  0.96987619671E+02  0.13111048670E+03  0.41800000000E+01 0. -1.
         -5    1    3    3    0  502  0.45933411835E+02  0.99326618106E+01 -0.63678111800E+01  0.47608376497E+02  0.41800000000E+01 0. -1.
        -11    1    4    4    0    0 -0.17421178790E+02 -0.13440698649E+02  0.63282060019E+01  0.22895327948E+02  0.00000000000E+00 0.  1.
         11    1    4    4    0    0 -0.26954088519E+02  0.91618542101E+02  0.16329125353E+03  0.18916795083E+03  0.00000000000E+00 0. -1.
</event>
<event>
 8    1  0.6787197E-009  0.1138402E+03  0.7561462E-02  0.1253619E+00
         -2   -1    0    0    0  501 -0.00000000000E+00  0.00000000000E+00  0.83154288506E+02  0.83154288506E+02  0.00000000000E+00 0.  1.
          2   -1    0    0  501    0  0.00000000000E+00 -0.00000000000E+00 -0.44252605340E+03  0.44252605340E+03  0.00000000000E+00 0. -1.
         25    2    1    2    0    0  0.48839269135E+02  0.78747698679E+02 -0.13641396057E+02  0.15627160405E+03  0.12509297458E+03 0.  0.
         23    2    1    2    0    0 -0.48839269135E+02 -0.78747698679E+02 -0.34573036883E+03  0.36940873785E+03  0.91361115414E+02 0.  0.
          5    1    3    3  502    0  0.48443542678E+02  0.15378725635E+02  0.46346660172E+02  0.68911300514E+02  0.41800000000E+01 0.  1.
         -5    1    3    3    0  502  0.39572645719E+00  0.63368973045E+02 -0.59988056229E+02  0.87360303538E+02  0.41800000000E+01 0.  1.
        -11    1    4    4    0    0 -0.64870355359E+02 -0.67311626544E+02 -0.33320613400E+03  0.34607130163E+03  0.00000000000E+00 0. -1.
         11    1    4    4    0    0  0.16031086223E+02 -0.11436072136E+02 -0.12524234829E+02  0.23337436222E+02  0.00000000000E+00 0.  1.
</event>
<event>
 8    1  0.6787197E-009  0.1282342E+03  0.7561462E-02  0.1230100E+00
         -3   -1    0    0    0  501 -0.00000000000E+00  0.00000000000E+00  0.60499319333E+02  0.60499319333E+02  0.00000000000E+00 0.  1.
          3   -1    0    0  501    0  0.00000000000E+00 -0.00000000000E+00 -0.31071002965E+03  0.31071002965E+03  0.00000000000E+00 0. -1.
         25    2    1    2    0    0 -0.81886550568E+02  0.11269090320E+01 -0.16209430976E+03  0.22052194022E+03  0.12509469922E+03 0.  0.
         23    2    1    2    0    0  0.81886550568E+02 -0.11269090320E+01 -0.88116400565E+02  0.15068740877E+03  0.90749754965E+02 0.  0.
          5    1    3    3  502    0  0.17592691242E+01  0.42149855164E+02 -0.12425731808E+02  0.44176651403E+02  0.41800000000E+01 0. -1.
         -5    1    3    3    0  502 -0.83645819692E+02 -0.41022946132E+02 -0.14966857795E+03  0.17634528881E+03  0.41800000000E+01 0. -1.
        -11    1    4    4    0    0  0.34052869212E+02 -0.44645360697E+02 -0.29598071453E+02  0.63473238195E+02  0.00000000000E+00 0.  1.
         11    1    4    4    0    0  0.47833681356E+02  0.43518451665E+02 -0.58518329112E+02  0.87214170577E+02  0.00000000000E+00 0. -1.
</event>
<event>
 8    1  0.6787197E-009  0.1267848E+03  0.7561462E-02  0.1232306E+00
          2   -1    0    0  501    0  0.00000000000E+00  0.00000000000E+00  0.27840410218E+03  0.27840410218E+03  0.00000000000E+00 0. -1.
         -2   -1    0    0    0  501 -0.00000000000E+00 -0.00000000000E+00 -0.12219362818E+03  0.12219362818E+03  0.00000000000E+00 0.  1.
         25    2    1    2    0    0 -0.61398350278E+02 -0.49905880268E+02 -0.54379681775E+02  0.15768907711E+03  0.12509332895E+03 0.  0.
         23    2    1    2    0    0  0.61398350278E+02  0.49905880268E+02  0.21059015577E+03  0.24290865326E+03  0.91629939522E+02 0.  0.
          5    1    3    3  502    0 -0.15931469475E+02  0.36202258324E+02  0.98365489967E+01  0.40971274370E+02  0.41800000000E+01 0. -1.
         -5    1    3    3    0  502 -0.45466880803E+02 -0.86108138591E+02 -0.64216230772E+02  0.11671780274E+03  0.41800000000E+01 0. -1.
        -11    1    4    4    0    0 -0.96982454803E+01 -0.16440173918E+02  0.14297552848E+02  0.23848591180E+02  0.00000000000E+00 0.  1.
         11    1    4    4    0    0  0.71096595758E+02  0.66346054185E+02  0.19629260293E+03  0.21906006208E+03  0.00000000000E+00 0. -1.
</event>
<event>
 8    1  0.6787197E-009  0.2065543E+03  0.7561462E-02  0.1144324E+00
          2   -1    0    0  501    0  0.00000000000E+00  0.00000000000E+00  0.37492538982E+03  0.37492538982E+03  0.00000000000E+00 0. -1.
         -2   -1    0    0    0  501 -0.00000000000E+00 -0.00000000000E+00 -0.12718407709E+03  0.12718407709E+03  0.00000000000E+00 0.  1.
         25    2    1    2    0    0  0.32498422328E+02 -0.18910171233E+03  0.13678422907E+03  0.26678367611E+03  0.12509196401E+03 0.  0.
         23    2    1    2    0    0 -0.32498422328E+02  0.18910171233E+03  0.11095708366E+03  0.23532579079E+03  0.79064203893E+02 0.  0.
          5    1    3    3  502    0 -0.28257374621E+02 -0.12101995189E+03  0.12209206793E+03  0.17426489442E+03  0.41800000000E+01 0.  1.
         -5    1    3    3    0  502  0.60755796949E+02 -0.68081760434E+02  0.14692161136E+02  0.92518781691E+02  0.41800000000E+01 0.  1.
        -11    1    4    4    0    0  0.61698360040E+01  0.10119422970E+03  0.20577803505E+02  0.10344943208E+03  0.00000000000E+00 0.  1.
         11    1    4    4    0    0 -0.38668258332E+02  0.87907482626E+02  0.90379280159E+02  0.13187635871E+03  0.00000000000E+00 0. -1.
</event>
<event>
 8    1  0.6787197E-009  0.1240001E+03  0.7561462E-02  0.1236640E+00
         -2   -1    0    0    0  501 -0.00000000000E+00  0.00000000000E+00  0.48965926679E+03  0.48965926679E+03  0.00000000000E+00 0.  1.
          2   -1    0    0  501    0  0.00000000000E+00 -0.00000000000E+00 -0.44390467547E+02  0.44390467547E+02  0.00000000000E+00 0. -1.
         25    2    1    2    0    0  0.90418504298E+02  0.26847458894E+02  0.18859883402E+03  0.24517801850E+03  0.12508576496E+03 0.  0.
         23    2    1    2    0    0 -0.90418504298E+02 -0.26847458894E+02  0.25666996523E+03  0.28887171584E+03  0.93118769281E+02 0.  0.
          5    1    3    3  502    0  0.56253378731E+02 -0.37113531873E+02  0.36807310496E+02  0.76903233825E+02  0.41800000000E+01 0.  1.
         -5    1    3    3    0  502  0.34165125568E+02  0.63960990767E+02  0.15179152352E+03  0.16827478468E+03  0.41800000000E+01 0.  1.
        -11    1    4    4    0    0 -0.83273163019E+02 -0.34125889855E+01  0.24993255966E+03  0.26346223604E+03  0.00000000000E+00 0.  1.
         11    1    4    4    0    0 -0.71453412794E+01 -0.23434869908E+02  0.67374055670E+01  0.25409479794E+02  0.00000000000E+00 0. -1.
</event>
<event>
 8    1  0.6787197E-009  0.1053795E+03  0.7561462E-02  0.1269374E+00
         -1   -1    0    0    0  501 -0.00000000000E+00  0.00000000000E+00  0.84285379101E+02  0.84285379101E+02  0.00000000000E+00 0.  1.
          1   -1    0    0  501    0  0.00000000000E+00 -0.00000000000E+00 -0.49224376914E+03  0.49224376914E+03  0.00000000000E+00 0. -1.
         25    2    1    2    0    0  0.59700269356E+01  0.70473615272E+02  0.89108254019E+01  0.14397463820E+03  0.12508845656E+03 0.  0.
         23    2    1    2    0    0 -0.59700269356E+01 -0.70473615272E+02 -0.41686921545E+03  0.43255451004E+03  0.91221103373E+02 0.  0.
          5    1    3    3  502    0  0.30544301935E+02  0.63306084608E+02  0.56165113932E+02  0.90070012502E+02  0.41800000000E+01 0.  1.
         -5    1    3    3    0  502 -0.24574275000E+02  0.71675306640E+01 -0.47254288530E+02  0.53904625702E+02  0.41800000000E+01 0.  1.
        -11    1    4    4    0    0 -0.43696735195E+02 -0.61815653620E+02 -0.30181154529E+03  0.31116039042E+03  0.00000000000E+00 0. -1.
         11    1    4    4    0    0  0.37726708259E+02 -0.86579616517E+01 -0.11505767016E+03  0.12139411962E+03  0.00000000000E+00 0.  1.
</event>
<event>
 8    1  0.6787197E-009  0.1270408E+03  0.7561462E-02  0.1231914E+00
          3   -1    0    0  501    0  0.00000000000E+00  0.00000000000E+00  0.88109591674E+02  0.88109591674E+02  0.00000000000E+00 0.  1.
         -3   -1    0    0    0  501 -0.00000000000E+00 -0.00000000000E+00 -0.27003769657E+03  0.27003769657E+03  0.00000000000E+00 0. -1.
         25    2    1    2    0    0 -0.91398577329E+02  0.17997323420E+02 -0.16551533427E+03  0.22741930063E+03  0.12508640547E+03 0.  0.
         23    2    1    2    0    0  0.91398577329E+02 -0.17997323420E+02 -0.16412770625E+02  0.13072798761E+03  0.90237598136E+02 0.  0.
          5    1    3    3  502    0 -0.11928991194E+03  0.32262538601E+02 -0.14012705673E+03  0.18687969102E+03  0.41800000000E+01 0. -1.
         -5    1    3    3    0  502  0.27891334615E+02 -0.14265215181E+02 -0.25388277540E+02  0.40539609609E+02  0.41800000000E+01 0. -1.
        -11    1    4    4    0    0  0.73384652948E+02 -0.26351101923E-01 -0.49846452904E+02  0.88712889987E+02  0.00000000000E+00 0. -1.
         11    1    4    4    0    0  0.18013924380E+02 -0.17970972318E+02  0.33433682279E+02  0.42015097624E+02  0.00000000000E+00 0.  1.
</event>
<event>
 8    1  0.6787197E-009  0.1100210E+03  0.7561462E-02  0.1260531E+00
          2   -1    0    0  501    0  0.00000000000E+00  0.00000000000E+00  0.31694613818E+03  0.31694613818E+03  0.00000000000E+00 0. -1.
         -2   -1    0    0    0  501 -0.00000000000E+00 -0.00000000000E+00 -0.58452337480E+02  0.58452337480E+02  0.00000000000E+00 0.  1.
         25    2    1    2    0    0 -0.41466650590E+02  0.49469112274E+02  0.82893205358E+02  0.16335647973E+03  0.12508948714E+03 0.  0.
         23    2    1    2    0    0  0.41466650590E+02 -0.49469112274E+02  0.17560059534E+03  0.21204199593E+03  0.99797609061E+02 0.  0.
          5    1    3    3  502    0 -0.33834184197E+02  0.73908257106E+02  0.53259747292E+01  0.81566052348E+02  0.41800000000E+01 0.  1.
         -5    1    3    3    0  502 -0.76324663927E+01 -0.24439144832E+02  0.77567230629E+02  0.81790427379E+02  0.41800000000E+01 0.  1.
        -11    1    4    4    0    0 -0.29123664784E+02 -0.23743573729E+02  0.29563438002E+02  0.47811525916E+02  0.00000000000E+00 0.  1.
         11    1    4    4    0    0  0.70590315374E+02 -0.25725538545E+02  0.14603715734E+03  0.16423047002E+03  0.00000000000E+00 0. -1.
</event>
<event>
 8    1  0.6787197E-009  0.2086444E+03  0.7561462E-02  0.1142644E+00
         -1   -1    0    0    0  501 -0.00000000000E+00  0.00000000000E+00  0.50572195888E+02  0.50572195888E+02  0.00000000000E+00 0. -1.
          1   -1    0    0  501    0  0.00000000000E+00 -0.00000000000E+00 -0.10248089256E+04  0.10248089256E+04  0.00000000000E+00 0.  1.
         25    2    1    2    0    0  0.19248737617E+03  0.29276684060E+02 -0.60958290435E+03  0.65203358853E+03  0.12509184260E+03 0.  0.
         23    2    1    2    0    0 -0.19248737617E+03 -0.29276684060E+02 -0.36465382536E+03  0.42334753295E+03  0.91335683570E+02 0.  0.
          5    1    3    3  502    0  0.27211775926E+02  0.39101383267E+02 -0.53248851149E+02  0.71570325353E+02  0.41800000000E+01 0. -1.
         -5    1    3    3    0  502  0.16527560024E+03 -0.98246992068E+01 -0.55633405320E+03  0.58046326318E+03  0.41800000000E+01 0. -1.
        -11    1    4    4    0    0 -0.19847585618E+02  0.15858535807E+02 -0.10673944873E+03  0.10972114531E+03  0.00000000000E+00 0.  1.
         11    1    4    4    0    0 -0.17263979055E+03 -0.45135219868E+02 -0.25791437664E+03  0.31362638765E+03  0.00000000000E+00 0. -1.
</event>
<event>
 8    1  0.6787197E-009  0.1165688E+03  0.7561462E-02  0.1248867E+00
          2   -1    0    0  501    0  0.00000000000E+00  0.00000000000E+00  0.12511479183E+03  0.12511479183E+03  0.00000000000E+00 0. -1.
         -2   -1    0    0    0  501 -0.00000000000E+00 -0.00000000000E+00 -0.43445261359E+03  0.43445261359E+03  0.00000000000E+00 0.  1.
         25    2    1    2    0    0  0.59166626518E+02 -0.66072168948E+01  0.76892612125E+02  0.15844192047E+03  0.12508806240E+03 0.  0.
         23    2    1    2    0    0 -0.59166626518E+02  0.66072168948E+01 -0.38623043389E+03  0.40112548496E+03  0.90461934604E+02 0.  0.
          5    1    3    3  502    0 -0.59802087612E+01  0.47705675466E+02  0.49695376266E+02  0.69272629448E+02  0.41800000000E+01 0.  1.
         -5    1    3    3    0  502  0.65146835279E+02 -0.54312892361E+02  0.27197235859E+02  0.89169291025E+02  0.41800000000E+01 0.  1.
        -11    1    4    4    0    0 -0.66787842113E+01  0.38143325002E+02 -0.80578802427E+02  0.89400574949E+02  0.00000000000E+00 0.  1.
         11    1    4    4    0    0 -0.52487842307E+02 -0.31536108107E+02 -0.30565163146E+03  0.31172491001E+03  0.00000000000E+00 0. -1.
</event>
<event>
 8    1  0.6787197E-009  0.9747074E+02  0.7561462E-02  0.1285706E+00
         -2   -1    0    0    0  501 -0.00000000000E+00  0.00000000000E+00  0.78002554144E+02  0.78002554144E+02  0.00000000000E+00 0.  1.
          2   -1    0    0  501    0  0.00000000000E+00 -0.00000000000E+00 -0.23471443302E+03  0.23471443302E+03  0.00000000000E+00 0. -1.
         25    2    1    2    0    0 -0.65230001970E+02 -0.14351996649E+02 -0.35049932911E+02  0.14607590328E+03  0.12509491899E+03 0.  0.
         23    2    1    2    0    0  0.65230001970E+02  0.14351996649E+02 -0.12166194597E+03  0.16664108389E+03  0.92231712429E+02 0.  0.
          5    1    3    3  502    0 -0.79401248575E+02 -0.33847144788E+02 -0.64470103327E+02  0.10781490671E+03  0.41800000000E+01 0. -1.
         -5    1    3    3    0  502  0.14171246605E+02  0.19495148138E+02  0.29420170416E+02  0.38260996571E+02  0.41800000000E+01 0. -1.
        -11    1    4    4    0    0  0.36444380443E+02  0.33491924848E+02 -0.10997790304E+02  0.50703582590E+02  0.00000000000E+00 0.  1.
         11    1    4    4    0    0  0.28785621527E+02 -0.19139928199E+02 -0.11066415567E+03  0.11593750130E+03  0.00000000000E+00 0. -1.
</event>
<event>
 8    1  0.6787197E-009  0.1344233E+03  0.7561462E-02  0.1221036E+00
          2   -1    0    0  501    0  0.00000000000E+00  0.00000000000E+00  0.12373652433E+03  0.12373652433E+03  0.00000000000E+00 0. -1.
         -2   -1    0    0    0  501 -0.00000000000E+00 -0.00000000000E+00 -0.21928472962E+03  0.21928472962E+03  0.00000000000E+00 0.  1.
         25    2    1    2    0    0  0.22774490908E+01  0.10476722084E+03  0.18647239793E+02  0.16424618135E+03  0.12509089175E+03 0.  0.
         23    2    1    2    0    0 -0.22774490908E+01 -0.10476722084E+03 -0.11419544508E+03  0.17877507260E+03  0.89098650771E+02 0.  0.
          5    1    3    3  502    0  0.24446497396E+02 -0.11121767530E+02 -0.26389039791E+02  0.37883753365E+02  0.41800000000E+01 0. -1.
         -5    1    3    3    0  502 -0.22169048306E+02  0.11588898837E+03  0.45036279584E+02  0.12636242798E+03  0.41800000000E+01 0. -1.
        -11    1    4    4    0    0 -0.31659719035E+02 -0.31493630139E+02 -0.82290788840E+02  0.93626708137E+02  0.00000000000E+00 0.  1.
         11    1    4    4    0    0  0.29382269944E+02 -0.73273590696E+02 -0.31904656243E+02  0.85148364462E+02  0.00000000000E+00 0. -1.
</event>
<event>
 8    1  0.6787197E-009  0.1166947E+03  0.7561462E-02  0.1248652E+00
          2   -1    0    0  501    0  0.00000000000E+00  0.00000000000E+00  0.23887219899E+04  0.23887219899E+04  0.00000000000E+00 0. -1.
         -2   -1    0    0    0  501 -0.00000000000E+00 -0.00000000000E+00 -0.20837402387E+02  0.20837402387E+02  0.00000000000E+00 0.  1.
         25    2    1    2    0    0  0.64128714427E+02  0.89758568961E+02  0.20968195897E+04  0.21034424403E+04  0.12509442504E+03 0.  0.
         23    2    1    2    0    0 -0.64128714427E+02 -0.89758568961E+02  0.27106499784E+03  0.30611695202E+03  0.89790102695E+02 0.  0.
          5    1    3    3  502    0  0.11291289975E+02  0.50372692037E+02  0.24350999738E+03  0.24895680861E+03  0.41800000000E+01 0.  1.
         -5    1    3    3    0  502  0.52837424452E+02  0.39385876923E+02  0.18533095923E+04  0.18544856317E+04  0.41800000000E+01 0.  1.
        -11    1    4    4    0    0 -0.51648954446E+02 -0.89196672259E+02  0.27445650329E+03  0.29317236063E+03  0.00000000000E+00 0. -1.
         11    1    4    4    0    0 -0.12479759981E+02 -0.56189670163E+00 -0.33915054477E+01  0.12944591392E+02  0.00000000000E+00 0.  1.
</event>
<event>
 8    1  0.6787197E-009  0.1300485E+03  0.7561462E-02  0.1227384E+00
         -1   -1    0    0    0  501 -0.00000000000E+00  0.00000000000E+00  0.10770260962E+03  0.10770260962E+03  0.00000000000E+00 0.  1.
          1   -1    0    0  501    0  0.00000000000E+00 -0.00000000000E+00 -0.29012953941E+03  0.29012953941E+03  0.00000000000E+00 0. -1.
         25    2    1    2    0    0  0.10512895812E+02 -0.97686851230E+02  0.14414349936E+02  0.15971402783E+03  0.12509018875E+03 0.  0.
         23    2    1    2    0    0 -0.10512895812E+02  0.97686851230E+02 -0.19684127973E+03  0.23811812119E+03  0.91107125701E+02 0.  0.
          5    1    3    3  502    0  0.39872945014E+02 -0.18241263257E+02  0.50974643069E+02  0.67368257104E+02  0.41800000000E+01 0.  1.
         -5    1    3    3    0  502 -0.29360049201E+02 -0.79445587973E+02 -0.36560293133E+02  0.92345770728E+02  0.41800000000E+01 0.  1.
        -11    1    4    4    0    0  0.36775001287E+02  0.24758178315E+02 -0.90497199165E+02  0.10077257152E+03  0.00000000000E+00 0. -1.
         11    1    4    4    0    0 -0.47287897099E+02  0.72928672914E+02 -0.10634408056E+03  0.13734554967E+03  0.00000000000E+00 0.  1.
</event>
<event>
 8    1  0.6787197E-009  0.9252191E+02  0.7561462E-02  0.1296857E+00
          2   -1    0    0  501    0  0.00000000000E+00  0.00000000000E+00  0.18544207987E+04  0.18544207987E+04  0.00000000000E+00 0. -1.
         -2   -1    0    0    0  501 -0.00000000000E+00 -0.00000000000E+00 -0.12484357908E+02  0.12484357908E+02  0.00000000000E+00 0.  1.
         25    2    1    2    0    0  0.32774671036E+02 -0.14431913519E+02  0.16043110355E+04  0.16095794000E+04  0.12509791009E+03 0.  0.
         23    2    1    2    0    0 -0.32774671036E+02  0.14431913519E+02  0.23762540524E+03  0.25732575654E+03  0.92023108939E+02 0.  0.
          5    1    3    3  502    0 -0.50530094766E+01  0.43327905269E+02  0.27496976955E+03  0.27843973648E+03  0.41800000000E+01 0. -1.
         -5    1    3    3    0  502  0.37827680513E+02 -0.57759818788E+02  0.13293412660E+04  0.13311396636E+04  0.41800000000E+01 0. -1.
        -11    1    4    4    0    0 -0.51497371872E+02  0.72797996599E+01  0.23012025390E+03  0.23592436510E+03  0.00000000000E+00 0. -1.
         11    1    4    4    0    0  0.18722700836E+02  0.71521138591E+01  0.75051513362E+01  0.21401391446E+02  0.00000000000E+00 0.  1.
</event>
<event>
 8    1  0.6787197E-009  0.1064046E+03  0.7561462E-02  0.1267377E+00
          2   -1    0    0  501    0  0.00000000000E+00  0.00000000000E+00  0.10477888293E+03  0.10477888293E+03  0.00000000000E+00 0. -1.
         -2   -1    0    0    0  501 -0.00000000000E+00 -0.00000000000E+00 -0.18077986621E+03  0.18077986621E+03  0.00000000000E+00 0.  1.
         25    2    1    2    0    0  0.69491511514E+02  0.96414290238E+01  0.48335085051E+01  0.14350056786E+03  0.12508806036E+03 0.  0.
         23    2    1    2    0    0 -0.69491511514E+02 -0.96414290238E+01 -0.80834491783E+02  0.14205818127E+03  0.93403878284E+02 0.  0.
          5    1    3    3  502    0 -0.14192325072E+02  0.47050276521E+02  0.14037153492E+02  0.51280256335E+02  0.41800000000E+01 0.  1.
         -5    1    3    3    0  502  0.83683836586E+02 -0.37408847497E+02 -0.92036449872E+01  0.92220311526E+02  0.41800000000E+01 0.  1.
        -11    1    4    4    0    0 -0.54298409711E+02 -0.13703567976E+02  0.36525057182E+01  0.56119924006E+02  0.00000000000E+00 0. -1.
         11    1    4    4    0    0 -0.15193101803E+02  0.40621389518E+01 -0.84486997501E+02  0.85938257266E+02  0.00000000000E+00 0.  1.
</event>
<event>
 8    1  0.6787197E-009  0.1084120E+03  0.7561462E-02  0.1263539E+00
         -1   -1    0    0    0  501 -0.00000000000E+00  0.00000000000E+00  0.42018954831E+03  0.42018954831E+03  0.00000000000E+00 0.  1.
          1   -1    0    0  501    0  0.00000000000E+00 -0.00000000000E+00 -0.65124277139E+02  0.65124277139E+02  0.00000000000E+00 0. -1.
         25    2    1    2    0    0 -0.63152652614E+01 -0.70815944487E+02  0.33709017183E+03  0.36651331651E+03  0.12508975445E+03 0.  0.
         23    2    1    2    0    0  0.63152652614E+01  0.70815944487E+02  0.17975099347E+02  0.11880050894E+03  0.93464839161E+02 0.  0.
          5    1    3    3  502    0 -0.64078813640E+02 -0.52677449431E+02  0.18682465409E+03  0.20445520735E+03  0.41800000000E+01 0. -1.
         -5    1    3    3    0  502  0.57763548378E+02 -0.18138495056E+02  0.15026551774E+03  0.16205810916E+03  0.41800000000E+01 0. -1.
        -11    1    4    4    0    0  0.12081974048E+02  0.42662338413E+02  0.55815734320E+02  0.71284257823E+02  0.00000000000E+00 0.  1.
         11    1    4    4    0    0 -0.57667087864E+01  0.28153606074E+02 -0.37840634973E+02  0.47516251119E+02  0.00000000000E+00 0. -1.
</event>
<event>
 8    1  0.6787197E-009  0.1218846E+03  0.7561462E-02  0.1240020E+00
          1   -1    0    0  501    0  0.00000000000E+00  0.00000000000E+00  0.14655891464E+03  0.14655891464E+03  0.00000000000E+00 0. -1.
         -1   -1    0    0    0  501 -0.00000000000E+00 -0.00000000000E+00 -0.41158347014E+03  0.41158347014E+03  0.00000000000E+00 0.  1.
         25    2    1    2    0    0  0.10847510211E+03 -0.49801346307E+02  0.73400803835E+02  0.18783580010E+03  0.12509031907E+03 0.  0.
         23    2    1    2    0    0 -0.10847510211E+03  0.49801346307E+02 -0.33842535934E+03  0.37030658468E+03  0.91368599322E+02 0.  0.
          5    1    3    3  502    0  0.53502258396E+02 -0.88835563604E+01 -0.31205483891E+02  0.62710954800E+02  0.41800000000E+01 0.  1.
         -5    1    3    3    0  502  0.54972843715E+02 -0.40917789947E+02  0.10460628773E+03  0.12512484530E+03  0.41800000000E+01 0.  1.
        -11    1    4    4    0    0 -0.93475690312E+01  0.10564939285E+02  0.13760536166E+01  0.14173514471E+02  0.00000000000E+00 0. -1.
         11    1    4    4    0    0 -0.99127533080E+02  0.39236407022E+02 -0.33980141296E+03  0.35613307021E+03  0.00000000000E+00 0.  1.
</event>
<event>
 8    1  0.6787197E-009  0.1123345E+03  0.7561462E-02  0.1256307E+00
          4   -1    0    0  501    0  0.00000000000E+00  0.00000000000E+00  0.34303770732E+02  0.34303770732E+02  0.00000000000E+00 0. -1.
         -4   -1    0    0    0  501 -0.00000000000E+00 -0.00000000000E+00 -0.50267635320E+03  0.50267635320E+03  0.00000000000E+00 0.  1.
         25    2    1    2    0    0  0.34226139901E+01 -0.63317347653E+02 -0.35450342267E+03  0.38123514676E+03  0.12508700826E+03 0.  0.
         23    2    1    2    0    0 -0.34226139901E+01  0.63317347653E+02 -0.11386915979E+03  0.15574497717E+03  0.85261430684E+02 0.  0.
          5    1    3    3  502    0  0.61640735826E+02 -0.13129548893E+02 -0.15260680028E+03  0.16516135522E+03  0.41800000000E+01 0.  1.
         -5    1    3    3    0  502 -0.58218121836E+02 -0.50187798761E+02 -0.20189662239E+03  0.21607379154E+03  0.41800000000E+01 0.  1.
        -11    1    4    4    0    0  0.24615283034E+02  0.44205583917E+02 -0.17437269276E+02  0.53517325868E+02  0.00000000000E+00 0. -1.
         11    1    4    4    0    0 -0.28037897024E+02  0.19111763736E+02 -0.96431890518E+02  0.10222765131E+03  0.00000000000E+00 0.  1.
</event>
<event>
 8    1  0.6787197E-009  0.1067545E+03  0.7561462E-02  0.1266701E+00
         -2   -1    0    0    0  501 -0.00000000000E+00  0.00000000000E+00  0.10957242335E+02  0.10957242335E+02  0.00000000000E+00 0.  1.
          2   -1    0    0  501    0  0.00000000000E+00 -0.00000000000E+00 -0.11013626867E+04  0.11013626867E+04  0.00000000000E+00 0. -1.
         25    2    1    2    0    0  0.14261333169E+02  0.46090888480E+01 -0.68353693599E+03  0.69505038843E+03  0.12509064824E+03 0.  0.
         23    2    1    2    0    0 -0.14261333169E+02 -0.46090888480E+01 -0.40686850839E+03  0.41726954062E+03  0.91363324599E+02 0.  0.
          5    1    3    3  502    0  0.46665936368E+02 -0.44485558977E+02 -0.42426968643E+03  0.42916070859E+03  0.41800000000E+01 0.  1.
         -5    1    3    3    0  502 -0.32404603198E+02  0.49094647825E+02 -0.25926724956E+03  0.26588967984E+03  0.41800000000E+01 0.  1.
        -11    1    4    4    0    0  0.19345855942E+02 -0.37944945499E+02 -0.14375780958E+03  0.14993461524E+03  0.00000000000E+00 0. -1.
         11    1    4    4    0    0 -0.33607189111E+02  0.33335856651E+02 -0.26311069881E+03  0.26733492538E+03  0.00000000000E+00 0.  1.
</event>
<event>
 8    1  0.6787197E-009  0.1166298E+03  0.7561462E-02  0.1248763E+00
         -3   -1    0    0    0  501 -0.00000000000E+00  0.00000000000E+00  0.64218926953E+03  0.64218926953E+03  0.00000000000E+00 0.  1.
          3   -1    0    0  501    0  0.00000000000E+00 -0.00000000000E+00 -0.26602508694E+02  0.26602508694E+02  0.00000000000E+00 0. -1.
         25    2    1    2    0    0 -0.45558064037E+01  0.62901724801E+02  0.23923370427E+03  0.27722895945E+03  0.12508296586E+03 0.  0.
         23    2    1    2    0    0  0.45558064037E+01 -0.62901724801E+02  0.37635305657E+03  0.39156281877E+03  0.87763520325E+02 0.  0.
          5    1    3    3  502    0 -0.62996120255E+02  0.24677965420E+02  0.14302546837E+03  0.15827593041E+03  0.41800000000E+01 0.  1.
         -5    1    3    3    0  502  0.58440313852E+02  0.38223759381E+02  0.96208235893E+02  0.11895302904E+03  0.41800000000E+01 0.  1.
        -11    1    4    4    0    0 -0.27617193519E+02 -0.56250392532E+02  0.32209001062E+03  0.32812922908E+03  0.00000000000E+00 0.  1.
         11    1    4    4    0    0  0.32172999923E+02 -0.66513322697E+01  0.54263045955E+02  0.63433589693E+02  0.00000000000E+00 0. -1.
</event>
<event>
 8    1  0.6787197E-009  0.2158266E+03  0.7561462E-02  0.1137033E+00
         -1   -1    0    0    0  501 -0.00000000000E+00  0.00000000000E+00  0.69831260397E+02  0.69831260397E+02  0.00000000000E+00 0.  1.
          1   -1    0    0  501    0  0.00000000000E+00 -0.00000000000E+00 -0.93836280628E+03  0.93836280628E+03  0.00000000000E+00 0. -1.
         25    2    1    2    0    0  0.15679413147E+03 -0.14489912223E+03 -0.26878022806E+03  0.36533445200E+03  0.12508515316E+03 0.  0.
         23    2    1    2    0    0 -0.15679413147E+03  0.14489912223E+03 -0.59975131783E+03  0.64285961468E+03  0.89368258703E+02 0.  0.
          5    1    3    3  502    0  0.42702658975E+02 -0.47431934694E+02 -0.17978434300E+03  0.19082239885E+03  0.41800000000E+01 0. -1.
         -5    1    3    3    0  502  0.11409147249E+03 -0.97467187532E+02 -0.88995885055E+02  0.17451205316E+03  0.41800000000E+01 0. -1.
        -11    1    4    4    0    0 -0.81473027128E+02  0.10320823790E+03 -0.24772507991E+03  0.28045946184E+03  0.00000000000E+00 0.  1.
         11    1    4    4    0    0 -0.75321104337E+02  0.41690884330E+02 -0.35202623792E+03  0.36240015284E+03  0.00000000000E+00 0. -1.
</event>
<event>
 8    1  0.6787197E-009  0.6119439E+02  0.7561462E-02  0.1392887E+00
          1   -1    0    0  501    0  0.00000000000E+00  0.00000000000E+00  0.10554707039E+03  0.10554707039E+03  0.00000000000E+00 0. -1.
         -1   -1    0    0    0  501 -0.00000000000E+00 -0.00000000000E+00 -0.13045840300E+03  0.13045840300E+03  0.00000000000E+00 0.  1.
         25    2    1    2    0    0  0.18284184786E+02 -0.35101624929E+02 -0.43167151351E+02  0.13811975511E+03  0.12508888164E+03 0.  0.
         23    2    1    2    0    0 -0.18284184786E+02  0.35101624929E+02  0.18255818736E+02  0.97885718284E+02  0.87646468499E+02 0.  0.
          5    1    3    3  502    0  0.12664511313E+02 -0.27094276846E+02  0.42310799035E+02  0.51982360466E+02  0.41800000000E+01 0. -1.
         -5    1    3    3    0  502  0.56196734724E+01 -0.80073480828E+01 -0.85477950387E+02  0.86137394641E+02  0.41800000000E+01 0. -1.
        -11    1    4    4    0    0  0.17199512822E+02 -0.13155083371E+02 -0.17749606605E+02  0.27998714157E+02  0.00000000000E+00 0.  1.
         11    1    4    4    0    0 -0.35483697608E+02  0.48256708299E+02  0.36005425341E+02  0.69887004127E+02  0.00000000000E+00 0. -1.
</event>
<event>
 8    1  0.6787197E-009  0.9996058E+02  0.7561462E-02  0.1280379E+00
         -2   -1    0    0    0  501 -0.00000000000E+00  0.00000000000E+00  0.58827135863E+03  0.58827135863E+03  0.00000000000E+00 0.  1.
          2   -1    0    0  501    0  0.00000000000E+00 -0.00000000000E+00 -0.20137148419E+02  0.20137148419E+02  0.00000000000E+00 0. -1.
         25    2    1    2    0    0  0.15370240785E+01 -0.31551976122E+01  0.35023762628E+03  0.37192320869E+03  0.12509260802E+03 0.  0.
         23    2    1    2    0    0 -0.15370240785E+01  0.31551976122E+01  0.21789658393E+03  0.23648529836E+03  0.91837123967E+02 0.  0.
          5    1    3    3  502    0  0.48834040909E+02  0.37953120598E+02  0.18784533359E+03  0.19780936446E+03  0.41800000000E+01 0.  1.
         -5    1    3    3    0  502 -0.47297016831E+02 -0.41108318210E+02  0.16239229269E+03  0.17411384423E+03  0.41800000000E+01 0.  1.
        -11    1    4    4    0    0 -0.19445805479E+02  0.34168758842E+02  0.18039896609E+03  0.18463323211E+03  0.00000000000E+00 0.  1.
         11    1    4    4    0    0  0.17908781400E+02 -0.31013561230E+02  0.37497617837E+02  0.51852066254E+02  0.00000000000E+00 0. -1.
</event>
<event>
 8    1  0.6787197E-009  0.1123413E+03  0.7561462E-02  0.1256295E+00
          1   -1    0    0  501    0  0.00000000000E+00  0.00000000000E+00  0.11688100926E+03  0.11688100926E+03  0.00000000000E+00 0. -1.
         -1   -1    0    0    0  501 -0.00000000000E+00 -0.00000000000E+00 -0.13072434124E+03  0.13072434124E+03  0.00000000000E+00 0.  1.
         25    2    1    2    0    0  0.36739096914E+02 -0.30225596749E+02 -0.44395805757E+02  0.14100129542E+03  0.12508808816E+03 0.  0.
         23    2    1    2    0    0 -0.36739096914E+02  0.30225596749E+02  0.30552473777E+02  0.10660405509E+03  0.90374902301E+02 0.  0.
          5    1    3    3  502    0 -0.33683365794E+02 -0.41405412060E+02 -0.44431556621E+02  0.69574513313E+02  0.41800000000E+01 0.  1.
         -5    1    3    3    0  502  0.70422462707E+02  0.11179815311E+02  0.35750863272E-01  0.71426782108E+02  0.41800000000E+01 0.  1.
        -11    1    4    4    0    0  0.11272897965E+02 -0.24467563802E+02 -0.17158373933E+01  0.26994147605E+02  0.00000000000E+00 0.  1.
         11    1    4    4    0    0 -0.48011994879E+02  0.54693160551E+02  0.32268311170E+02  0.79609907481E+02  0.00000000000E+00 0. -1.
</event>
<event>
 8    1  0.6787197E-009  0.9885967E+02  0.7561462E-02  0.1282712E+00
          2   -1    0    0  501    0  0.00000000000E+00  0.00000000000E+00  0.75377837117E+03  0.75377837117E+03  0.00000000000E+00 0. -1.
         -2   -1    0    0    0  501 -0.00000000000E+00 -0.00000000000E+00 -0.17086548692E+02  0.17086548692E+02  0.00000000000E+00 0.  1.
         25    2    1    2    0    0  0.14009879267E+02 -0.28469294201E+02  0.39196172739E+03  0.41266079810E+03  0.12509261019E+03 0.  0.
         23    2    1    2    0    0 -0.14009879267E+02  0.28469294201E+02  0.34473009509E+03  0.35820412176E+03  0.92003135573E+02 0.  0.
          5    1    3    3  502    0  0.30461402565E+02  0.36400833453E+02  0.76302281515E+02  0.89957925091E+02  0.41800000000E+01 0.  1.
         -5    1    3    3    0  502 -0.16451523297E+02 -0.64870127654E+02  0.31565944587E+03  0.32270287301E+03  0.41800000000E+01 0.  1.
        -11    1    4    4    0    0  0.93657707792E+01  0.50220527275E+02  0.29294701043E+03  0.29736807150E+03  0.00000000000E+00 0.  1.
         11    1    4    4    0    0 -0.23375650047E+02 -0.21751233074E+02  0.51783084656E+02  0.60836050265E+02  0.00000000000E+00 0. -1.
</event>
<event>
 8    1  0.6787197E-009  0.1885678E+03  0.7561462E-02  0.1159759E+00
         -2   -1    0    0    0  501 -0.00000000000E+00  0.00000000000E+00  0.17548419245E+03  0.17548419245E+03  0.00000000000E+00 0. -1.
          2   -1    0    0  501    0  0.00000000000E+00 -0.00000000000E+00 -0.33864818270E+03  0.33864818270E+03  0.00000000000E+00 0.  1.
         25    2    1    2    0    0  0.14910026390E+03  0.11157755709E+03 -0.20268371173E+03  0.30234504455E+03  0.12510555152E+03 0.  0.
         23    2    1    2    0    0 -0.14910026390E+03 -0.11157755709E+03  0.39519721475E+02  0.21178733061E+03  0.92798842028E+02 0.  0.
          5    1    3    3  502    0  0.97175654480E+02  0.90411132450E+02 -0.53948078962E+02  0.14333578869E+03  0.41800000000E+01 0.  1.
         -5    1    3    3    0  502  0.51924609416E+02  0.21166424641E+02 -0.14873563276E+03  0.15900925586E+03  0.41800000000E+01 0.  1.
        -11    1    4    4    0    0 -0.35048166662E+02 -0.13064865037E+02 -0.27923636559E+02  0.46677555243E+02  0.00000000000E+00 0.  1.
         11    1    4    4    0    0 -0.11405209723E+03 -0.98512692054E+02  0.67443358035E+02  0.16510977537E+03  0.00000000000E+00 0. -1.
</event>
<event>
 8    1  0.6787197E-009  0.1648929E+03  0.7561462E-02  0.1183281E+00
         -2   -1    0    0    0  501 -0.00000000000E+00  0.00000000000E+00  0.47956954606E+02  0.47956954606E+02  0.00000000000E+00 0.  1.
          2   -1    0    0  501    0  0.00000000000E+00 -0.00000000000E+00 -0.11617766194E+04  0.11617766194E+04  0.00000000000E+00 0. -1.
         25    2    1    2    0    0  0.28405758967E+02  0.14610367698E+03 -0.95173813940E+03  0.97139371380E+03  0.12508832737E+03 0.  0.
         23    2    1    2    0    0 -0.28405758967E+02 -0.14610367698E+03 -0.16208152538E+03  0.23833986020E+03  0.91554882553E+02 0.  0.
          5    1    3    3  502    0 -0.11649084936E+02  0.13718562668E+03 -0.52866961641E+03  0.54631916776E+03  0.41800000000E+01 0. -1.
         -5    1    3    3    0  502  0.40054843903E+02  0.89180502973E+01 -0.42306852299E+03  0.42507454604E+03  0.41800000000E+01 0. -1.
        -11    1    4    4    0    0 -0.14409585118E+02 -0.12256822243E+03 -0.16978066477E+03  0.20989540115E+03  0.00000000000E+00 0. -1.
         11    1    4    4    0    0 -0.13996173849E+02 -0.23535454554E+02  0.76991393887E+01  0.28444459052E+02  0.00000000000E+00 0.  1.
</event>
<event>
 8    1  0.6787197E-009  0.4379390E+03  0.7561462E-02  0.1031381E+00
         -2   -1    0    0    0  501 -0.00000000000E+00  0.00000000000E+00  0.16362648735E+03  0.16362648735E+03  0.00000000000E+00 0.  1.
          2   -1    0    0  501    0  0.00000000000E+00 -0.00000000000E+00 -0.12316501879E+04  0.12316501879E+04  0.00000000000E+00 0. -1.
         25    2    1    2    0    0  0.39071667408E+03 -0.18588830761E+03 -0.61039431740E+03  0.75857942663E+03  0.12509013347E+03 0.  0.
         23    2    1    2    0    0 -0.39071667408E+03  0.18588830761E+03 -0.45762938315E+03  0.63669724861E+03  0.93513377387E+02 0.  0.
          5    1    3    3  502    0  0.25675470266E+03 -0.13443938654E+03 -0.49817363509E+03  0.57636045066E+03  0.41800000000E+01 0. -1.
         -5    1    3    3    0  502  0.13396197142E+03 -0.51448921071E+02 -0.11222068231E+03  0.18221897597E+03  0.41800000000E+01 0. -1.
        -11    1    4    4    0    0 -0.33155502464E+03  0.19175220515E+03 -0.38929932430E+03  0.54612416761E+03  0.00000000000E+00 0. -1.
         11    1    4    4    0    0 -0.59161649443E+02 -0.58638975460E+01 -0.68330058852E+02  0.90573081001E+02  0.00000000000E+00 0.  1.
</event>
<event>
 8    1  0.6787197E-009  0.1997890E+03  0.7561462E-02  0.1149917E+00
          2   -1    0    0  501    0  0.00000000000E+00  0.00000000000E+00  0.43823328893E+03  0.43823328893E+03  0.00000000000E+00 0.  1.
         -2   -1    0    0    0  501 -0.00000000000E+00 -0.00000000000E+00 -0.14167788820E+03  0.14167788820E+03  0.00000000000E+00 0. -1.
         25    2    1    2    0    0  0.16216012978E+03 -0.10084354057E+03  0.28851762329E+03  0.36790622440E+03  0.12508894291E+03 0.  0.
         23    2    1    2    0    0 -0.16216012978E+03  0.10084354057E+03  0.80377774394E+01  0.21200495272E+03  0.91739668333E+02 0.  0.
          5    1    3    3  502    0  0.35485556078E+02 -0.20440787905E+02  0.17484261258E+03  0.17962311119E+03  0.41800000000E+01 0. -1.
         -5    1    3    3    0  502  0.12667457371E+03 -0.80402752665E+02  0.11367501071E+03  0.18828311321E+03  0.41800000000E+01 0. -1.
        -11    1    4    4    0    0 -0.15953533650E+03  0.64822482459E+02 -0.82198557334E+01  0.17239792300E+03  0.00000000000E+00 0. -1.
         11    1    4    4    0    0 -0.26247932806E+01  0.36021058110E+02  0.16257633173E+02  0.39607029724E+02  0.00000000000E+00 0.  1.
</event>
<event>
 8    1  0.6787197E-009  0.6764823E+02  0.7561462E-02  0.1368278E+00
         -2   -1    0    0    0  501 -0.00000000000E+00  0.00000000000E+00  0.21036061369E+03  0.21036061369E+03  0.00000000000E+00 0.  1.
          2   -1    0    0  501    0  0.00000000000E+00 -0.00000000000E+00 -0.67269593682E+02  0.67269593682E+02  0.00000000000E+00 0. -1.
         25    2    1    2    0    0 -0.18408275570E+02 -0.23302541742E+02  0.55440029672E+02  0.14000591504E+03  0.12508471647E+03 0.  0.
         23    2    1    2    0    0  0.18408275570E+02  0.23302541742E+02  0.87650990339E+02  0.13762429234E+03  0.10186204727E+03 0.  0.
          5    1    3    3  502    0 -0.30348432033E+02 -0.43894950696E+02  0.85844704236E+02  0.10116609940E+03  0.41800000000E+01 0. -1.
         -5    1    3    3    0  502  0.11940156463E+02  0.20592408954E+02 -0.30404674564E+02  0.38839815631E+02  0.41800000000E+01 0. -1.
        -11    1    4    4    0    0 -0.12797281408E+02  0.23084111890E+02 -0.14983489579E+02  0.30350479290E+02  0.00000000000E+00 0. -1.
         11    1    4    4    0    0  0.31205556978E+02  0.21842985129E+00  0.10263447992E+03  0.10727381305E+03  0.00000000000E+00 0.  1.
</event>
<event>
 8    1  0.6787197E-009  0.1164239E+03  0.7561462E-02  0.1249116E+00
         -2   -1    0    0    0  501 -0.00000000000E+00  0.00000000000E+00  0.29877434194E+02  0.29877434194E+02  0.00000000000E+00 0.  1.
          2   -1    0    0  501    0  0.00000000000E+00 -0.00000000000E+00 -0.45656893628E+03  0.45656893628E+03  0.00000000000E+00 0. -1.
         25    2    1    2    0    0  0.37696766049E+02  0.30714785789E+02 -0.25443692350E+03  0.28766096366E+03  0.12508492209E+03 0.  0.
         23    2    1    2    0    0 -0.37696766049E+02 -0.30714785789E+02 -0.17225457859E+03  0.19878540682E+03  0.86484414116E+02 0.  0.
          5    1    3    3  502    0  0.25040189587E+02 -0.47789418585E+02 -0.91405454155E+02  0.10622273331E+03  0.41800000000E+01 0. -1.
         -5    1    3    3    0  502  0.12656576462E+02  0.78504204374E+02 -0.16303146935E+03  0.18143823034E+03  0.41800000000E+01 0. -1.
        -11    1    4    4    0    0 -0.72317180387E+01  0.30170058573E+02 -0.49639043099E+02  0.58536866844E+02  0.00000000000E+00 0.  1.
         11    1    4    4    0    0 -0.30465048010E+02 -0.60884844362E+02 -0.12261553549E+03  0.14024853998E+03  0.00000000000E+00 0. -1.
</event>
<event>
 8    1  0.6787197E-009  0.1485198E+03  0.7561462E-02  0.1202304E+00
          1   -1    0    0  501    0  0.00000000000E+00  0.00000000000E+00  0.15294663046E+03  0.15294663046E+03  0.00000000000E+00 0. -1.
         -1   -1    0    0    0  501 -0.00000000000E+00 -0.00000000000E+00 -0.22841595715E+03  0.22841595715E+03  0.00000000000E+00 0.  1.
         25    2    1    2    0    0  0.92323544693E+01 -0.10836308118E+03  0.68220471901E+02  0.17923908587E+03  0.12507926841E+03 0.  0.
         23    2    1    2    0    0 -0.92323544693E+01  0.10836308118E+03 -0.14368979859E+03  0.20212350174E+03  0.91538833318E+02 0.  0.
          5    1    3    3  502    0  0.56275386007E+02 -0.86071909798E+02  0.73903207712E+02  0.12670615311E+03  0.41800000000E+01 0. -1.
         -5    1    3    3    0  502 -0.47043031537E+02 -0.22291171386E+02 -0.56827358114E+01  0.52532932759E+02  0.41800000000E+01 0. -1.
        -11    1    4    4    0    0 -0.44935536096E+02  0.25501085317E+02 -0.46533615186E+02  0.69533338039E+02  0.00000000000E+00 0.  1.
         11    1    4    4    0    0  0.35703181627E+02  0.82861995866E+02 -0.97156183400E+02  0.13259016370E+03  0.00000000000E+00 0. -1.
</event>
<event>
 8    1  0.6787197E-009  0.7440173E+02  0.7561462E-02  0.1345734E+00
          1   -1    0    0  501    0  0.00000000000E+00  0.00000000000E+00  0.17860866884E+03  0.17860866884E+03  0.00000000000E+00 0. -1.
         -1   -1    0    0    0  501 -0.00000000000E+00 -0.00000000000E+00 -0.71238234225E+02  0.71238234225E+02  0.00000000000E+00 0.  1.
         25    2    1    2    0    0 -0.74857434214E+01 -0.28251712610E+02  0.78694758033E+02  0.15064699261E+03  0.12508979103E+03 0.  0.
         23    2    1    2    0    0  0.74857434214E+01  0.28251712610E+02  0.28675676583E+02  0.99199910459E+02  0.90355587473E+02 0.  0.
          5    1    3    3  502    0  0.12199301955E+02  0.22743408734E+02 -0.23191040596E+02  0.34948281401E+02  0.41800000000E+01 0. -1.
         -5    1    3    3    0  502 -0.19685045376E+02 -0.50995121344E+02  0.10188579863E+03  0.11569871121E+03  0.41800000000E+01 0. -1.
        -11    1    4    4    0    0 -0.25767326185E+02  0.27167306405E+01 -0.21602758923E+02  0.33734476684E+02  0.00000000000E+00 0.  1.
         11    1    4    4    0    0  0.33253069606E+02  0.25534981970E+02  0.50278435506E+02  0.65465433775E+02  0.00000000000E+00 0. -1.
</event>
<event>
 8    1  0.6787197E-009  0.1298480E+03  0.7561462E-02  0.1227681E+00
         -1   -1    0    0    0  501 -0.00000000000E+00  0.00000000000E+00  0.26498016140E+03  0.26498016140E+03  0.00000000000E+00 0.  1.
          1   -1    0    0  501    0  0.00000000000E+00 -0.00000000000E+00 -0.88250596502E+02  0.88250596502E+02  0.00000000000E+00 0. -1.
         25    2    1    2    0    0 -0.77487732222E+01  0.95758253520E+02  0.15032080582E+03  0.21788438649E+03  0.12509026585E+03 0.  0.
         23    2    1    2    0    0  0.77487732222E+01 -0.95758253520E+02  0.26408759072E+02  0.13534637141E+03  0.91605300574E+02 0.  0.
          5    1    3    3  502    0  0.19552619310E+01 -0.30420251469E+02  0.35233420328E+02  0.46776928680E+02  0.41800000000E+01 0.  1.
         -5    1    3    3    0  502 -0.97040351532E+01  0.12617850499E+03  0.11508738549E+03  0.17110745781E+03  0.41800000000E+01 0.  1.
        -11    1    4    4    0    0  0.17623711302E+02 -0.23482078106E+02  0.50592499319E+02  0.58494479906E+02  0.00000000000E+00 0.  1.
         11    1    4    4    0    0 -0.98749380797E+01 -0.72276175414E+02 -0.24183740247E+02  0.76851891499E+02  0.00000000000E+00 0. -1.
</event>
<event>
 8    1  0.6787197E-009  0.1050122E+03  0.7561462E-02  0.1270096E+00
          1   -1    0    0  501    0  0.00000000000E+00  0.00000000000E+00  0.61156094021E+02  0.61156094021E+02  0.00000000000E+00 0. -1.
         -1   -1    0    0    0  501 -0.00000000000E+00 -0.00000000000E+00 -0.22907704540E+03  0.22907704540E+03  0.00000000000E+00 0.  1.
         25    2    1    2    0    0  0.76908115629E+01  0.44658544150E+02 -0.81133245405E+02  0.15583358934E+03  0.12509184589E+03 0.  0.
         23    2    1    2    0    0 -0.76908115629E+01 -0.44658544150E+02 -0.86787705975E+02  0.13439955008E+03  0.92073877980E+02 0.  0.
          5    1    3    3  502    0 -0.44884557716E+02  0.62559062193E+02 -0.51721420104E+02  0.92848465154E+02  0.41800000000E+01 0. -1.
         -5    1    3    3    0  502  0.52575369279E+02 -0.17900518043E+02 -0.29411825301E+02  0.62985124184E+02  0.41800000000E+01 0. -1.
        -11    1    4    4    0    0 -0.33471983758E+02 -0.37905088545E+02 -0.79633606301E+01  0.51191645283E+02  0.00000000000E+00 0. -1.
         11    1    4    4    0    0  0.25781172195E+02 -0.67534556055E+01 -0.78824345344E+02  0.83207904801E+02  0.00000000000E+00 0.  1.
</event>
<event>
 8    1  0.6787197E-009  0.1418812E+03  0.7561462E-02  0.1210820E+00
         -3   -1    0    0    0  501 -0.00000000000E+00  0.00000000000E+00  0.51953548496E+03  0.51953548496E+03  0.00000000000E+00 0.  1.
          3   -1    0    0  501    0  0.00000000000E+00 -0.00000000000E+00 -0.62409803479E+02  0.62409803479E+02  0.00000000000E+00 0. -1.
         25    2    1    2    0    0  0.11025491131E+03 -0.25423514803E+02  0.96395924873E+02  0.19427268518E+03  0.12508877368E+03 0.  0.
         23    2    1    2    0    0 -0.11025491131E+03  0.25423514803E+02  0.36072975661E+03  0.38767260326E+03  0.85799705371E+02 0.  0.
          5    1    3    3  502    0  0.13625328310E+03 -0.16327075801E+02  0.63794743469E+02  0.15138947207E+03  0.41800000000E+01 0.  1.
         -5    1    3    3    0  502 -0.25998371784E+02 -0.90964390023E+01  0.32601181404E+02  0.42883213112E+02  0.41800000000E+01 0.  1.
        -11    1    4    4    0    0 -0.61916081549E+02 -0.39603407866E+01  0.29266565132E+03  0.29916963235E+03  0.00000000000E+00 0.  1.
         11    1    4    4    0    0 -0.48338829763E+02  0.29383855590E+02  0.68064105283E+02  0.88502970911E+02  0.00000000000E+00 0. -1.
</event>
<event>
 8    1  0.6787197E-009  0.1712635E+03  0.7561462E-02  0.1176537E+00
          2   -1    0    0  501    0  0.00000000000E+00  0.00000000000E+00  0.51864168689E+03  0.51864168689E+03  0.00000000000E+00 0.  1.
         -2   -1    0    0    0  501 -0.00000000000E+00 -0.00000000000E+00 -0.72587324540E+02  0.72587324540E+02  0.00000000000E+00 0. -1.
         25    2    1    2    0    0 -0.15850257286E+03 -0.24348930670E+02  0.24565135175E+03  0.31891774173E+03  0.12509197954E+03 0.  0.
         23    2    1    2    0    0  0.15850257286E+03  0.24348930670E+02  0.20040301060E+03  0.27231126970E+03  0.90973209899E+02 0.  0.
          5    1    3    3  502    0 -0.14271222368E+03 -0.43904914449E+02  0.25174022704E+03  0.29272006185E+03  0.41800000000E+01 0.  1.
         -5    1    3    3    0  502 -0.15790349182E+02  0.19555983779E+02 -0.60888752867E+01  0.26197679880E+02  0.41800000000E+01 0.  1.
        -11    1    4    4    0    0  0.14442251786E+03  0.36625751599E+02  0.20466142451E+03  0.25315135399E+03  0.00000000000E+00 0.  1.
         11    1    4    4    0    0  0.14080055002E+02 -0.12276820928E+02 -0.42584139094E+01  0.19159915709E+02  0.00000000000E+00 0. -1.
</event>
<event>
 8    1  0.6787197E-009  0.1007451E+03  0.7561462E-02  0.1278737E+00
         -1   -1    0    0    0  501 -0.00000000000E+00  0.00000000000E+00  0.41350660137E+02  0.41350660137E+02  0.00000000000E+00 0.  1.
          1   -1    0    0  501    0  0.00000000000E+00 -0.00000000000E+00 -0.43971505483E+03  0.43971505483E+03  0.00000000000E+00 0. -1.
         25    2    1    2    0    0  0.43493329049E+02  0.12826634453E+02 -0.33772830850E+03  0.36299335105E+03  0.12509024869E+03 0.  0.
         23    2    1    2    0    0 -0.43493329049E+02 -0.12826634453E+02 -0.60636086196E+02  0.11807236392E+03  0.90598873892E+02 0.  0.
          5    1    3    3  502    0 -0.32956083537E+02 -0.16328281525E+02 -0.19448492301E+03  0.19797619528E+03  0.41800000000E+01 0. -1.
         -5    1    3    3    0  502  0.76449412586E+02  0.29154915978E+02 -0.14324338549E+03  0.16501715577E+03  0.41800000000E+01 0. -1.
        -11    1    4    4    0    0  0.87101658784E+00  0.24532676208E+02 -0.54470252814E+02  0.59746291211E+02  0.00000000000E+00 0. -1.
         11    1    4    4    0    0 -0.44364345637E+02 -0.37359310661E+02 -0.61658333813E+01  0.58326072713E+02  0.00000000000E+00 0.  1.
</event>
<event>
 8    1  0.6787197E-009  0.1085055E+03  0.7561462E-02  0.1263363E+00
          3   -1    0    0  501    0  0.00000000000E+00  0.00000000000E+00  0.14893577597E+02  0.14893577597E+02  0.00000000000E+00 0. -1.
         -3   -1    0    0    0  501 -0.00000000000E+00 -0.00000000000E+00 -0.81111893234E+03  0.81111893234E+03  0.00000000000E+00 0.  1.
         25    2    1    2    0    0 -0.10061125873E+02  0.13386449920E+02 -0.43100617340E+03  0.44910377029E+03  0.12508977453E+03 0.  0.
         23    2    1    2    0    0  0.10061125873E+02 -0.13386449920E+02 -0.36521918134E+03  0.37690873964E+03  0.91622728082E+02 0.  0.
          5    1    3    3  502    0 -0.58032636613E+02  0.38754996821E+02 -0.27976911284E+03  0.28837122878E+03  0.41800000000E+01 0.  1.
         -5    1    3    3    0  502  0.47971510740E+02 -0.25368546902E+02 -0.15123706056E+03  0.16073254151E+03  0.41800000000E+01 0.  1.
        -11    1    4    4    0    0 -0.35482476461E+02  0.15524833149E+02 -0.17148574196E+03  0.17580496659E+03  0.00000000000E+00 0. -1.
         11    1    4    4    0    0  0.45543602334E+02 -0.28911283069E+02 -0.19373343938E+03  0.20110377305E+03  0.00000000000E+00 0.  1.
</event>
<event>
 8    1  0.6787197E-009  0.1268000E+03  0.7561462E-02  0.1232283E+00
         -2   -1    0    0    0  501 -0.00000000000E+00  0.00000000000E+00  0.24766884997E+02  0.24766884997E+02  0.00000000000E+00 0.  1.
          2   -1    0    0  501    0  0.00000000000E+00 -0.00000000000E+00 -0.90801277086E+03  0.90801277086E+03  0.00000000000E+00 0. -1.
         25    2    1    2    0    0 -0.83746328546E+02 -0.47520502894E+02 -0.59974503993E+03  0.62017230447E+03  0.12509168062E+03 0.  0.
         23    2    1    2    0    0  0.83746328546E+02  0.47520502894E+02 -0.28350084593E+03  0.31260735139E+03  0.89883150595E+02 0.  0.
          5    1    3    3  502    0 -0.62296995289E+01 -0.72922413459E+02 -0.22545572765E+03  0.23707434503E+03  0.41800000000E+01 0. -1.
         -5    1    3    3    0  502 -0.77516629017E+02  0.25401910565E+02 -0.37428931228E+03  0.38309795943E+03  0.41800000000E+01 0. -1.
        -11    1    4    4    0    0  0.79435053030E+02  0.37781316191E+02 -0.28793436024E+03  0.30107067494E+03  0.00000000000E+00 0. -1.
         11    1    4    4    0    0  0.43112755155E+01  0.97391867029E+01  0.44335143157E+01  0.11536676445E+02  0.00000000000E+00 0.  1.
</event>
<event>
 8    1  0.6787197E-009  0.1582556E+03  0.7561462E-02  0.1190680E+00
         -1   -1    0    0    0  501 -0.00000000000E+00  0.00000000000E+00  0.78877865293E+02  0.78877865293E+02  0.00000000000E+00 0.  1.
          1   -1    0    0  501    0  0.00000000000E+00 -0.00000000000E+00 -0.47359061265E+03  0.47359061265E+03  0.00000000000E+00 0. -1.
         25    2    1    2    0    0 -0.10174222932E+02 -0.15647555087E+03 -0.15941401654E+03  0.25622063675E+03  0.12509225873E+03 0.  0.
         23    2    1    2    0    0  0.10174222932E+02  0.15647555087E+03 -0.23529873081E+03  0.29624784119E+03  0.88369552743E+02 0.  0.
          5    1    3    3  502    0 -0.16058405511E+02 -0.47090946856E+02 -0.13496569859E+03  0.14390497511E+03  0.41800000000E+01 0. -1.
         -5    1    3    3    0  502  0.58841825789E+01 -0.10938460402E+03 -0.24448317950E+02  0.11231566165E+03  0.41800000000E+01 0. -1.
        -11    1    4    4    0    0 -0.92641975461E+00  0.24712235046E+02  0.17727881459E+01  0.24793055325E+02  0.00000000000E+00 0.  1.
         11    1    4    4    0    0  0.11100642686E+02  0.13176331583E+03 -0.23707151896E+03  0.27145478586E+03  0.00000000000E+00 0. -1.
</event>
<event>
 8    1  0.6787197E-009  0.1070468E+03  0.7561462E-02  0.1266139E+00
         -4   -1    0    0    0  501 -0.00000000000E+00  0.00000000000E+00  0.10374707243E+03  0.10374707243E+03  0.00000000000E+00 0.  1.
          4   -1    0    0  501    0  0.00000000000E+00 -0.00000000000E+00 -0.13646724781E+03  0.13646724781E+03  0.00000000000E+00 0. -1.
         25    2    1    2    0    0  0.10121888780E+02  0.43835287388E+02 -0.40110245578E+02  0.13885923017E+03  0.12509623876E+03 0.  0.
         23    2    1    2    0    0 -0.10121888780E+02 -0.43835287388E+02  0.73900702031E+01  0.10135509007E+03  0.90522130399E+02 0.  0.
          5    1    3    3  502    0 -0.47100687936E+02  0.23181852847E+02 -0.54939124755E+02  0.76102910157E+02  0.41800000000E+01 0.  1.
         -5    1    3    3    0  502  0.57222576716E+02  0.20653434540E+02  0.14828879178E+02  0.62756320017E+02  0.41800000000E+01 0.  1.
        -11    1    4    4    0    0  0.38384102945E+02 -0.33298438705E+02  0.94019147465E+01  0.51677087572E+02  0.00000000000E+00 0.  1.
         11    1    4    4    0    0 -0.48505991725E+02 -0.10536848682E+02 -0.20118445435E+01  0.49678002494E+02  0.00000000000E+00 0. -1.
</event>
<event>
 8    1  0.6787197E-009  0.2156968E+03  0.7561462E-02  0.1137133E+00
          2   -1    0    0  501    0  0.00000000000E+00  0.00000000000E+00  0.89231854878E+03  0.89231854878E+03  0.00000000000E+00 0. -1.
         -2   -1    0    0    0  501 -0.00000000000E+00 -0.00000000000E+00 -0.63458548140E+02  0.63458548140E+02  0.00000000000E+00 0.  1.
         25    2    1    2    0    0  0.15232243686E+03 -0.12221527134E+03  0.58219615603E+03  0.62668938575E+03  0.12509406379E+03 0.  0.
         23    2    1    2    0    0 -0.15232243686E+03  0.12221527134E+03  0.24666384461E+03  0.32908771117E+03  0.96524463664E+02 0.  0.
          5    1    3    3  502    0  0.10332957861E+03 -0.12825141651E+03  0.52871496732E+03  0.55378914464E+03  0.41800000000E+01 0. -1.
         -5    1    3    3    0  502  0.48992858251E+02  0.60361451699E+01  0.53481188711E+02  0.72900241111E+02  0.41800000000E+01 0. -1.
        -11    1    4    4    0    0 -0.15819996427E+02 -0.16241031532E+02  0.18083341253E+02  0.29000872798E+02  0.00000000000E+00 0.  1.
         11    1    4    4    0    0 -0.13650244044E+03  0.13845630287E+03  0.22858050336E+03  0.30008683837E+03  0.00000000000E+00 0. -1.
</event>
<event>
 8    1  0.6787197E-009  0.1220651E+03  0.7561462E-02  0.1239729E+00
         -1   -1    0    0    0  501 -0.00000000000E+00  0.00000000000E+00  0.30140707790E+02  0.30140707790E+02  0.00000000000E+00 0.  1.
          1   -1    0    0  501    0  0.00000000000E+00 -0.00000000000E+00 -0.66559055737E+03  0.66559055737E+03  0.00000000000E+00 0. -1.
         25    2    1    2    0    0  0.60314383937E+02 -0.50671726781E+02 -0.45855210678E+03  0.48179162558E+03  0.12509071525E+03 0.  0.
         23    2    1    2    0    0 -0.60314383937E+02  0.50671726781E+02 -0.17689774281E+03  0.21393963959E+03  0.90950036677E+02 0.  0.
          5    1    3    3  502    0  0.79521580293E+02 -0.78875097422E+02 -0.32086065986E+03  0.33987350319E+03  0.41800000000E+01 0. -1.
         -5    1    3    3    0  502 -0.19207196356E+02  0.28203370641E+02 -0.13769144692E+03  0.14191812239E+03  0.41800000000E+01 0. -1.
        -11    1    4    4    0    0 -0.36603749247E+02  0.61527766386E+02 -0.57778201999E+02  0.91999027830E+02  0.00000000000E+00 0.  1.
         11    1    4    4    0    0 -0.23710634690E+02 -0.10856039606E+02 -0.11911954081E+03  0.12194061176E+03  0.00000000000E+00 0. -1.
</event>
<event>
 8    1  0.6787197E-009  0.1112155E+03  0.7561462E-02  0.1258335E+00
         -2   -1    0    0    0  501 -0.00000000000E+00  0.00000000000E+00  0.69621782587E+02  0.69621782587E+02  0.00000000000E+00 0.  1.
          2   -1    0    0  501    0  0.00000000000E+00 -0.00000000000E+00 -0.26585341630E+03  0.26585341630E+03  0.00000000000E+00 0. -1.
         25    2    1    2    0    0 -0.27324147000E+02 -0.67290561764E+02 -0.73346624249E+02  0.16217715416E+03  0.12508826216E+03 0.  0.
         23    2    1    2    0    0  0.27324147000E+02  0.67290561764E+02 -0.12288500946E+03  0.17329804473E+03  0.98269313844E+02 0.  0.
          5    1    3    3  502    0 -0.31052027237E+02 -0.96169236347E+02 -0.22782559762E+02  0.10367867594E+03  0.41800000000E+01 0. -1.
         -5    1    3    3    0  502  0.37278802368E+01  0.28878674583E+02 -0.50564064487E+02  0.58498478221E+02  0.41800000000E+01 0. -1.
        -11    1    4    4    0    0 -0.16830972614E+02  0.10142386035E+02  0.10005755210E+02  0.22051411994E+02  0.00000000000E+00 0.  1.
         11    1    4    4    0    0  0.44155119614E+02  0.57148175729E+02 -0.13289076467E+03  0.15124663273E+03  0.00000000000E+00 0. -1.
</event>
<event>
 8    1  0.6787197E-009  0.3370782E+03  0.7561462E-02  0.1068047E+00
         -1   -1    0    0    0  501 -0.00000000000E+00  0.00000000000E+00  0.66453886388E+03  0.66453886388E+03  0.00000000000E+00 0.  1.
          1   -1    0    0  501    0  0.00000000000E+00 -0.00000000000E+00 -0.18449334250E+03  0.18449334250E+03  0.00000000000E+00 0. -1.
         25    2    1    2    0    0  0.26746125210E+03 -0.18251597260E+03  0.14993228768E+03  0.37811646153E+03  0.12507903887E+03 0.  0.
         23    2    1    2    0    0 -0.26746125210E+03  0.18251597260E+03  0.33011323370E+03  0.47091574485E+03  0.89102693835E+02 0.  0.
          5    1    3    3  502    0  0.17204074845E+03 -0.55069113120E+02  0.11764545959E+03  0.21561204259E+03  0.41800000000E+01 0. -1.
         -5    1    3    3    0  502  0.95420503646E+02 -0.12744685948E+03  0.32286828096E+02  0.16250441895E+03  0.41800000000E+01 0. -1.
        -11    1    4    4    0    0 -0.94310328335E+02  0.19325007253E+02  0.74738276598E+02  0.12187577251E+03  0.00000000000E+00 0.  1.
         11    1    4    4    0    0 -0.17315092376E+03  0.16319096535E+03  0.25537495711E+03  0.34903997234E+03  0.00000000000E+00 0. -1.
</event>
<event>
 8    1  0.6787197E-009  0.1821894E+03  0.7561462E-02  0.1165701E+00
          2   -1    0    0  501    0  0.00000000000E+00  0.00000000000E+00  0.74054949109E+03  0.74054949109E+03  0.00000000000E+00 0. -1.
         -2   -1    0    0    0  501 -0.00000000000E+00 -0.00000000000E+00 -0.54158364024E+02  0.54158364024E+02  0.00000000000E+00 0.  1.
         25    2    1    2    0    0 -0.43189521062E+02  0.15945008403E+03  0.30607598983E+03  0.36961770172E+03  0.12508025364E+03 0.  0.
         23    2    1    2    0    0  0.43189521062E+02 -0.15945008403E+03  0.38031513724E+03  0.42509015339E+03  0.93660935682E+02 0.  0.
          5    1    3    3  502    0  0.38292830568E+01  0.14908908260E+03  0.27282674465E+03  0.31095678631E+03  0.41800000000E+01 0.  1.
         -5    1    3    3    0  502 -0.47018804119E+02  0.10361001424E+02  0.33249245182E+02  0.58660915407E+02  0.41800000000E+01 0.  1.
        -11    1    4    4    0    0  0.33783194186E+02 -0.79884619132E+02  0.94552397572E+02  0.12830827125E+03  0.00000000000E+00 0.  1.
         11    1    4    4    0    0  0.94063268761E+01 -0.79565464896E+02  0.28576273967E+03  0.29678188215E+03  0.00000000000E+00 0. -1.
</event>
<event>
 8    1  0.6787197E-009  0.1359743E+03  0.7561462E-02  0.1218851E+00
          1   -1    0    0  501    0  0.00000000000E+00  0.00000000000E+00  0.15359006589E+03  0.15359006589E+03  0.00000000000E+00 0. -1.
         -1   -1    0    0    0  501 -0.00000000000E+00 -0.00000000000E+00 -0.17751692202E+03  0.17751692202E+03  0.00000000000E+00 0.  1.
         25    2    1    2    0    0 -0.76646051450E+02  0.95649596807E+02 -0.19979294541E+02  0.17626782149E+03  0.12509080746E+03 0.  0.
         23    2    1    2    0    0  0.76646051450E+02 -0.95649596807E+02 -0.39475615886E+01  0.15483916642E+03  0.94531061791E+02 0.  0.
          5    1    3    3  502    0 -0.82669283271E+01  0.27143843235E+01 -0.54824620683E+02  0.55667956845E+02  0.41800000000E+01 0.  1.
         -5    1    3    3    0  502 -0.68379123123E+02  0.92935212484E+02  0.34845326142E+02  0.12059986465E+03  0.41800000000E+01 0.  1.
        -11    1    4    4    0    0  0.83305626391E+02 -0.42959704750E+02  0.21168010401E+02  0.96090833511E+02  0.00000000000E+00 0. -1.
         11    1    4    4    0    0 -0.66595749402E+01 -0.52689892058E+02 -0.25115571989E+02  0.58748332911E+02  0.00000000000E+00 0.  1.
</event>
<event>
 8    1  0.6787197E-009  0.1577531E+03  0.7561462E-02  0.1191257E+00
         -2   -1    0    0    0  501 -0.00000000000E+00  0.00000000000E+00  0.47523894606E+02  0.47523894606E+02  0.00000000000E+00 0.  1.
          2   -1    0    0  501    0  0.00000000000E+00 -0.00000000000E+00 -0.60391919933E+03  0.60391919933E+03  0.00000000000E+00 0. -1.
         25    2    1    2    0    0 -0.10630694128E+03  0.70717163787E+02 -0.25149634686E+03  0.30854348285E+03  0.12508631144E+03 0.  0.
         23    2    1    2    0    0  0.10630694128E+03 -0.70717163787E+02 -0.30489895787E+03  0.34289961109E+03  0.91184898729E+02 0.  0.
          5    1    3    3  502    0 -0.89729282874E+02  0.19677256523E+01 -0.20494391743E+03  0.22377376487E+03  0.41800000000E+01 0.  1.
         -5    1    3    3    0  502 -0.16577658404E+02  0.68749438135E+02 -0.46552429424E+02  0.84769717985E+02  0.41800000000E+01 0.  1.
        -11    1    4    4    0    0  0.11565845419E+03 -0.39485055787E+02 -0.26121786093E+03  0.28839333995E+03  0.00000000000E+00 0.  1.
         11    1    4    4    0    0 -0.93515129127E+01 -0.31232108000E+02 -0.43681096935E+02  0.54506271138E+02  0.00000000000E+00 0. -1.
</event>
<event>
 8    1  0.6787197E-009  0.6805348E+02  0.7561462E-02  0.1366840E+00
          2   -1    0    0  501    0  0.00000000000E+00  0.00000000000E+00  0.46588561157E+03  0.46588561157E+03  0.00000000000E+00 0. -1.
         -2   -1    0    0    0  501 -0.00000000000E+00 -0.00000000000E+00 -0.30679839668E+02  0.30679839668E+02  0.00000000000E+00 0.  1.
         25    2    1    2    0    0  0.17918963227E+02  0.33250909554E+02  0.17581977118E+03  0.21905924016E+03  0.12509055334E+03 0.  0.
         23    2    1    2    0    0 -0.17918963227E+02 -0.33250909554E+02  0.25938600072E+03  0.27750621108E+03  0.91114694670E+02 0.  0.
          5    1    3    3  502    0  0.13820485502E+02  0.29263962200E+02  0.19546812754E+03  0.19817327415E+03  0.41800000000E+01 0.  1.
         -5    1    3    3    0  502  0.40984777243E+01  0.39869473543E+01 -0.19648356358E+02  0.20885966016E+02  0.41800000000E+01 0.  1.
        -11    1    4    4    0    0  0.21107131075E+02  0.20860176859E+02  0.10935635915E+03  0.11331139063E+03  0.00000000000E+00 0. -1.
         11    1    4    4    0    0 -0.39026094302E+02 -0.54111086413E+02  0.15002964158E+03  0.16419482045E+03  0.00000000000E+00 0.  1.
</event>
<event>
 8    1  0.6787197E-009  0.1448192E+03  0.7561462E-02  0.1206988E+00
         -3   -1    0    0    0  501 -0.00000000000E+00  0.00000000000E+00  0.41511133953E+03  0.41511133953E+03  0.00000000000E+00 0.  1.
          3   -1    0    0  501    0  0.00000000000E+00 -0.00000000000E+00 -0.58609226933E+02  0.58609226933E+02  0.00000000000E+00 0. -1.
         25    2    1    2    0    0 -0.10169187359E+02  0.10788661165E+03  0.23495048157E+03  0.28738996967E+03  0.12509329530E+03 0.  0.
         23    2    1    2    0    0  0.10169187359E+02 -0.10788661165E+03  0.12155163102E+03  0.18633059679E+03  0.90561354637E+02 0.  0.
          5    1    3    3  502    0  0.28237895001E+02 -0.52738762951E+01  0.68159338499E+01  0.29818146145E+02  0.41800000000E+01 0. -1.
         -5    1    3    3    0  502 -0.38407082360E+02  0.11316048794E+03  0.22813454773E+03  0.25757182352E+03  0.41800000000E+01 0. -1.
        -11    1    4    4    0    0 -0.37816425777E+02 -0.71248123646E+02  0.64735335057E+02  0.10342649944E+03  0.00000000000E+00 0.  1.
         11    1    4    4    0    0  0.47985613136E+02 -0.36638488000E+02  0.56816295960E+02  0.82904097351E+02  0.00000000000E+00 0. -1.
</event>
<event>
 8    1  0.6787197E-009  0.1439560E+03  0.7561462E-02  0.1208103E+00
         -2   -1    0    0    0  501 -0.00000000000E+00  0.00000000000E+00  0.82306695287E+02  0.82306695287E+02  0.00000000000E+00 0.  1.
          2   -1    0    0  501    0  0.00000000000E+00 -0.00000000000E+00 -0.39051567166E+03  0.39051567166E+03  0.00000000000E+00 0. -1.
         25    2    1    2    0    0  0.13057279917E+03  0.50484033401E+02 -0.13562154146E+03  0.23159903758E+03  0.12508804175E+03 0.  0.
         23    2    1    2    0    0 -0.13057279917E+03 -0.50484033401E+02 -0.17258743491E+03  0.24122332936E+03  0.93831649386E+02 0.  0.
          5    1    3    3  502    0  0.94263179788E+01 -0.41580564827E+01 -0.90509214731E+02  0.91189556724E+02  0.41800000000E+01 0. -1.
         -5    1    3    3    0  502  0.12114648119E+03  0.54642089884E+02 -0.45112326727E+02  0.14040948086E+03  0.41800000000E+01 0. -1.
        -11    1    4    4    0    0 -0.18299940887E+02  0.44554987113E+01  0.89205708450E+01  0.20840246866E+02  0.00000000000E+00 0.  1.
         11    1    4    4    0    0 -0.11227285828E+03 -0.54939532113E+02 -0.18150800576E+03  0.22038308249E+03  0.00000000000E+00 0. -1.
</event>
<event>
 8    1  0.6787197E-009  0.9642029E+02  0.7561462E-02  0.1288009E+00
          1   -1    0    0  501    0  0.00000000000E+00  0.00000000000E+00  0.40758809488E+03  0.40758809488E+03  0.00000000000E+00 0. -1.
         -1   -1    0    0    0  501 -0.00000000000E+00 -0.00000000000E+00 -0.36642555406E+02  0.36642555406E+02  0.00000000000E+00 0.  1.
         25    2    1    2    0    0  0.28957762151E+02  0.30253702563E+02  0.17804452246E+03  0.22158519267E+03  0.12508519947E+03 0.  0.
         23    2    1    2    0    0 -0.28957762151E+02 -0.30253702563E+02  0.19290101701E+03  0.22264545761E+03  0.10298717844E+03 0.  0.
          5    1    3    3  502    0 -0.46124489779E+01  0.61963851723E+02  0.16024103575E+03  0.17191700191E+03  0.41800000000E+01 0.  1.
         -5    1    3    3    0  502  0.33570211129E+02 -0.31710149159E+02  0.17803486707E+02  0.49668190765E+02  0.41800000000E+01 0.  1.
        -11    1    4    4    0    0  0.20117896154E+02  0.83259477920E+01  0.20783294145E+01  0.21871685016E+02  0.00000000000E+00 0.  1.
         11    1    4    4    0    0 -0.49075658305E+02 -0.38579650355E+02  0.19082268760E+03  0.20077377259E+03  0.00000000000E+00 0. -1.
</event>
<event>
 8    1  0.6787197E-009  0.1082667E+03  0.7561462E-02  0.1263814E+00
          3   -1    0    0  501    0  0.00000000000E+00  0.00000000000E+00  0.19573968190E+03  0.19573968190E+03  0.00000000000E+00 0. -1.
         -3   -1    0    0    0  501 -0.00000000000E+00 -0.00000000000E+00 -0.14535941873E+03  0.14535941873E+03  0.00000000000E+00 0.  1.
         25    2    1    2    0    0 -0.77842704352E+02  0.34076364925E+02  0.12246449409E+03  0.19459224852E+03  0.12509158886E+03 0.  0.
         23    2    1    2    0    0  0.77842704352E+02 -0.34076364925E+02 -0.72084230927E+02  0.14650685211E+03  0.95118011429E+02 0.  0.
          5    1    3    3  502    0 -0.99503734015E+02  0.25854721389E+02  0.42657086318E+02  0.11138473466E+03  0.41800000000E+01 0. -1.
         -5    1    3    3    0  502  0.21661029663E+02  0.82216435366E+01  0.79807407772E+02  0.83207513866E+02  0.41800000000E+01 0. -1.
        -11    1    4    4    0    0  0.68113821659E+02 -0.16618205388E+02 -0.93726251744E+02  0.11704814273E+03  0.00000000000E+00 0.  1.
         11    1    4    4    0    0  0.97288826935E+01 -0.17458159537E+02  0.21642020817E+02  0.29458709373E+02  0.00000000000E+00 0. -1.
</event>
<event>
 8    1  0.6787197E-009  0.6543850E+02  0.7561462E-02  0.1376330E+00
         -2   -1    0    0    0  501 -0.00000000000E+00  0.00000000000E+00  0.69375446312E+02  0.69375446312E+02  0.00000000000E+00 0.  1.
          2   -1    0    0  501    0  0.00000000000E+00 -0.00000000000E+00 -0.26244148985E+03  0.26244148985E+03  0.00000000000E+00 0. -1.
         25    2    1    2    0    0 -0.39499827286E+02  0.89294432994E+01 -0.19380006189E+03  0.23419288256E+03  0.12509145031E+03 0.  0.
         23    2    1    2    0    0  0.39499827286E+02 -0.89294432994E+01  0.73401835571E+00  0.97624053595E+02  0.88825366557E+02 0.  0.
          5    1    3    3  502    0  0.29185460090E+00  0.27303405882E+02  0.71032993316E+01  0.28521753334E+02  0.41800000000E+01 0. -1.
         -5    1    3    3    0  502 -0.39791681887E+02 -0.18373962582E+02 -0.20090336122E+03  0.20567112923E+03  0.41800000000E+01 0. -1.
        -11    1    4    4    0    0  0.39564355628E+02  0.95871623221E+01 -0.37368879269E+02  0.55260157940E+02  0.00000000000E+00 0. -1.
         11    1    4    4    0    0 -0.64528341516E-01 -0.18516605621E+02  0.38102897625E+02  0.42363895655E+02  0.00000000000E+00 0.  1.
</event>
<event>
 8    1  0.6787197E-009  0.1325089E+03  0.7561462E-02  0.1223780E+00
          3   -1    0    0  501    0  0.00000000000E+00  0.00000000000E+00  0.36323521110E+03  0.36323521110E+03  0.00000000000E+00 0. -1.
         -3   -1    0    0    0  501 -0.00000000000E+00 -0.00000000000E+00 -0.55433487587E+02  0.55433487587E+02  0.00000000000E+00 0.  1.
         25    2    1    2    0    0 -0.80821239205E+02  0.29598594849E+02  0.11690389779E+03  0.19163050853E+03  0.12509029122E+03 0.  0.
         23    2    1    2    0    0  0.80821239205E+02 -0.29598594849E+02  0.19089782572E+03  0.22703819015E+03  0.87728047962E+02 0.  0.
          5    1    3    3  502    0  0.32324152240E+02  0.12181178487E+02  0.42961358127E+02  0.55284560408E+02  0.41800000000E+01 0.  1.
         -5    1    3    3    0  502 -0.11314539145E+03  0.17417416363E+02  0.73942539663E+02  0.13634594812E+03  0.41800000000E+01 0.  1.
        -11    1    4    4    0    0  0.73274931384E+02 -0.53419916942E+02  0.17589081874E+03  0.19789007861E+03  0.00000000000E+00 0.  1.
         11    1    4    4    0    0  0.75463078217E+01  0.23821322093E+02  0.15007006982E+02  0.29148111543E+02  0.00000000000E+00 0. -1.
</event>
<event>
 8    1  0.6787197E-009  0.1308494E+03  0.7561462E-02  0.1226201E+00
          1   -1    0    0  501    0  0.00000000000E+00  0.00000000000E+00  0.80794973201E+03  0.80794973201E+03  0.00000000000E+00 0. -1.
         -1   -1    0    0    0  501 -0.00000000000E+00 -0.00000000000E+00 -0.32423677741E+02  0.32423677741E+02  0.00000000000E+00 0.  1.
         25    2    1    2    0    0  0.90228604580E+02  0.36919348992E+02  0.23481920233E+03  0.28335958425E+03  0.12509339226E+03 0.  0.
         23    2    1    2    0    0 -0.90228604580E+02 -0.36919348992E+02  0.54070685194E+03  0.55701382550E+03  0.91631122754E+02 0.  0.
          5    1    3    3  502    0  0.13392253183E+02 -0.25317890879E+02  0.44730635385E+00  0.28948584195E+02  0.41800000000E+01 0.  1.
         -5    1    3    3    0  502  0.76836351397E+02  0.62237239872E+02  0.23437189598E+03  0.25441100005E+03  0.41800000000E+01 0.  1.
        -11    1    4    4    0    0 -0.85200787726E+02 -0.63798463422E+02  0.43258131228E+03  0.44548401756E+03  0.00000000000E+00 0. -1.
         11    1    4    4    0    0 -0.50278168539E+01  0.26879114430E+02  0.10812553966E+03  0.11152980795E+03  0.00000000000E+00 0.  1.
</event>
<event>
 8    1  0.6787197E-009  0.1398725E+03  0.7561462E-02  0.1213501E+00
         -1   -1    0    0    0  501 -0.00000000000E+00  0.00000000000E+00  0.35946259619E+03  0.35946259619E+03  0.00000000000E+00 0.  1.
          1   -1    0    0  501    0  0.00000000000E+00 -0.00000000000E+00 -0.81074505249E+02  0.81074505249E+02  0.00000000000E+00 0. -1.
         25    2    1    2    0    0 -0.12515194052E+03  0.21935180170E+02  0.99786678905E+02  0.20432945754E+03  0.12509590555E+03 0.  0.
         23    2    1    2    0    0  0.12515194052E+03 -0.21935180170E+02  0.17860141203E+03  0.23620764390E+03  0.88042184832E+02 0.  0.
          5    1    3    3  502    0 -0.11040319235E+03  0.24932941847E+02  0.12871632902E+03  0.17145227390E+03  0.41800000000E+01 0.  1.
         -5    1    3    3    0  502 -0.14748748176E+02 -0.29977616765E+01 -0.28929650117E+02  0.32877183635E+02  0.41800000000E+01 0.  1.
        -11    1    4    4    0    0  0.87017787709E+02  0.24859549581E+02  0.13154195389E+03  0.15966645927E+03  0.00000000000E+00 0.  1.
         11    1    4    4    0    0  0.38134152815E+02 -0.46794729751E+02  0.47059458143E+02  0.76541184627E+02  0.00000000000E+00 0. -1.
</event>
<event>
 8    1  0.6787197E-009  0.1118546E+03  0.7561462E-02  0.1257173E+00
         -1   -1    0    0    0  501 -0.00000000000E+00  0.00000000000E+00  0.95795776737E+02  0.95795776737E+02  0.00000000000E+00 0.  1.
          1   -1    0    0  501    0  0.00000000000E+00 -0.00000000000E+00 -0.17479826030E+03  0.17479826030E+03  0.00000000000E+00 0. -1.
         25    2    1    2    0    0 -0.32649873016E+02  0.52336630988E+02 -0.78007934829E+01  0.13968534288E+03  0.12508399373E+03 0.  0.
         23    2    1    2    0    0  0.32649873016E+02 -0.52336630988E+02 -0.71201690077E+02  0.13090869415E+03  0.90897020761E+02 0.  0.
          5    1    3    3  502    0  0.45944282107E+02  0.68981465063E+01 -0.13691315063E+02  0.48614668482E+02  0.41800000000E+01 0. -1.
         -5    1    3    3    0  502 -0.78594155123E+02  0.45438484482E+02  0.58905215796E+01  0.91070674402E+02  0.41800000000E+01 0. -1.
        -11    1    4    4    0    0  0.48487787374E+02 -0.50869902933E+02 -0.84692043379E+02  0.11005250911E+03  0.00000000000E+00 0. -1.
         11    1    4    4    0    0 -0.15837914357E+02 -0.14667280550E+01  0.13490353302E+02  0.20856185044E+02  0.00000000000E+00 0.  1.
</event>
<event>
 8    1  0.6787197E-009  0.1577044E+03  0.7561462E-02  0.1191313E+00
         -1   -1    0    0    0  501 -0.00000000000E+00  0.00000000000E+00  0.19226032744E+03  0.19226032744E+03  0.00000000000E+00 0.  1.
          1   -1    0    0  501    0  0.00000000000E+00 -0.00000000000E+00 -0.15220018858E+03  0.15220018858E+03  0.00000000000E+00 0. -1.
         25    2    1    2    0    0 -0.10801071073E+03 -0.77235098905E+02  0.43631126365E+02  0.18756867587E+03  0.12508700510E+03 0.  0.
         23    2    1    2    0    0  0.10801071073E+03  0.77235098905E+02 -0.35709875087E+01  0.15689184015E+03  0.83490858288E+02 0.  0.
          5    1    3    3  502    0 -0.13061458930E+03 -0.36556768529E+02  0.32167280466E+02  0.13945886345E+03  0.41800000000E+01 0.  1.
         -5    1    3    3    0  502  0.22603878566E+02 -0.40678330376E+02  0.11463845899E+02  0.48109812421E+02  0.41800000000E+01 0.  1.
        -11    1    4    4    0    0  0.64206111258E+02  0.41453842025E+02  0.39282657256E+02  0.85930046565E+02  0.00000000000E+00 0.  1.
         11    1    4    4    0    0  0.43804599471E+02  0.35781256880E+02 -0.42853644765E+02  0.70961793582E+02  0.00000000000E+00 0. -1.
</event>
<event>
 8    1  0.6787197E-009  0.1212236E+03  0.7561462E-02  0.1241092E+00
          2   -1    0    0  501    0  0.00000000000E+00  0.00000000000E+00  0.36042862088E+03  0.36042862088E+03  0.00000000000E+00 0. -1.
         -2   -1    0    0    0  501 -0.00000000000E+00 -0.00000000000E+00 -0.60470462888E+02  0.60470462888E+02  0.00000000000E+00 0.  1.
         25    2    1    2    0    0  0.23256770793E+02  0.83478918652E+02  0.92449297008E+02  0.17806112505E+03  0.12509710025E+03 0.  0.
         23    2    1    2    0    0 -0.23256770793E+02 -0.83478918652E+02  0.20750886098E+03  0.24283795871E+03  0.91655548442E+02 0.  0.
          5    1    3    3  502    0 -0.43273910362E+02  0.28619132373E+02  0.72845946160E+02  0.89530387734E+02  0.41800000000E+01 0.  1.
         -5    1    3    3    0  502  0.66530681155E+02  0.54859786278E+02  0.19603350848E+02  0.88530737317E+02  0.41800000000E+01 0.  1.
        -11    1    4    4    0    0  0.17913211660E+02 -0.41817834249E+02  0.26633984532E+02  0.52716065343E+02  0.00000000000E+00 0.  1.
         11    1    4    4    0    0 -0.41169982453E+02 -0.41661084403E+02  0.18087487645E+03  0.19012189337E+03  0.00000000000E+00 0. -1.
</event>
<event>
 8    1  0.6787197E-009  0.1323163E+03  0.7561462E-02  0.1224059E+00
         -1   -1    0    0    0  501 -0.00000000000E+00  0.00000000000E+00  0.27260357020E+02  0.27260357020E+02  0.00000000000E+00 0.  1.
          1   -1    0    0  501    0  0.00000000000E+00 -0.00000000000E+00 -0.84724464986E+03  0.84724464986E+03  0.00000000000E+00 0. -1.
         25    2    1    2    0    0  0.99325555110E+02 -0.24114048495E+02 -0.52136377192E+03  0.54581521752E+03  0.12508803209E+03 0.  0.
         23    2    1    2    0    0 -0.99325555110E+02  0.24114048495E+02 -0.29862052092E+03  0.32868978936E+03  0.91737172858E+02 0.  0.
          5    1    3    3  502    0 -0.29097425690E+02  0.41895263686E+01 -0.84265419692E+02  0.89343973881E+02  0.41800000000E+01 0.  1.
         -5    1    3    3    0  502  0.12842298080E+03 -0.28303574863E+02 -0.43709835223E+03  0.45647124364E+03  0.41800000000E+01 0.  1.
        -11    1    4    4    0    0 -0.39354247675E+02  0.18512933499E+01 -0.23566980391E+03  0.23894024477E+03  0.00000000000E+00 0. -1.
         11    1    4    4    0    0 -0.59971307435E+02  0.22262755145E+02 -0.62950717012E+02  0.89749544592E+02  0.00000000000E+00 0.  1.
</event>
<event>
 8    1  0.6787197E-009  0.1319680E+03  0.7561462E-02  0.1224564E+00
          1   -1    0    0  501    0  0.00000000000E+00  0.00000000000E+00  0.14356009648E+03  0.14356009648E+03  0.00000000000E+00 0. -1.
         -1   -1    0    0    0  501 -0.00000000000E+00 -0.00000000000E+00 -0.17474417684E+03  0.17474417684E+03  0.00000000000E+00 0.  1.
         25    2    1    2    0    0  0.86845114971E+02 -0.79867886995E+01  0.59981189354E+02  0.16386387805E+03  0.12509102552E+03 0.  0.
         23    2    1    2    0    0 -0.86845114971E+02  0.79867886995E+01 -0.91165269717E+02  0.15444039527E+03  0.89077867622E+02 0.  0.
          5    1    3    3  502    0  0.98041474350E+02  0.37748411428E+02  0.38912557170E+02  0.11211035975E+03  0.41800000000E+01 0.  1.
         -5    1    3    3    0  502 -0.11196359379E+02 -0.45735200127E+02  0.21068632184E+02  0.51753518297E+02  0.41800000000E+01 0.  1.
        -11    1    4    4    0    0 -0.80624571937E+02 -0.19824461291E+02 -0.32389847707E+02  0.89120329330E+02  0.00000000000E+00 0. -1.
         11    1    4    4    0    0 -0.62205430342E+01  0.27811249991E+02 -0.58775422010E+02  0.65320065938E+02  0.00000000000E+00 0.  1.
</event>
<event>
 8    1  0.6787197E-009  0.5520452E+02  0.7561462E-02  0.1419134E+00
         -2   -1    0    0    0  501 -0.00000000000E+00  0.00000000000E+00  0.46958649929E+02  0.46958649929E+02  0.00000000000E+00 0.  1.
          2   -1    0    0  501    0  0.00000000000E+00 -0.00000000000E+00 -0.27801458362E+03  0.27801458362E+03  0.00000000000E+00 0. -1.
         25    2    1    2    0    0 -0.30583431085E+02 -0.18599363580E+02 -0.14515759815E+03  0.19493509434E+03  0.12509068759E+03 0.  0.
         23    2    1    2    0    0  0.30583431085E+02  0.18599363580E+02 -0.85898335545E+02  0.13003813921E+03  0.90830121752E+02 0.  0.
          5    1    3    3  502    0 -0.15237594764E+02  0.19455776522E+02 -0.15118803019E+03  0.15325144177E+03  0.41800000000E+01 0. -1.
         -5    1    3    3    0  502 -0.15345836321E+02 -0.38055140102E+02  0.60304320396E+01  0.41683652565E+02  0.41800000000E+01 0. -1.
        -11    1    4    4    0    0  0.19622901600E+02 -0.30270552892E+01  0.15872183748E+02  0.25419432485E+02  0.00000000000E+00 0.  1.
         11    1    4    4    0    0  0.10960529485E+02  0.21626418869E+02 -0.10177051929E+03  0.10461870673E+03  0.00000000000E+00 0. -1.
</event>
<event>
 8    1  0.6787197E-009  0.9486063E+02  0.7561462E-02  0.1291490E+00
         -1   -1    0    0    0  501 -0.00000000000E+00  0.00000000000E+00  0.15449986339E+03  0.15449986339E+03  0.00000000000E+00 0.  1.
          1   -1    0    0  501    0  0.00000000000E+00 -0.00000000000E+00 -0.86767526339E+02  0.86767526339E+02  0.00000000000E+00 0. -1.
         25    2    1    2    0    0  0.13953026772E+02  0.23013617135E+02  0.20329324119E+02  0.12955724079E+03  0.12508990243E+03 0.  0.
         23    2    1    2    0    0 -0.13953026772E+02 -0.23013617135E+02  0.47403012932E+02  0.11171014894E+03  0.97507939228E+02 0.  0.
          5    1    3    3  502    0  0.40091239695E+02 -0.17109808323E+02 -0.35149038885E+02  0.56151405821E+02  0.41800000000E+01 0.  1.
         -5    1    3    3    0  502 -0.26138212923E+02  0.40123425458E+02  0.55478363004E+02  0.73405834965E+02  0.41800000000E+01 0.  1.
        -11    1    4    4    0    0  0.40274743721E+02 -0.15331161469E+02  0.70186994855E+01  0.43661901427E+02  0.00000000000E+00 0.  1.
         11    1    4    4    0    0 -0.54227770493E+02 -0.76824556657E+01  0.40384313447E+02  0.68048247518E+02  0.00000000000E+00 0. -1.
</event>
<event>
 8    1  0.6787197E-009  0.1212722E+03  0.7561462E-02  0.1241013E+00
         -2   -1    0    0    0  501 -0.00000000000E+00  0.00000000000E+00  0.48676191587E+02  0.48676191587E+02  0.00000000000E+00 0.  1.
          2   -1    0    0  501    0  0.00000000000E+00 -0.00000000000E+00 -0.32545906090E+03  0.32545906090E+03  0.00000000000E+00 0. -1.
         25    2    1    2    0    0 -0.97080014587E+01  0.62284211431E+02 -0.14761567560E+03  0.20349817473E+03  0.12509017207E+03 0.  0.
         23    2    1    2    0    0  0.97080014587E+01 -0.62284211431E+02 -0.12916719371E+03  0.17063707776E+03  0.91974344728E+02 0.  0.
          5    1    3    3  502    0  0.49380607057E+02 -0.56415920387E+01 -0.55718670752E+02  0.74781779762E+02  0.41800000000E+01 0. -1.
         -5    1    3    3    0  502 -0.59088608515E+02  0.67925803469E+02 -0.91897004848E+02  0.12871639497E+03  0.41800000000E+01 0. -1.
        -11    1    4    4    0    0  0.30905035969E+02 -0.72645742771E+02 -0.64974873544E+02  0.10224607270E+03  0.00000000000E+00 0.  1.
         11    1    4    4    0    0 -0.21197034510E+02  0.10361531341E+02 -0.64192320169E+02  0.68391005055E+02  0.00000000000E+00 0. -1.
</event>
<event>
 8    1  0.6787197E-009  0.1225998E+03  0.7561462E-02  0.1238869E+00
         -1   -1    0    0    0  501 -0.00000000000E+00  0.00000000000E+00  0.52175145736E+02  0.52175145736E+02  0.00000000000E+00 0.  1.
          1   -1    0    0  501    0  0.00000000000E+00 -0.00000000000E+00 -0.50329146497E+03  0.50329146497E+03  0.00000000000E+00 0. -1.
         25    2    1    2    0    0 -0.53650395583E+02 -0.52760402769E+02 -0.81289692204E+02  0.16708484467E+03  0.12508919303E+03 0.  0.
         23    2    1    2    0    0  0.53650395583E+02  0.52760402769E+02 -0.36982662703E+03  0.38838176604E+03  0.91687715012E+02 0.  0.
          5    1    3    3  502    0 -0.83636056001E+02  0.15863694719E+01 -0.45633993827E+02  0.95380502327E+02  0.41800000000E+01 0.  1.
         -5    1    3    3    0  502  0.29985660419E+02 -0.54346772240E+02 -0.35655698377E+02  0.71704342340E+02  0.41800000000E+01 0.  1.
        -11    1    4    4    0    0 -0.14417370806E+02  0.25283781681E+01 -0.77669743409E+01  0.16570430517E+02  0.00000000000E+00 0.  1.
         11    1    4    4    0    0  0.68067766388E+02  0.50232024600E+02 -0.36205965269E+03  0.37181133552E+03  0.00000000000E+00 0. -1.
</event>
<event>
 8    1  0.6787197E-009  0.1259650E+03  0.7561462E-02  0.1233569E+00
         -3   -1    0    0    0  501 -0.00000000000E+00  0.00000000000E+00  0.69647208256E+02  0.69647208256E+02  0.00000000000E+00 0.  1.
          3   -1    0    0  501    0  0.00000000000E+00 -0.00000000000E+00 -0.24463748525E+03  0.24463748525E+03  0.00000000000E+00 0. -1.
         25    2    1    2    0    0 -0.37892349260E+02  0.57879464349E+02 -0.11898789022E+03  0.18598656157E+03  0.12508805115E+03 0.  0.
         23    2    1    2    0    0  0.37892349260E+02 -0.57879464349E+02 -0.56002386776E+02  0.12829813194E+03  0.92402818181E+02 0.  0.
          5    1    3    3  502    0  0.66751842341E+01 -0.37004920284E+02 -0.27307679337E+02  0.46659446638E+02  0.41800000000E+01 0. -1.
         -5    1    3    3    0  502 -0.44567533494E+02  0.94884384633E+02 -0.91680210883E+02  0.13932711494E+03  0.41800000000E+01 0. -1.
        -11    1    4    4    0    0  0.76969623789E+01 -0.74377300724E+02 -0.17759860269E+02  0.76854659778E+02  0.00000000000E+00 0.  1.
         11    1    4    4    0    0  0.30195386881E+02  0.16497836375E+02 -0.38242526507E+02  0.51443472157E+02  0.00000000000E+00 0. -1.
</event>
<event>
 8    1  0.6787197E-009  0.9013105E+02  0.7561462E-02  0.1302535E+00
         -3   -1    0    0    0  501 -0.00000000000E+00  0.00000000000E+00  0.43363000516E+02  0.43363000516E+02  0.00000000000E+00 0.  1.
          3   -1    0    0  501    0  0.00000000000E+00 -0.00000000000E+00 -0.31615840225E+03  0.31615840225E+03  0.00000000000E+00 0. -1.
         25    2    1    2    0    0  0.46900992778E+01  0.31339135885E+02 -0.20006920541E+03  0.23807178802E+03  0.12508537415E+03 0.  0.
         23    2    1    2    0    0 -0.46900992778E+01 -0.31339135885E+02 -0.72726196318E+02  0.12144961474E+03  0.91960702593E+02 0.  0.
          5    1    3    3  502    0  0.50423778188E+02  0.50809505463E+02 -0.15526469658E+03  0.17102269339E+03  0.41800000000E+01 0. -1.
         -5    1    3    3    0  502 -0.45733678910E+02 -0.19470369578E+02 -0.44804508835E+02  0.67049094625E+02  0.41800000000E+01 0. -1.
        -11    1    4    4    0    0  0.22362989392E+02 -0.11644605474E+02  0.13754391124E+02  0.28720783527E+02  0.00000000000E+00 0.  1.
         11    1    4    4    0    0 -0.27053088670E+02 -0.19694530411E+02 -0.86480587442E+02  0.92728831218E+02  0.00000000000E+00 0. -1.
</event>
<event>
 8    1  0.6787197E-009  0.1299213E+03  0.7561462E-02  0.1227573E+00
         -1   -1    0    0    0  501 -0.00000000000E+00  0.00000000000E+00  0.84652868216E+02  0.84652868216E+02  0.00000000000E+00 0.  1.
          1   -1    0    0  501    0  0.00000000000E+00 -0.00000000000E+00 -0.40563435775E+03  0.40563435775E+03  0.00000000000E+00 0. -1.
         25    2    1    2    0    0  0.25023633077E+02  0.12251308356E+03 -0.60062848484E+02  0.18679094673E+03  0.12509066374E+03 0.  0.
         23    2    1    2    0    0 -0.25023633077E+02 -0.12251308356E+03 -0.26091864105E+03  0.30349627924E+03  0.91628687687E+02 0.  0.
          5    1    3    3  502    0 -0.43203477686E+01  0.26227979570E+00 -0.60699131145E+02  0.60996648410E+02  0.41800000000E+01 0. -1.
         -5    1    3    3    0  502  0.29343980846E+02  0.12225080377E+03  0.63628266064E+00  0.12579429832E+03  0.41800000000E+01 0. -1.
        -11    1    4    4    0    0  0.38197882553E+01 -0.47688318139E+02 -0.24301034845E+02  0.53659172224E+02  0.00000000000E+00 0.  1.
         11    1    4    4    0    0 -0.28843421333E+02 -0.74824765425E+02 -0.23661760620E+03  0.24983710701E+03  0.00000000000E+00 0. -1.
</event>
<event>
 8    1  0.6787197E-009  0.7935593E+02  0.7561462E-02  0.1330889E+00
         -1   -1    0    0    0  501 -0.00000000000E+00  0.00000000000E+00  0.60475517235E+02  0.60475517235E+02  0.00000000000E+00 0.  1.
          1   -1    0    0  501    0  0.00000000000E+00 -0.00000000000E+00 -0.49916394840E+03  0.49916394840E+03  0.00000000000E+00 0. -1.
         25    2    1    2    0    0  0.20328175946E+02  0.47097704569E+02 -0.43433039973E+03  0.45488614741E+03  0.12508829868E+03 0.  0.
         23    2    1    2    0    0 -0.20328175946E+02 -0.47097704569E+02 -0.43580314334E+01  0.10475331822E+03  0.91229582521E+02 0.  0.
          5    1    3    3  502    0  0.23663091917E+02  0.15777683866E+02 -0.41832097538E+03  0.41930751015E+03  0.41800000000E+01 0. -1.
         -5    1    3    3    0  502 -0.33349159718E+01  0.31320020703E+02 -0.16009424351E+02  0.35578637262E+02  0.41800000000E+01 0. -1.
        -11    1    4    4    0    0 -0.37358192496E+02 -0.64059176847E+02  0.12758066570E+02  0.75246135765E+02  0.00000000000E+00 0.  1.
         11    1    4    4    0    0  0.17030016550E+02  0.16961472278E+02 -0.17116098003E+02  0.29507182454E+02  0.00000000000E+00 0. -1.
</event>
<event>
 8    1  0.6787197E-009  0.1239664E+03  0.7561462E-02  0.1236694E+00
         -4   -1    0    0    0  501 -0.00000000000E+00  0.00000000000E+00  0.66772261982E+03  0.66772261982E+03  0.00000000000E+00 0.  1.
          4   -1    0    0  501    0  0.00000000000E+00 -0.00000000000E+00 -0.33282031525E+02  0.33282031525E+02  0.00000000000E+00 0. -1.
         25    2    1    2    0    0 -0.52202647180E+02 -0.48331356391E+02  0.17241084486E+03  0.22457673049E+03  0.12509265395E+03 0.  0.
         23    2    1    2    0    0  0.52202647180E+02  0.48331356391E+02  0.46202974344E+03  0.47642792085E+03  0.91929557605E+02 0.  0.
          5    1    3    3  502    0 -0.10861360368E+02 -0.83722947920E+02  0.75423900380E+02  0.11328609052E+03  0.41800000000E+01 0.  1.
         -5    1    3    3    0  502 -0.41341286812E+02  0.35391591529E+02  0.96986944476E+02  0.11129063997E+03  0.41800000000E+01 0.  1.
        -11    1    4    4    0    0  0.47082189529E+02 -0.11748293779E+02  0.29241814723E+03  0.29641715167E+03  0.00000000000E+00 0. -1.
         11    1    4    4    0    0  0.51204576511E+01  0.60079650170E+02  0.16961159621E+03  0.18001076918E+03  0.00000000000E+00 0.  1.
</event>
<event>
 8    1  0.6787197E-009  0.1292455E+03  0.7561462E-02  0.1228580E+00
          1   -1    0    0  501    0  0.00000000000E+00  0.00000000000E+00  0.57118556536E+03  0.57118556536E+03  0.00000000000E+00 0. -1.
         -1   -1    0    0    0  501 -0.00000000000E+00 -0.00000000000E+00 -0.42073430381E+02  0.42073430381E+02  0.00000000000E+00 0.  1.
         25    2    1    2    0    0 -0.55418306482E+02 -0.95032654738E+02  0.26434763653E+03  0.31245820359E+03  0.12509221356E+03 0.  0.
         23    2    1    2    0    0  0.55418306482E+02  0.95032654738E+02  0.26476449845E+03  0.30080079215E+03  0.90986167951E+02 0.  0.
          5    1    3    3  502    0  0.19051788281E+02 -0.59103207514E+02  0.41701267178E+02  0.74917473659E+02  0.41800000000E+01 0. -1.
         -5    1    3    3    0  502 -0.74470094763E+02 -0.35929447223E+02  0.22264636935E+03  0.23754072993E+03  0.41800000000E+01 0. -1.
        -11    1    4    4    0    0  0.32067462871E+02  0.28324459486E+02  0.22305798195E+02  0.48250863342E+02  0.00000000000E+00 0.  1.
         11    1    4    4    0    0  0.23350843612E+02  0.66708195251E+02  0.24245870026E+03  0.25254992881E+03  0.00000000000E+00 0. -1.
</event>
<event>
 8    1  0.6787197E-009  0.1334314E+03  0.7561462E-02  0.1222451E+00
         -1   -1    0    0    0  501 -0.00000000000E+00  0.00000000000E+00  0.14453780653E+03  0.14453780653E+03  0.00000000000E+00 0.  1.
          1   -1    0    0  501    0  0.00000000000E+00 -0.00000000000E+00 -0.18948816696E+03  0.18948816696E+03  0.00000000000E+00 0. -1.
         25    2    1    2    0    0  0.79762138722E+02 -0.81460123921E+02 -0.68598857238E+02  0.18262290492E+03  0.12509025391E+03 0.  0.
         23    2    1    2    0    0 -0.79762138722E+02  0.81460123921E+02  0.23648496813E+02  0.15140306857E+03  0.96777513962E+02 0.  0.
          5    1    3    3  502    0  0.61540647037E-01 -0.13901848039E+02  0.33480936642E+02  0.36492611369E+02  0.41800000000E+01 0.  1.
         -5    1    3    3    0  502  0.79700598075E+02 -0.67558275882E+02 -0.10207979388E+03  0.14613029355E+03  0.41800000000E+01 0.  1.
        -11    1    4    4    0    0 -0.83583021616E+02  0.19661062847E+02  0.22538577985E+01  0.85893880863E+02  0.00000000000E+00 0. -1.
         11    1    4    4    0    0  0.38208828942E+01  0.61799061074E+02  0.21394639014E+02  0.65509187709E+02  0.00000000000E+00 0.  1.
</event>
<event>
 8    1  0.6787197E-009  0.1450893E+03  0.7561462E-02  0.1206640E+00
          1   -1    0    0  501    0  0.00000000000E+00  0.00000000000E+00  0.65041469021E+03  0.65041469021E+03  0.00000000000E+00 0. -1.
         -1   -1    0    0    0  501 -0.00000000000E+00 -0.00000000000E+00 -0.35440242633E+02  0.35440242633E+02  0.00000000000E+00 0.  1.
         25    2    1    2    0    0  0.39370894981E+02  0.90618614160E+02  0.25318935119E+03  0.29918962880E+03  0.12509111010E+03 0.  0.
         23    2    1    2    0    0 -0.39370894981E+02 -0.90618614160E+02  0.36178509639E+03  0.38666530404E+03  0.94126514720E+02 0.  0.
          5    1    3    3  502    0 -0.17350387112E+02 -0.24755100028E+02  0.42127650888E+02  0.52019825833E+02  0.41800000000E+01 0.  1.
         -5    1    3    3    0  502  0.56721282094E+02  0.11537371419E+03  0.21106170030E+03  0.24716980297E+03  0.41800000000E+01 0.  1.
        -11    1    4    4    0    0  0.15411721721E+02 -0.71291525171E+02  0.14611196725E+03  0.16330557156E+03  0.00000000000E+00 0. -1.
         11    1    4    4    0    0 -0.54782616702E+02 -0.19327088990E+02  0.21567312914E+03  0.22335973249E+03  0.00000000000E+00 0.  1.
</event>
<event>
 8    1  0.6787197E-009  0.1187680E+03  0.7561462E-02  0.1245143E+00
         -1   -1    0    0    0  501 -0.00000000000E+00  0.00000000000E+00  0.14413277251E+03  0.14413277251E+03  0.00000000000E+00 0. -1.
          1   -1    0    0  501    0  0.00000000000E+00 -0.00000000000E+00 -0.16581518896E+03  0.16581518896E+03  0.00000000000E+00 0.  1.
         25    2    1    2    0    0  0.72261413209E+02  0.82770646921E+02 -0.33923292534E+01  0.16652843656E+03  0.12509004938E+03 0.  0.
         23    2    1    2    0    0 -0.72261413209E+02 -0.82770646921E+02 -0.18290087200E+02  0.14341952490E+03  0.90343461321E+02 0.  0.
          5    1    3    3  502    0  0.52613648580E+02  0.90864902359E+02 -0.49072084056E+02  0.11597486077E+03  0.41800000000E+01 0.  1.
         -5    1    3    3    0  502  0.19647764629E+02 -0.80942554377E+01  0.45679754802E+02  0.50553575787E+02  0.41800000000E+01 0.  1.
        -11    1    4    4    0    0 -0.60373504646E+02 -0.60037041370E+02 -0.52974778149E+02  0.10027828040E+03  0.00000000000E+00 0.  1.
         11    1    4    4    0    0 -0.11887908562E+02 -0.22733605551E+02  0.34684690949E+02  0.43141244506E+02  0.00000000000E+00 0. -1.
</event>
<event>
 8    1  0.6787197E-009  0.2851017E+03  0.7561462E-02  0.1092935E+00
          2   -1    0    0  501    0  0.00000000000E+00  0.00000000000E+00  0.10367666984E+04  0.10367666984E+04  0.00000000000E+00 0. -1.
         -2   -1    0    0    0  501 -0.00000000000E+00 -0.00000000000E+00 -0.87413324179E+02  0.87413324179E+02  0.00000000000E+00 0.  1.
         25    2    1    2    0    0  0.15174864149E+03  0.22429625614E+03  0.61801008170E+03  0.68623744452E+03  0.12509559734E+03 0.  0.
         23    2    1    2    0    0 -0.15174864149E+03 -0.22429625614E+03  0.33134329253E+03  0.43794257806E+03  0.93106731549E+02 0.  0.
          5    1    3    3  502    0  0.15551120980E+03  0.14653417423E+03  0.51053596650E+03  0.55346223546E+03  0.41800000000E+01 0.  1.
         -5    1    3    3    0  502 -0.37625683135E+01  0.77762081917E+02  0.10747411519E+03  0.13277520906E+03  0.41800000000E+01 0.  1.
        -11    1    4    4    0    0 -0.40100669879E+02 -0.18002694697E+02  0.20437273756E+02  0.48475178181E+02  0.00000000000E+00 0.  1.
         11    1    4    4    0    0 -0.11164797161E+03 -0.20629356145E+03  0.31090601877E+03  0.38946739988E+03  0.00000000000E+00 0. -1.
</event>
<event>
 8    1  0.6787197E-009  0.1412237E+03  0.7561462E-02  0.1211692E+00
         -1   -1    0    0    0  501 -0.00000000000E+00  0.00000000000E+00  0.70975196458E+02  0.70975196458E+02  0.00000000000E+00 0.  1.
          1   -1    0    0  501    0  0.00000000000E+00 -0.00000000000E+00 -0.31897935786E+03  0.31897935786E+03  0.00000000000E+00 0. -1.
         25    2    1    2    0    0 -0.34516527575E+02 -0.90002494012E+02 -0.93908315803E+02  0.18373537478E+03  0.12509227220E+03 0.  0.
         23    2    1    2    0    0  0.34516527575E+02  0.90002494012E+02 -0.15409584560E+03  0.20621917954E+03  0.97411399617E+02 0.  0.
          5    1    3    3  502    0 -0.15817570339E+02 -0.12026211966E+03 -0.79729563742E+02  0.14521518065E+03  0.41800000000E+01 0. -1.
         -5    1    3    3    0  502 -0.18698957235E+02  0.30259625645E+02 -0.14178752061E+02  0.38520194131E+02  0.41800000000E+01 0. -1.
        -11    1    4    4    0    0 -0.24993839675E+02  0.41695499681E+02 -0.21699486839E+02  0.53236025813E+02  0.00000000000E+00 0.  1.
         11    1    4    4    0    0  0.59510367249E+02  0.48306994331E+02 -0.13239635876E+03  0.15298315373E+03  0.00000000000E+00 0. -1.
</event>
<event>
 8    1  0.6787197E-009  0.2569833E+03  0.7561462E-02  0.1108969E+00
          1   -1    0    0  501    0  0.00000000000E+00  0.00000000000E+00  0.16161720544E+04  0.16161720544E+04  0.00000000000E+00 0. -1.
         -1   -1    0    0    0  501 -0.00000000000E+00 -0.00000000000E+00 -0.43795343814E+02  0.43795343814E+02  0.00000000000E+00 0.  1.
         25    2    1    2    0    0 -0.18692003288E+03 -0.15444483988E+03  0.74788750959E+03  0.79610019101E+03  0.12508988711E+03 0.  0.
         23    2    1    2    0    0  0.18692003288E+03  0.15444483988E+03  0.82448920098E+03  0.86386720720E+03  0.87702918295E+02 0.  0.
          5    1    3    3  502    0 -0.20403482835E+03 -0.14605737896E+03  0.66071742784E+03  0.70677292038E+03  0.41800000000E+01 0. -1.
         -5    1    3    3    0  502  0.17114795476E+02 -0.83874609185E+01  0.87170081749E+02  0.89327270623E+02  0.41800000000E+01 0. -1.
        -11    1    4    4    0    0  0.11407318900E+03  0.10809087515E+03  0.65577360571E+03  0.67434067924E+03  0.00000000000E+00 0. -1.
         11    1    4    4    0    0  0.72846843879E+02  0.46353964734E+02  0.16871559527E+03  0.18952652795E+03  0.00000000000E+00 0.  1.
</event>
<event>
 8    1  0.6787197E-009  0.6114810E+02  0.7561462E-02  0.1393076E+00
          1   -1    0    0  501    0  0.00000000000E+00  0.00000000000E+00  0.10201895930E+03  0.10201895930E+03  0.00000000000E+00 0. -1.
         -1   -1    0    0    0  501 -0.00000000000E+00 -0.00000000000E+00 -0.15593534850E+03  0.15593534850E+03  0.00000000000E+00 0.  1.
         25    2    1    2    0    0  0.12781144192E+02 -0.22064021315E+02 -0.88320198270E+02  0.15523870236E+03  0.12509363935E+03 0.  0.
         23    2    1    2    0    0 -0.12781144192E+02  0.22064021315E+02  0.34403809070E+02  0.10271560545E+03  0.93363241378E+02 0.  0.
          5    1    3    3  502    0 -0.14145495846E+02  0.18775019453E+02  0.23261242139E+02  0.33333979571E+02  0.41800000000E+01 0.  1.
         -5    1    3    3    0  502  0.26926640039E+02 -0.40839040767E+02 -0.11158144041E+03  0.12190472279E+03  0.41800000000E+01 0.  1.
        -11    1    4    4    0    0 -0.27035914291E+02  0.57136576714E+01  0.61844198773E+02  0.67736928388E+02  0.00000000000E+00 0. -1.
         11    1    4    4    0    0  0.14254770099E+02  0.16350363643E+02 -0.27440389703E+02  0.34978677060E+02  0.00000000000E+00 0.  1.
</event>
<event>
 8    1  0.6787197E-009  0.1049561E+03  0.7561462E-02  0.1270206E+00
         -4   -1    0    0    0  501 -0.00000000000E+00  0.00000000000E+00  0.45527655214E+03  0.45527655214E+03  0.00000000000E+00 0.  1.
          4   -1    0    0  501    0  0.00000000000E+00 -0.00000000000E+00 -0.37721451301E+02  0.37721451301E+02  0.00000000000E+00 0. -1.
         25    2    1    2    0    0  0.72631734475E+02  0.31891327118E+01  0.21715995586E+03  0.26094389912E+03  0.12509089751E+03 0.  0.
         23    2    1    2    0    0 -0.72631734475E+02 -0.31891327118E+01  0.20039514498E+03  0.23205410431E+03  0.91680716503E+02 0.  0.
          5    1    3    3  502    0  0.71371209037E+02 -0.17108799714E+02  0.42214709150E+02  0.84770953609E+02  0.41800000000E+01 0. -1.
         -5    1    3    3    0  502  0.12605254385E+01  0.20297932426E+02  0.17494524671E+03  0.17617294551E+03  0.41800000000E+01 0. -1.
        -11    1    4    4    0    0 -0.70066239272E+01  0.37680833790E+02  0.83898180464E+02  0.92237967775E+02  0.00000000000E+00 0. -1.
         11    1    4    4    0    0 -0.65625110548E+02 -0.40869966501E+02  0.11649696451E+03  0.13981613654E+03  0.00000000000E+00 0.  1.
</event>
<event>
 8    1  0.6787197E-009  0.1546617E+03  0.7561462E-02  0.1194859E+00
          1   -1    0    0  501    0  0.00000000000E+00  0.00000000000E+00  0.63382388589E+03  0.63382388589E+03  0.00000000000E+00 0. -1.
         -1   -1    0    0    0  501 -0.00000000000E+00 -0.00000000000E+00 -0.10399888784E+03  0.10399888784E+03  0.00000000000E+00 0.  1.
         25    2    1    2    0    0 -0.87076037723E+02 -0.10969747133E+03  0.58534550487E+01  0.18787809659E+03  0.12509254447E+03 0.  0.
         23    2    1    2    0    0  0.87076037723E+02  0.10969747133E+03  0.52397154300E+03  0.54994467714E+03  0.90979110109E+02 0.  0.
          5    1    3    3  502    0 -0.79752369008E+02 -0.27570144375E+02 -0.39959081893E+02  0.93459905034E+02  0.41800000000E+01 0. -1.
         -5    1    3    3    0  502 -0.73236687155E+01 -0.82127326957E+02  0.45812536942E+02  0.94418191561E+02  0.41800000000E+01 0. -1.
        -11    1    4    4    0    0  0.38004629577E+02  0.67925035347E+02  0.42342106422E+03  0.43051545840E+03  0.00000000000E+00 0. -1.
         11    1    4    4    0    0  0.49071408146E+02  0.41772435984E+02  0.10055047878E+03  0.11942921874E+03  0.00000000000E+00 0.  1.
</event>
<event>
 8    1  0.6787197E-009  0.1782204E+03  0.7561462E-02  0.1169537E+00
         -1   -1    0    0    0  501 -0.00000000000E+00  0.00000000000E+00  0.49816076546E+02  0.49816076546E+02  0.00000000000E+00 0.  1.
          1   -1    0    0  501    0  0.00000000000E+00 -0.00000000000E+00 -0.80841503863E+03  0.80841503863E+03  0.00000000000E+00 0. -1.
         25    2    1    2    0    0  0.75444043269E+02 -0.15165183898E+03 -0.42511971863E+03  0.47440939367E+03  0.12508962269E+03 0.  0.
         23    2    1    2    0    0 -0.75444043269E+02  0.15165183898E+03 -0.33347924346E+03  0.38382172151E+03  0.86143044713E+02 0.  0.
          5    1    3    3  502    0  0.24197766778E+02 -0.86720062106E+02 -0.83401912550E+02  0.12279760790E+03  0.41800000000E+01 0. -1.
         -5    1    3    3    0  502  0.51246276491E+02 -0.64931776878E+02 -0.34171780608E+03  0.35161178577E+03  0.41800000000E+01 0. -1.
        -11    1    4    4    0    0 -0.33295687510E+02  0.86467138698E+01 -0.10937365051E+03  0.11465584980E+03  0.00000000000E+00 0. -1.
         11    1    4    4    0    0 -0.42148355760E+02  0.14300512511E+03 -0.22410559295E+03  0.26916587171E+03  0.00000000000E+00 0.  1.
</event>
<event>
 8    1  0.6787197E-009  0.1053294E+03  0.7561462E-02  0.1269472E+00
          1   -1    0    0  501    0  0.00000000000E+00  0.00000000000E+00  0.11243939655E+04  0.11243939655E+04  0.00000000000E+00 0. -1.
         -1   -1    0    0    0  501 -0.00000000000E+00 -0.00000000000E+00 -0.31586266618E+02  0.31586266618E+02  0.00000000000E+00 0.  1.
         25    2    1    2    0    0 -0.31968424755E+02  0.14451198398E+02  0.10343478967E+04  0.10424750344E+04  0.12509120157E+03 0.  0.
         23    2    1    2    0    0  0.31968424755E+02 -0.14451198398E+02  0.58459802234E+02  0.11350519773E+03  0.90747254048E+02 0.  0.
          5    1    3    3  502    0  0.29146797182E+02  0.50278746337E+02  0.52010863845E+03  0.52336216554E+03  0.41800000000E+01 0.  1.
         -5    1    3    3    0  502 -0.61115221936E+02 -0.35827547938E+02  0.51423925820E+03  0.51911286886E+03  0.41800000000E+01 0.  1.
        -11    1    4    4    0    0  0.52090040811E+02  0.63621425083E+01  0.65285543811E+02  0.83761873425E+02  0.00000000000E+00 0. -1.
         11    1    4    4    0    0 -0.20121616057E+02 -0.20813340907E+02 -0.68257415771E+01  0.29743324301E+02  0.00000000000E+00 0.  1.
</event>
<event>
 8    1  0.6787197E-009  0.1308272E+03  0.7561462E-02  0.1226233E+00
          4   -1    0    0  501    0  0.00000000000E+00  0.00000000000E+00  0.14828568769E+03  0.14828568769E+03  0.00000000000E+00 0. -1.
         -4   -1    0    0    0  501 -0.00000000000E+00 -0.00000000000E+00 -0.14641136404E+03  0.14641136404E+03  0.00000000000E+00 0.  1.
         25    2    1    2    0    0 -0.97435359039E+02  0.15704450937E+02  0.14096437587E+02  0.15996750387E+03  0.12510241313E+03 0.  0.
         23    2    1    2    0    0  0.97435359039E+02 -0.15704450937E+02 -0.12222113940E+02  0.13472954786E+03  0.90897700889E+02 0.  0.
          5    1    3    3  502    0 -0.89103534397E+02  0.53998415610E+02 -0.21949383111E+02  0.10655757387E+03  0.41800000000E+01 0.  1.
         -5    1    3    3    0  502 -0.83318246422E+01 -0.38293964674E+02  0.36045820697E+02  0.53409929995E+02  0.41800000000E+01 0.  1.
        -11    1    4    4    0    0  0.37710262862E+01  0.18026656480E+02 -0.28421854527E+02  0.33867134480E+02  0.00000000000E+00 0.  1.
         11    1    4    4    0    0  0.93664332753E+02 -0.33731107417E+02  0.16199740587E+02  0.10086241338E+03  0.00000000000E+00 0. -1.
</event>
<event>
 8    1  0.6787197E-009  0.1102617E+03  0.7561462E-02  0.1260086E+00
         -4   -1    0    0    0  501 -0.00000000000E+00  0.00000000000E+00  0.19408271875E+02  0.19408271875E+02  0.00000000000E+00 0.  1.
          4   -1    0    0  501    0  0.00000000000E+00 -0.00000000000E+00 -0.63646114216E+03  0.63646114216E+03  0.00000000000E+00 0. -1.
         25    2    1    2    0    0 -0.14837563249E+02 -0.17850735020E+02 -0.33842554290E+03  0.36155098877E+03  0.12509383425E+03 0.  0.
         23    2    1    2    0    0  0.14837563249E+02  0.17850735020E+02 -0.27862732738E+03  0.29431842527E+03  0.91931201788E+02 0.  0.
          5    1    3    3  502    0  0.45144324897E+02 -0.41313134439E+02 -0.13874709376E+03  0.15170040730E+03  0.41800000000E+01 0.  1.
         -5    1    3    3    0  502 -0.59981888146E+02  0.23462399419E+02 -0.19967844914E+03  0.20985058147E+03  0.41800000000E+01 0.  1.
        -11    1    4    4    0    0  0.50415413317E+02 -0.74826540336E+01 -0.14114782121E+03  0.15006802272E+03  0.00000000000E+00 0.  1.
         11    1    4    4    0    0 -0.35577850068E+02  0.25333389054E+02 -0.13747950617E+03  0.14425040254E+03  0.00000000000E+00 0. -1.
</event>
<event>
 8    1  0.6787197E-009  0.1137780E+03  0.7561462E-02  0.1253729E+00
          2   -1    0    0  501    0  0.00000000000E+00  0.00000000000E+00  0.29895523215E+02  0.29895523215E+02  0.00000000000E+00 0. -1.
         -2   -1    0    0    0  501 -0.00000000000E+00 -0.00000000000E+00 -0.48953696042E+03  0.48953696042E+03  0.00000000000E+00 0.  1.
         25    2    1    2    0    0 -0.37686205850E+02 -0.25626477460E+02 -0.31134493431E+03  0.33861152211E+03  0.12508048738E+03 0.  0.
         23    2    1    2    0    0  0.37686205850E+02  0.25626477460E+02 -0.14829650289E+03  0.18082096152E+03  0.92883803211E+02 0.  0.
          5    1    3    3  502    0 -0.41056582573E+02  0.44446149134E+02 -0.11406255273E+03  0.12918529901E+03  0.41800000000E+01 0. -1.
         -5    1    3    3    0  502  0.33703767227E+01 -0.70072626594E+02 -0.19728238159E+03  0.20942622310E+03  0.41800000000E+01 0. -1.
        -11    1    4    4    0    0  0.30323791598E+02 -0.28730773408E+02 -0.33335779252E+02  0.53444025446E+02  0.00000000000E+00 0. -1.
         11    1    4    4    0    0  0.73624142518E+01  0.54357250868E+02 -0.11496072364E+03  0.12737693608E+03  0.00000000000E+00 0.  1.
</event>
<event>
 8    1  0.6787197E-009  0.8045275E+02  0.7561462E-02  0.1327771E+00
         -1   -1    0    0    0  501 -0.00000000000E+00  0.00000000000E+00  0.81670751213E+02  0.81670751213E+02  0.00000000000E+00 0.  1.
          1   -1    0    0  501    0  0.00000000000E+00 -0.00000000000E+00 -0.24321128199E+03  0.24321128199E+03  0.00000000000E+00 0. -1.
         25    2    1    2    0    0 -0.58163356233E+02  0.29711453155E+02 -0.17137910418E+02  0.14215175425E+03  0.12509063437E+03 0.  0.
         23    2    1    2    0    0  0.58163356233E+02 -0.29711453155E+02 -0.14440262036E+03  0.18273027896E+03  0.90953238661E+02 0.  0.
          5    1    3    3  502    0 -0.16934443190E+02  0.47026185547E+02 -0.61272723172E+02  0.79183688334E+02  0.41800000000E+01 0.  1.
         -5    1    3    3    0  502 -0.41228913043E+02 -0.17314732392E+02  0.44134812754E+02  0.62968065917E+02  0.41800000000E+01 0.  1.
        -11    1    4    4    0    0  0.23264776933E+02 -0.16495722109E+02  0.48098473200E+01  0.28922194330E+02  0.00000000000E+00 0.  1.
         11    1    4    4    0    0  0.34898579300E+02 -0.13215731047E+02 -0.14921246768E+03  0.15380808463E+03  0.00000000000E+00 0. -1.
</event>
<event>
 8    1  0.6787197E-009  0.1754594E+03  0.7561462E-02  0.1172271E+00
          1   -1    0    0  501    0  0.00000000000E+00  0.00000000000E+00  0.29358999641E+03  0.29358999641E+03  0.00000000000E+00 0. -1.
         -1   -1    0    0    0  501 -0.00000000000E+00 -0.00000000000E+00 -0.12341774946E+03  0.12341774946E+03  0.00000000000E+00 0.  1.
         25    2    1    2    0    0 -0.34162845468E+02 -0.14090265465E+03  0.15315290569E+03  0.24520182895E+03  0.12508983294E+03 0.  0.
         23    2    1    2    0    0  0.34162845468E+02  0.14090265465E+03  0.17019341265E+02  0.17180591692E+03  0.90592256924E+02 0.  0.
          5    1    3    3  502    0  0.31321735343E+02 -0.93519600665E+01  0.59065544421E-01  0.32954303978E+02  0.41800000000E+01 0.  1.
         -5    1    3    3    0  502 -0.65484580811E+02 -0.13155069458E+03  0.15309384014E+03  0.21224752498E+03  0.41800000000E+01 0.  1.
        -11    1    4    4    0    0  0.49964645055E+02  0.28646938669E+02  0.62918997723E+01  0.57937042153E+02  0.00000000000E+00 0.  1.
         11    1    4    4    0    0 -0.15801799587E+02  0.11225571598E+03  0.10727441493E+02  0.11386887477E+03  0.00000000000E+00 0. -1.
</event>
<event>
 8    1  0.6787197E-009  0.1251265E+03  0.7561462E-02  0.1234872E+00
         -1   -1    0    0    0  501 -0.00000000000E+00  0.00000000000E+00  0.11773660065E+03  0.11773660065E+03  0.00000000000E+00 0.  1.
          1   -1    0    0  501    0  0.00000000000E+00 -0.00000000000E+00 -0.14496976563E+03  0.14496976563E+03  0.00000000000E+00 0. -1.
         25    2    1    2    0    0  0.53380973290E+01  0.75862170508E+02 -0.14535686607E+02  0.14711239245E+03  0.12508879098E+03 0.  0.
         23    2    1    2    0    0 -0.53380973290E+01 -0.75862170508E+02 -0.12697478375E+02  0.11559397383E+03  0.86123031945E+02 0.  0.
          5    1    3    3  502    0  0.25579624606E+02 -0.23784099848E+02 -0.27326506304E+02  0.44544482794E+02  0.41800000000E+01 0. -1.
         -5    1    3    3    0  502 -0.20241527277E+02  0.99646270356E+02  0.12790819697E+02  0.10256790965E+03  0.41800000000E+01 0. -1.
        -11    1    4    4    0    0  0.34380275472E+02 -0.90004427322E+01  0.48540906681E+01  0.35868837549E+02  0.00000000000E+00 0.  1.
         11    1    4    4    0    0 -0.39718372801E+02 -0.66861727775E+02 -0.17551569044E+02  0.79725136281E+02  0.00000000000E+00 0. -1.
</event>
<event>
 8    1  0.6787197E-009  0.1523583E+03  0.7561462E-02  0.1197605E+00
         -2   -1    0    0    0  501 -0.00000000000E+00  0.00000000000E+00  0.13566573763E+03  0.13566573763E+03  0.00000000000E+00 0. -1.
          2   -1    0    0  501    0  0.00000000000E+00 -0.00000000000E+00 -0.91092652544E+03  0.91092652544E+03  0.00000000000E+00 0.  1.
         25    2    1    2    0    0 -0.10324569725E+03 -0.10221977523E+03 -0.84185122780E+03  0.86340474524E+03  0.12508280417E+03 0.  0.
         23    2    1    2    0    0  0.10324569725E+03  0.10221977523E+03  0.66590439988E+02  0.18318751783E+03  0.89525546874E+02 0.  0.
          5    1    3    3  502    0 -0.45468325984E+02 -0.71602710911E+01 -0.72072976368E+02  0.85619066057E+02  0.41800000000E+01 0.  1.
         -5    1    3    3    0  502 -0.57777371265E+02 -0.95059504137E+02 -0.76977825144E+03  0.77778567918E+03  0.41800000000E+01 0.  1.
        -11    1    4    4    0    0  0.61167163400E+02  0.44016181737E+02  0.80242527426E+02  0.11008046757E+03  0.00000000000E+00 0. -1.
         11    1    4    4    0    0  0.42078533849E+02  0.58203593491E+02 -0.13652087438E+02  0.73107050259E+02  0.00000000000E+00 0.  1.
</event>
<event>
 8    1  0.6787197E-009  0.1106189E+03  0.7561462E-02  0.1259428E+00
         -3   -1    0    0    0  501 -0.00000000000E+00  0.00000000000E+00  0.23923105979E+03  0.23923105979E+03  0.00000000000E+00 0.  1.
          3   -1    0    0  501    0  0.00000000000E+00 -0.00000000000E+00 -0.99536224384E+02  0.99536224384E+02  0.00000000000E+00 0. -1.
         25    2    1    2    0    0  0.79799863204E+02  0.13976975891E+02  0.15583547839E+03  0.21562896716E+03  0.12509109134E+03 0.  0.
         23    2    1    2    0    0 -0.79799863204E+02 -0.13976975891E+02 -0.16140642978E+02  0.12313831701E+03  0.91318950601E+02 0.  0.
          5    1    3    3  502    0  0.76606959055E+02  0.31015901102E+02  0.29214697110E+02  0.87758664667E+02  0.41800000000E+01 0. -1.
         -5    1    3    3    0  502  0.31929041491E+01 -0.17038925211E+02  0.12662078128E+03  0.12787030250E+03  0.41800000000E+01 0. -1.
        -11    1    4    4    0    0 -0.50414197154E+02 -0.52113248057E+02 -0.47545226486E+00  0.72509364585E+02  0.00000000000E+00 0.  1.
         11    1    4    4    0    0 -0.29385666051E+02  0.38136272166E+02 -0.15665190713E+02  0.50628952429E+02  0.00000000000E+00 0. -1.
</event>
<event>
 8    1  0.6787197E-009  0.1370451E+03  0.7561462E-02  0.1217361E+00
         -3   -1    0    0    0  501 -0.00000000000E+00  0.00000000000E+00  0.39122382138E+03  0.39122382138E+03  0.00000000000E+00 0.  1.
          3   -1    0    0  501    0  0.00000000000E+00 -0.00000000000E+00 -0.93091008956E+02  0.93091008956E+02  0.00000000000E+00 0. -1.
         25    2    1    2    0    0  0.69282155054E+02  0.95501119106E+02  0.28858967573E+03  0.33593367745E+03  0.12508778497E+03 0.  0.
         23    2    1    2    0    0 -0.69282155054E+02 -0.95501119106E+02  0.95431366941E+01  0.14838115288E+03  0.89472980913E+02 0.  0.
          5    1    3    3  502    0  0.19403290855E+02  0.77370526956E+02  0.26664521107E+03  0.27835198422E+03  0.41800000000E+01 0.  1.
         -5    1    3    3    0  502  0.49878864199E+02  0.18130592150E+02  0.21944464662E+02  0.57581693226E+02  0.41800000000E+01 0.  1.
        -11    1    4    4    0    0 -0.65414775317E+00 -0.66451979691E+02  0.27181770948E+02  0.71799318841E+02  0.00000000000E+00 0.  1.
         11    1    4    4    0    0 -0.68628007300E+02 -0.29049139414E+02 -0.17638634254E+02  0.76581834041E+02  0.00000000000E+00 0. -1.
</event>
<event>
 8    1  0.6787197E-009  0.1064994E+03  0.7561462E-02  0.1267193E+00
          2   -1    0    0  501    0  0.00000000000E+00  0.00000000000E+00  0.90040004994E+03  0.90040004994E+03  0.00000000000E+00 0. -1.
         -2   -1    0    0    0  501 -0.00000000000E+00 -0.00000000000E+00 -0.21451291436E+02  0.21451291436E+02  0.00000000000E+00 0.  1.
         25    2    1    2    0    0 -0.81000531645E+02 -0.21537148412E+02  0.40589390796E+03  0.43292254394E+03  0.12508848725E+03 0.  0.
         23    2    1    2    0    0  0.81000531645E+02  0.21537148412E+02  0.47305485055E+03  0.48892879744E+03  0.90804969317E+02 0.  0.
          5    1    3    3  502    0 -0.16339838528E+02  0.10387374655E+02 -0.83849325202E+00  0.19825825236E+02  0.41800000000E+01 0.  1.
         -5    1    3    3    0  502 -0.64660693116E+02 -0.31924523067E+02  0.40673240121E+03  0.41309671870E+03  0.41800000000E+01 0.  1.
        -11    1    4    4    0    0  0.67320564524E+02  0.53629567364E+02  0.28687752227E+03  0.29951110444E+03  0.00000000000E+00 0.  1.
         11    1    4    4    0    0  0.13679967121E+02 -0.32092418952E+02  0.18617732828E+03  0.18941769300E+03  0.00000000000E+00 0. -1.
</event>
<event>
 8    1  0.6787197E-009  0.1464391E+03  0.7561462E-02  0.1204918E+00
         -1   -1    0    0    0  501 -0.00000000000E+00  0.00000000000E+00  0.80003743749E+02  0.80003743749E+02  0.00000000000E+00 0.  1.
          1   -1    0    0  501    0  0.00000000000E+00 -0.00000000000E+00 -0.29272811393E+03  0.29272811393E+03  0.00000000000E+00 0. -1.
         25    2    1    2    0    0  0.97357718783E+02  0.36362050557E+02 -0.78090065131E+02  0.18040674133E+03  0.12509120640E+03 0.  0.
         23    2    1    2    0    0 -0.97357718783E+02 -0.36362050557E+02 -0.13463430505E+03  0.19232511635E+03  0.89787694897E+02 0.  0.
          5    1    3    3  502    0 -0.22753172122E+02 -0.19171706200E+02 -0.11106849876E+02  0.32032728176E+02  0.41800000000E+01 0. -1.
         -5    1    3    3    0  502  0.12011089090E+03  0.55533756757E+02 -0.66983215255E+02  0.14837401315E+03  0.41800000000E+01 0. -1.
        -11    1    4    4    0    0 -0.79565378157E+01 -0.40176192629E+02 -0.16567953156E+02  0.44180652100E+02  0.00000000000E+00 0.  1.
         11    1    4    4    0    0 -0.89401180967E+02  0.38141420729E+01 -0.11806635189E+03  0.14814446425E+03  0.00000000000E+00 0. -1.
</event>
<event>
 8    1  0.6787197E-009  0.1252991E+03  0.7561462E-02  0.1234603E+00
          3   -1    0    0  501    0  0.00000000000E+00  0.00000000000E+00  0.48328093312E+03  0.48328093312E+03  0.00000000000E+00 0. -1.
         -3   -1    0    0    0  501 -0.00000000000E+00 -0.00000000000E+00 -0.41654323198E+02  0.41654323198E+02  0.00000000000E+00 0.  1.
         25    2    1    2    0    0 -0.42668682981E+02 -0.70852960171E+02  0.31544531648E+03  0.34927560195E+03  0.12508772902E+03 0.  0.
         23    2    1    2    0    0  0.42668682981E+02  0.70852960171E+02  0.12618129344E+03  0.17565965437E+03  0.89965753969E+02 0.  0.
          5    1    3    3  502    0 -0.49891300367E+02 -0.10220731625E+03  0.27358228733E+03  0.29631101513E+03  0.41800000000E+01 0.  1.
         -5    1    3    3    0  502  0.72226173867E+01  0.31354356076E+02  0.41863029155E+02  0.52964586819E+02  0.41800000000E+01 0.  1.
        -11    1    4    4    0    0  0.59466444888E+02  0.51046338812E+02  0.12749477860E+03  0.14965595659E+03  0.00000000000E+00 0. -1.
         11    1    4    4    0    0 -0.16797761907E+02  0.19806621359E+02 -0.13134851621E+01  0.26003697776E+02  0.00000000000E+00 0.  1.
</event>
<event>
 8    1  0.6787197E-009  0.9447418E+02  0.7561462E-02  0.1292365E+00
          2   -1    0    0  501    0  0.00000000000E+00  0.00000000000E+00  0.19045007864E+03  0.19045007864E+03  0.00000000000E+00 0. -1.
         -2   -1    0    0    0  501 -0.00000000000E+00 -0.00000000000E+00 -0.80505623295E+02  0.80505623295E+02  0.00000000000E+00 0.  1.
         25    2    1    2    0    0 -0.32967041285E+02 -0.32914311764E+02  0.10293152292E+03  0.16855911572E+03  0.12508836617E+03 0.  0.
         23    2    1    2    0    0  0.32967041285E+02  0.32914311764E+02  0.70129324268E+01  0.10239658622E+03  0.90915905746E+02 0.  0.
          5    1    3    3  502    0 -0.33241242283E+02  0.44262656039E+02  0.34739446509E+02  0.65486368444E+02  0.41800000000E+01 0. -1.
         -5    1    3    3    0  502  0.27420099818E+00 -0.77176967803E+02  0.68192076409E+02  0.10307274727E+03  0.41800000000E+01 0. -1.
        -11    1    4    4    0    0  0.19682744362E+02  0.37284248245E+02 -0.37075285937E+02  0.56143587524E+02  0.00000000000E+00 0.  1.
         11    1    4    4    0    0  0.13284296924E+02 -0.43699364806E+01  0.44088218364E+02  0.46252998693E+02  0.00000000000E+00 0. -1.
</event>
<event>
 8    1  0.6787197E-009  0.1357542E+03  0.7561462E-02  0.1219159E+00
          2   -1    0    0  501    0  0.00000000000E+00  0.00000000000E+00  0.61522155191E+03  0.61522155191E+03  0.00000000000E+00 0. -1.
         -2   -1    0    0    0  501 -0.00000000000E+00 -0.00000000000E+00 -0.40092754862E+02  0.40092754862E+02  0.00000000000E+00 0.  1.
         25    2    1    2    0    0 -0.87850072081E+02 -0.19615888522E+02  0.45522192564E+03  0.48060066500E+03  0.12509028488E+03 0.  0.
         23    2    1    2    0    0  0.87850072081E+02  0.19615888522E+02  0.11990687141E+03  0.17471364177E+03  0.89692700716E+02 0.  0.
          5    1    3    3  502    0 -0.65494264984E+02  0.47724888429E+02  0.20489068465E+03  0.22037429246E+03  0.41800000000E+01 0. -1.
         -5    1    3    3    0  502 -0.22355807097E+02 -0.67340776951E+02  0.25033124099E+03  0.26022637254E+03  0.41800000000E+01 0. -1.
        -11    1    4    4    0    0  0.53386537418E+02 -0.28174003751E+02  0.30485580295E+02  0.67625937855E+02  0.00000000000E+00 0.  1.
         11    1    4    4    0    0  0.34463534663E+02  0.47789892273E+02  0.89421291115E+02  0.10708770391E+03  0.00000000000E+00 0. -1.
</event>
<event>
 8    1  0.6787197E-009  0.1060262E+03  0.7561462E-02  0.1268111E+00
          1   -1    0    0  501    0  0.00000000000E+00  0.00000000000E+00  0.12041902446E+03  0.12041902446E+03  0.00000000000E+00 0. -1.
         -1   -1    0    0    0  501 -0.00000000000E+00 -0.00000000000E+00 -0.11670270457E+03  0.11670270457E+03  0.00000000000E+00 0.  1.
         25    2    1    2    0    0 -0.66896291543E+01 -0.43057690339E+02 -0.87158024466E+01  0.13274012022E+03  0.12508100762E+03 0.  0.
         23    2    1    2    0    0  0.66896291543E+01  0.43057690339E+02  0.12432122336E+02  0.10438160881E+03  0.94033221554E+02 0.  0.
          5    1    3    3  502    0  0.59185776149E+01  0.34704849472E+02  0.28524077066E+02  0.45503313180E+02  0.41800000000E+01 0. -1.
         -5    1    3    3    0  502 -0.12608206769E+02 -0.77762539811E+02 -0.37239879513E+02  0.87236807037E+02  0.41800000000E+01 0. -1.
        -11    1    4    4    0    0  0.44510359666E+02  0.62710820341E+01  0.23123344196E+02  0.50548863828E+02  0.00000000000E+00 0. -1.
         11    1    4    4    0    0 -0.37820730512E+02  0.36786608305E+02 -0.10691221860E+02  0.53832744979E+02  0.00000000000E+00 0.  1.
</event>
<event>
 8    1  0.6787197E-009  0.2708849E+03  0.7561462E-02  0.1100774E+00
          2   -1    0    0  501    0  0.00000000000E+00  0.00000000000E+00  0.75984836170E+03  0.75984836170E+03  0.00000000000E+00 0. -1.
         -2   -1    0    0    0  501 -0.00000000000E+00 -0.00000000000E+00 -0.11708505128E+03  0.11708505128E+03  0.00000000000E+00 0.  1.
         25    2    1    2    0    0 -0.59720203714E+02  0.25988562990E+03  0.21419671365E+03  0.36419102156E+03  0.12509126542E+03 0.  0.
         23    2    1    2    0    0  0.59720203714E+02 -0.25988562990E+03  0.42856659676E+03  0.51274239142E+03  0.90157577288E+02 0.  0.
          5    1    3    3  502    0 -0.26011612197E+02  0.60843198075E+02  0.12898405221E+03  0.14502709004E+03  0.41800000000E+01 0. -1.
         -5    1    3    3    0  502 -0.33708591517E+02  0.19904243182E+03  0.85212661441E+02  0.21916393152E+03  0.41800000000E+01 0. -1.
        -11    1    4    4    0    0  0.21817972522E+02 -0.16830444364E+02  0.90822198793E+02  0.94910271183E+02  0.00000000000E+00 0. -1.
         11    1    4    4    0    0  0.37902231192E+02 -0.24305518553E+03  0.33774439797E+03  0.41783212024E+03  0.00000000000E+00 0.  1.
</event>
<event>
 8    1  0.6787197E-009  0.7656613E+02  0.7561462E-02  0.1339089E+00
         -2   -1    0    0    0  501 -0.00000000000E+00  0.00000000000E+00  0.94253446718E+02  0.94253446718E+02  0.00000000000E+00 0.  1.
          2   -1    0    0  501    0  0.00000000000E+00 -0.00000000000E+00 -0.20650753817E+03  0.20650753817E+03  0.00000000000E+00 0. -1.
         25    2    1    2    0    0  0.41443908772E+02  0.26898178402E+02  0.15868355756E+02  0.13542697435E+03  0.12509017184E+03 0.  0.
         23    2    1    2    0    0 -0.41443908772E+02 -0.26898178402E+02 -0.12812244721E+03  0.16533401054E+03  0.92080747097E+02 0.  0.
          5    1    3    3  502    0  0.64621761807E+01  0.21795842068E+02 -0.53044918977E+02  0.57862373626E+02  0.41800000000E+01 0. -1.
         -5    1    3    3    0  502  0.34981732591E+02  0.51023363338E+01  0.68913274733E+02  0.77564600725E+02  0.41800000000E+01 0. -1.
        -11    1    4    4    0    0 -0.26404964961E+02  0.27414643077E+02 -0.88803379891E+02  0.96616898675E+02  0.00000000000E+00 0.  1.
         11    1    4    4    0    0 -0.15038943811E+02 -0.54312821479E+02 -0.39319067318E+02  0.68717111862E+02  0.00000000000E+00 0. -1.
</event>
<event>
 8    1  0.6787197E-009  0.1117797E+03  0.7561462E-02  0.1257309E+00
          2   -1    0    0  501    0  0.00000000000E+00  0.00000000000E+00  0.39418505968E+03  0.39418505968E+03  0.00000000000E+00 0. -1.
         -2   -1    0    0    0  501 -0.00000000000E+00 -0.00000000000E+00 -0.44994608388E+02  0.44994608388E+02  0.00000000000E+00 0.  1.
         25    2    1    2    0    0 -0.66887913092E+02 -0.38343976442E+02  0.17478438764E+03  0.22834369655E+03  0.12508800160E+03 0.  0.
         23    2    1    2    0    0  0.66887913092E+02  0.38343976442E+02  0.17440606366E+03  0.21083597152E+03  0.89944863110E+02 0.  0.
          5    1    3    3  502    0  0.92652277491E+01 -0.28468101517E+02 -0.69414681398E+01  0.31015054879E+02  0.41800000000E+01 0. -1.
         -5    1    3    3    0  502 -0.76153140841E+02 -0.98758749246E+01  0.18172585578E+03  0.19732864167E+03  0.41800000000E+01 0. -1.
        -11    1    4    4    0    0 -0.19321470731E+02 -0.49661485038E+01  0.16971760816E+02  0.26192031754E+02  0.00000000000E+00 0.  1.
         11    1    4    4    0    0  0.86209383823E+02  0.43310124946E+02  0.15743430284E+03  0.18464393977E+03  0.00000000000E+00 0. -1.
</event>
<event>
 8    1  0.6787197E-009  0.8434368E+02  0.7561462E-02  0.1317158E+00
         -2   -1    0    0    0  501 -0.00000000000E+00  0.00000000000E+00  0.23427942703E+03  0.23427942703E+03  0.00000000000E+00 0. -1.
          2   -1    0    0  501    0  0.00000000000E+00 -0.00000000000E+00 -0.74134682197E+02  0.74134682197E+02  0.00000000000E+00 0.  1.
         25    2    1    2    0    0  0.68402618792E+02  0.10137654438E+02  0.11303125138E+03  0.18221529231E+03  0.12507860995E+03 0.  0.
         23    2    1    2    0    0 -0.68402618792E+02 -0.10137654438E+02  0.47113493446E+02  0.12619881692E+03  0.94470999947E+02 0.  0.
          5    1    3    3  502    0  0.25429719225E+02 -0.13806065920E+02 -0.23194343104E+02  0.37319271537E+02  0.41800000000E+01 0.  1.
         -5    1    3    3    0  502  0.42972899566E+02  0.23943720359E+02  0.13622559449E+03  0.14489602077E+03  0.41800000000E+01 0.  1.
        -11    1    4    4    0    0  0.80775993642E+01 -0.10936805068E+02 -0.20174639537E+02  0.24328530515E+02  0.00000000000E+00 0.  1.
         11    1    4    4    0    0 -0.76480218156E+02  0.79915062996E+00  0.67288132983E+02  0.10187028640E+03  0.00000000000E+00 0. -1.
</event>
<event>
 8    1  0.6787197E-009  0.1727122E+03  0.7561462E-02  0.1175049E+00
         -2   -1    0    0    0  501 -0.00000000000E+00  0.00000000000E+00  0.16064116348E+03  0.16064116348E+03  0.00000000000E+00 0.  1.
          2   -1    0    0  501    0  0.00000000000E+00 -0.00000000000E+00 -0.22178146311E+03  0.22178146311E+03  0.00000000000E+00 0. -1.
         25    2    1    2    0    0  0.12677667856E+03 -0.87559015217E+02 -0.23375792848E+02  0.19983274903E+03  0.12509113687E+03 0.  0.
         23    2    1    2    0    0 -0.12677667856E+03  0.87559015217E+02 -0.37764506776E+02  0.18258987755E+03  0.90410165587E+02 0.  0.
          5    1    3    3  502    0  0.13754592935E+03 -0.81350495003E+02 -0.52201112848E+02  0.16816424798E+03  0.41800000000E+01 0. -1.
         -5    1    3    3    0  502 -0.10769250788E+02 -0.62085202139E+01  0.28825320000E+02  0.31668501052E+02  0.41800000000E+01 0. -1.
        -11    1    4    4    0    0 -0.50306575492E+02 -0.70557105301E+01 -0.33521221821E+02  0.60862195994E+02  0.00000000000E+00 0.  1.
         11    1    4    4    0    0 -0.76470103066E+02  0.94614725747E+02 -0.42432849552E+01  0.12172768156E+03  0.00000000000E+00 0. -1.
</event>
<event>
 8    1  0.6787197E-009  0.1349058E+03  0.7561462E-02  0.1220353E+00
         -2   -1    0    0    0  501 -0.00000000000E+00  0.00000000000E+00  0.21842543993E+02  0.21842543993E+02  0.00000000000E+00 0.  1.
          2   -1    0    0  501    0  0.00000000000E+00 -0.00000000000E+00 -0.16564963433E+04  0.16564963433E+04  0.00000000000E+00 0. -1.
         25    2    1    2    0    0 -0.25170067177E+02  0.11726185951E+03 -0.12988209799E+04  0.13103310551E+04  0.12509060771E+03 0.  0.
         23    2    1    2    0    0  0.25170067177E+02 -0.11726185951E+03 -0.33583281935E+03  0.36800783215E+03  0.90896677548E+02 0.  0.
          5    1    3    3  502    0 -0.44059195080E+02  0.26286195900E+02 -0.87084490240E+03  0.87236488536E+03  0.41800000000E+01 0.  1.
         -5    1    3    3    0  502  0.18889127904E+02  0.90975663610E+02 -0.42797607752E+03  0.43796616975E+03  0.41800000000E+01 0.  1.
        -11    1    4    4    0    0  0.32400738947E+02 -0.65641147561E+02 -0.28835527618E+03  0.29750182090E+03  0.00000000000E+00 0. -1.
         11    1    4    4    0    0 -0.72306717705E+01 -0.51620711949E+02 -0.47477543175E+02  0.70506011249E+02  0.00000000000E+00 0.  1.
</event>
<event>
 8    1  0.6787197E-009  0.9025387E+02  0.7561462E-02  0.1302238E+00
         -2   -1    0    0    0  501 -0.00000000000E+00  0.00000000000E+00  0.17558591827E+03  0.17558591827E+03  0.00000000000E+00 0.  1.
          2   -1    0    0  501    0  0.00000000000E+00 -0.00000000000E+00 -0.84883979396E+02  0.84883979396E+02  0.00000000000E+00 0. -1.
         25    2    1    2    0    0  0.18660860877E+02  0.72924139782E+01  0.96940461663E+02  0.15951899315E+03  0.12508976392E+03 0.  0.
         23    2    1    2    0    0 -0.18660860877E+02 -0.72924139782E+01 -0.62385227935E+01  0.10095090451E+03  0.98745931183E+02 0.  0.
          5    1    3    3  502    0  0.45461355107E+02  0.27397465414E+02 -0.36945976770E+01  0.53371137999E+02  0.41800000000E+01 0.  1.
         -5    1    3    3    0  502 -0.26800494231E+02 -0.20105051436E+02  0.10063505934E+03  0.10614785515E+03  0.41800000000E+01 0.  1.
        -11    1    4    4    0    0 -0.32797458718E+02  0.35561190076E+02  0.15586102391E+02  0.50825172166E+02  0.00000000000E+00 0.  1.
         11    1    4    4    0    0  0.14136597841E+02 -0.42853604054E+02 -0.21824625184E+02  0.50125732348E+02  0.00000000000E+00 0. -1.
</event>
<event>
 8    1  0.6787197E-009  0.1513190E+03  0.7561462E-02  0.1198862E+00
         -2   -1    0    0    0  501 -0.00000000000E+00  0.00000000000E+00  0.31747122283E+02  0.31747122283E+02  0.00000000000E+00 0.  1.
          2   -1    0    0  501    0  0.00000000000E+00 -0.00000000000E+00 -0.91101741481E+03  0.91101741481E+03  0.00000000000E+00 0. -1.
         25    2    1    2    0    0  0.87984707870E+01  0.12736222221E+03 -0.47896643497E+03  0.51123041346E+03  0.12509652706E+03 0.  0.
         23    2    1    2    0    0 -0.87984707870E+01 -0.12736222221E+03 -0.40030385755E+03  0.43153412363E+03  0.98386852532E+02 0.  0.
          5    1    3    3  502    0  0.52391656105E+02  0.75384713457E+02 -0.38145908847E+03  0.39237258981E+03  0.41800000000E+01 0. -1.
         -5    1    3    3    0  502 -0.43593185318E+02  0.51977508755E+02 -0.97507346501E+02  0.11885782366E+03  0.41800000000E+01 0. -1.
        -11    1    4    4    0    0 -0.36208252896E+02 -0.60449022404E+02 -0.29824210157E+03  0.30645305193E+03  0.00000000000E+00 0. -1.
         11    1    4    4    0    0  0.27409782109E+02 -0.66913199809E+02 -0.10206175598E+03  0.12508107170E+03  0.00000000000E+00 0.  1.
</event>
<event>
 8    1  0.6787197E-009  0.1356373E+03  0.7561462E-02  0.1219323E+00
         -3   -1    0    0    0  501 -0.00000000000E+00  0.00000000000E+00  0.10906710202E+04  0.10906710202E+04  0.00000000000E+00 0.  1.
          3   -1    0    0  501    0  0.00000000000E+00 -0.00000000000E+00 -0.36054205029E+02  0.36054205029E+02  0.00000000000E+00 0. -1.
         25    2    1    2    0    0 -0.12062332882E+03 -0.61719376821E+02  0.82244022153E+03  0.84286128429E+03  0.12509179686E+03 0.  0.
         23    2    1    2    0    0  0.12062332882E+03  0.61719376821E+02  0.23217659361E+03  0.28386394090E+03  0.91178382268E+02 0.  0.
          5    1    3    3  502    0 -0.75324889945E+02 -0.39206963381E+02  0.74768418893E+03  0.75250258724E+03  0.41800000000E+01 0. -1.
         -5    1    3    3    0  502 -0.45298438878E+02 -0.22512413440E+02  0.74756032594E+02  0.90358697052E+02  0.41800000000E+01 0. -1.
        -11    1    4    4    0    0  0.54360483241E+02  0.27505818701E+02  0.18699790924E+03  0.19667193562E+03  0.00000000000E+00 0. -1.
         11    1    4    4    0    0  0.66262845582E+02  0.34213558119E+02  0.45178684372E+02  0.87192005284E+02  0.00000000000E+00 0.  1.
</event>
<event>
 8    1  0.6787197E-009  0.1090324E+03  0.7561462E-02  0.1262372E+00
          1   -1    0    0  501    0  0.00000000000E+00  0.00000000000E+00  0.96620016458E+03  0.96620016458E+03  0.00000000000E+00 0. -1.
         -1   -1    0    0    0  501 -0.00000000000E+00 -0.00000000000E+00 -0.13781396624E+02  0.13781396624E+02  0.00000000000E+00 0.  1.
         25    2    1    2    0    0 -0.32758643732E+02 -0.19080350848E+02  0.58551256420E+03  0.59992441766E+03  0.12508859077E+03 0.  0.
         23    2    1    2    0    0  0.32758643732E+02  0.19080350848E+02  0.36690620376E+03  0.38005714354E+03  0.91575550645E+02 0.  0.
          5    1    3    3  502    0  0.22185583101E+02 -0.50697154121E+02  0.40008951292E+03  0.40392015583E+03  0.41800000000E+01 0. -1.
         -5    1    3    3    0  502 -0.54944226833E+02  0.31616803273E+02  0.18542305128E+03  0.19600426184E+03  0.41800000000E+01 0. -1.
        -11    1    4    4    0    0  0.64842647205E+02  0.93590077344E+01  0.23570117888E+03  0.24463688530E+03  0.00000000000E+00 0.  1.
         11    1    4    4    0    0 -0.32084003473E+02  0.97213431139E+01  0.13120502487E+03  0.13542025824E+03  0.00000000000E+00 0. -1.
</event>
<event>
 8    1  0.6787197E-009  0.2400979E+03  0.7561462E-02  0.1119728E+00
          1   -1    0    0  501    0  0.00000000000E+00  0.00000000000E+00  0.53600516887E+03  0.53600516887E+03  0.00000000000E+00 0. -1.
         -1   -1    0    0    0  501 -0.00000000000E+00 -0.00000000000E+00 -0.26473392860E+03  0.26473392860E+03  0.00000000000E+00 0.  1.
         25    2    1    2    0    0  0.19199689627E+03 -0.14165229863E+03 -0.14972901845E+03  0.30820900236E+03  0.12508328541E+03 0.  0.
         23    2    1    2    0    0 -0.19199689627E+03  0.14165229863E+03  0.42100025871E+03  0.49253009511E+03  0.91741456678E+02 0.  0.
          5    1    3    3  502    0  0.11778496173E+03 -0.77028960879E+02 -0.15521639614E+03  0.20956230590E+03  0.41800000000E+01 0. -1.
         -5    1    3    3    0  502  0.74211934539E+02 -0.64623337749E+02  0.54873776895E+01  0.98646696466E+02  0.41800000000E+01 0. -1.
        -11    1    4    4    0    0 -0.93740931531E+02  0.48654780804E+02  0.26928560860E+03  0.28925661434E+03  0.00000000000E+00 0. -1.
         11    1    4    4    0    0 -0.98255964735E+02  0.92997517824E+02  0.15171465011E+03  0.20327348078E+03  0.00000000000E+00 0.  1.
</event>
<event>
 8    1  0.6787197E-009  0.2340147E+03  0.7561462E-02  0.1123846E+00
          2   -1    0    0  501    0  0.00000000000E+00  0.00000000000E+00  0.18867865966E+03  0.18867865966E+03  0.00000000000E+00 0. -1.
         -2   -1    0    0    0  501 -0.00000000000E+00 -0.00000000000E+00 -0.60304920668E+03  0.60304920668E+03  0.00000000000E+00 0.  1.
         25    2    1    2    0    0  0.15923924860E+03  0.14301270987E+03  0.67490275280E+02  0.25692817543E+03  0.12508947435E+03 0.  0.
         23    2    1    2    0    0 -0.15923924860E+03 -0.14301270987E+03 -0.48186082230E+03  0.53479969092E+03  0.89504658310E+02 0.  0.
          5    1    3    3  502    0  0.18404450141E+02  0.98134799977E+02  0.30820050303E+02  0.10457777322E+03  0.41800000000E+01 0.  1.
         -5    1    3    3    0  502  0.14083479846E+03  0.44877909895E+02  0.36670224976E+02  0.15235040221E+03  0.41800000000E+01 0.  1.
        -11    1    4    4    0    0 -0.10550013830E+03 -0.12494822950E+03 -0.42089247761E+03  0.45154492240E+03  0.00000000000E+00 0.  1.
         11    1    4    4    0    0 -0.53739110298E+02 -0.18064480370E+02 -0.60968344691E+02  0.83254768518E+02  0.00000000000E+00 0. -1.
</event>
<event>
 8    1  0.6787197E-009  0.1123173E+03  0.7561462E-02  0.1256338E+00
         -1   -1    0    0    0  501 -0.00000000000E+00  0.00000000000E+00  0.48741627383E+02  0.48741627383E+02  0.00000000000E+00 0.  1.
          1   -1    0    0  501    0  0.00000000000E+00 -0.00000000000E+00 -0.98004943624E+03  0.98004943624E+03  0.00000000000E+00 0. -1.
         25    2    1    2    0    0  0.40042083424E+02  0.51936802919E+02 -0.89931877113E+03  0.91034159448E+03  0.12508703601E+03 0.  0.
         23    2    1    2    0    0 -0.40042083424E+02 -0.51936802919E+02 -0.31989037722E+02  0.11844946914E+03  0.93306903624E+02 0.  0.
          5    1    3    3  502    0  0.46698159444E+02 -0.25311798246E+02 -0.20961029096E+03  0.21627610063E+03  0.41800000000E+01 0.  1.
         -5    1    3    3    0  502 -0.66560760197E+01  0.77248601166E+02 -0.68970848017E+03  0.69406549385E+03  0.41800000000E+01 0.  1.
        -11    1    4    4    0    0  0.53736926212E+01 -0.47801236147E+02  0.17468331798E+02  0.51175945184E+02  0.00000000000E+00 0.  1.
         11    1    4    4    0    0 -0.45415776045E+02 -0.41355667717E+01 -0.49457369520E+02  0.67273523961E+02  0.00000000000E+00 0. -1.
</event>
<event>
 8    1  0.6787197E-009  0.1156398E+03  0.7561462E-02  0.1250468E+00
         -1   -1    0    0    0  501 -0.00000000000E+00  0.00000000000E+00  0.36682920119E+03  0.36682920119E+03  0.00000000000E+00 0.  1.
          1   -1    0    0  501    0  0.00000000000E+00 -0.00000000000E+00 -0.44849010060E+02  0.44849010060E+02  0.00000000000E+00 0. -1.
         25    2    1    2    0    0 -0.29185524642E+02  0.46217126083E+02  0.24317901251E+03  0.27887544968E+03  0.12509063400E+03 0.  0.
         23    2    1    2    0    0  0.29185524642E+02 -0.46217126083E+02  0.78801178617E+02  0.13280276157E+03  0.91864738273E+02 0.  0.
          5    1    3    3  502    0  0.12120383239E+02  0.74683219205E+02  0.19496150016E+03  0.20916965809E+03  0.41800000000E+01 0.  1.
         -5    1    3    3    0  502 -0.41305907881E+02 -0.28466093122E+02  0.48217512355E+02  0.69705791590E+02  0.41800000000E+01 0.  1.
        -11    1    4    4    0    0  0.46675600768E+02  0.87446909096E+01  0.23856430983E+02  0.53143302734E+02  0.00000000000E+00 0.  1.
         11    1    4    4    0    0 -0.17490076126E+02 -0.54961816993E+02  0.54944747633E+02  0.79659458839E+02  0.00000000000E+00 0. -1.
</event>
<event>
 8    1  0.6787197E-009  0.1913252E+03  0.7561462E-02  0.1157271E+00
          1   -1    0    0  501    0  0.00000000000E+00  0.00000000000E+00  0.37415641708E+03  0.37415641708E+03  0.00000000000E+00 0. -1.
         -1   -1    0    0    0  501 -0.00000000000E+00 -0.00000000000E+00 -0.11525168538E+03  0.11525168538E+03  0.00000000000E+00 0.  1.
         25    2    1    2    0    0  0.33125033369E+02  0.16541581133E+03  0.19722772122E+03  0.28810667020E+03  0.12508805268E+03 0.  0.
         23    2    1    2    0    0 -0.33125033369E+02 -0.16541581133E+03  0.61677010475E+02  0.20130143225E+03  0.90876589575E+02 0.  0.
          5    1    3    3  502    0  0.61482931502E+02  0.76688107662E+02  0.41878828616E+02  0.10692298822E+03  0.41800000000E+01 0.  1.
         -5    1    3    3    0  502 -0.28357898133E+02  0.88727703663E+02  0.15534889261E+03  0.18118368199E+03  0.41800000000E+01 0.  1.
        -11    1    4    4    0    0 -0.48778812481E+02 -0.35891723574E+02  0.26988470480E+02  0.66302080714E+02  0.00000000000E+00 0.  1.
         11    1    4    4    0    0  0.15653779112E+02 -0.12952408775E+03  0.34688539995E+02  0.13499935154E+03  0.00000000000E+00 0. -1.
</event>
<event>
 8    1  0.6787197E-009  0.2204284E+03  0.7561462E-02  0.1133564E+00
          1   -1    0    0  501    0  0.00000000000E+00  0.00000000000E+00  0.77503342762E+03  0.77503342762E+03  0.00000000000E+00 0. -1.
         -1   -1    0    0    0  501 -0.00000000000E+00 -0.00000000000E+00 -0.87006383054E+02  0.87006383054E+02  0.00000000000E+00 0.  1.
         25    2    1    2    0    0 -0.22761607606E+02 -0.20125655705E+03  0.55211745310E+03  0.60125191682E+03  0.12509153816E+03 0.  0.
         23    2    1    2    0    0  0.22761607606E+02  0.20125655705E+03  0.13590959147E+03  0.26078789386E+03  0.92285513457E+02 0.  0.
          5    1    3    3  502    0 -0.61365845095E+02 -0.96512273253E+02  0.18522246728E+03  0.21772739978E+03  0.41800000000E+01 0.  1.
         -5    1    3    3    0  502  0.38604237490E+02 -0.10474428380E+03  0.36689498583E+03  0.38352451703E+03  0.41800000000E+01 0.  1.
        -11    1    4    4    0    0 -0.16971764404E+02  0.14406823991E+03  0.57830664341E+02  0.15616684755E+03  0.00000000000E+00 0.  1.
         11    1    4    4    0    0  0.39733372010E+02  0.57188317146E+02  0.78078927125E+02  0.10462104631E+03  0.00000000000E+00 0. -1.
</event>
<event>
 8    1  0.6787197E-009  0.1243343E+03  0.7561462E-02  0.1236113E+00
         -2   -1    0    0    0  501 -0.00000000000E+00  0.00000000000E+00  0.21650900108E+02  0.21650900108E+02  0.00000000000E+00 0.  1.
          2   -1    0    0  501    0  0.00000000000E+00 -0.00000000000E+00 -0.15262055557E+04  0.15262055557E+04  0.00000000000E+00 0. -1.
         25    2    1    2    0    0 -0.36403667409E+02  0.11012001987E+03 -0.11645245128E+04  0.11769523863E+04  0.12509169825E+03 0.  0.
         23    2    1    2    0    0  0.36403667409E+02 -0.11012001987E+03 -0.34003014274E+03  0.37090406943E+03  0.92182888737E+02 0.  0.
          5    1    3    3  502    0 -0.24124096973E+02  0.86722444017E+02 -0.33240202876E+03  0.34439996439E+03  0.41800000000E+01 0.  1.
         -5    1    3    3    0  502 -0.12279570436E+02  0.23397575857E+02 -0.83212248407E+03  0.83255242196E+03  0.41800000000E+01 0.  1.
        -11    1    4    4    0    0 -0.16186080543E+02 -0.46643308844E+02 -0.21881561102E+03  0.22431642625E+03  0.00000000000E+00 0. -1.
         11    1    4    4    0    0  0.52589747953E+02 -0.63476711031E+02 -0.12121453172E+03  0.14658764318E+03  0.00000000000E+00 0.  1.
</event>
<event>
 8    1  0.6787197E-009  0.1962735E+03  0.7561462E-02  0.1152922E+00
          2   -1    0    0  501    0  0.00000000000E+00  0.00000000000E+00  0.77860885619E+02  0.77860885619E+02  0.00000000000E+00 0. -1.
         -2   -1    0    0    0  501 -0.00000000000E+00 -0.00000000000E+00 -0.62655276554E+03  0.62655276554E+03  0.00000000000E+00 0.  1.
         25    2    1    2    0    0 -0.16567380943E+03  0.66767486854E+02 -0.39795148439E+03  0.45378772979E+03  0.12510879803E+03 0.  0.
         23    2    1    2    0    0  0.16567380943E+03 -0.66767486854E+02 -0.15074039553E+03  0.25062592137E+03  0.90470863743E+02 0.  0.
          5    1    3    3  502    0 -0.68935707409E+02  0.90811095193E+02 -0.25611297471E+03  0.28037495427E+03  0.41800000000E+01 0.  1.
         -5    1    3    3    0  502 -0.96738102023E+02 -0.24043608339E+02 -0.14183850968E+03  0.17341277552E+03  0.41800000000E+01 0.  1.
        -11    1    4    4    0    0  0.64931929669E+02 -0.28759420865E+02 -0.11863831741E+03  0.13826897749E+03  0.00000000000E+00 0.  1.
         11    1    4    4    0    0  0.10074187976E+03 -0.38008065989E+02 -0.32102078122E+02  0.11235694388E+03  0.00000000000E+00 0. -1.
</event>
<event>
 8    1  0.6787197E-009  0.1316885E+03  0.7561462E-02  0.1224972E+00
         -2   -1    0    0    0  501 -0.00000000000E+00  0.00000000000E+00  0.10599353680E+02  0.10599353680E+02  0.00000000000E+00 0.  1.
          2   -1    0    0  501    0  0.00000000000E+00 -0.00000000000E+00 -0.27713389283E+04  0.27713389283E+04  0.00000000000E+00 0. -1.
         25    2    1    2    0    0 -0.94550099846E+02 -0.32712869540E+02 -0.21663765130E+04  0.21722902930E+04  0.12509223703E+03 0.  0.
         23    2    1    2    0    0  0.94550099846E+02  0.32712869540E+02 -0.59436306163E+03  0.60964798899E+03  0.91615327523E+02 0.  0.
          5    1    3    3  502    0 -0.37726362799E+02 -0.66814254382E+02 -0.16313594146E+04  0.16331682201E+04  0.41800000000E+01 0. -1.
         -5    1    3    3    0  502 -0.56823737047E+02  0.34101384842E+02 -0.53501709840E+03  0.53912207293E+03  0.41800000000E+01 0. -1.
        -11    1    4    4    0    0 -0.39210771348E+01  0.20539390252E+02 -0.29633059571E+02  0.36267886861E+02  0.00000000000E+00 0.  1.
         11    1    4    4    0    0  0.98471176980E+02  0.12173479288E+02 -0.56473000206E+03  0.57338010213E+03  0.00000000000E+00 0. -1.
</event>
<event>
 8    1  0.6787197E-009  0.2453818E+03  0.7561462E-02  0.1116259E+00
         -2   -1    0    0    0  501 -0.00000000000E+00  0.00000000000E+00  0.61478792330E+02  0.61478792330E+02  0.00000000000E+00 0.  1.
          2   -1    0    0  501    0  0.00000000000E+00 -0.00000000000E+00 -0.10840525479E+04  0.10840525479E+04  0.00000000000E+00 0. -1.
         25    2    1    2    0    0  0.11224065622E+03  0.20400864784E+03 -0.57303046220E+03  0.63105346425E+03  0.12508825217E+03 0.  0.
         23    2    1    2    0    0 -0.11224065622E+03 -0.20400864784E+03 -0.44954329334E+03  0.51447787595E+03  0.91546812903E+02 0.  0.
          5    1    3    3  502    0  0.11890065616E+03  0.19989638949E+03 -0.43983092404E+03  0.49755868670E+03  0.41800000000E+01 0.  1.
         -5    1    3    3    0  502 -0.66599999478E+01  0.41122583562E+01 -0.13319953816E+03  0.13349477755E+03  0.41800000000E+01 0.  1.
        -11    1    4    4    0    0 -0.44890573027E+02 -0.16593569688E+03 -0.32989326835E+03  0.37199380042E+03  0.00000000000E+00 0.  1.
         11    1    4    4    0    0 -0.67350083188E+02 -0.38072950962E+02 -0.11965002499E+03  0.14248407553E+03  0.00000000000E+00 0. -1.
</event>
<event>
 8    1  0.6787197E-009  0.9924821E+02  0.7561462E-02  0.1281885E+00
          4   -1    0    0  501    0  0.00000000000E+00  0.00000000000E+00  0.17420913009E+02  0.17420913009E+02  0.00000000000E+00 0. -1.
         -4   -1    0    0    0  501 -0.00000000000E+00 -0.00000000000E+00 -0.87158497597E+03  0.87158497597E+03  0.00000000000E+00 0.  1.
         25    2    1    2    0    0  0.54639999363E+02  0.70732432999E+01 -0.54731405977E+03  0.56412350430E+03  0.12508831993E+03 0.  0.
         23    2    1    2    0    0 -0.54639999363E+02 -0.70732432999E+01 -0.30685000320E+03  0.32488238468E+03  0.91411591785E+02 0.  0.
          5    1    3    3  502    0  0.21292721753E+02  0.50184668672E+02 -0.44293712006E+03  0.44629883004E+03  0.41800000000E+01 0.  1.
         -5    1    3    3    0  502  0.33347277610E+02 -0.43111425372E+02 -0.10437693971E+03  0.11782467426E+03  0.41800000000E+01 0.  1.
        -11    1    4    4    0    0 -0.14179372393E+02  0.30693201740E+02 -0.40101936996E+02  0.52452765278E+02  0.00000000000E+00 0. -1.
         11    1    4    4    0    0 -0.40460626971E+02 -0.37766445040E+02 -0.26674806620E+03  0.27242961940E+03  0.00000000000E+00 0.  1.
</event>
<event>
 8    1  0.6787197E-009  0.9790448E+02  0.7561462E-02  0.1284765E+00
         -3   -1    0    0    0  501 -0.00000000000E+00  0.00000000000E+00  0.68642805822E+03  0.68642805822E+03  0.00000000000E+00 0.  1.
          3   -1    0    0  501    0  0.00000000000E+00 -0.00000000000E+00 -0.22892032336E+02  0.22892032336E+02  0.00000000000E+00 0. -1.
         25    2    1    2    0    0  0.40868557395E+01  0.50334377373E+02  0.26245053453E+03  0.29508953074E+03  0.12508915277E+03 0.  0.
         23    2    1    2    0    0 -0.40868557395E+01 -0.50334377373E+02  0.40108549135E+03  0.41423055981E+03  0.90372193604E+02 0.  0.
          5    1    3    3  502    0  0.36194644916E+02  0.49761230573E+02  0.25433276930E+03  0.26170376827E+03  0.41800000000E+01 0.  1.
         -5    1    3    3    0  502 -0.32107789177E+02  0.57314679975E+00  0.81177652315E+01  0.33385762466E+02  0.41800000000E+01 0.  1.
        -11    1    4    4    0    0  0.37788802248E+02 -0.20600304641E+01  0.18787039378E+03  0.19164425939E+03  0.00000000000E+00 0.  1.
         11    1    4    4    0    0 -0.41875657988E+02 -0.48274346908E+02  0.21321509757E+03  0.22258630042E+03  0.00000000000E+00 0. -1.
</event>
<event>
 8    1  0.6787197E-009  0.1039501E+03  0.7561462E-02  0.1272202E+00
          1   -1    0    0  501    0  0.00000000000E+00  0.00000000000E+00  0.13268486472E+04  0.13268486472E+04  0.00000000000E+00 0. -1.
         -1   -1    0    0    0  501 -0.00000000000E+00 -0.00000000000E+00 -0.15322949243E+02  0.15322949243E+02  0.00000000000E+00 0.  1.
         25    2    1    2    0    0  0.41054781108E+02 -0.22795427640E+01  0.11033176936E+04  0.11111472832E+04  0.12509060973E+03 0.  0.
         23    2    1    2    0    0 -0.41054781108E+02  0.22795427640E+01  0.20820800440E+03  0.23102431327E+03  0.91274141215E+02 0.  0.
          5    1    3    3  502    0 -0.13883929376E+02  0.48848583523E+02  0.61145124027E+03  0.61357072880E+03  0.41800000000E+01 0. -1.
         -5    1    3    3    0  502  0.54938710484E+02 -0.51128126287E+02  0.49186645331E+03  0.49757655441E+03  0.41800000000E+01 0. -1.
        -11    1    4    4    0    0 -0.44976645556E+02  0.29818335333E+02  0.19062618657E+03  0.19811707341E+03  0.00000000000E+00 0. -1.
         11    1    4    4    0    0  0.39218644483E+01 -0.27538792569E+02  0.17581817832E+02  0.32907239860E+02  0.00000000000E+00 0.  1.
</event>
<event>
 8    1  0.6787197E-009  0.1042145E+03  0.7561462E-02  0.1271675E+00
          1   -1    0    0  501    0  0.00000000000E+00  0.00000000000E+00  0.18958393006E+03  0.18958393006E+03  0.00000000000E+00 0. -1.
         -1   -1    0    0    0  501 -0.00000000000E+00 -0.00000000000E+00 -0.84990367618E+02  0.84990367618E+02  0.00000000000E+00 0.  1.
         25    2    1    2    0    0 -0.29179175280E+02 -0.50324654814E+02  0.69363062851E+02  0.15441102488E+03  0.12509010738E+03 0.  0.
         23    2    1    2    0    0  0.29179175280E+02  0.50324654814E+02  0.35230499593E+02  0.12016327280E+03  0.99065780554E+02 0.  0.
          5    1    3    3  502    0 -0.32855478393E+02 -0.84951981896E+02  0.19161178165E+02  0.93171588144E+02  0.41800000000E+01 0.  1.
         -5    1    3    3    0  502  0.36763031124E+01  0.34627327083E+02  0.50201884686E+02  0.61239436734E+02  0.41800000000E+01 0.  1.
        -11    1    4    4    0    0  0.38604255750E+01  0.56079752302E+02  0.61436735446E+02  0.83272528280E+02  0.00000000000E+00 0. -1.
         11    1    4    4    0    0  0.25318749705E+02 -0.57550974887E+01 -0.26206235854E+02  0.36890744521E+02  0.00000000000E+00 0.  1.
</event>
<event>
 8    1  0.6787197E-009  0.6882956E+02  0.7561462E-02  0.1364119E+00
         -1   -1    0    0    0  501 -0.00000000000E+00  0.00000000000E+00  0.18532819246E+03  0.18532819246E+03  0.00000000000E+00 0.  1.
          1   -1    0    0  501    0  0.00000000000E+00 -0.00000000000E+00 -0.10286900884E+03  0.10286900884E+03  0.00000000000E+00 0. -1.
         25    2    1    2    0    0  0.26072017387E+02  0.38186853762E+02  0.11928538620E+03  0.17892538336E+03  0.12508918242E+03 0.  0.
         23    2    1    2    0    0 -0.26072017387E+02 -0.38186853762E+02 -0.36826202578E+02  0.10927181794E+03  0.91903074529E+02 0.  0.
          5    1    3    3  502    0 -0.89095849890E+01  0.38259959098E+02  0.13477091870E+03  0.14044172493E+03  0.41800000000E+01 0.  1.
         -5    1    3    3    0  502  0.34981602376E+02 -0.73105336113E-01 -0.15485532497E+02  0.38483658427E+02  0.41800000000E+01 0.  1.
        -11    1    4    4    0    0 -0.93271369280E+01 -0.44168043764E+02 -0.63076755006E+02  0.77566027327E+02  0.00000000000E+00 0. -1.
         11    1    4    4    0    0 -0.16744880459E+02  0.59811900019E+01  0.26250552427E+02  0.31705790609E+02  0.00000000000E+00 0.  1.
</event>
<event>
 8    1  0.6787197E-009  0.1827616E+03  0.7561462E-02  0.1165157E+00
          1   -1    0    0  501    0  0.00000000000E+00  0.00000000000E+00  0.14520875066E+04  0.14520875066E+04  0.00000000000E+00 0. -1.
         -1   -1    0    0    0  501 -0.00000000000E+00 -0.00000000000E+00 -0.29878939495E+02  0.29878939495E+02  0.00000000000E+00 0.  1.
         25    2    1    2    0    0 -0.99317125673E+02  0.13324568153E+03  0.96114679978E+03  0.98339720133E+03  0.12509429147E+03 0.  0.
         23    2    1    2    0    0  0.99317125673E+02 -0.13324568153E+03  0.46106176737E+03  0.49856924481E+03  0.91515219738E+02 0.  0.
          5    1    3    3  502    0  0.12433791619E+02 -0.60935672683E+01  0.24044690240E+03  0.24088153937E+03  0.41800000000E+01 0.  1.
         -5    1    3    3    0  502 -0.11175091729E+03  0.13933924880E+03  0.72069989739E+03  0.74251566196E+03  0.41800000000E+01 0.  1.
        -11    1    4    4    0    0  0.87551783029E+02 -0.82483485441E+02  0.40293187796E+03  0.42050319661E+03  0.00000000000E+00 0. -1.
         11    1    4    4    0    0  0.11765342644E+02 -0.50762196086E+02  0.58129889408E+02  0.78066048200E+02  0.00000000000E+00 0.  1.
</event>
<event>
 8    1  0.6787197E-009  0.1138644E+03  0.7561462E-02  0.1253577E+00
         -2   -1    0    0    0  501 -0.00000000000E+00  0.00000000000E+00  0.70633457656E+03  0.70633457656E+03  0.00000000000E+00 0.  1.
          2   -1    0    0  501    0  0.00000000000E+00 -0.00000000000E+00 -0.29038562112E+02  0.29038562112E+02  0.00000000000E+00 0. -1.
         25    2    1    2    0    0 -0.81343807138E+01 -0.65656401758E+02  0.53668079918E+03  0.55502367821E+03  0.12509225363E+03 0.  0.
         23    2    1    2    0    0  0.81343807138E+01  0.65656401758E+02  0.14061521527E+03  0.18034946046E+03  0.91522444702E+02 0.  0.
          5    1    3    3  502    0  0.56892891562E+02 -0.16029178461E+02  0.24464962025E+03  0.25172334965E+03  0.41800000000E+01 0.  1.
         -5    1    3    3    0  502 -0.65027272276E+02 -0.49627223298E+02  0.29203117893E+03  0.30330032856E+03  0.41800000000E+01 0.  1.
        -11    1    4    4    0    0 -0.20855173702E+02  0.48708374372E+02  0.13661700015E+03  0.14653207408E+03  0.00000000000E+00 0.  1.
         11    1    4    4    0    0  0.28989554416E+02  0.16948027386E+02  0.39982151109E+01  0.33817386380E+02  0.00000000000E+00 0. -1.
</event>
<event>
 8    1  0.6787197E-009  0.1007873E+03  0.7561462E-02  0.1278649E+00
          1   -1    0    0  501    0  0.00000000000E+00  0.00000000000E+00  0.71838458057E+03  0.71838458057E+03  0.00000000000E+00 0. -1.
         -1   -1    0    0    0  501 -0.00000000000E+00 -0.00000000000E+00 -0.21901763647E+02  0.21901763647E+02  0.00000000000E+00 0.  1.
         25    2    1    2    0    0 -0.91706879113E+01 -0.81291497420E+01  0.56921521448E+03  0.58292583570E+03  0.12508551047E+03 0.  0.
         23    2    1    2    0    0  0.91706879113E+01  0.81291497420E+01  0.12726760244E+03  0.15736050852E+03  0.91733867350E+02 0.  0.
          5    1    3    3  502    0 -0.91493822469E+01 -0.63062309764E+02  0.39728458328E+03  0.40238424251E+03  0.41800000000E+01 0.  1.
         -5    1    3    3    0  502 -0.21305664375E-01  0.54933160022E+02  0.17193063121E+03  0.18054159319E+03  0.41800000000E+01 0.  1.
        -11    1    4    4    0    0  0.43910674204E+02  0.16466525926E+02  0.10568065130E+03  0.11561874348E+03  0.00000000000E+00 0. -1.
         11    1    4    4    0    0 -0.34739986293E+02 -0.83373761838E+01  0.21586951144E+02  0.41741765043E+02  0.00000000000E+00 0.  1.
</event>
<event>
 8    1  0.6787197E-009  0.1355976E+03  0.7561462E-02  0.1219378E+00
          2   -1    0    0  501    0  0.00000000000E+00  0.00000000000E+00  0.33785561504E+03  0.33785561504E+03  0.00000000000E+00 0. -1.
         -2   -1    0    0    0  501 -0.00000000000E+00 -0.00000000000E+00 -0.86261066735E+02  0.86261066735E+02  0.00000000000E+00 0.  1.
         25    2    1    2    0    0  0.69112787080E+02  0.68865498655E+02  0.23459591792E+02  0.16036363676E+03  0.12508840596E+03 0.  0.
         23    2    1    2    0    0 -0.69112787080E+02 -0.68865498655E+02  0.22813495651E+03  0.26375304501E+03  0.89448734630E+02 0.  0.
          5    1    3    3  502    0  0.90884024202E+02  0.22152863254E+02 -0.16417389556E+02  0.95066599210E+02  0.41800000000E+01 0.  1.
         -5    1    3    3    0  502 -0.21771237122E+02  0.46712635400E+02  0.39876981348E+02  0.65297037554E+02  0.41800000000E+01 0.  1.
        -11    1    4    4    0    0 -0.68317451053E+02 -0.85362590437E+02  0.21924858303E+03  0.24499793290E+03  0.00000000000E+00 0. -1.
         11    1    4    4    0    0 -0.79533602748E+00  0.16497091782E+02  0.88863734826E+01  0.18755112112E+02  0.00000000000E+00 0.  1.
</event>
<event>
 8    1  0.6787197E-009  0.9665737E+02  0.7561462E-02  0.1287486E+00
         -2   -1    0    0    0  501 -0.00000000000E+00  0.00000000000E+00  0.16990900458E+02  0.16990900458E+02  0.00000000000E+00 0.  1.
          2   -1    0    0  501    0  0.00000000000E+00 -0.00000000000E+00 -0.74767386795E+03  0.74767386795E+03  0.00000000000E+00 0. -1.
         25    2    1    2    0    0 -0.16818604004E+02 -0.89714202712E+01 -0.50623340342E+03  0.52180758215E+03  0.12509013642E+03 0.  0.
         23    2    1    2    0    0  0.16818604004E+02  0.89714202712E+01 -0.22444956408E+03  0.24285718626E+03  0.90767033012E+02 0.  0.
          5    1    3    3  502    0 -0.37308616699E+02  0.39080374398E+02 -0.39668904939E+03  0.40037342925E+03  0.41800000000E+01 0.  1.
         -5    1    3    3    0  502  0.20490012695E+02 -0.48051794670E+02 -0.10954435403E+03  0.12143415291E+03  0.41800000000E+01 0.  1.
        -11    1    4    4    0    0 -0.30170072535E+02 -0.15304037300E+02 -0.13280686826E+03  0.13704784234E+03  0.00000000000E+00 0.  1.
         11    1    4    4    0    0  0.46988676539E+02  0.24275457572E+02 -0.91642695818E+02  0.10580934392E+03  0.00000000000E+00 0. -1.
</event>
<event>
 8    1  0.6787197E-009  0.1358632E+03  0.7561462E-02  0.1219006E+00
         -2   -1    0    0    0  501 -0.00000000000E+00  0.00000000000E+00  0.34236003472E+02  0.34236003472E+02  0.00000000000E+00 0.  1.
          2   -1    0    0  501    0  0.00000000000E+00 -0.00000000000E+00 -0.64298490254E+03  0.64298490254E+03  0.00000000000E+00 0. -1.
         25    2    1    2    0    0  0.46840274299E+02  0.69011401592E+02 -0.45678826916E+03  0.48089421452E+03  0.12508852015E+03 0.  0.
         23    2    1    2    0    0 -0.46840274299E+02 -0.69011401592E+02 -0.15196062991E+03  0.19632669149E+03  0.92171318219E+02 0.  0.
          5    1    3    3  502    0 -0.34908922740E+01  0.93336795066E+02 -0.30884656171E+03  0.32268810750E+03  0.41800000000E+01 0.  1.
         -5    1    3    3    0  502  0.50331166573E+02 -0.24325393474E+02 -0.14794170745E+03  0.15820610703E+03  0.41800000000E+01 0.  1.
        -11    1    4    4    0    0 -0.73805549553E+02 -0.52144835574E+02 -0.12713281192E+03  0.15597786666E+03  0.00000000000E+00 0.  1.
         11    1    4    4    0    0  0.26965275254E+02 -0.16866566018E+02 -0.24827817990E+02  0.40348824826E+02  0.00000000000E+00 0. -1.
</event>
<event>
 8    1  0.6787197E-009  0.9099107E+02  0.7561462E-02  0.1300469E+00
          1   -1    0    0  501    0  0.00000000000E+00  0.00000000000E+00  0.75471647930E+02  0.75471647930E+02  0.00000000000E+00 0. -1.
         -1   -1    0    0    0  501 -0.00000000000E+00 -0.00000000000E+00 -0.17022153489E+03  0.17022153489E+03  0.00000000000E+00 0.  1.
         25    2    1    2    0    0 -0.89668219758E+01 -0.16838533234E+02 -0.61316780382E+02  0.14060689888E+03  0.12508641956E+03 0.  0.
         23    2    1    2    0    0  0.89668219758E+01  0.16838533234E+02 -0.33433106575E+02  0.10508628394E+03  0.97782484929E+02 0.  0.
          5    1    3    3  502    0 -0.63167185115E+02 -0.21890556257E+02 -0.52928096400E+02  0.85370636153E+02  0.41800000000E+01 0. -1.
         -5    1    3    3    0  502  0.54200363139E+02  0.50520230226E+01 -0.83886839816E+01  0.55236262726E+02  0.41800000000E+01 0. -1.
        -11    1    4    4    0    0 -0.23878053383E+02  0.13394489347E+02  0.25574920439E+02  0.37465321747E+02  0.00000000000E+00 0. -1.
         11    1    4    4    0    0  0.32844875358E+02  0.34440438877E+01 -0.59008027014E+02  0.67620962191E+02  0.00000000000E+00 0.  1.
</event>
<event>
 8    1  0.6787197E-009  0.1152647E+03  0.7561462E-02  0.1251120E+00
          2   -1    0    0  501    0  0.00000000000E+00  0.00000000000E+00  0.59302470840E+03  0.59302470840E+03  0.00000000000E+00 0. -1.
         -2   -1    0    0    0  501 -0.00000000000E+00 -0.00000000000E+00 -0.45916516655E+02  0.45916516655E+02  0.00000000000E+00 0.  1.
         25    2    1    2    0    0  0.47584300686E+02 -0.60249489453E+02  0.10329667084E+03  0.17947772297E+03  0.12509110354E+03 0.  0.
         23    2    1    2    0    0 -0.47584300686E+02  0.60249489453E+02  0.44381152091E+03  0.45946350209E+03  0.90795247738E+02 0.  0.
          5    1    3    3  502    0  0.82338401506E+02 -0.54637438010E+02  0.39517857016E+02  0.10650819414E+03  0.41800000000E+01 0. -1.
         -5    1    3    3    0  502 -0.34754100820E+02 -0.56120514429E+01  0.63778813827E+02  0.72969528834E+02  0.41800000000E+01 0. -1.
        -11    1    4    4    0    0 -0.55755641934E+01 -0.11641133762E+02  0.67975273284E+01  0.14587984409E+02  0.00000000000E+00 0.  1.
         11    1    4    4    0    0 -0.42008736493E+02  0.71890623215E+02  0.43701399358E+03  0.44487551768E+03  0.00000000000E+00 0. -1.
</event>
<event>
 8    1  0.6787197E-009  0.1655258E+03  0.7561462E-02  0.1182596E+00
          2   -1    0    0  501    0  0.00000000000E+00  0.00000000000E+00  0.10475149169E+04  0.10475149169E+04  0.00000000000E+00 0. -1.
         -2   -1    0    0    0  501 -0.00000000000E+00 -0.00000000000E+00 -0.35477149387E+02  0.35477149387E+02  0.00000000000E+00 0.  1.
         25    2    1    2    0    0  0.13483437324E+02  0.13068715556E+03  0.78223039691E+03  0.80299042566E+03  0.12509314185E+03 0.  0.
         23    2    1    2    0    0 -0.13483437324E+02 -0.13068715556E+03  0.22980737058E+03  0.28000164060E+03  0.91260919669E+02 0.  0.
          5    1    3    3  502    0  0.25112410182E+02 -0.15217940951E+02  0.22063064340E+03  0.22261530064E+03  0.41800000000E+01 0. -1.
         -5    1    3    3    0  502 -0.11628972858E+02  0.14590509651E+03  0.56159975351E+03  0.58037512502E+03  0.41800000000E+01 0. -1.
        -11    1    4    4    0    0 -0.35855689197E+02 -0.12740305904E+03  0.16598946534E+03  0.21229619051E+03  0.00000000000E+00 0.  1.
         11    1    4    4    0    0  0.22372251873E+02 -0.32840965206E+01  0.63817905237E+02  0.67705450096E+02  0.00000000000E+00 0. -1.
</event>
<event>
 8    1  0.6787197E-009  0.8175646E+02  0.7561462E-02  0.1324139E+00
         -1   -1    0    0    0  501 -0.00000000000E+00  0.00000000000E+00  0.71528634053E+02  0.71528634053E+02  0.00000000000E+00 0.  1.
          1   -1    0    0  501    0  0.00000000000E+00 -0.00000000000E+00 -0.17888859147E+03  0.17888859147E+03  0.00000000000E+00 0. -1.
         25    2    1    2    0    0 -0.11423147512E+02  0.66716955334E+01 -0.96912076159E+02  0.15878703058E+03  0.12508545381E+03 0.  0.
         23    2    1    2    0    0  0.11423147512E+02 -0.66716955334E+01 -0.10447881255E+02  0.91630194935E+02  0.90066278822E+02 0.  0.
          5    1    3    3  502    0 -0.29498688543E+01 -0.43203247836E+02  0.61156080028E+01  0.43932851160E+02  0.41800000000E+01 0.  1.
         -5    1    3    3    0  502 -0.84732786577E+01  0.49874943369E+02 -0.10302768416E+03  0.11485417942E+03  0.41800000000E+01 0.  1.
        -11    1    4    4    0    0 -0.13486353056E+02 -0.31383158570E+02 -0.34922145385E+02  0.48850185250E+02  0.00000000000E+00 0. -1.
         11    1    4    4    0    0  0.24909500568E+02  0.24711463037E+02  0.24474264130E+02  0.42780009686E+02  0.00000000000E+00 0.  1.
</event>
<event>
 8    1  0.6787197E-009  0.1397799E+03  0.7561462E-02  0.1213625E+00
          1   -1    0    0  501    0  0.00000000000E+00  0.00000000000E+00  0.14524338109E+04  0.14524338109E+04  0.00000000000E+00 0. -1.
         -1   -1    0    0    0  501 -0.00000000000E+00 -0.00000000000E+00 -0.22419032555E+02  0.22419032555E+02  0.00000000000E+00 0.  1.
         25    2    1    2    0    0  0.62202682937E+02  0.88711300377E+02  0.11408908899E+04  0.11528300582E+04  0.12508497876E+03 0.  0.
         23    2    1    2    0    0 -0.62202682937E+02 -0.88711300377E+02  0.28912388847E+03  0.32202278526E+03  0.91472305971E+02 0.  0.
          5    1    3    3  502    0  0.28397443745E+02  0.10378774004E+03  0.53133918065E+03  0.54214122430E+03  0.41800000000E+01 0. -1.
         -5    1    3    3    0  502  0.33805239192E+02 -0.15076439662E+02  0.60955170924E+03  0.61068883391E+03  0.41800000000E+01 0. -1.
        -11    1    4    4    0    0  0.18807887960E+02 -0.26442481232E+02  0.12108552535E+03  0.12535807079E+03  0.00000000000E+00 0. -1.
         11    1    4    4    0    0 -0.81010570897E+02 -0.62268819145E+02  0.16803836312E+03  0.19666471447E+03  0.00000000000E+00 0.  1.
</event>
<event>
 8    1  0.6787197E-009  0.1106018E+03  0.7561462E-02  0.1259459E+00
         -2   -1    0    0    0  501 -0.00000000000E+00  0.00000000000E+00  0.47956106951E+02  0.47956106951E+02  0.00000000000E+00 0.  1.
          2   -1    0    0  501    0  0.00000000000E+00 -0.00000000000E+00 -0.35032827049E+03  0.35032827049E+03  0.00000000000E+00 0. -1.
         25    2    1    2    0    0 -0.66343119006E+02  0.12528528941E+02 -0.12926356870E+03  0.19213352615E+03  0.12509135942E+03 0.  0.
         23    2    1    2    0    0  0.66343119006E+02 -0.12528528941E+02 -0.17310859484E+03  0.20615085130E+03  0.89292857521E+02 0.  0.
          5    1    3    3  502    0 -0.36579418324E+02 -0.49868289209E+02 -0.98429189129E+02  0.11632144164E+03  0.41800000000E+01 0.  1.
         -5    1    3    3    0  502 -0.29763700681E+02  0.62396818150E+02 -0.30834379570E+02  0.75812084505E+02  0.41800000000E+01 0.  1.
        -11    1    4    4    0    0  0.33036605648E+02  0.23766642541E+02 -0.20065457132E+02  0.45375028158E+02  0.00000000000E+00 0.  1.
         11    1    4    4    0    0  0.33306513357E+02 -0.36295171482E+02 -0.15304313771E+03  0.16077582314E+03  0.00000000000E+00 0. -1.
</event>
<event>
 8    1  0.6787197E-009  0.1133307E+03  0.7561462E-02  0.1254523E+00
         -2   -1    0    0    0  501 -0.00000000000E+00  0.00000000000E+00  0.10442303323E+03  0.10442303323E+03  0.00000000000E+00 0.  1.
          2   -1    0    0  501    0  0.00000000000E+00 -0.00000000000E+00 -0.21075225785E+03  0.21075225785E+03  0.00000000000E+00 0. -1.
         25    2    1    2    0    0  0.93611436469E+02 -0.20901923832E+02 -0.23738750326E+02  0.15940460666E+03  0.12508520656E+03 0.  0.
         23    2    1    2    0    0 -0.93611436469E+02  0.20901923832E+02 -0.82590474287E+02  0.15577068442E+03  0.90792776279E+02 0.  0.
          5    1    3    3  502    0 -0.24130021488E+01 -0.24116641997E+02 -0.53377948902E+02  0.58771700924E+02  0.41800000000E+01 0. -1.
         -5    1    3    3    0  502  0.96024438618E+02  0.32147181647E+01  0.29639198576E+02  0.10063290574E+03  0.41800000000E+01 0. -1.
        -11    1    4    4    0    0 -0.87856472311E+02  0.38945156114E+01 -0.98311824410E+02  0.13190580653E+03  0.00000000000E+00 0. -1.
         11    1    4    4    0    0 -0.57549641583E+01  0.17007408221E+02  0.15721350123E+02  0.23864877887E+02  0.00000000000E+00 0.  1.
</event>
<event>
 8    1  0.6787197E-009  0.1226971E+03  0.7561462E-02  0.1238713E+00
          1   -1    0    0  501    0  0.00000000000E+00  0.00000000000E+00  0.61741366863E+02  0.61741366863E+02  0.00000000000E+00 0. -1.
         -1   -1    0    0    0  501 -0.00000000000E+00 -0.00000000000E+00 -0.62874172610E+03  0.62874172610E+03  0.00000000000E+00 0.  1.
         25    2    1    2    0    0 -0.72337878407E+02 -0.27772166827E+02 -0.55115950288E+03  0.57046243309E+03  0.12508608254E+03 0.  0.
         23    2    1    2    0    0  0.72337878407E+02  0.27772166827E+02 -0.15840856358E+02  0.12002065988E+03  0.90277151953E+02 0.  0.
          5    1    3    3  502    0  0.28514069845E+02 -0.23913426248E+02 -0.76504521341E+02  0.85178156352E+02  0.41800000000E+01 0.  1.
         -5    1    3    3    0  502 -0.10085194825E+03 -0.38587405792E+01 -0.47465498154E+03  0.48528427674E+03  0.41800000000E+01 0.  1.
        -11    1    4    4    0    0  0.68785476027E+02 -0.95477590981E+01 -0.35169270926E+02  0.77842655617E+02  0.00000000000E+00 0.  1.
         11    1    4    4    0    0  0.35524023799E+01  0.37319925925E+02  0.19328414568E+02  0.42178004261E+02  0.00000000000E+00 0. -1.
</event>
<event>
 8    1  0.6787197E-009  0.1109965E+03  0.7561462E-02  0.1258736E+00
         -1   -1    0    0    0  501 -0.00000000000E+00  0.00000000000E+00  0.88179742669E+02  0.88179742669E+02  0.00000000000E+00 0.  1.
          1   -1    0    0  501    0  0.00000000000E+00 -0.00000000000E+00 -0.21272100452E+03  0.21272100452E+03  0.00000000000E+00 0. -1.
         25    2    1    2    0    0  0.58539950292E+02  0.24996228111E+02 -0.68737000174E+01  0.14051754617E+03  0.12508475458E+03 0.  0.
         23    2    1    2    0    0 -0.58539950292E+02 -0.24996228111E+02 -0.11766756184E+03  0.16038320102E+03  0.88461171493E+02 0.  0.
          5    1    3    3  502    0  0.18416976801E+02  0.57944595351E+02 -0.45177957858E+02  0.75863571239E+02  0.41800000000E+01 0. -1.
         -5    1    3    3    0  502  0.40122973491E+02 -0.32948367240E+02  0.38304257841E+02  0.64653974930E+02  0.41800000000E+01 0. -1.
        -11    1    4    4    0    0 -0.11145640412E+02 -0.52834615934E+02 -0.56800458967E+02  0.78371002801E+02  0.00000000000E+00 0.  1.
         11    1    4    4    0    0 -0.47394309880E+02  0.27838387823E+02 -0.60867102868E+02  0.82012198222E+02  0.00000000000E+00 0. -1.
</event>
<event>
 8    1  0.6787197E-009  0.1022645E+03  0.7561462E-02  0.1275605E+00
          1   -1    0    0  501    0  0.00000000000E+00  0.00000000000E+00  0.88968198641E+03  0.88968198641E+03  0.00000000000E+00 0. -1.
         -1   -1    0    0    0  501 -0.00000000000E+00 -0.00000000000E+00 -0.18340289155E+02  0.18340289155E+02  0.00000000000E+00 0.  1.
         25    2    1    2    0    0 -0.14732065556E+02  0.62594283254E+02  0.56148005092E+03  0.57882828713E+03  0.12508900968E+03 0.  0.
         23    2    1    2    0    0  0.14732065556E+02 -0.62594283254E+02  0.30986164633E+03  0.32919398844E+03  0.90660708713E+02 0.  0.
          5    1    3    3  502    0  0.53149410953E+02  0.10062472021E+02  0.24047496536E+03  0.24651935947E+03  0.41800000000E+01 0. -1.
         -5    1    3    3    0  502 -0.67881476510E+02  0.52531811234E+02  0.32100508557E+03  0.33230892766E+03  0.41800000000E+01 0. -1.
        -11    1    4    4    0    0  0.31405928259E+01 -0.99883199507E+01 -0.36498454567E+01  0.11088337594E+02  0.00000000000E+00 0.  1.
         11    1    4    4    0    0  0.11591472730E+02 -0.52605963303E+02  0.31351149179E+03  0.31810565085E+03  0.00000000000E+00 0. -1.
</event>
<event>
 8    1  0.6787197E-009  0.1709637E+03  0.7561462E-02  0.1176847E+00
         -4   -1    0    0    0  501 -0.00000000000E+00  0.00000000000E+00  0.66400389181E+02  0.66400389181E+02  0.00000000000E+00 0.  1.
          4   -1    0    0  501    0  0.00000000000E+00 -0.00000000000E+00 -0.62110883864E+03  0.62110883864E+03  0.00000000000E+00 0. -1.
         25    2    1    2    0    0  0.15246380842E+03 -0.59775270532E+02 -0.37252605398E+03  0.42572748890E+03  0.12509971251E+03 0.  0.
         23    2    1    2    0    0 -0.15246380842E+03  0.59775270532E+02 -0.18218239548E+03  0.26178173892E+03  0.92309034037E+02 0.  0.
          5    1    3    3  502    0  0.12807206268E+03 -0.66859157091E+02 -0.37295584428E+03  0.39998266751E+03  0.41800000000E+01 0.  1.
         -5    1    3    3    0  502  0.24391745741E+02  0.70838865586E+01  0.42979029608E+00  0.25744821397E+02  0.41800000000E+01 0.  1.
        -11    1    4    4    0    0 -0.43683525464E+02  0.43523193854E+02 -0.18136334196E+02  0.64276320820E+02  0.00000000000E+00 0.  1.
         11    1    4    4    0    0 -0.10878028295E+03  0.16252076678E+02 -0.16404606128E+03  0.19750541810E+03  0.00000000000E+00 0. -1.
</event>
<event>
 8    1  0.6787197E-009  0.1131644E+03  0.7561462E-02  0.1254820E+00
         -3   -1    0    0    0  501 -0.00000000000E+00  0.00000000000E+00  0.44456671134E+02  0.44456671134E+02  0.00000000000E+00 0.  1.
          3   -1    0    0  501    0  0.00000000000E+00 -0.00000000000E+00 -0.34563748931E+03  0.34563748931E+03  0.00000000000E+00 0. -1.
         25    2    1    2    0    0 -0.39138572815E+01  0.41726773833E+02 -0.24601197058E+03  0.27915137268E+03  0.12508859766E+03 0.  0.
         23    2    1    2    0    0  0.39138572815E+01 -0.41726773833E+02 -0.55168847596E+02  0.11094278777E+03  0.86650207614E+02 0.  0.
          5    1    3    3  502    0  0.56079149410E+01  0.85159274182E+02 -0.18246403897E+03  0.20147989628E+03  0.41800000000E+01 0. -1.
         -5    1    3    3    0  502 -0.95217722225E+01 -0.43432500350E+02 -0.63547931616E+02  0.77671476396E+02  0.41800000000E+01 0. -1.
        -11    1    4    4    0    0 -0.30538085668E+02  0.11656989563E+02 -0.17424353400E+02  0.37041438597E+02  0.00000000000E+00 0. -1.
         11    1    4    4    0    0  0.34451942949E+02 -0.53383763396E+02 -0.37744494196E+02  0.73901349171E+02  0.00000000000E+00 0.  1.
</event>
<event>
 8    1  0.6787197E-009  0.2609575E+03  0.7561462E-02  0.1106569E+00
         -2   -1    0    0    0  501 -0.00000000000E+00  0.00000000000E+00  0.11640248159E+03  0.11640248159E+03  0.00000000000E+00 0.  1.
          2   -1    0    0  501    0  0.00000000000E+00 -0.00000000000E+00 -0.61902878409E+03  0.61902878409E+03  0.00000000000E+00 0. -1.
         25    2    1    2    0    0  0.17672243049E+03 -0.16988124713E+03 -0.24362585144E+03  0.36754719727E+03  0.12508769391E+03 0.  0.
         23    2    1    2    0    0 -0.17672243049E+03  0.16988124713E+03 -0.25900045106E+03  0.36788406841E+03  0.90371447781E+02 0.  0.
          5    1    3    3  502    0  0.19026766394E+03 -0.16904025779E+03 -0.24497880065E+03  0.35328243356E+03  0.41800000000E+01 0. -1.
         -5    1    3    3    0  502 -0.13545233448E+02 -0.84098933961E+00  0.13529492067E+01  0.14264763713E+02  0.41800000000E+01 0. -1.
        -11    1    4    4    0    0 -0.17788238544E+03  0.14840246827E+03 -0.20344714816E+03  0.30831181900E+03  0.00000000000E+00 0.  1.
         11    1    4    4    0    0  0.11599549507E+01  0.21478778859E+02 -0.55553302900E+02  0.59572249411E+02  0.00000000000E+00 0. -1.
</event>
<event>
 8    1  0.6787197E-009  0.1000463E+03  0.7561462E-02  0.1280199E+00
         -1   -1    0    0    0  501 -0.00000000000E+00  0.00000000000E+00  0.65490603432E+01  0.65490603432E+01  0.00000000000E+00 0.  1.
          1   -1    0    0  501    0  0.00000000000E+00 -0.00000000000E+00 -0.26618957840E+04  0.26618957840E+04  0.00000000000E+00 0. -1.
         25    2    1    2    0    0 -0.41300688478E+01  0.29276133363E+02 -0.21720240923E+04  0.21758239111E+04  0.12508750916E+03 0.  0.
         23    2    1    2    0    0  0.41300688478E+01 -0.29276133363E+02 -0.48332263141E+03  0.49262093334E+03  0.90556438073E+02 0.  0.
          5    1    3    3  502    0 -0.52048320320E+02  0.21286705965E+02 -0.51413589485E+03  0.51721885336E+03  0.41800000000E+01 0.  1.
         -5    1    3    3    0  502  0.47918251472E+02  0.79894273980E+01 -0.16578881974E+04  0.16586050577E+04  0.41800000000E+01 0.  1.
        -11    1    4    4    0    0  0.13498310906E+02  0.31070344179E+02 -0.15370295546E+03  0.15739176980E+03  0.00000000000E+00 0.  1.
         11    1    4    4    0    0 -0.93682420579E+01 -0.60346477541E+02 -0.32961967595E+03  0.33522916354E+03  0.00000000000E+00 0. -1.
</event>
<event>
 8    1  0.6787197E-009  0.1077016E+03  0.7561462E-02  0.1264886E+00
          2   -1    0    0  501    0  0.00000000000E+00  0.00000000000E+00  0.58440371082E+03  0.58440371082E+03  0.00000000000E+00 0. -1.
         -2   -1    0    0    0  501 -0.00000000000E+00 -0.00000000000E+00 -0.27957885468E+02  0.27957885468E+02  0.00000000000E+00 0.  1.
         25    2    1    2    0    0  0.33269736701E+02  0.51162888201E+02  0.23942499697E+03  0.27693754851E+03  0.12508221332E+03 0.  0.
         23    2    1    2    0    0 -0.33269736701E+02 -0.51162888201E+02  0.31702082838E+03  0.33542404778E+03  0.91008624288E+02 0.  0.
          5    1    3    3  502    0  0.43824974893E+01 -0.28315566161E+02  0.15386569475E+03  0.15656660561E+03  0.41800000000E+01 0. -1.
         -5    1    3    3    0  502  0.28887239212E+02  0.79478454362E+02  0.85559302220E+02  0.12037094290E+03  0.41800000000E+01 0. -1.
        -11    1    4    4    0    0  0.26614177710E+02 -0.24694515392E+02  0.17921688543E+03  0.18285739135E+03  0.00000000000E+00 0. -1.
         11    1    4    4    0    0 -0.59883914411E+02 -0.26468372809E+02  0.13780394295E+03  0.15256665644E+03  0.00000000000E+00 0.  1.
</event>
<event>
 8    1  0.6787197E-009  0.1644603E+03  0.7561462E-02  0.1183751E+00
         -2   -1    0    0    0  501 -0.00000000000E+00  0.00000000000E+00  0.68845984416E+02  0.68845984416E+02  0.00000000000E+00 0.  1.
          2   -1    0    0  501    0  0.00000000000E+00 -0.00000000000E+00 -0.42965496817E+03  0.42965496817E+03  0.00000000000E+00 0. -1.
         25    2    1    2    0    0 -0.10367529819E+03 -0.77683599997E+02 -0.14843259150E+03  0.23337507645E+03  0.12509349674E+03 0.  0.
         23    2    1    2    0    0  0.10367529819E+03  0.77683599997E+02 -0.21237639226E+03  0.26512587614E+03  0.91677091163E+02 0.  0.
          5    1    3    3  502    0 -0.98695482456E+02  0.28943244720E+01 -0.89553783731E+02  0.13336614245E+03  0.41800000000E+01 0.  1.
         -5    1    3    3    0  502 -0.49798157380E+01 -0.80577924469E+02 -0.58878807769E+02  0.10000893401E+03  0.41800000000E+01 0.  1.
        -11    1    4    4    0    0  0.43933339859E+02  0.77988417397E+02 -0.16918655469E+03  0.19140643115E+03  0.00000000000E+00 0. -1.
         11    1    4    4    0    0  0.59741958334E+02 -0.30481739959E+00 -0.43189837569E+02  0.73719444982E+02  0.00000000000E+00 0.  1.
</event>
<event>
 8    1  0.6787197E-009  0.1211492E+03  0.7561462E-02  0.1241213E+00
          2   -1    0    0  501    0  0.00000000000E+00  0.00000000000E+00  0.60564859568E+03  0.60564859568E+03  0.00000000000E+00 0. -1.
         -2   -1    0    0    0  501 -0.00000000000E+00 -0.00000000000E+00 -0.31237908960E+02  0.31237908960E+02  0.00000000000E+00 0.  1.
         25    2    1    2    0    0  0.60525891332E+02  0.58378677706E+02  0.36109629896E+03  0.39129151336E+03  0.12508819995E+03 0.  0.
         23    2    1    2    0    0 -0.60525891332E+02 -0.58378677706E+02  0.21331438776E+03  0.24559499128E+03  0.87991011971E+02 0.  0.
          5    1    3    3  502    0 -0.18095879586E+01  0.74087537940E+02  0.26793268639E+03  0.27802452180E+03  0.41800000000E+01 0.  1.
         -5    1    3    3    0  502  0.62335479291E+02 -0.15708860234E+02  0.93163612578E+02  0.11326699156E+03  0.41800000000E+01 0.  1.
        -11    1    4    4    0    0  0.91243635751E+01 -0.24608215653E+02  0.12688399855E+03  0.12956993238E+03  0.00000000000E+00 0. -1.
         11    1    4    4    0    0 -0.69650254907E+02 -0.33770462052E+02  0.86430389206E+02  0.11602505891E+03  0.00000000000E+00 0.  1.
</event>
<event>
 8    1  0.6787197E-009  0.1062403E+03  0.7561462E-02  0.1267695E+00
          2   -1    0    0  501    0  0.00000000000E+00  0.00000000000E+00  0.23076360476E+03  0.23076360476E+03  0.00000000000E+00 0. -1.
         -2   -1    0    0    0  501 -0.00000000000E+00 -0.00000000000E+00 -0.53171660843E+02  0.53171660843E+02  0.00000000000E+00 0.  1.
         25    2    1    2    0    0  0.59096199943E+00  0.19650273729E+02  0.95528946986E+02  0.15861942506E+03  0.12509140578E+03 0.  0.
         23    2    1    2    0    0 -0.59096199943E+00 -0.19650273729E+02  0.82062996935E+02  0.12531584055E+03  0.92645787455E+02 0.  0.
          5    1    3    3  502    0  0.58510126258E+02 -0.12484244088E+02  0.40040506518E+02  0.72111065638E+02  0.41800000000E+01 0. -1.
         -5    1    3    3    0  502 -0.57919164259E+02  0.32134517818E+02  0.55488440469E+02  0.86508359419E+02  0.41800000000E+01 0. -1.
        -11    1    4    4    0    0  0.38215522941E+02  0.72815968665E+01  0.63691291978E+02  0.74632623700E+02  0.00000000000E+00 0.  1.
         11    1    4    4    0    0 -0.38806484941E+02 -0.26931870596E+02  0.18371704958E+02  0.50683216851E+02  0.00000000000E+00 0. -1.
</event>
<event>
 8    1  0.6787197E-009  0.2079271E+03  0.7561462E-02  0.1143218E+00
          3   -1    0    0  501    0  0.00000000000E+00  0.00000000000E+00  0.18717278969E+03  0.18717278969E+03  0.00000000000E+00 0. -1.
         -3   -1    0    0    0  501 -0.00000000000E+00 -0.00000000000E+00 -0.29894482154E+03  0.29894482154E+03  0.00000000000E+00 0.  1.
         25    2    1    2    0    0 -0.19360181678E+03 -0.16051378406E+02 -0.13872075235E+03  0.26950030477E+03  0.12509059489E+03 0.  0.
         23    2    1    2    0    0  0.19360181678E+03  0.16051378406E+02  0.26948720494E+02  0.21661730646E+03  0.91964741691E+02 0.  0.
          5    1    3    3  502    0 -0.17502906581E+03  0.26115695366E+01 -0.15859718822E+03  0.23624676650E+03  0.41800000000E+01 0. -1.
         -5    1    3    3    0  502 -0.18572750970E+02 -0.18662947942E+02  0.19876435867E+02  0.33253538267E+02  0.41800000000E+01 0. -1.
        -11    1    4    4    0    0  0.10400179856E+03  0.53535101738E+02  0.24228475572E+02  0.11945459493E+03  0.00000000000E+00 0. -1.
         11    1    4    4    0    0  0.89600018223E+02 -0.37483723332E+02  0.27202449227E+01  0.97162711535E+02  0.00000000000E+00 0.  1.
</event>
<event>
 8    1  0.6787197E-009  0.1696978E+03  0.7561462E-02  0.1178163E+00
         -1   -1    0    0    0  501 -0.00000000000E+00  0.00000000000E+00  0.79043633638E+02  0.79043633638E+02  0.00000000000E+00 0.  1.
          1   -1    0    0  501    0  0.00000000000E+00 -0.00000000000E+00 -0.40877107930E+03  0.40877107930E+03  0.00000000000E+00 0. -1.
         25    2    1    2    0    0  0.12807600876E+03  0.54446893321E+02 -0.13265028053E+03  0.22937222330E+03  0.12509033411E+03 0.  0.
         23    2    1    2    0    0 -0.12807600876E+03 -0.54446893321E+02 -0.19707716513E+03  0.25844248964E+03  0.92656263792E+02 0.  0.
          5    1    3    3  502    0  0.58842341659E+02 -0.28557808673E+02 -0.10777774443E+02  0.66419894837E+02  0.41800000000E+01 0. -1.
         -5    1    3    3    0  502  0.69233667099E+02  0.83004701994E+02 -0.12187250608E+03  0.16295232847E+03  0.41800000000E+01 0. -1.
        -11    1    4    4    0    0 -0.45825804776E+02  0.24254970332E+02 -0.46266361810E+02  0.69490173437E+02  0.00000000000E+00 0. -1.
         11    1    4    4    0    0 -0.82250203983E+02 -0.78701863653E+02 -0.15081080332E+03  0.18895231620E+03  0.00000000000E+00 0.  1.
</event>
<event>
 8    1  0.6787197E-009  0.8380188E+02  0.7561462E-02  0.1318596E+00
          2   -1    0    0  501    0  0.00000000000E+00  0.00000000000E+00  0.25622562191E+03  0.25622562191E+03  0.00000000000E+00 0. -1.
         -2   -1    0    0    0  501 -0.00000000000E+00 -0.00000000000E+00 -0.60247324564E+02  0.60247324564E+02  0.00000000000E+00 0.  1.
         25    2    1    2    0    0 -0.21222108142E+02 -0.13429299594E+02  0.15910149901E+03  0.20393889102E+03  0.12508821016E+03 0.  0.
         23    2    1    2    0    0  0.21222108142E+02  0.13429299594E+02  0.36876798336E+02  0.11253405546E+03  0.10331162287E+03 0.  0.
          5    1    3    3  502    0 -0.52910620933E+02 -0.48603017262E+02  0.58751744284E+02  0.92903320451E+02  0.41800000000E+01 0.  1.
         -5    1    3    3    0  502  0.31688512791E+02  0.35173717668E+02  0.10034975473E+03  0.11103557057E+03  0.41800000000E+01 0.  1.
        -11    1    4    4    0    0  0.28038734910E+02 -0.49810991290E+01 -0.30870492169E+02  0.41999634411E+02  0.00000000000E+00 0.  1.
         11    1    4    4    0    0 -0.68166267685E+01  0.18410398723E+02  0.67747290505E+02  0.70534421047E+02  0.00000000000E+00 0. -1.
</event>
<event>
 8    1  0.6787197E-009  0.1107297E+03  0.7561462E-02  0.1259225E+00
         -1   -1    0    0    0  501 -0.00000000000E+00  0.00000000000E+00  0.42491981902E+02  0.42491981902E+02  0.00000000000E+00 0.  1.
          1   -1    0    0  501    0  0.00000000000E+00 -0.00000000000E+00 -0.53334226599E+03  0.53334226599E+03  0.00000000000E+00 0. -1.
         25    2    1    2    0    0  0.83704405954E+02  0.47305544062E+02 -0.33570264433E+03  0.37092805868E+03  0.12508843765E+03 0.  0.
         23    2    1    2    0    0 -0.83704405954E+02 -0.47305544062E+02 -0.15514763976E+03  0.20490618921E+03  0.93120965299E+02 0.  0.
          5    1    3    3  502    0  0.52796073890E+02  0.86308869441E+01 -0.31071440979E+03  0.31531386661E+03  0.41800000000E+01 0. -1.
         -5    1    3    3    0  502  0.30908332064E+02  0.38674657118E+02 -0.24988234541E+02  0.55614192071E+02  0.41800000000E+01 0. -1.
        -11    1    4    4    0    0  0.11741090104E+02 -0.10717308025E+02  0.34070900704E+01  0.16257987295E+02  0.00000000000E+00 0.  1.
         11    1    4    4    0    0 -0.95445496058E+02 -0.36588236038E+02 -0.15855472983E+03  0.18864820191E+03  0.00000000000E+00 0. -1.
</event>
<event>
 8    1  0.6787197E-009  0.1164590E+03  0.7561462E-02  0.1249056E+00
          2   -1    0    0  501    0  0.00000000000E+00  0.00000000000E+00  0.39188050454E+03  0.39188050454E+03  0.00000000000E+00 0. -1.
         -2   -1    0    0    0  501 -0.00000000000E+00 -0.00000000000E+00 -0.37931765686E+02  0.37931765686E+02  0.00000000000E+00 0.  1.
         25    2    1    2    0    0 -0.46949803425E+02  0.20286442297E+02  0.24325400754E+03  0.27827328922E+03  0.12509071718E+03 0.  0.
         23    2    1    2    0    0  0.46949803425E+02 -0.20286442297E+02  0.11069473131E+03  0.15153898101E+03  0.89971748019E+02 0.  0.
          5    1    3    3  502    0  0.33200829219E+02  0.39938830116E+02  0.83718958361E+02  0.98609034074E+02  0.41800000000E+01 0. -1.
         -5    1    3    3    0  502 -0.80150632644E+02 -0.19652387819E+02  0.15953504918E+03  0.17966425515E+03  0.41800000000E+01 0. -1.
        -11    1    4    4    0    0  0.49701839820E+02 -0.48730779839E+02  0.98158360771E+02  0.12033297792E+03  0.00000000000E+00 0. -1.
         11    1    4    4    0    0 -0.27520363947E+01  0.28444337542E+02  0.12536370543E+02  0.31206003090E+02  0.00000000000E+00 0.  1.
</event>
<event>
 8    1  0.6787197E-009  0.2066023E+03  0.7561462E-02  0.1144285E+00
         -3   -1    0    0    0  501 -0.00000000000E+00  0.00000000000E+00  0.11899480528E+04  0.11899480528E+04  0.00000000000E+00 0. -1.
          3   -1    0    0  501    0  0.00000000000E+00 -0.00000000000E+00 -0.42115968665E+02  0.42115968665E+02  0.00000000000E+00 0.  1.
         25    2    1    2    0    0 -0.83257239609E+02 -0.17689865974E+03  0.62579680557E+03  0.66745351952E+03  0.12509058751E+03 0.  0.
         23    2    1    2    0    0  0.83257239609E+02  0.17689865974E+03  0.52203527858E+03  0.56461050197E+03  0.89662049320E+02 0.  0.
          5    1    3    3  502    0 -0.94324740679E+02 -0.92185001978E+02  0.25735535829E+03  0.28921356147E+03  0.41800000000E+01 0. -1.
         -5    1    3    3    0  502  0.11067501069E+02 -0.84713657757E+02  0.36844144728E+03  0.37823995805E+03  0.41800000000E+01 0. -1.
        -11    1    4    4    0    0  0.40661797430E+02  0.96745506206E+02  0.39352217723E+03  0.40727481964E+03  0.00000000000E+00 0. -1.
         11    1    4    4    0    0  0.42595442179E+02  0.80153153529E+02  0.12851310135E+03  0.15733568232E+03  0.00000000000E+00 0.  1.
</event>
<event>
 8    1  0.6787197E-009  0.1252332E+03  0.7561462E-02  0.1234705E+00
          2   -1    0    0  501    0  0.00000000000E+00  0.00000000000E+00  0.10249359262E+04  0.10249359262E+04  0.00000000000E+00 0. -1.
         -2   -1    0    0    0  501 -0.00000000000E+00 -0.00000000000E+00 -0.29379373235E+02  0.29379373235E+02  0.00000000000E+00 0.  1.
         25    2    1    2    0    0 -0.11929857221E+02 -0.95836921018E+02  0.79872069806E+03  0.81420356601E+03  0.12508259856E+03 0.  0.
         23    2    1    2    0    0  0.11929857221E+02  0.95836921018E+02  0.19683585492E+03  0.24011173344E+03  0.97888987285E+02 0.  0.
          5    1    3    3  502    0  0.34745191724E+02 -0.98140404537E+02  0.64878527337E+03  0.65709860044E+03  0.41800000000E+01 0.  1.
         -5    1    3    3    0  502 -0.46675048945E+02  0.23034835187E+01  0.14993542469E+03  0.15710496557E+03  0.41800000000E+01 0.  1.
        -11    1    4    4    0    0  0.18547264182E+02  0.56536166829E+02  0.19072647563E+03  0.19979221125E+03  0.00000000000E+00 0.  1.
         11    1    4    4    0    0 -0.66174069612E+01  0.39300754189E+02  0.61093792859E+01  0.40319522194E+02  0.00000000000E+00 0. -1.
</event>
<event>
 8    1  0.6787197E-009  0.2154045E+03  0.7561462E-02  0.1137356E+00
          1   -1    0    0  501    0  0.00000000000E+00  0.00000000000E+00  0.44841013534E+03  0.44841013534E+03  0.00000000000E+00 0. -1.
         -1   -1    0    0    0  501 -0.00000000000E+00 -0.00000000000E+00 -0.11169571634E+03  0.11169571634E+03  0.00000000000E+00 0.  1.
         25    2    1    2    0    0 -0.19048637331E+03  0.50179871555E+01  0.24078239346E+03  0.33155774883E+03  0.12507654134E+03 0.  0.
         23    2    1    2    0    0  0.19048637331E+03 -0.50179871555E+01  0.95932025541E+02  0.22854810285E+03  0.81981968637E+02 0.  0.
          5    1    3    3  502    0 -0.19162477564E+03 -0.25196616299E+02  0.18294576070E+03  0.26616075569E+03  0.41800000000E+01 0.  1.
         -5    1    3    3    0  502  0.11384023327E+01  0.30214603454E+02  0.57836632767E+02  0.65396993139E+02  0.41800000000E+01 0.  1.
        -11    1    4    4    0    0  0.11016728722E+03 -0.42819122618E+02  0.47112458342E+02  0.12723950710E+03  0.00000000000E+00 0. -1.
         11    1    4    4    0    0  0.80319086081E+02  0.37801135463E+02  0.48819567199E+02  0.10130859575E+03  0.00000000000E+00 0.  1.
</event>
<event>
 8    1  0.6787197E-009  0.1550030E+03  0.7561462E-02  0.1194457E+00
          2   -1    0    0  501    0  0.00000000000E+00  0.00000000000E+00  0.15693980037E+04  0.15693980037E+04  0.00000000000E+00 0. -1.
         -2   -1    0    0    0  501 -0.00000000000E+00 -0.00000000000E+00 -0.17428761383E+02  0.17428761383E+02  0.00000000000E+00 0.  1.
         25    2    1    2    0    0 -0.54605323053E+02 -0.10604812586E+03  0.10217205659E+04  0.10362375958E+04  0.12508994302E+03 0.  0.
         23    2    1    2    0    0  0.54605323053E+02  0.10604812586E+03  0.53024867639E+03  0.55058916926E+03  0.88072857293E+02 0.  0.
          5    1    3    3  502    0 -0.15075297829E+02 -0.12492125474E+03  0.83264659182E+03  0.84211068380E+03  0.41800000000E+01 0.  1.
         -5    1    3    3    0  502 -0.39530025224E+02  0.18873128874E+02  0.18907397406E+03  0.19412691198E+03  0.41800000000E+01 0.  1.
        -11    1    4    4    0    0 -0.74614921100E+01  0.65598625196E+02  0.34147342302E+03  0.34779728596E+03  0.00000000000E+00 0. -1.
         11    1    4    4    0    0  0.62066815163E+02  0.40449500666E+02  0.18877525336E+03  0.20279188330E+03  0.00000000000E+00 0.  1.
</event>
<event>
 8    1  0.6787197E-009  0.1587450E+03  0.7561462E-02  0.1190121E+00
         -1   -1    0    0    0  501 -0.00000000000E+00  0.00000000000E+00  0.20107790891E+03  0.20107790891E+03  0.00000000000E+00 0.  1.
          1   -1    0    0  501    0  0.00000000000E+00 -0.00000000000E+00 -0.13782818843E+03  0.13782818843E+03  0.00000000000E+00 0. -1.
         25    2    1    2    0    0 -0.87855168406E+02 -0.79344379793E+02 -0.98741698017E+01  0.17250961264E+03  0.12509199016E+03 0.  0.
         23    2    1    2    0    0  0.87855168406E+02  0.79344379793E+02  0.73123890287E+02  0.16639648470E+03  0.91250345592E+02 0.  0.
          5    1    3    3  502    0 -0.18072462413E+02 -0.94687961499E+02  0.13026861719E+02  0.97363214186E+02  0.41800000000E+01 0. -1.
         -5    1    3    3    0  502 -0.69782705993E+02  0.15343581705E+02 -0.22901031521E+02  0.75146398449E+02  0.41800000000E+01 0. -1.
        -11    1    4    4    0    0  0.58806966370E+02 -0.61578404652E+01  0.27112133261E+02  0.65048028893E+02  0.00000000000E+00 0.  1.
         11    1    4    4    0    0  0.29048202036E+02  0.85502220258E+02  0.46011757026E+02  0.10134845581E+03  0.00000000000E+00 0. -1.
</event>
<event>
 8    1  0.6787197E-009  0.1760267E+03  0.7561462E-02  0.1171705E+00
         -2   -1    0    0    0  501 -0.00000000000E+00  0.00000000000E+00  0.13250843732E+03  0.13250843732E+03  0.00000000000E+00 0.  1.
          2   -1    0    0  501    0  0.00000000000E+00 -0.00000000000E+00 -0.25040925362E+03  0.25040925362E+03  0.00000000000E+00 0. -1.
         25    2    1    2    0    0 -0.14514621059E+03 -0.10927251437E+02 -0.80083615826E+02  0.20795816728E+03  0.12508551691E+03 0.  0.
         23    2    1    2    0    0  0.14514621059E+03  0.10927251437E+02 -0.37817200472E+02  0.17495952367E+03  0.89408428009E+02 0.  0.
          5    1    3    3  502    0  0.94521454394E-01 -0.38858131313E+02 -0.37082171627E+02  0.53875069893E+02  0.41800000000E+01 0. -1.
         -5    1    3    3    0  502 -0.14524073204E+03  0.27930879876E+02 -0.43001444199E+02  0.15408309738E+03  0.41800000000E+01 0. -1.
        -11    1    4    4    0    0  0.78286725424E+02 -0.33057036143E+02  0.31806592262E+01  0.85039376816E+02  0.00000000000E+00 0.  1.
         11    1    4    4    0    0  0.66859485166E+02  0.43984287580E+02 -0.40997859698E+02  0.89920146855E+02  0.00000000000E+00 0. -1.
</event>
<event>
 8    1  0.6787197E-009  0.1881688E+03  0.7561462E-02  0.1160123E+00
          3   -1    0    0  501    0  0.00000000000E+00  0.00000000000E+00  0.78740077281E+03  0.78740077281E+03  0.00000000000E+00 0. -1.
         -3   -1    0    0    0  501 -0.00000000000E+00 -0.00000000000E+00 -0.67543860952E+02  0.67543860952E+02  0.00000000000E+00 0.  1.
         25    2    1    2    0    0  0.17952699797E+03 -0.41694918305E+02  0.21720241294E+03  0.31111538401E+03  0.12508990674E+03 0.  0.
         23    2    1    2    0    0 -0.17952699797E+03  0.41694918305E+02  0.50265449892E+03  0.54382924975E+03  0.95500253346E+02 0.  0.
          5    1    3    3  502    0  0.21980077138E+02 -0.10319064605E+02 -0.14914455181E+02  0.28801393346E+02  0.41800000000E+01 0.  1.
         -5    1    3    3    0  502  0.15754692083E+03 -0.31375853700E+02  0.23211686812E+03  0.28231399066E+03  0.41800000000E+01 0.  1.
        -11    1    4    4    0    0 -0.77457987288E+02  0.43660259166E+02  0.13039503050E+03  0.15782528950E+03  0.00000000000E+00 0.  1.
         11    1    4    4    0    0 -0.10206901068E+03 -0.19653408603E+01  0.37225946842E+03  0.38600396026E+03  0.00000000000E+00 0. -1.
</event>
<event>
 8    1  0.6787197E-009  0.1053864E+03  0.7561462E-02  0.1269360E+00
         -2   -1    0    0    0  501 -0.00000000000E+00  0.00000000000E+00  0.29261877055E+02  0.29261877055E+02  0.00000000000E+00 0.  1.
          2   -1    0    0  501    0  0.00000000000E+00 -0.00000000000E+00 -0.71562688356E+03  0.71562688356E+03  0.00000000000E+00 0. -1.
         25    2    1    2    0    0 -0.46936004445E+02  0.38834159256E+02 -0.56135628954E+03  0.57834187011E+03  0.12508938594E+03 0.  0.
         23    2    1    2    0    0  0.46936004445E+02 -0.38834159256E+02 -0.12500871697E+03  0.16654689051E+03  0.91649369784E+02 0.  0.
          5    1    3    3  502    0  0.17668454167E+02 -0.23839470143E+02 -0.44238231197E+02  0.53432088756E+02  0.41800000000E+01 0.  1.
         -5    1    3    3    0  502 -0.64604458612E+02  0.62673629399E+02 -0.51711805834E+03  0.52490978135E+03  0.41800000000E+01 0.  1.
        -11    1    4    4    0    0 -0.77079186798E+01 -0.35091748903E+02 -0.72202880227E+01  0.36646628912E+02  0.00000000000E+00 0.  1.
         11    1    4    4    0    0  0.54643923125E+02 -0.37424103526E+01 -0.11778842894E+03  0.12990026159E+03  0.00000000000E+00 0. -1.
</event>
<event>
 8    1  0.6787197E-009  0.1144923E+03  0.7561462E-02  0.1252470E+00
          2   -1    0    0  501    0  0.00000000000E+00  0.00000000000E+00  0.65403992749E+03  0.65403992749E+03  0.00000000000E+00 0. -1.
         -2   -1    0    0    0  501 -0.00000000000E+00 -0.00000000000E+00 -0.32211139812E+02  0.32211139812E+02  0.00000000000E+00 0.  1.
         25    2    1    2    0    0  0.51945635289E+02  0.61324799014E+02  0.44586914644E+03  0.47000700151E+03  0.12509278844E+03 0.  0.
         23    2    1    2    0    0 -0.51945635289E+02 -0.61324799014E+02  0.17595964123E+03  0.21624406579E+03  0.96646886373E+02 0.  0.
          5    1    3    3  502    0  0.61442012066E+02  0.93545444161E+02  0.37674580926E+03  0.39304038999E+03  0.41800000000E+01 0. -1.
         -5    1    3    3    0  502 -0.94963767772E+01 -0.32220645147E+02  0.69123337183E+02  0.76966611520E+02  0.41800000000E+01 0. -1.
        -11    1    4    4    0    0 -0.45135105323E+02 -0.38520751298E+02  0.18221754599E+03  0.19163574844E+03  0.00000000000E+00 0. -1.
         11    1    4    4    0    0 -0.68105299665E+01 -0.22804047716E+02 -0.62579047588E+01  0.24608317347E+02  0.00000000000E+00 0.  1.
</event>
<event>
 8    1  0.6787197E-009  0.3583820E+03  0.7561462E-02  0.1059226E+00
          2   -1    0    0  501    0  0.00000000000E+00  0.00000000000E+00  0.70256012003E+03  0.70256012003E+03  0.00000000000E+00 0. -1.
         -2   -1    0    0    0  501 -0.00000000000E+00 -0.00000000000E+00 -0.19600417992E+03  0.19600417992E+03  0.00000000000E+00 0.  1.
         25    2    1    2    0    0  0.58465189800E+02 -0.34801972109E+03  0.30493695976E+03  0.48287762909E+03  0.12509336737E+03 0.  0.
         23    2    1    2    0    0 -0.58465189800E+02  0.34801972109E+03  0.20161898035E+03  0.41568667085E+03  0.87231246698E+02 0.  0.
          5    1    3    3  502    0  0.41464006189E+02 -0.49354064743E+02  0.15117646787E+02  0.66340810669E+02  0.41800000000E+01 0.  1.
         -5    1    3    3    0  502  0.17001183611E+02 -0.29866565635E+03  0.28981931297E+03  0.41653681842E+03  0.41800000000E+01 0.  1.
        -11    1    4    4    0    0 -0.30722340565E+02  0.20702240864E+03  0.16731386478E+03  0.26794788530E+03  0.00000000000E+00 0.  1.
         11    1    4    4    0    0 -0.27742849235E+02  0.14099731245E+03  0.34305115567E+02  0.14773878555E+03  0.00000000000E+00 0. -1.
</event>
<event>
 8    1  0.6787197E-009  0.1138731E+03  0.7561462E-02  0.1253561E+00
          1   -1    0    0  501    0  0.00000000000E+00  0.00000000000E+00  0.58835929224E+02  0.58835929224E+02  0.00000000000E+00 0. -1.
         -1   -1    0    0    0  501 -0.00000000000E+00 -0.00000000000E+00 -0.29366348795E+03  0.29366348795E+03  0.00000000000E+00 0.  1.
         25    2    1    2    0    0 -0.86236240756E+01 -0.67614351283E+02 -0.16748211603E+03  0.21987327773E+03  0.12509169307E+03 0.  0.
         23    2    1    2    0    0  0.86236240756E+01  0.67614351283E+02 -0.67345442691E+02  0.13262613945E+03  0.91696329378E+02 0.  0.
          5    1    3    3  502    0  0.34665647145E+02 -0.72227843635E+02 -0.50038973268E+02  0.94551254534E+02  0.41800000000E+01 0. -1.
         -5    1    3    3    0  502 -0.43289271221E+02  0.46134923521E+01 -0.11744314277E+03  0.12532202319E+03  0.41800000000E+01 0. -1.
        -11    1    4    4    0    0  0.28405814414E+02  0.76866842199E+02 -0.26182565328E+02  0.86028649003E+02  0.00000000000E+00 0. -1.
         11    1    4    4    0    0 -0.19782190338E+02 -0.92524909157E+01 -0.41162877364E+02  0.46597490443E+02  0.00000000000E+00 0.  1.
</event>
<event>
 8    1  0.6787197E-009  0.1341138E+03  0.7561462E-02  0.1221476E+00
          2   -1    0    0  501    0  0.00000000000E+00  0.00000000000E+00  0.97056779408E+03  0.97056779408E+03  0.00000000000E+00 0.  1.
         -2   -1    0    0    0  501 -0.00000000000E+00 -0.00000000000E+00 -0.19662485460E+02  0.19662485460E+02  0.00000000000E+00 0. -1.
         25    2    1    2    0    0 -0.69527315881E+02  0.48242432002E+02  0.56259880256E+03  0.58251667823E+03  0.12508752089E+03 0.  0.
         23    2    1    2    0    0  0.69527315881E+02 -0.48242432002E+02  0.38830650606E+03  0.40771360130E+03  0.91033280402E+02 0.  0.
          5    1    3    3  502    0 -0.99993855089E+02  0.58991544634E+02  0.47660086531E+03  0.49055543072E+03  0.41800000000E+01 0. -1.
         -5    1    3    3    0  502  0.30466539208E+02 -0.10749112632E+02  0.85997937247E+02  0.91961247514E+02  0.41800000000E+01 0. -1.
        -11    1    4    4    0    0  0.66324992700E+02 -0.70614160725E+02  0.35073620953E+03  0.36386982978E+03  0.00000000000E+00 0.  1.
         11    1    4    4    0    0  0.32023231809E+01  0.22371728723E+02  0.37570296534E+02  0.43843771524E+02  0.00000000000E+00 0. -1.
</event>
<event>
 8    1  0.6787197E-009  0.1330400E+03  0.7561462E-02  0.1223013E+00
          4   -1    0    0  501    0  0.00000000000E+00  0.00000000000E+00  0.24918673470E+02  0.24918673470E+02  0.00000000000E+00 0. -1.
         -4   -1    0    0    0  501 -0.00000000000E+00 -0.00000000000E+00 -0.10928823829E+04  0.10928823829E+04  0.00000000000E+00 0.  1.
         25    2    1    2    0    0 -0.55748370326E+02 -0.67989248421E+02 -0.86906702711E+03  0.88241454948E+03  0.12509005092E+03 0.  0.
         23    2    1    2    0    0  0.55748370326E+02  0.67989248421E+02 -0.19889668237E+03  0.23538650693E+03  0.90091612786E+02 0.  0.
          5    1    3    3  502    0 -0.47551159412E+02 -0.97964425480E+02 -0.78791722094E+03  0.79541760156E+03  0.41800000000E+01 0.  1.
         -5    1    3    3    0  502 -0.81972109143E+01  0.29975177059E+02 -0.81149806171E+02  0.86996947924E+02  0.41800000000E+01 0.  1.
        -11    1    4    4    0    0 -0.19851046681E+02  0.40864066848E+02 -0.77163413741E+02  0.89544002780E+02  0.00000000000E+00 0.  1.
         11    1    4    4    0    0  0.75599417007E+02  0.27125181573E+02 -0.12173326863E+03  0.14584250415E+03  0.00000000000E+00 0. -1.
</event>
<event>
 8    1  0.6787197E-009  0.8416248E+02  0.7561462E-02  0.1317637E+00
          2   -1    0    0  501    0  0.00000000000E+00  0.00000000000E+00  0.70602777040E+03  0.70602777040E+03  0.00000000000E+00 0. -1.
         -2   -1    0    0    0  501 -0.00000000000E+00 -0.00000000000E+00 -0.21880419887E+02  0.21880419887E+02  0.00000000000E+00 0.  1.
         25    2    1    2    0    0 -0.76097244830E+01 -0.47470401339E+02  0.27448794498E+03  0.30545681736E+03  0.12509551718E+03 0.  0.
         23    2    1    2    0    0  0.76097244830E+01  0.47470401339E+02  0.40965940553E+03  0.42245137293E+03  0.91285196172E+02 0.  0.
          5    1    3    3  502    0 -0.51021006702E+00 -0.57906765058E+02  0.28350648010E+03  0.28939048086E+03  0.41800000000E+01 0.  1.
         -5    1    3    3    0  502 -0.70995144160E+01  0.10436363719E+02 -0.90185351207E+01  0.16066336494E+02  0.41800000000E+01 0.  1.
        -11    1    4    4    0    0 -0.26656841416E+02 -0.11288307692E+02  0.65161470611E+02  0.71302386615E+02  0.00000000000E+00 0.  1.
         11    1    4    4    0    0  0.34266565899E+02  0.58758709031E+02  0.34449793492E+03  0.35114898631E+03  0.00000000000E+00 0. -1.
</event>
<event>
 8    1  0.6787197E-009  0.1666096E+03  0.7561462E-02  0.1181430E+00
         -2   -1    0    0    0  501 -0.00000000000E+00  0.00000000000E+00  0.68515590184E+03  0.68515590184E+03  0.00000000000E+00 0.  1.
          2   -1    0    0  501    0  0.00000000000E+00 -0.00000000000E+00 -0.64153338282E+02  0.64153338282E+02  0.00000000000E+00 0. -1.
         25    2    1    2    0    0  0.11243293670E+03 -0.78497558184E+02  0.52886182345E+03  0.56048607467E+03  0.12508708843E+03 0.  0.
         23    2    1    2    0    0 -0.11243293670E+03  0.78497558184E+02  0.92140740105E+02  0.18882316545E+03  0.91439815885E+02 0.  0.
          5    1    3    3  502    0 -0.44257491183E+01 -0.55997751102E+02  0.26617382018E+03  0.27206857652E+03  0.41800000000E+01 0.  1.
         -5    1    3    3    0  502  0.11685868582E+03 -0.22499807082E+02  0.26268800328E+03  0.28841749814E+03  0.41800000000E+01 0.  1.
        -11    1    4    4    0    0 -0.97438673553E+02  0.22716098967E+02  0.31073097454E+02  0.10476570833E+03  0.00000000000E+00 0.  1.
         11    1    4    4    0    0 -0.14994263149E+02  0.55781459217E+02  0.61067642651E+02  0.84057457127E+02  0.00000000000E+00 0. -1.
</event>
<event>
 8    1  0.6787197E-009  0.1295189E+03  0.7561462E-02  0.1228171E+00
         -3   -1    0    0    0  501 -0.00000000000E+00  0.00000000000E+00  0.10761336114E+04  0.10761336114E+04  0.00000000000E+00 0.  1.
          3   -1    0    0  501    0  0.00000000000E+00 -0.00000000000E+00 -0.18333152223E+02  0.18333152223E+02  0.00000000000E+00 0. -1.
         25    2    1    2    0    0 -0.65663642273E+02  0.58839703938E+02  0.64324828403E+03  0.66120470425E+03  0.12509788706E+03 0.  0.
         23    2    1    2    0    0  0.65663642273E+02 -0.58839703938E+02  0.41455217512E+03  0.43326205934E+03  0.89937097418E+02 0.  0.
          5    1    3    3  502    0 -0.60207010291E+02  0.89279582568E+02  0.58763192118E+03  0.59743156523E+03  0.41800000000E+01 0.  1.
         -5    1    3    3    0  502 -0.54566319816E+01 -0.30439878631E+02  0.55616362849E+02  0.63773139018E+02  0.41800000000E+01 0.  1.
        -11    1    4    4    0    0 -0.23178082384E+01 -0.51654882801E+02  0.24599028372E+03  0.25136590627E+03  0.00000000000E+00 0.  1.
         11    1    4    4    0    0  0.67981450511E+02 -0.71848211364E+01  0.16856189140E+03  0.18189615307E+03  0.00000000000E+00 0. -1.
</event>
<event>
 8    1  0.6787197E-009  0.1018096E+03  0.7561462E-02  0.1276536E+00
         -1   -1    0    0    0  501 -0.00000000000E+00  0.00000000000E+00  0.15546158784E+04  0.15546158784E+04  0.00000000000E+00 0.  1.
          1   -1    0    0  501    0  0.00000000000E+00 -0.00000000000E+00 -0.16618917995E+02  0.16618917995E+02  0.00000000000E+00 0. -1.
         25    2    1    2    0    0 -0.28601127458E+01  0.13061546499E+02  0.13972613198E+04  0.14029130503E+04  0.12508815538E+03 0.  0.
         23    2    1    2    0    0  0.28601127458E+01 -0.13061546499E+02  0.14073564062E+03  0.16832174613E+03  0.91361400139E+02 0.  0.
          5    1    3    3  502    0  0.57665325596E+02  0.24032703452E+02  0.81311794372E+03  0.81552505995E+03  0.41800000000E+01 0.  1.
         -5    1    3    3    0  502 -0.60525438342E+02 -0.10971156954E+02  0.58414337607E+03  0.58738799033E+03  0.41800000000E+01 0.  1.
        -11    1    4    4    0    0 -0.18944782299E+02  0.27446061641E+02  0.10470498703E+03  0.10988778542E+03  0.00000000000E+00 0. -1.
         11    1    4    4    0    0  0.21804895045E+02 -0.40507608140E+02  0.36030653591E+02  0.58433960702E+02  0.00000000000E+00 0.  1.
</event>
<event>
 8    1  0.6787197E-009  0.2119227E+03  0.7561462E-02  0.1140052E+00
          1   -1    0    0  501    0  0.00000000000E+00  0.00000000000E+00  0.13136823710E+04  0.13136823710E+04  0.00000000000E+00 0. -1.
         -1   -1    0    0    0  501 -0.00000000000E+00 -0.00000000000E+00 -0.41363476765E+02  0.41363476765E+02  0.00000000000E+00 0.  1.
         25    2    1    2    0    0  0.14273831140E+02 -0.20076616077E+03  0.78919097125E+03  0.82400291676E+03  0.12509046391E+03 0.  0.
         23    2    1    2    0    0 -0.14273831140E+02  0.20076616077E+03  0.48312792301E+03  0.53104293103E+03  0.89906679610E+02 0.  0.
          5    1    3    3  502    0  0.51567519016E+02 -0.15081613303E+03  0.67766620326E+03  0.69617071932E+03  0.41800000000E+01 0. -1.
         -5    1    3    3    0  502 -0.37293687876E+02 -0.49950027741E+02  0.11152476799E+03  0.12783219744E+03  0.41800000000E+01 0. -1.
        -11    1    4    4    0    0 -0.17183623734E+02  0.13416417871E+03  0.41164565658E+03  0.43329833874E+03  0.00000000000E+00 0. -1.
         11    1    4    4    0    0  0.29097925932E+01  0.66601982064E+02  0.71482266422E+02  0.97744592283E+02  0.00000000000E+00 0.  1.
</event>
<event>
 8    1  0.6787197E-009  0.1102242E+03  0.7561462E-02  0.1260155E+00
         -2   -1    0    0    0  501 -0.00000000000E+00  0.00000000000E+00  0.31805522369E+02  0.31805522369E+02  0.00000000000E+00 0.  1.
          2   -1    0    0  501    0  0.00000000000E+00 -0.00000000000E+00 -0.40207842094E+03  0.40207842094E+03  0.00000000000E+00 0. -1.
         25    2    1    2    0    0 -0.28581905297E+02 -0.14523762417E+02 -0.23250440635E+03  0.26595695355E+03  0.12508771797E+03 0.  0.
         23    2    1    2    0    0  0.28581905297E+02  0.14523762417E+02 -0.13776849222E+03  0.16792698976E+03  0.90506637624E+02 0.  0.
          5    1    3    3  502    0  0.44835492334E+02 -0.28646145714E+02 -0.81725016580E+02  0.97607754672E+02  0.41800000000E+01 0. -1.
         -5    1    3    3    0  502 -0.73417397631E+02  0.14122383297E+02 -0.15077938977E+03  0.16834919888E+03  0.41800000000E+01 0. -1.
        -11    1    4    4    0    0 -0.54161306425E+01 -0.33180338043E+02 -0.74326569186E+02  0.81576394813E+02  0.00000000000E+00 0. -1.
         11    1    4    4    0    0  0.33998035940E+02  0.47704100460E+02 -0.63441923039E+02  0.86350594944E+02  0.00000000000E+00 0.  1.
</event>
<event>
 8    1  0.6787197E-009  0.1429142E+03  0.7561462E-02  0.1209461E+00
         -1   -1    0    0    0  501 -0.00000000000E+00  0.00000000000E+00  0.40997534513E+02  0.40997534513E+02  0.00000000000E+00 0.  1.
          1   -1    0    0  501    0  0.00000000000E+00 -0.00000000000E+00 -0.52999489335E+03  0.52999489335E+03  0.00000000000E+00 0. -1.
         25    2    1    2    0    0 -0.40268001419E+02  0.90694710952E+02 -0.24827102785E+03  0.29518215218E+03  0.12508779781E+03 0.  0.
         23    2    1    2    0    0  0.40268001419E+02 -0.90694710952E+02 -0.24072633099E+03  0.27581027568E+03  0.90967572296E+02 0.  0.
          5    1    3    3  502    0 -0.79802512523E+02  0.82236622719E+02 -0.21045200717E+03  0.23966397903E+03  0.41800000000E+01 0. -1.
         -5    1    3    3    0  502  0.39534511104E+02  0.84580882324E+01 -0.37819020678E+02  0.55518173150E+02  0.41800000000E+01 0. -1.
        -11    1    4    4    0    0  0.21557222531E+01 -0.92342487173E+02 -0.13643789033E+03  0.16476370958E+03  0.00000000000E+00 0.  1.
         11    1    4    4    0    0  0.38112279166E+02  0.16477762211E+01 -0.10428844065E+03  0.11104656610E+03  0.00000000000E+00 0. -1.
</event>
<event>
 8    1  0.6787197E-009  0.1862240E+03  0.7561462E-02  0.1161912E+00
          2   -1    0    0  501    0  0.00000000000E+00  0.00000000000E+00  0.10317943122E+04  0.10317943122E+04  0.00000000000E+00 0. -1.
         -2   -1    0    0    0  501 -0.00000000000E+00 -0.00000000000E+00 -0.68652000893E+02  0.68652000893E+02  0.00000000000E+00 0.  1.
         25    2    1    2    0    0 -0.17579389091E+03 -0.52191775059E+02  0.81952866825E+03  0.84905971466E+03  0.12509071711E+03 0.  0.
         23    2    1    2    0    0  0.17579389091E+03  0.52191775059E+02  0.14361364309E+03  0.25138659847E+03  0.94566748621E+02 0.  0.
          5    1    3    3  502    0 -0.37715343064E+02 -0.75790008186E+01  0.45569242800E+03  0.45733242799E+03  0.41800000000E+01 0.  1.
         -5    1    3    3    0  502 -0.13807854784E+03 -0.44612774241E+02  0.36383624025E+03  0.39172728667E+03  0.41800000000E+01 0.  1.
        -11    1    4    4    0    0  0.80957923897E+02  0.13247339492E+01  0.12766418641E+02  0.81969029558E+02  0.00000000000E+00 0.  1.
         11    1    4    4    0    0  0.94835967008E+02  0.50867041110E+02  0.13084722445E+03  0.16941756891E+03  0.00000000000E+00 0. -1.
</event>
<event>
 8    1  0.6787197E-009  0.2075871E+03  0.7561462E-02  0.1143491E+00
         -2   -1    0    0    0  501 -0.00000000000E+00  0.00000000000E+00  0.59073826074E+02  0.59073826074E+02  0.00000000000E+00 0.  1.
          2   -1    0    0  501    0  0.00000000000E+00 -0.00000000000E+00 -0.94621240430E+03  0.94621240430E+03  0.00000000000E+00 0. -1.
         25    2    1    2    0    0 -0.17832824178E+03 -0.46054933203E+02 -0.67040630115E+03  0.70640948594E+03  0.12509090502E+03 0.  0.
         23    2    1    2    0    0  0.17832824178E+03  0.46054933203E+02 -0.21673227708E+03  0.29887674444E+03  0.91828153342E+02 0.  0.
          5    1    3    3  502    0 -0.44447991691E+02 -0.70895159072E+02 -0.20454134174E+03  0.22103479461E+03  0.41800000000E+01 0.  1.
         -5    1    3    3    0  502 -0.13388025009E+03  0.24840225869E+02 -0.46586495941E+03  0.48537469134E+03  0.41800000000E+01 0.  1.
        -11    1    4    4    0    0  0.50112981517E+02 -0.16156476631E+02 -0.10616069352E+03  0.11850078271E+03  0.00000000000E+00 0. -1.
         11    1    4    4    0    0  0.12821526027E+03  0.62211409834E+02 -0.11057158356E+03  0.18037596173E+03  0.00000000000E+00 0.  1.
</event>
<event>
 8    1  0.6787197E-009  0.1112207E+03  0.7561462E-02  0.1258326E+00
          1   -1    0    0  501    0  0.00000000000E+00  0.00000000000E+00  0.28660799053E+02  0.28660799053E+02  0.00000000000E+00 0. -1.
         -1   -1    0    0    0  501 -0.00000000000E+00 -0.00000000000E+00 -0.47244444834E+03  0.47244444834E+03  0.00000000000E+00 0.  1.
         25    2    1    2    0    0  0.39190614787E+02 -0.16150814146E+01 -0.25789631063E+03  0.28930250859E+03  0.12508765593E+03 0.  0.
         23    2    1    2    0    0 -0.39190614787E+02  0.16150814146E+01 -0.18588733866E+03  0.21180273880E+03  0.93636449711E+02 0.  0.
          5    1    3    3  502    0 -0.26653614826E+02 -0.40540358053E+02 -0.14426008001E+03  0.15225760703E+03  0.41800000000E+01 0. -1.
         -5    1    3    3    0  502  0.65844229613E+02  0.38925276638E+02 -0.11363623061E+03  0.13704490156E+03  0.41800000000E+01 0. -1.
        -11    1    4    4    0    0 -0.52363934918E+02 -0.31771857437E+02 -0.14495017328E+03  0.15735941452E+03  0.00000000000E+00 0.  1.
         11    1    4    4    0    0  0.13173320132E+02  0.33386938851E+02 -0.40937165377E+02  0.54443324276E+02  0.00000000000E+00 0. -1.
</event>
<event>
 8    1  0.6787197E-009  0.1778976E+03  0.7561462E-02  0.1169853E+00
         -2   -1    0    0    0  501 -0.00000000000E+00  0.00000000000E+00  0.58887225145E+02  0.58887225145E+02  0.00000000000E+00 0.  1.
          2   -1    0    0  501    0  0.00000000000E+00 -0.00000000000E+00 -0.82836239505E+03  0.82836239505E+03  0.00000000000E+00 0. -1.
         25    2    1    2    0    0  0.11751837712E+03 -0.10603849646E+03 -0.61022716754E+03  0.64271326380E+03  0.12509361198E+03 0.  0.
         23    2    1    2    0    0 -0.11751837712E+03  0.10603849646E+03 -0.15924800236E+03  0.24453635640E+03  0.96867805043E+02 0.  0.
          5    1    3    3  502    0  0.11323962833E+03 -0.30613028195E+02 -0.45685948548E+03  0.47169739537E+03  0.41800000000E+01 0. -1.
         -5    1    3    3    0  502  0.42787487925E+01 -0.75425468263E+02 -0.15336768206E+03  0.17101586843E+03  0.41800000000E+01 0. -1.
        -11    1    4    4    0    0 -0.73137197253E+02  0.40499543458E+02 -0.22572091166E+02  0.86595392152E+02  0.00000000000E+00 0.  1.
         11    1    4    4    0    0 -0.44381179866E+02  0.65538953000E+02 -0.13667591120E+03  0.15794096425E+03  0.00000000000E+00 0. -1.
</event>
<event>
 8    1  0.6787197E-009  0.8855966E+02  0.7561462E-02  0.1306378E+00
          1   -1    0    0  501    0  0.00000000000E+00  0.00000000000E+00  0.10703616765E+04  0.10703616765E+04  0.00000000000E+00 0. -1.
         -1   -1    0    0    0  501 -0.00000000000E+00 -0.00000000000E+00 -0.21122744089E+02  0.21122744089E+02  0.00000000000E+00 0.  1.
         25    2    1    2    0    0  0.28845680830E+02 -0.27670132299E+02  0.91313601076E+03  0.92253288473E+03  0.12510731291E+03 0.  0.
         23    2    1    2    0    0 -0.28845680830E+02  0.27670132299E+02  0.13610292165E+03  0.16895153586E+03  0.91776394908E+02 0.  0.
          5    1    3    3  502    0  0.51770276065E+02 -0.46379706584E+02  0.27436989172E+03  0.28306809878E+03  0.41800000000E+01 0. -1.
         -5    1    3    3    0  502 -0.22924595234E+02  0.18709574285E+02  0.63876611904E+03  0.63946478595E+03  0.41800000000E+01 0. -1.
        -11    1    4    4    0    0 -0.45983244713E+02  0.11139326674E+01  0.22828019606E+02  0.51349957346E+02  0.00000000000E+00 0.  1.
         11    1    4    4    0    0  0.17137563883E+02  0.26556199631E+02  0.11327490205E+03  0.11760157851E+03  0.00000000000E+00 0. -1.
</event>
<event>
 8    1  0.6787197E-009  0.1301554E+03  0.7561462E-02  0.1227225E+00
          4   -1    0    0  501    0  0.00000000000E+00  0.00000000000E+00  0.69176732620E+02  0.69176732620E+02  0.00000000000E+00 0. -1.
         -4   -1    0    0    0  501 -0.00000000000E+00 -0.00000000000E+00 -0.38484432203E+03  0.38484432203E+03  0.00000000000E+00 0.  1.
         25    2    1    2    0    0 -0.49887173382E+01  0.11764289134E+03 -0.17889299166E+03  0.24802508932E+03  0.12509598429E+03 0.  0.
         23    2    1    2    0    0  0.49887173382E+01 -0.11764289134E+03 -0.13677459775E+03  0.20599596533E+03  0.99309163517E+02 0.  0.
          5    1    3    3  502    0 -0.21873917445E+02  0.11970186738E+03 -0.75730631694E+02  0.14338621376E+03  0.41800000000E+01 0. -1.
         -5    1    3    3    0  502  0.16885200106E+02 -0.20589760451E+01 -0.10316235997E+03  0.10463887556E+03  0.41800000000E+01 0. -1.
        -11    1    4    4    0    0  0.13034490605E+02 -0.10649991943E+03 -0.15163377306E+03  0.18575503201E+03  0.00000000000E+00 0.  1.
         11    1    4    4    0    0 -0.80457732663E+01 -0.11142971906E+02  0.14859175316E+02  0.20240933314E+02  0.00000000000E+00 0. -1.
</event>
<event>
 8    1  0.6787197E-009  0.1004533E+03  0.7561462E-02  0.1279346E+00
          1   -1    0    0  501    0  0.00000000000E+00  0.00000000000E+00  0.21680702394E+03  0.21680702394E+03  0.00000000000E+00 0. -1.
         -1   -1    0    0    0  501 -0.00000000000E+00 -0.00000000000E+00 -0.84583180818E+02  0.84583180818E+02  0.00000000000E+00 0.  1.
         25    2    1    2    0    0  0.57071200249E+02  0.47246717948E+00  0.83791247721E+01  0.13774349072E+03  0.12508283008E+03 0.  0.
         23    2    1    2    0    0 -0.57071200249E+02 -0.47246717948E+00  0.12384471835E+03  0.16364671405E+03  0.90473132092E+02 0.  0.
          5    1    3    3  502    0  0.39815397207E+02 -0.50871379512E+02  0.38806723975E+02  0.75475806282E+02  0.41800000000E+01 0. -1.
         -5    1    3    3    0  502  0.17255803042E+02  0.51343846692E+02 -0.30427599203E+02  0.62267684436E+02  0.41800000000E+01 0. -1.
        -11    1    4    4    0    0 -0.97139918556E+01  0.25884114394E+02  0.10120032895E+03  0.10490879656E+03  0.00000000000E+00 0. -1.
         11    1    4    4    0    0 -0.47357208393E+02 -0.26356581573E+02  0.22644389401E+02  0.58737917484E+02  0.00000000000E+00 0.  1.
</event>
<event>
 8    1  0.6787197E-009  0.4428773E+03  0.7561462E-02  0.1029868E+00
          2   -1    0    0  501    0  0.00000000000E+00  0.00000000000E+00  0.19359177905E+04  0.19359177905E+04  0.00000000000E+00 0. -1.
         -2   -1    0    0    0  501 -0.00000000000E+00 -0.00000000000E+00 -0.10718976597E+03  0.10718976597E+03  0.00000000000E+00 0.  1.
         25    2    1    2    0    0 -0.27719593669E+03  0.34127640213E+03  0.99596489510E+03  0.10958559884E+04  0.12508838928E+03 0.  0.
         23    2    1    2    0    0  0.27719593669E+03 -0.34127640213E+03  0.83276312940E+03  0.94725156802E+03  0.10239108100E+03 0.  0.
          5    1    3    3  502    0 -0.11874534253E+03  0.90622020937E+02  0.22788658106E+03  0.27251160210E+03  0.41800000000E+01 0.  1.
         -5    1    3    3    0  502 -0.15845059416E+03  0.25065438119E+03  0.76807831403E+03  0.82334438632E+03  0.41800000000E+01 0.  1.
        -11    1    4    4    0    0  0.10345109774E+03 -0.13414950919E+03  0.22136523215E+03  0.27874860797E+03  0.00000000000E+00 0.  1.
         11    1    4    4    0    0  0.17374483895E+03 -0.20712689293E+03  0.61139789725E+03  0.66850296005E+03  0.00000000000E+00 0. -1.
</event>
<event>
 8    1  0.6787197E-009  0.2917177E+03  0.7561462E-02  0.1089456E+00
         -1   -1    0    0    0  501 -0.00000000000E+00  0.00000000000E+00  0.49608070350E+02  0.49608070350E+02  0.00000000000E+00 0.  1.
          1   -1    0    0  501    0  0.00000000000E+00 -0.00000000000E+00 -0.17406815557E+04  0.17406815557E+04  0.00000000000E+00 0. -1.
         25    2    1    2    0    0 -0.14341253766E+03  0.23139974293E+03 -0.90734288354E+03  0.95552570132E+03  0.12508101607E+03 0.  0.
         23    2    1    2    0    0  0.14341253766E+03 -0.23139974293E+03 -0.78373060184E+03  0.83476392476E+03  0.92109482881E+02 0.  0.
          5    1    3    3  502    0 -0.15478410765E+03  0.23915685234E+03 -0.85364186544E+03  0.89993112339E+03  0.41800000000E+01 0. -1.
         -5    1    3    3    0  502  0.11371569992E+02 -0.77571094148E+01 -0.53701018101E+02  0.55594577934E+02  0.41800000000E+01 0. -1.
        -11    1    4    4    0    0  0.63611876755E+02 -0.36036631920E+02 -0.26088448103E+03  0.27093508844E+03  0.00000000000E+00 0. -1.
         11    1    4    4    0    0  0.79800660907E+02 -0.19536311101E+03 -0.52284612081E+03  0.56382883632E+03  0.00000000000E+00 0.  1.
</event>
<event>
 8    1  0.6787197E-009  0.9182337E+02  0.7561462E-02  0.1298495E+00
          1   -1    0    0  501    0  0.00000000000E+00  0.00000000000E+00  0.51283464546E+03  0.51283464546E+03  0.00000000000E+00 0. -1.
         -1   -1    0    0    0  501 -0.00000000000E+00 -0.00000000000E+00 -0.32509309523E+02  0.32509309523E+02  0.00000000000E+00 0.  1.
         25    2    1    2    0    0 -0.59515924610E+00 -0.57057743613E+02  0.35319467398E+03  0.37900662726E+03  0.12507439970E+03 0.  0.
         23    2    1    2    0    0  0.59515924610E+00  0.57057743613E+02  0.12713066195E+03  0.16633732772E+03  0.90829296280E+02 0.  0.
          5    1    3    3  502    0  0.15687949068E+02 -0.65284754158E+02  0.77285253205E+02  0.10246313305E+03  0.41800000000E+01 0. -1.
         -5    1    3    3    0  502 -0.16283108314E+02  0.82270105446E+01  0.27590942078E+03  0.27654349421E+03  0.41800000000E+01 0. -1.
        -11    1    4    4    0    0 -0.23304320561E+02  0.67623575051E+02  0.56885371239E+02  0.91389193674E+02  0.00000000000E+00 0.  1.
         11    1    4    4    0    0  0.23899479807E+02 -0.10565831437E+02  0.70245290715E+02  0.74948134044E+02  0.00000000000E+00 0. -1.
</event>
<event>
 8    1  0.6787197E-009  0.6958902E+02  0.7561462E-02  0.1361496E+00
         -2   -1    0    0    0  501 -0.00000000000E+00  0.00000000000E+00  0.29235351002E+02  0.29235351002E+02  0.00000000000E+00 0. -1.
          2   -1    0    0  501    0  0.00000000000E+00 -0.00000000000E+00 -0.41377932654E+03  0.41377932654E+03  0.00000000000E+00 0.  1.
         25    2    1    2    0    0 -0.17171224245E+01  0.86598985527E+01 -0.18811113786E+03  0.22607835867E+03  0.12509069398E+03 0.  0.
         23    2    1    2    0    0  0.17171224245E+01 -0.86598985527E+01 -0.19643283768E+03  0.21693631887E+03  0.91638225504E+02 0.  0.
          5    1    3    3  502    0 -0.10512313876E+02 -0.34565532930E+02 -0.17658980589E+03  0.18029619173E+03  0.41800000000E+01 0.  1.
         -5    1    3    3    0  502  0.87951914518E+01  0.43225431482E+02 -0.11521331972E+02  0.45782166942E+02  0.41800000000E+01 0.  1.
        -11    1    4    4    0    0 -0.11032766571E+01  0.24848341495E+02 -0.89072128407E+01  0.26419608912E+02  0.00000000000E+00 0. -1.
         11    1    4    4    0    0  0.28203990816E+01 -0.33508240048E+02 -0.18752562484E+03  0.19051670996E+03  0.00000000000E+00 0.  1.
</event>
<event>
 8    1  0.6787197E-009  0.1579776E+03  0.7561462E-02  0.1190999E+00
         -1   -1    0    0    0  501 -0.00000000000E+00  0.00000000000E+00  0.19046688668E+02  0.19046688668E+02  0.00000000000E+00 0.  1.
          1   -1    0    0  501    0  0.00000000000E+00 -0.00000000000E+00 -0.16578475419E+04  0.16578475419E+04  0.00000000000E+00 0. -1.
         25    2    1    2    0    0 -0.10022102770E+03  0.92951223242E+02 -0.10176026892E+04  0.10343341845E+04  0.12509111816E+03 0.  0.
         23    2    1    2    0    0  0.10022102770E+03 -0.92951223242E+02 -0.62119816410E+03  0.64256004615E+03  0.91170551869E+02 0.  0.
          5    1    3    3  502    0 -0.71685047444E+02  0.10405694577E+03 -0.49746451425E+03  0.51327868584E+03  0.41800000000E+01 0. -1.
         -5    1    3    3    0  502 -0.28535980252E+02 -0.11105722532E+02 -0.52013817491E+03  0.52105549862E+03  0.41800000000E+01 0. -1.
        -11    1    4    4    0    0  0.14076213537E+02  0.14961380811E+02 -0.37560096523E+02  0.42810554238E+02  0.00000000000E+00 0.  1.
         11    1    4    4    0    0  0.86144814160E+02 -0.10791260405E+03 -0.58363806758E+03  0.59974949191E+03  0.00000000000E+00 0. -1.
</event>
<event>
 8    1  0.6787197E-009  0.2603346E+03  0.7561462E-02  0.1106942E+00
          2   -1    0    0  501    0  0.00000000000E+00  0.00000000000E+00  0.85423275925E+03  0.85423275925E+03  0.00000000000E+00 0. -1.
         -2   -1    0    0    0  501 -0.00000000000E+00 -0.00000000000E+00 -0.10314989701E+03  0.10314989701E+03  0.00000000000E+00 0.  1.
         25    2    1    2    0    0  0.10357643535E+02  0.24574930492E+03  0.58641332467E+03  0.64809571856E+03  0.12508985339E+03 0.  0.
         23    2    1    2    0    0 -0.10357643535E+02 -0.24574930492E+03  0.16466953757E+03  0.30928693770E+03  0.89679159121E+02 0.  0.
          5    1    3    3  502    0 -0.34873231882E+02  0.87021637236E+02  0.33036225605E+03  0.34343208976E+03  0.41800000000E+01 0.  1.
         -5    1    3    3    0  502  0.45230875417E+02  0.15872766768E+03  0.25605106862E+03  0.30466362881E+03  0.41800000000E+01 0.  1.
        -11    1    4    4    0    0 -0.50048676505E+02 -0.14770724523E+03  0.94400784711E+02  0.18230142201E+03  0.00000000000E+00 0.  1.
         11    1    4    4    0    0  0.39691032971E+02 -0.98042059688E+02  0.70268752856E+02  0.12698551569E+03  0.00000000000E+00 0. -1.
</event>
<event>
 8    1  0.6787197E-009  0.1691756E+03  0.7561462E-02  0.1178710E+00
         -2   -1    0    0    0  501 -0.00000000000E+00  0.00000000000E+00  0.18079616916E+03  0.18079616916E+03  0.00000000000E+00 0.  1.
          2   -1    0    0  501    0  0.00000000000E+00 -0.00000000000E+00 -0.22859445165E+03  0.22859445165E+03  0.00000000000E+00 0. -1.
         25    2    1    2    0    0  0.13849850590E+03 -0.48743348316E+02 -0.11167682196E+03  0.22288485672E+03  0.12509275218E+03 0.  0.
         23    2    1    2    0    0 -0.13849850590E+03  0.48743348316E+02  0.63878539472E+02  0.18650576410E+03  0.95635673755E+02 0.  0.
          5    1    3    3  502    0  0.13686986109E+03 -0.29146753374E+01 -0.49763293116E+02  0.14572478152E+03  0.41800000000E+01 0. -1.
         -5    1    3    3    0  502  0.16286448169E+01 -0.45828672979E+02 -0.61913528843E+02  0.77160075199E+02  0.41800000000E+01 0. -1.
        -11    1    4    4    0    0 -0.36737323086E+01  0.16241352232E+02  0.43184004115E+02  0.46283215563E+02  0.00000000000E+00 0.  1.
         11    1    4    4    0    0 -0.13482477360E+03  0.32501996084E+02  0.20694535357E+02  0.14022254854E+03  0.00000000000E+00 0. -1.
</event>
<event>
 8    1  0.6787197E-009  0.1335732E+03  0.7561462E-02  0.1222248E+00
          1   -1    0    0  501    0  0.00000000000E+00  0.00000000000E+00  0.15871503089E+03  0.15871503089E+03  0.00000000000E+00 0. -1.
         -1   -1    0    0    0  501 -0.00000000000E+00 -0.00000000000E+00 -0.18577241969E+03  0.18577241969E+03  0.00000000000E+00 0.  1.
         25    2    1    2    0    0  0.11642938696E+03 -0.42798218973E+02 -0.63275340773E+02  0.18718322294E+03  0.12508517300E+03 0.  0.
         23    2    1    2    0    0 -0.11642938696E+03  0.42798218973E+02  0.36217951974E+02  0.15730422763E+03  0.89696099637E+02 0.  0.
          5    1    3    3  502    0  0.38038469679E+02 -0.16032067925E+02  0.38012146262E+02  0.56270312252E+02  0.41800000000E+01 0. -1.
         -5    1    3    3    0  502  0.78390917286E+02 -0.26766151048E+02 -0.10128748704E+03  0.13091291069E+03  0.41800000000E+01 0. -1.
        -11    1    4    4    0    0 -0.73960272419E+02 -0.10353699093E+02  0.47260239666E+02  0.88379020330E+02  0.00000000000E+00 0. -1.
         11    1    4    4    0    0 -0.42469114545E+02  0.53151918066E+02 -0.11042287693E+02  0.68925207303E+02  0.00000000000E+00 0.  1.
</event>
<event>
 8    1  0.6787197E-009  0.1171868E+03  0.7561462E-02  0.1247811E+00
         -2   -1    0    0    0  501 -0.00000000000E+00  0.00000000000E+00  0.52169774277E+02  0.52169774277E+02  0.00000000000E+00 0.  1.
          2   -1    0    0  501    0  0.00000000000E+00 -0.00000000000E+00 -0.47961986344E+03  0.47961986344E+03  0.00000000000E+00 0. -1.
         25    2    1    2    0    0 -0.50737896569E+02  0.39148640944E+02 -0.39079295445E+03  0.41529942639E+03  0.12509008784E+03 0.  0.
         23    2    1    2    0    0  0.50737896569E+02 -0.39148640944E+02 -0.36657134713E+02  0.11649021133E+03  0.90107011787E+02 0.  0.
          5    1    3    3  502    0  0.17258822922E+01  0.74662334522E+02 -0.17389505514E+03  0.18929977672E+03  0.41800000000E+01 0.  1.
         -5    1    3    3    0  502 -0.52463778861E+02 -0.35513693578E+02 -0.21689789931E+03  0.22599964967E+03  0.41800000000E+01 0.  1.
        -11    1    4    4    0    0 -0.20689101235E+01 -0.43080599362E+02 -0.45623865553E+02  0.62783401776E+02  0.00000000000E+00 0. -1.
         11    1    4    4    0    0  0.52806806693E+02  0.39319584177E+01  0.89667308400E+01  0.53706809550E+02  0.00000000000E+00 0.  1.
</event>
<event>
 8    1  0.6787197E-009  0.1636598E+03  0.7561462E-02  0.1184626E+00
         -1   -1    0    0    0  501 -0.00000000000E+00  0.00000000000E+00  0.12439154595E+03  0.12439154595E+03  0.00000000000E+00 0.  1.
          1   -1    0    0  501    0  0.00000000000E+00 -0.00000000000E+00 -0.32487813520E+03  0.32487813520E+03  0.00000000000E+00 0. -1.
         25    2    1    2    0    0 -0.13537500291E+03  0.96861515973E+01  0.73674248057E+01  0.18472069807E+03  0.12508894596E+03 0.  0.
         23    2    1    2    0    0  0.13537500291E+03 -0.96861515973E+01 -0.20785401405E+03  0.26454898308E+03  0.91447582498E+02 0.  0.
          5    1    3    3  502    0 -0.31096542594E+02  0.60715165004E+02  0.50160701739E+01  0.68527071897E+02  0.41800000000E+01 0. -1.
         -5    1    3    3    0  502 -0.10427846032E+03 -0.51029013407E+02  0.23513546317E+01  0.11619362617E+03  0.41800000000E+01 0. -1.
        -11    1    4    4    0    0  0.83400269193E+02 -0.27572963490E+02 -0.58854808286E+02  0.10573439211E+03  0.00000000000E+00 0.  1.
         11    1    4    4    0    0  0.51974733716E+02  0.17886811892E+02 -0.14899920577E+03  0.15881459097E+03  0.00000000000E+00 0. -1.
</event>
<event>
 8    1  0.6787197E-009  0.1133339E+03  0.7561462E-02  0.1254518E+00
          2   -1    0    0  501    0  0.00000000000E+00  0.00000000000E+00  0.30865380623E+03  0.30865380623E+03  0.00000000000E+00 0. -1.
         -2   -1    0    0    0  501 -0.00000000000E+00 -0.00000000000E+00 -0.51797587780E+02  0.51797587780E+02  0.00000000000E+00 0.  1.
         25    2    1    2    0    0  0.44389788684E+02  0.40850043431E+02  0.17924172708E+03  0.22674832376E+03  0.12509207096E+03 0.  0.
         23    2    1    2    0    0 -0.44389788684E+02 -0.40850043431E+02  0.77614491374E+02  0.13370307025E+03  0.90627381817E+02 0.  0.
          5    1    3    3  502    0 -0.14908183874E+02  0.70656435606E+02  0.90462037848E+02  0.11582503413E+03  0.41800000000E+01 0.  1.
         -5    1    3    3    0  502  0.59297972558E+02 -0.29806392175E+02  0.88779689232E+02  0.11092328964E+03  0.41800000000E+01 0.  1.
        -11    1    4    4    0    0 -0.21833092538E+01  0.16491609818E+02 -0.11063619298E+02  0.19978581173E+02  0.00000000000E+00 0.  1.
         11    1    4    4    0    0 -0.42206479430E+02 -0.57341653249E+02  0.88678110672E+02  0.11372448908E+03  0.00000000000E+00 0. -1.
</event>
<event>
 8    1  0.6787197E-009  0.2647463E+03  0.7561462E-02  0.1104325E+00
          1   -1    0    0  501    0  0.00000000000E+00  0.00000000000E+00  0.22295936349E+04  0.22295936349E+04  0.00000000000E+00 0. -1.
         -1   -1    0    0    0  501 -0.00000000000E+00 -0.00000000000E+00 -0.35135902764E+02  0.35135902764E+02  0.00000000000E+00 0.  1.
         25    2    1    2    0    0  0.18279230108E+03  0.17156960050E+03  0.13202245427E+04  0.13496257119E+04  0.12509023118E+03 0.  0.
         23    2    1    2    0    0 -0.18279230108E+03 -0.17156960050E+03  0.87423318947E+03  0.91510382579E+03  0.10140113046E+03 0.  0.
          5    1    3    3  502    0  0.19718926580E+02  0.97420408729E+02  0.54018712614E+03  0.54927149548E+03  0.41800000000E+01 0.  1.
         -5    1    3    3    0  502  0.16307337450E+03  0.74149191775E+02  0.78003741653E+03  0.80035421639E+03  0.41800000000E+01 0.  1.
        -11    1    4    4    0    0 -0.10272590962E+03 -0.91058467533E+02  0.64308124079E+03  0.65756956991E+03  0.00000000000E+00 0.  1.
         11    1    4    4    0    0 -0.80066391465E+02 -0.80511132971E+02  0.23115194868E+03  0.25753425588E+03  0.00000000000E+00 0. -1.
</event>
<event>
 8    1  0.6787197E-009  0.1644286E+03  0.7561462E-02  0.1183786E+00
         -2   -1    0    0    0  501 -0.00000000000E+00  0.00000000000E+00  0.17960393744E+02  0.17960393744E+02  0.00000000000E+00 0.  1.
          2   -1    0    0  501    0  0.00000000000E+00 -0.00000000000E+00 -0.17422259480E+04  0.17422259480E+04  0.00000000000E+00 0. -1.
         25    2    1    2    0    0 -0.12422145249E+03  0.87601469966E+01 -0.12296712499E+04  0.12422745018E+04  0.12508735145E+03 0.  0.
         23    2    1    2    0    0  0.12422145249E+03 -0.87601469966E+01 -0.49459430439E+03  0.51791184000E+03  0.90007992123E+02 0.  0.
          5    1    3    3  502    0 -0.13045264488E+03 -0.32291996101E+02 -0.90545952882E+03  0.91538794852E+03  0.41800000000E+01 0. -1.
         -5    1    3    3    0  502  0.62311923839E+01  0.41052143098E+02 -0.32421172106E+03  0.32688655324E+03  0.41800000000E+01 0. -1.
        -11    1    4    4    0    0  0.67437811840E+02 -0.48754272795E+02 -0.29842648567E+03  0.30981156359E+03  0.00000000000E+00 0. -1.
         11    1    4    4    0    0  0.56783640653E+02  0.39994125798E+02 -0.19616781871E+03  0.20810027641E+03  0.00000000000E+00 0.  1.
</event>
<event>
 8    1  0.6787197E-009  0.8704241E+02  0.7561462E-02  0.1310176E+00
          1   -1    0    0  501    0  0.00000000000E+00  0.00000000000E+00  0.42111868046E+03  0.42111868046E+03  0.00000000000E+00 0.  1.
         -1   -1    0    0    0  501 -0.00000000000E+00 -0.00000000000E+00 -0.29096405111E+02  0.29096405111E+02  0.00000000000E+00 0. -1.
         25    2    1    2    0    0  0.12634786294E+02  0.16332102252E+01  0.26156515923E+03  0.29021653848E+03  0.12508797496E+03 0.  0.
         23    2    1    2    0    0 -0.12634786294E+02 -0.16332102252E+01  0.13045711612E+03  0.15999854710E+03  0.91750589790E+02 0.  0.
          5    1    3    3  502    0 -0.74042606955E+01 -0.38521691951E+02  0.23417597270E+03  0.23747547751E+03  0.41800000000E+01 0.  1.
         -5    1    3    3    0  502  0.20039046989E+02  0.40154902176E+02  0.27389186531E+02  0.52741060966E+02  0.41800000000E+01 0.  1.
        -11    1    4    4    0    0  0.33710580689E+02 -0.20579459548E+02  0.37749480701E+02  0.54634610815E+02  0.00000000000E+00 0.  1.
         11    1    4    4    0    0 -0.46345366983E+02  0.18946249323E+02  0.92707635417E+02  0.10536393628E+03  0.00000000000E+00 0. -1.
</event>
<event>
 8    1  0.6787197E-009  0.1309379E+03  0.7561462E-02  0.1226071E+00
         -1   -1    0    0    0  501 -0.00000000000E+00  0.00000000000E+00  0.40426714359E+02  0.40426714359E+02  0.00000000000E+00 0.  1.
          1   -1    0    0  501    0  0.00000000000E+00 -0.00000000000E+00 -0.55794068319E+03  0.55794068319E+03  0.00000000000E+00 0. -1.
         25    2    1    2    0    0 -0.81024286687E+02  0.11886734249E+02 -0.15425620136E+03  0.21482653315E+03  0.12509689925E+03 0.  0.
         23    2    1    2    0    0  0.81024286687E+02 -0.11886734249E+02 -0.36325776747E+03  0.38354086440E+03  0.91875783287E+02 0.  0.
          5    1    3    3  502    0 -0.39945039826E+02  0.67832203632E+02 -0.95177788043E+02  0.12358437520E+03  0.41800000000E+01 0.  1.
         -5    1    3    3    0  502 -0.41079246862E+02 -0.55945469383E+02 -0.59078413319E+02  0.91242157951E+02  0.41800000000E+01 0.  1.
        -11    1    4    4    0    0  0.48916924320E+02 -0.45657687971E+02 -0.13618376930E+03  0.15173499589E+03  0.00000000000E+00 0. -1.
         11    1    4    4    0    0  0.32107362367E+02  0.33770953723E+02 -0.22707399817E+03  0.23180586851E+03  0.00000000000E+00 0.  1.
</event>
<event>
 8    1  0.6787197E-009  0.1033649E+03  0.7561462E-02  0.1273375E+00
          2   -1    0    0  501    0  0.00000000000E+00  0.00000000000E+00  0.91828930951E+03  0.91828930951E+03  0.00000000000E+00 0. -1.
         -2   -1    0    0    0  501 -0.00000000000E+00 -0.00000000000E+00 -0.65132339130E+02  0.65132339130E+02  0.00000000000E+00 0.  1.
         25    2    1    2    0    0  0.19734405782E+02 -0.79091724302E+02  0.84841924891E+03  0.86145655957E+03  0.12508890626E+03 0.  0.
         23    2    1    2    0    0 -0.19734405782E+02  0.79091724302E+02  0.47377214713E+01  0.12196508908E+03  0.90598506191E+02 0.  0.
          5    1    3    3  502    0 -0.31747057644E+02 -0.43061278479E+02  0.67190518622E+03  0.67404465805E+03  0.41800000000E+01 0. -1.
         -5    1    3    3    0  502  0.51481463426E+02 -0.36030445824E+02  0.17651406270E+03  0.18741190152E+03  0.41800000000E+01 0. -1.
        -11    1    4    4    0    0 -0.28078773274E+02  0.33356351682E+02 -0.38730355075E+02  0.58318985848E+02  0.00000000000E+00 0.  1.
         11    1    4    4    0    0  0.83443674922E+01  0.45735372620E+02  0.43468076546E+02  0.63646103228E+02  0.00000000000E+00 0. -1.
</event>
<event>
 8    1  0.6787197E-009  0.2057301E+03  0.7561462E-02  0.1144993E+00
         -1   -1    0    0    0  501 -0.00000000000E+00  0.00000000000E+00  0.63044528535E+03  0.63044528535E+03  0.00000000000E+00 0.  1.
          1   -1    0    0  501    0  0.00000000000E+00 -0.00000000000E+00 -0.82950876106E+02  0.82950876106E+02  0.00000000000E+00 0. -1.
         25    2    1    2    0    0  0.14115004391E+03 -0.13973243854E+03  0.23958413258E+03  0.33540283215E+03  0.12508402757E+03 0.  0.
         23    2    1    2    0    0 -0.14115004391E+03  0.13973243854E+03  0.30791027667E+03  0.37799332931E+03  0.92853267317E+02 0.  0.
          5    1    3    3  502    0  0.76044639585E+02 -0.25884637104E+02  0.25640122939E+02  0.84425647477E+02  0.41800000000E+01 0.  1.
         -5    1    3    3    0  502  0.65105404326E+02 -0.11384780143E+03  0.21394400964E+03  0.25097718467E+03  0.41800000000E+01 0.  1.
        -11    1    4    4    0    0 -0.55073371761E+02  0.40007330975E+02  0.18767077375E+03  0.19963462156E+03  0.00000000000E+00 0.  1.
         11    1    4    4    0    0 -0.86076672151E+02  0.99725107560E+02  0.12023950292E+03  0.17835870775E+03  0.00000000000E+00 0. -1.
</event>
<event>
 8    1  0.6787197E-009  0.1438742E+03  0.7561462E-02  0.1208209E+00
         -2   -1    0    0    0  501 -0.00000000000E+00  0.00000000000E+00  0.36781931453E+03  0.36781931453E+03  0.00000000000E+00 0.  1.
          2   -1    0    0  501    0  0.00000000000E+00 -0.00000000000E+00 -0.78592099175E+02  0.78592099175E+02  0.00000000000E+00 0. -1.
         25    2    1    2    0    0 -0.42498213287E+02  0.12341492784E+03  0.16359957493E+03  0.24383054038E+03  0.12510463205E+03 0.  0.
         23    2    1    2    0    0  0.42498213287E+02 -0.12341492784E+03  0.12562764042E+03  0.20258087332E+03  0.90660706214E+02 0.  0.
          5    1    3    3  502    0 -0.37455716669E+02  0.11048363869E+03  0.46208414579E+02  0.12554782000E+03  0.41800000000E+01 0.  1.
         -5    1    3    3    0  502 -0.50424966177E+01  0.12931289144E+02  0.11739116035E+03  0.11828272038E+03  0.41800000000E+01 0.  1.
        -11    1    4    4    0    0 -0.25442072257E+02 -0.18229544512E+02  0.40417105215E+02  0.51119054450E+02  0.00000000000E+00 0.  1.
         11    1    4    4    0    0  0.67940285544E+02 -0.10518538332E+03  0.85210535203E+02  0.15146181887E+03  0.00000000000E+00 0. -1.
</event>
<event>
 8    1  0.6787197E-009  0.1353210E+03  0.7561462E-02  0.1219767E+00
          2   -1    0    0  501    0  0.00000000000E+00  0.00000000000E+00  0.12456674109E+03  0.12456674109E+03  0.00000000000E+00 0. -1.
         -2   -1    0    0    0  501 -0.00000000000E+00 -0.00000000000E+00 -0.16143452216E+03  0.16143452216E+03  0.00000000000E+00 0.  1.
         25    2    1    2    0    0  0.33817956688E+02  0.75501875334E+02  0.17666101661E+02  0.15100891057E+03  0.12508961807E+03 0.  0.
         23    2    1    2    0    0 -0.33817956688E+02 -0.75501875334E+02 -0.54533882736E+02  0.13499235268E+03  0.91677715629E+02 0.  0.
          5    1    3    3  502    0  0.53009656936E+02  0.10307838733E+03  0.16296094040E+02  0.11712477426E+03  0.41800000000E+01 0. -1.
         -5    1    3    3    0  502 -0.19191700249E+02 -0.27576511999E+02  0.13700076213E+01  0.33884136308E+02  0.41800000000E+01 0. -1.
        -11    1    4    4    0    0  0.30229136299E+02 -0.25428801507E+02 -0.31415425310E+02  0.50471314376E+02  0.00000000000E+00 0.  1.
         11    1    4    4    0    0 -0.64047092987E+02 -0.50073073828E+02 -0.23118457426E+02  0.84521038306E+02  0.00000000000E+00 0. -1.
</event>
<event>
 8    1  0.6787197E-009  0.1236097E+03  0.7561462E-02  0.1237258E+00
          4   -1    0    0  501    0  0.00000000000E+00  0.00000000000E+00  0.11970896552E+03  0.11970896552E+03  0.00000000000E+00 0.  1.
         -4   -1    0    0    0  501 -0.00000000000E+00 -0.00000000000E+00 -0.15702348168E+03  0.15702348168E+03  0.00000000000E+00 0. -1.
         25    2    1    2    0    0  0.71665251398E+02  0.37950050726E+02 -0.34658062245E+02  0.15305876973E+03  0.12509872544E+03 0.  0.
         23    2    1    2    0    0 -0.71665251398E+02 -0.37950050726E+02 -0.26564539234E+01  0.12367367747E+03  0.93338133379E+02 0.  0.
          5    1    3    3  502    0 -0.31096586668E+02 -0.21923944842E+00  0.12336842798E+02  0.33715217018E+02  0.41800000000E+01 0. -1.
         -5    1    3    3    0  502  0.10276183807E+03  0.38169290174E+02 -0.46994905043E+02  0.11934355272E+03  0.41800000000E+01 0. -1.
        -11    1    4    4    0    0 -0.53174365012E+02 -0.58122280289E+02 -0.30648141549E+02  0.84528226888E+02  0.00000000000E+00 0. -1.
         11    1    4    4    0    0 -0.18490886385E+02  0.20172229563E+02  0.27991687625E+02  0.39145450578E+02  0.00000000000E+00 0.  1.
</event>
<event>
 8    1  0.6787197E-009  0.1376165E+03  0.7561462E-02  0.1216573E+00
         -2   -1    0    0    0  501 -0.00000000000E+00  0.00000000000E+00  0.43023619664E+03  0.43023619664E+03  0.00000000000E+00 0.  1.
          2   -1    0    0  501    0  0.00000000000E+00 -0.00000000000E+00 -0.53454872142E+02  0.53454872142E+02  0.00000000000E+00 0. -1.
         25    2    1    2    0    0 -0.91983040145E+02 -0.38890655873E+02  0.25913927260E+03  0.30458828889E+03  0.12508996895E+03 0.  0.
         23    2    1    2    0    0  0.91983040145E+02  0.38890655873E+02  0.11764205189E+03  0.17910277990E+03  0.90910893758E+02 0.  0.
          5    1    3    3  502    0 -0.45057132879E+02  0.36294798808E+02  0.16649104903E+03  0.17630711685E+03  0.41800000000E+01 0. -1.
         -5    1    3    3    0  502 -0.46925907266E+02 -0.75185454681E+02  0.92648223569E+02  0.12828117204E+03  0.41800000000E+01 0. -1.
        -11    1    4    4    0    0  0.26722515651E+02  0.55115051167E+02  0.83859878858E+02  0.10384720020E+03  0.00000000000E+00 0.  1.
         11    1    4    4    0    0  0.65260524494E+02 -0.16224395294E+02  0.33782173036E+02  0.75255579693E+02  0.00000000000E+00 0. -1.
</event>
<event>
 8    1  0.6787197E-009  0.1033412E+03  0.7561462E-02  0.1273423E+00
          1   -1    0    0  501    0  0.00000000000E+00  0.00000000000E+00  0.81030126472E+03  0.81030126472E+03  0.00000000000E+00 0. -1.
         -1   -1    0    0    0  501 -0.00000000000E+00 -0.00000000000E+00 -0.19090753925E+02  0.19090753925E+02  0.00000000000E+00 0.  1.
         25    2    1    2    0    0 -0.86898856459E+01 -0.44847118538E+01  0.63890800830E+03  0.65111119707E+03  0.12508685434E+03 0.  0.
         23    2    1    2    0    0  0.86898856459E+01  0.44847118538E+01  0.15230250249E+03  0.17828082157E+03  0.92154068394E+02 0.  0.
          5    1    3    3  502    0 -0.45138920648E+02 -0.49464962183E+02  0.36590649346E+03  0.37200717600E+03  0.41800000000E+01 0. -1.
         -5    1    3    3    0  502  0.36449035002E+02  0.44980250329E+02  0.27300151484E+03  0.27910402107E+03  0.41800000000E+01 0. -1.
        -11    1    4    4    0    0  0.14403143180E+02 -0.36979826140E+02  0.32238344668E+02  0.51129922176E+02  0.00000000000E+00 0.  1.
         11    1    4    4    0    0 -0.57132575339E+01  0.41464537994E+02  0.12006415783E+03  0.12715089940E+03  0.00000000000E+00 0. -1.
</event>
<event>
 8    1  0.6787197E-009  0.1364108E+03  0.7561462E-02  0.1218242E+00
         -1   -1    0    0    0  501 -0.00000000000E+00  0.00000000000E+00  0.38542117385E+02  0.38542117385E+02  0.00000000000E+00 0.  1.
          1   -1    0    0  501    0  0.00000000000E+00 -0.00000000000E+00 -0.76369073217E+03  0.76369073217E+03  0.00000000000E+00 0. -1.
         25    2    1    2    0    0  0.91500606689E+02  0.15471516801E+02 -0.60492236740E+03  0.62465230124E+03  0.12509075909E+03 0.  0.
         23    2    1    2    0    0 -0.91500606689E+02 -0.15471516801E+02 -0.12022624739E+03  0.17758054832E+03  0.92025929625E+02 0.  0.
          5    1    3    3  502    0 -0.77278837427E+01 -0.31325474586E+02 -0.55205447722E+02  0.64079009070E+02  0.41800000000E+01 0.  1.
         -5    1    3    3    0  502  0.99228490432E+02  0.46796991387E+02 -0.54971691967E+03  0.56057329217E+03  0.41800000000E+01 0.  1.
        -11    1    4    4    0    0 -0.11042000655E+03 -0.15987312957E+02 -0.10607871266E+03  0.15395085353E+03  0.00000000000E+00 0.  1.
         11    1    4    4    0    0  0.18919399865E+02  0.51579615614E+00 -0.14147534733E+02  0.23629694792E+02  0.00000000000E+00 0. -1.
</event>
<event>
 8    1  0.6787197E-009  0.1046138E+03  0.7561462E-02  0.1270882E+00
         -2   -1    0    0    0  501 -0.00000000000E+00  0.00000000000E+00  0.27326046278E+03  0.27326046278E+03  0.00000000000E+00 0.  1.
          2   -1    0    0  501    0  0.00000000000E+00 -0.00000000000E+00 -0.58616306368E+02  0.58616306368E+02  0.00000000000E+00 0. -1.
         25    2    1    2    0    0 -0.88250627802E+01 -0.52297745377E+02  0.68950540187E+02  0.15236025807E+03  0.12508611171E+03 0.  0.
         23    2    1    2    0    0  0.88250627802E+01  0.52297745377E+02  0.14569361622E+03  0.17951651107E+03  0.90479898512E+02 0.  0.
          5    1    3    3  502    0 -0.54709970187E+02 -0.23652703934E+02 -0.57616027342E+01  0.60027491263E+02  0.41800000000E+01 0.  1.
         -5    1    3    3    0  502  0.45884907407E+02 -0.28645041443E+02  0.74712142921E+02  0.92332766810E+02  0.41800000000E+01 0.  1.
        -11    1    4    4    0    0  0.43210913871E+02  0.18485737500E+02  0.10968833578E+03  0.11933330036E+03  0.00000000000E+00 0.  1.
         11    1    4    4    0    0 -0.34385851091E+02  0.33812007876E+02  0.36005280443E+02  0.60183210713E+02  0.00000000000E+00 0. -1.
</event>
<event>
 8    1  0.6787197E-009  0.1317194E+03  0.7561462E-02  0.1224927E+00
          1   -1    0    0  501    0  0.00000000000E+00  0.00000000000E+00  0.53687342111E+03  0.53687342111E+03  0.00000000000E+00 0. -1.
         -1   -1    0    0    0  501 -0.00000000000E+00 -0.00000000000E+00 -0.37210842834E+02  0.37210842834E+02  0.00000000000E+00 0.  1.
         25    2    1    2    0    0 -0.70421864747E+02 -0.24989182912E+02  0.16934555166E+03  0.22340220476E+03  0.12508769295E+03 0.  0.
         23    2    1    2    0    0  0.70421864747E+02  0.24989182912E+02  0.33031702662E+03  0.35068205919E+03  0.91021262704E+02 0.  0.
          5    1    3    3  502    0 -0.21584991326E+02  0.50852056402E+02  0.65214020478E+02  0.85569763104E+02  0.41800000000E+01 0.  1.
         -5    1    3    3    0  502 -0.48836873422E+02 -0.75841239314E+02  0.10413153118E+03  0.13783244166E+03  0.41800000000E+01 0.  1.
        -11    1    4    4    0    0  0.53552412139E+02  0.59055739759E+02  0.21997852074E+03  0.23397861191E+03  0.00000000000E+00 0. -1.
         11    1    4    4    0    0  0.16869452608E+02 -0.34066556847E+02  0.11033850588E+03  0.11670344728E+03  0.00000000000E+00 0.  1.
</event>
<event>
 8    1  0.6787197E-009  0.1129201E+03  0.7561462E-02  0.1255256E+00
          1   -1    0    0  501    0  0.00000000000E+00  0.00000000000E+00  0.50483851423E+03  0.50483851423E+03  0.00000000000E+00 0. -1.
         -1   -1    0    0    0  501 -0.00000000000E+00 -0.00000000000E+00 -0.41145220394E+02  0.41145220394E+02  0.00000000000E+00 0.  1.
         25    2    1    2    0    0  0.50894916729E+02  0.78402972191E+02  0.27040129967E+03  0.31225297197E+03  0.12509091510E+03 0.  0.
         23    2    1    2    0    0 -0.50894916729E+02 -0.78402972191E+02  0.19329199416E+03  0.23373076266E+03  0.92363173438E+02 0.  0.
          5    1    3    3  502    0  0.31318254387E+02  0.20059504374E+02  0.24105977570E+03  0.24394774981E+03  0.41800000000E+01 0.  1.
         -5    1    3    3    0  502  0.19576662343E+02  0.58343467816E+02  0.29341523969E+02  0.68305222159E+02  0.41800000000E+01 0.  1.
        -11    1    4    4    0    0 -0.14992823998E+02 -0.88241913788E+02  0.10537960310E+03  0.13826163918E+03  0.00000000000E+00 0.  1.
         11    1    4    4    0    0 -0.35902092731E+02  0.98389415975E+01  0.87912391062E+02  0.95469123472E+02  0.00000000000E+00 0. -1.
</event>
<event>
 8    1  0.6787197E-009  0.1750295E+03  0.7561462E-02  0.1172702E+00
         -2   -1    0    0    0  501 -0.00000000000E+00  0.00000000000E+00  0.17382146105E+02  0.17382146105E+02  0.00000000000E+00 0.  1.
          2   -1    0    0  501    0  0.00000000000E+00 -0.00000000000E+00 -0.18379934911E+04  0.18379934911E+04  0.00000000000E+00 0. -1.
         25    2    1    2    0    0  0.13715514729E+03  0.14456693953E+02 -0.11259152600E+04  0.11412069645E+04  0.12509049793E+03 0.  0.
         23    2    1    2    0    0 -0.13715514729E+03 -0.14456693953E+02 -0.69469608504E+03  0.71416867276E+03  0.91726289317E+02 0.  0.
          5    1    3    3  502    0 -0.18104591077E+02 -0.17877076097E+02 -0.21994444676E+03  0.22145066748E+03  0.41800000000E+01 0.  1.
         -5    1    3    3    0  502  0.15525973837E+03  0.32333770050E+02 -0.90597081322E+03  0.91975629698E+03  0.41800000000E+01 0.  1.
        -11    1    4    4    0    0 -0.27107649665E+02  0.35588105805E+02 -0.18993052190E+03  0.19512801207E+03  0.00000000000E+00 0. -1.
         11    1    4    4    0    0 -0.11004749763E+03 -0.50044799758E+02 -0.50476556314E+03  0.51904066069E+03  0.00000000000E+00 0.  1.
</event>
<event>
 8    1  0.6787197E-009  0.1101098E+03  0.7561462E-02  0.1260367E+00
          2   -1    0    0  501    0  0.00000000000E+00  0.00000000000E+00  0.11727529081E+04  0.11727529081E+04  0.00000000000E+00 0. -1.
         -2   -1    0    0    0  501 -0.00000000000E+00 -0.00000000000E+00 -0.15908983666E+02  0.15908983666E+02  0.00000000000E+00 0.  1.
         25    2    1    2    0    0  0.13793912639E+02 -0.20719413259E+02  0.98406478458E+03  0.99229574952E+03  0.12509111940E+03 0.  0.
         23    2    1    2    0    0 -0.13793912639E+02  0.20719413259E+02  0.17277913989E+03  0.19636614228E+03  0.89930331601E+02 0.  0.
          5    1    3    3  502    0  0.30655681849E+02  0.47648509108E+02  0.46612482872E+03  0.46957425355E+03  0.41800000000E+01 0. -1.
         -5    1    3    3    0  502 -0.16861769210E+02 -0.68367922367E+02  0.51793995587E+03  0.52272149597E+03  0.41800000000E+01 0. -1.
        -11    1    4    4    0    0 -0.34501258381E+02  0.47691484949E+02  0.11852124198E+03  0.13233328896E+03  0.00000000000E+00 0. -1.
         11    1    4    4    0    0  0.20707345743E+02 -0.26972071690E+02  0.54257897913E+02  0.64032853324E+02  0.00000000000E+00 0.  1.
</event>
<event>
 8    1  0.6787197E-009  0.1210356E+03  0.7561462E-02  0.1241398E+00
         -1   -1    0    0    0  501 -0.00000000000E+00  0.00000000000E+00  0.27725129625E+02  0.27725129625E+02  0.00000000000E+00 0.  1.
          1   -1    0    0  501    0  0.00000000000E+00 -0.00000000000E+00 -0.57286301506E+03  0.57286301506E+03  0.00000000000E+00 0. -1.
         25    2    1    2    0    0  0.55102607287E+02  0.25665800890E+01 -0.22710338979E+03  0.26507930741E+03  0.12509278518E+03 0.  0.
         23    2    1    2    0    0 -0.55102607287E+02 -0.25665800890E+01 -0.31803449565E+03  0.33550883727E+03  0.91527890838E+02 0.  0.
          5    1    3    3  502    0  0.60732939084E+02  0.55269484906E+02 -0.11946587195E+03  0.14502680032E+03  0.41800000000E+01 0. -1.
         -5    1    3    3    0  502 -0.56303317973E+01 -0.52702904817E+02 -0.10763751784E+03  0.12005250709E+03  0.41800000000E+01 0. -1.
        -11    1    4    4    0    0  0.13695811421E+02 -0.29714864449E+02 -0.88649529780E+02  0.94494907535E+02  0.00000000000E+00 0.  1.
         11    1    4    4    0    0 -0.68798418708E+02  0.27148284360E+02 -0.22938496587E+03  0.24101392974E+03  0.00000000000E+00 0. -1.
</event>
<event>
 8    1  0.6787197E-009  0.1363223E+03  0.7561462E-02  0.1218365E+00
         -2   -1    0    0    0  501 -0.00000000000E+00  0.00000000000E+00  0.44286029388E+02  0.44286029388E+02  0.00000000000E+00 0.  1.
          2   -1    0    0  501    0  0.00000000000E+00 -0.00000000000E+00 -0.48816874622E+03  0.48816874622E+03  0.00000000000E+00 0. -1.
         25    2    1    2    0    0  0.71201366169E+02 -0.48423623912E+02 -0.33121232209E+03  0.36436657582E+03  0.12508763879E+03 0.  0.
         23    2    1    2    0    0 -0.71201366169E+02  0.48423623912E+02 -0.11267039475E+03  0.16808819979E+03  0.90247122717E+02 0.  0.
          5    1    3    3  502    0  0.10515839842E+03 -0.19489399989E+02 -0.23067904704E+03  0.25429986358E+03  0.41800000000E+01 0.  1.
         -5    1    3    3    0  502 -0.33957032253E+02 -0.28934223923E+02 -0.10053327504E+03  0.11006671225E+03  0.41800000000E+01 0.  1.
        -11    1    4    4    0    0 -0.42716169217E+02 -0.19645403165E+02 -0.65067010330E+02  0.80276576979E+02  0.00000000000E+00 0. -1.
         11    1    4    4    0    0 -0.28485196952E+02  0.68069027078E+02 -0.47603384419E+02  0.87811622812E+02  0.00000000000E+00 0.  1.
</event>
<event>
 8    1  0.6787197E-009  0.8666920E+02  0.7561462E-02  0.1311124E+00
         -1   -1    0    0    0  501 -0.00000000000E+00  0.00000000000E+00  0.17362161391E+03  0.17362161391E+03  0.00000000000E+00 0.  1.
          1   -1    0    0  501    0  0.00000000000E+00 -0.00000000000E+00 -0.95184501786E+02  0.95184501786E+02  0.00000000000E+00 0. -1.
         25    2    1    2    0    0  0.14810412828E+02 -0.58374490823E+02  0.72875830568E+02  0.15679677467E+03  0.12508961732E+03 0.  0.
         23    2    1    2    0    0 -0.14810412828E+02  0.58374490823E+02  0.55612815601E+01  0.11200934103E+03  0.94277436947E+02 0.  0.
          5    1    3    3  502    0  0.11811725168E+01 -0.75759998991E+01 -0.35340617425E+02  0.36403606730E+02  0.41800000000E+01 0. -1.
         -5    1    3    3    0  502  0.13629240311E+02 -0.50798490924E+02  0.10821644799E+03  0.12039316794E+03  0.41800000000E+01 0. -1.
        -11    1    4    4    0    0 -0.54684508356E+02  0.41009820915E+02  0.22077104353E+01  0.68389142786E+02  0.00000000000E+00 0.  1.
         11    1    4    4    0    0  0.39874095528E+02  0.17364669908E+02  0.33535711248E+01  0.43620198240E+02  0.00000000000E+00 0. -1.
</event>
<event>
 8    1  0.6787197E-009  0.1927534E+03  0.7561462E-02  0.1156001E+00
         -1   -1    0    0    0  501 -0.00000000000E+00  0.00000000000E+00  0.46273526754E+02  0.46273526754E+02  0.00000000000E+00 0.  1.
          1   -1    0    0  501    0  0.00000000000E+00 -0.00000000000E+00 -0.86352079078E+03  0.86352079078E+03  0.00000000000E+00 0. -1.
         25    2    1    2    0    0 -0.81690058325E+02  0.14502650794E+03 -0.39158489024E+03  0.44349888029E+03  0.12508627791E+03 0.  0.
         23    2    1    2    0    0  0.81690058325E+02 -0.14502650794E+03 -0.42566237378E+03  0.46629543724E+03  0.92396021030E+02 0.  0.
          5    1    3    3  502    0 -0.11453658263E+02  0.13473499009E+03 -0.28342814940E+03  0.31406001355E+03  0.41800000000E+01 0. -1.
         -5    1    3    3    0  502 -0.70236400062E+02  0.10291517851E+02 -0.10815674084E+03  0.12943886674E+03  0.41800000000E+01 0. -1.
        -11    1    4    4    0    0  0.28725210790E+02 -0.11435434073E+03 -0.34789156991E+03  0.36732900429E+03  0.00000000000E+00 0. -1.
         11    1    4    4    0    0  0.52964847535E+02 -0.30672167206E+02 -0.77770803875E+02  0.98966432950E+02  0.00000000000E+00 0.  1.
</event>
<event>
 8    1  0.6787197E-009  0.9679323E+02  0.7561462E-02  0.1287188E+00
          1   -1    0    0  501    0  0.00000000000E+00  0.00000000000E+00  0.56250577187E+03  0.56250577187E+03  0.00000000000E+00 0. -1.
         -1   -1    0    0    0  501 -0.00000000000E+00 -0.00000000000E+00 -0.27325415339E+02  0.27325415339E+02  0.00000000000E+00 0.  1.
         25    2    1    2    0    0 -0.44451654594E+02 -0.14755545946E+02  0.38430598953E+03  0.40685613489E+03  0.12508854935E+03 0.  0.
         23    2    1    2    0    0  0.44451654594E+02  0.14755545946E+02  0.15087436700E+03  0.18297505232E+03  0.92320742088E+02 0.  0.
          5    1    3    3  502    0  0.38933441664E+02 -0.28572406316E+02  0.12389999442E+03  0.13304464025E+03  0.41800000000E+01 0. -1.
         -5    1    3    3    0  502 -0.83385096258E+02  0.13816860370E+02  0.26040599510E+03  0.27381149464E+03  0.41800000000E+01 0. -1.
        -11    1    4    4    0    0  0.18756485355E+02 -0.12879416342E+02 -0.44060324795E+01  0.23175379833E+02  0.00000000000E+00 0.  1.
         11    1    4    4    0    0  0.25695169239E+02  0.27634962288E+02  0.15528039948E+03  0.15979967248E+03  0.00000000000E+00 0. -1.
</event>
<event>
 8    1  0.6787197E-009  0.1355700E+03  0.7561462E-02  0.1219417E+00
          1   -1    0    0  501    0  0.00000000000E+00  0.00000000000E+00  0.57636940680E+02  0.57636940680E+02  0.00000000000E+00 0. -1.
         -1   -1    0    0    0  501 -0.00000000000E+00 -0.00000000000E+00 -0.38485260316E+03  0.38485260316E+03  0.00000000000E+00 0.  1.
         25    2    1    2    0    0 -0.20554406496E+02  0.96315443314E+02 -0.14103391252E+03  0.21268918495E+03  0.12508787579E+03 0.  0.
         23    2    1    2    0    0  0.20554406496E+02 -0.96315443314E+02 -0.18618174996E+03  0.22980035889E+03  0.91898926424E+02 0.  0.
          5    1    3    3  502    0  0.49823208504E+02  0.62823822265E+02 -0.60457787185E+02  0.10050771702E+03  0.41800000000E+01 0.  1.
         -5    1    3    3    0  502 -0.70377615000E+02  0.33491621049E+02 -0.80576125334E+02  0.11218146793E+03  0.41800000000E+01 0.  1.
        -11    1    4    4    0    0  0.34923171616E+02 -0.33621589424E+02 -0.14629391927E+03  0.15411667660E+03  0.00000000000E+00 0.  1.
         11    1    4    4    0    0 -0.14368765120E+02 -0.62693853890E+02 -0.39887830688E+02  0.75683682281E+02  0.00000000000E+00 0. -1.
</event>
<event>
 8    1  0.6787197E-009  0.1329329E+03  0.7561462E-02  0.1223168E+00
         -1   -1    0    0    0  501 -0.00000000000E+00  0.00000000000E+00  0.69424315836E+03  0.69424315836E+03  0.00000000000E+00 0.  1.
          1   -1    0    0  501    0  0.00000000000E+00 -0.00000000000E+00 -0.36745685234E+02  0.36745685234E+02  0.00000000000E+00 0. -1.
         25    2    1    2    0    0  0.11495735176E+03  0.96970212209E+01  0.40164279789E+03  0.43620355720E+03  0.12508949307E+03 0.  0.
         23    2    1    2    0    0 -0.11495735176E+03 -0.96970212209E+01  0.25585467523E+03  0.29478528639E+03  0.90152788580E+02 0.  0.
          5    1    3    3  502    0  0.52727201476E+02 -0.26998678882E+02  0.32659460025E+03  0.33194968255E+03  0.41800000000E+01 0.  1.
         -5    1    3    3    0  502  0.62230150281E+02  0.36695700103E+02  0.75048197645E+02  0.10425387465E+03  0.41800000000E+01 0.  1.
        -11    1    4    4    0    0 -0.84746073077E+02  0.24761493703E+02  0.10532811760E+03  0.13743740695E+03  0.00000000000E+00 0. -1.
         11    1    4    4    0    0 -0.30211278679E+02 -0.34458514924E+02  0.15052655763E+03  0.15734787944E+03  0.00000000000E+00 0.  1.
</event>
<event>
 8    1  0.6787197E-009  0.1864093E+03  0.7561462E-02  0.1161740E+00
         -1   -1    0    0    0  501 -0.00000000000E+00  0.00000000000E+00  0.13338567871E+03  0.13338567871E+03  0.00000000000E+00 0.  1.
          1   -1    0    0  501    0  0.00000000000E+00 -0.00000000000E+00 -0.30391381832E+03  0.30391381832E+03  0.00000000000E+00 0. -1.
         25    2    1    2    0    0  0.13632543701E+03  0.97207616372E+02 -0.61755740787E+02  0.21793199629E+03  0.12508652217E+03 0.  0.
         23    2    1    2    0    0 -0.13632543701E+03 -0.97207616372E+02 -0.10877239882E+03  0.21936750075E+03  0.90866496479E+02 0.  0.
          5    1    3    3  502    0  0.44208086164E+02  0.89576744739E+02  0.10507532942E+02  0.10052974052E+03  0.41800000000E+01 0. -1.
         -5    1    3    3    0  502  0.92117350847E+02  0.76308716329E+01 -0.72263273729E+02  0.11740225577E+03  0.41800000000E+01 0. -1.
        -11    1    4    4    0    0 -0.12485783965E+03 -0.10760842274E+03 -0.11671342170E+03  0.20196800631E+03  0.00000000000E+00 0. -1.
         11    1    4    4    0    0 -0.11467597360E+02  0.10400806368E+02  0.79410228820E+01  0.17399494439E+02  0.00000000000E+00 0.  1.
</event>
<event>
 8    1  0.6787197E-009  0.2101728E+03  0.7561462E-02  0.1141429E+00
          2   -1    0    0  501    0  0.00000000000E+00  0.00000000000E+00  0.15567262874E+04  0.15567262874E+04  0.00000000000E+00 0. -1.
         -2   -1    0    0    0  501 -0.00000000000E+00 -0.00000000000E+00 -0.36013533379E+02  0.36013533379E+02  0.00000000000E+00 0.  1.
         25    2    1    2    0    0 -0.90836943459E+02  0.17103879247E+03  0.10512930290E+04  0.10762737584E+04  0.12507018572E+03 0.  0.
         23    2    1    2    0    0  0.90836943459E+02 -0.17103879247E+03  0.46941972502E+03  0.51646606238E+03  0.94216222212E+02 0.  0.
          5    1    3    3  502    0  0.10709998868E+02  0.20147567562E+02  0.25497692571E+02  0.34470759796E+02  0.41800000000E+01 0. -1.
         -5    1    3    3    0  502 -0.10154694233E+03  0.15089122491E+03  0.10257953364E+04  0.10418029986E+04  0.41800000000E+01 0. -1.
        -11    1    4    4    0    0  0.10602929166E+03 -0.11186909633E+03  0.32753315196E+03  0.36198739072E+03  0.00000000000E+00 0. -1.
         11    1    4    4    0    0 -0.15192348203E+02 -0.59169696139E+02  0.14188657306E+03  0.15447867167E+03  0.00000000000E+00 0.  1.
</event>
<event>
 8    1  0.6787197E-009  0.6827939E+02  0.7561462E-02  0.1366044E+00
          2   -1    0    0  501    0  0.00000000000E+00  0.00000000000E+00  0.28479447455E+03  0.28479447455E+03  0.00000000000E+00 0.  1.
         -2   -1    0    0    0  501 -0.00000000000E+00 -0.00000000000E+00 -0.43949890935E+02  0.43949890935E+02  0.00000000000E+00 0. -1.
         25    2    1    2    0    0 -0.90674680540E+01  0.24946867125E+02  0.15192034417E+03  0.19857468839E+03  0.12509017045E+03 0.  0.
         23    2    1    2    0    0  0.90674680540E+01 -0.24946867125E+02  0.88924239450E+02  0.13016967709E+03  0.91280114575E+02 0.  0.
          5    1    3    3  502    0  0.12332382152E+01 -0.67623959330E+01  0.16299641801E+03  0.16319483926E+03  0.41800000000E+01 0. -1.
         -5    1    3    3    0  502 -0.10300706269E+02  0.31709263058E+02 -0.11076073843E+02  0.35379849139E+02  0.41800000000E+01 0. -1.
        -11    1    4    4    0    0 -0.31472742106E+02  0.17669367888E+02  0.37385055006E+02  0.51965203695E+02  0.00000000000E+00 0. -1.
         11    1    4    4    0    0  0.40540210160E+02 -0.42616235013E+02  0.51539184445E+02  0.78204473400E+02  0.00000000000E+00 0.  1.
</event>
<event>
 8    1  0.6787197E-009  0.1077440E+03  0.7561462E-02  0.1264806E+00
          4   -1    0    0  501    0  0.00000000000E+00  0.00000000000E+00  0.79055995370E+02  0.79055995370E+02  0.00000000000E+00 0. -1.
         -4   -1    0    0    0  501 -0.00000000000E+00 -0.00000000000E+00 -0.17041645911E+03  0.17041645911E+03  0.00000000000E+00 0.  1.
         25    2    1    2    0    0  0.40133241847E+01  0.36364947426E+02 -0.58713126153E+02  0.14295917648E+03  0.12510626996E+03 0.  0.
         23    2    1    2    0    0 -0.40133241847E+01 -0.36364947426E+02 -0.32647337586E+02  0.10651327800E+03  0.94555346582E+02 0.  0.
          5    1    3    3  502    0 -0.30678323635E+02 -0.29183366181E+02 -0.53696075599E+02  0.68509629523E+02  0.41800000000E+01 0.  1.
         -5    1    3    3    0  502  0.34691647820E+02  0.65548313608E+02 -0.50170505547E+01  0.74449546953E+02  0.41800000000E+01 0.  1.
        -11    1    4    4    0    0 -0.47822434770E+02 -0.16892165147E+02 -0.29021631389E+02  0.58434455582E+02  0.00000000000E+00 0. -1.
         11    1    4    4    0    0  0.43809110586E+02 -0.19472782279E+02 -0.36257061975E+01  0.48078822421E+02  0.00000000000E+00 0.  1.
</event>
<event>
 8    1  0.6787197E-009  0.1143604E+03  0.7561462E-02  0.1252702E+00
         -1   -1    0    0    0  501 -0.00000000000E+00  0.00000000000E+00  0.49867377012E+02  0.49867377012E+02  0.00000000000E+00 0.  1.
          1   -1    0    0  501    0  0.00000000000E+00 -0.00000000000E+00 -0.36068436777E+03  0.36068436777E+03  0.00000000000E+00 0. -1.
         25    2    1    2    0    0  0.19813505779E+02  0.60713572885E+02 -0.96958263551E+02  0.17066536795E+03  0.12508816891E+03 0.  0.
         23    2    1    2    0    0 -0.19813505779E+02 -0.60713572885E+02 -0.21385872720E+03  0.23988637683E+03  0.87927274750E+02 0.  0.
          5    1    3    3  502    0 -0.34332876763E+02  0.57783124078E+02 -0.94737148389E+02  0.11623353879E+03  0.41800000000E+01 0. -1.
         -5    1    3    3    0  502  0.54146382542E+02  0.29304488075E+01 -0.22211151622E+01  0.54431829155E+02  0.41800000000E+01 0. -1.
        -11    1    4    4    0    0  0.72832163988E+01  0.20299569084E+02 -0.62079217076E+02  0.65718695505E+02  0.00000000000E+00 0. -1.
         11    1    4    4    0    0 -0.27096722178E+02 -0.81013141969E+02 -0.15177951013E+03  0.17416768133E+03  0.00000000000E+00 0.  1.
</event>
<event>
 8    1  0.6787197E-009  0.1214183E+03  0.7561462E-02  0.1240775E+00
         -1   -1    0    0    0  501 -0.00000000000E+00  0.00000000000E+00  0.27294936456E+03  0.27294936456E+03  0.00000000000E+00 0.  1.
          1   -1    0    0  501    0  0.00000000000E+00 -0.00000000000E+00 -0.94782636638E+02  0.94782636638E+02  0.00000000000E+00 0. -1.
         25    2    1    2    0    0  0.80629391869E+02  0.79548298065E+02  0.13231879643E+03  0.21443951363E+03  0.12508801126E+03 0.  0.
         23    2    1    2    0    0 -0.80629391869E+02 -0.79548298065E+02  0.45847931500E+02  0.15329248757E+03  0.92560917044E+02 0.  0.
          5    1    3    3  502    0  0.79510732221E+02  0.81183312686E+02  0.37831389041E+02  0.11983894690E+03  0.41800000000E+01 0. -1.
         -5    1    3    3    0  502  0.11186596479E+01 -0.16350146212E+01  0.94487407385E+02  0.94600566735E+02  0.41800000000E+01 0. -1.
        -11    1    4    4    0    0 -0.36755120788E+02 -0.37843831773E+01 -0.21576840101E+02  0.42788088166E+02  0.00000000000E+00 0.  1.
         11    1    4    4    0    0 -0.43874271081E+02 -0.75763914887E+02  0.67424771601E+02  0.11050439940E+03  0.00000000000E+00 0. -1.
</event>
<event>
 8    1  0.6787197E-009  0.1281362E+03  0.7561462E-02  0.1230248E+00
          3   -1    0    0  501    0  0.00000000000E+00  0.00000000000E+00  0.63303188707E+03  0.63303188707E+03  0.00000000000E+00 0. -1.
         -3   -1    0    0    0  501 -0.00000000000E+00 -0.00000000000E+00 -0.28992759648E+02  0.28992759648E+02  0.00000000000E+00 0.  1.
         25    2    1    2    0    0 -0.38506324474E+02 -0.66612194206E+02  0.28764050783E+03  0.32295569624E+03  0.12507357252E+03 0.  0.
         23    2    1    2    0    0  0.38506324474E+02  0.66612194206E+02  0.31639861958E+03  0.33906895048E+03  0.94550226134E+02 0.  0.
          5    1    3    3  502    0  0.27737800900E+02  0.22322081184E+02  0.72685112651E+02  0.81044795688E+02  0.41800000000E+01 0.  1.
         -5    1    3    3    0  502 -0.66244125374E+02 -0.88934275390E+02  0.21495539518E+03  0.24191090055E+03  0.41800000000E+01 0.  1.
        -11    1    4    4    0    0  0.62250956870E+02  0.54775884150E+02  0.15772993015E+03  0.17819739050E+03  0.00000000000E+00 0.  1.
         11    1    4    4    0    0 -0.23744632396E+02  0.11836310056E+02  0.15866868943E+03  0.16087155998E+03  0.00000000000E+00 0. -1.
</event>
<event>
 8    1  0.6787197E-009  0.2065757E+03  0.7561462E-02  0.1144307E+00
         -1   -1    0    0    0  501 -0.00000000000E+00  0.00000000000E+00  0.27897361513E+03  0.27897361513E+03  0.00000000000E+00 0.  1.
          1   -1    0    0  501    0  0.00000000000E+00 -0.00000000000E+00 -0.19216692725E+03  0.19216692725E+03  0.00000000000E+00 0. -1.
         25    2    1    2    0    0  0.98228113059E+02  0.17949484293E+03  0.53031743874E+02  0.24561606829E+03  0.12509087221E+03 0.  0.
         23    2    1    2    0    0 -0.98228113059E+02 -0.17949484293E+03  0.33774944001E+02  0.22552447409E+03  0.88619302297E+02 0.  0.
          5    1    3    3  502    0  0.76126145312E+02  0.14419521569E+03 -0.17036540206E+02  0.16399745831E+03  0.41800000000E+01 0.  1.
         -5    1    3    3    0  502  0.22101967747E+02  0.35299627234E+02  0.70068284079E+02  0.81618609979E+02  0.41800000000E+01 0.  1.
        -11    1    4    4    0    0 -0.60285027867E+02 -0.70429335223E+02 -0.24904257581E+02  0.95993738809E+02  0.00000000000E+00 0. -1.
         11    1    4    4    0    0 -0.37943085192E+02 -0.10906550770E+03  0.58679201582E+02  0.12953073528E+03  0.00000000000E+00 0.  1.
</event>
<event>
 8    1  0.6787197E-009  0.1285395E+03  0.7561462E-02  0.1229639E+00
          3   -1    0    0  501    0  0.00000000000E+00  0.00000000000E+00  0.12962035062E+03  0.12962035062E+03  0.00000000000E+00 0. -1.
         -3   -1    0    0    0  501 -0.00000000000E+00 -0.00000000000E+00 -0.12920177574E+03  0.12920177574E+03  0.00000000000E+00 0.  1.
         25    2    1    2    0    0 -0.62485881365E+02  0.26216236805E+02  0.84643571851E+01  0.14251678429E+03  0.12509041538E+03 0.  0.
         23    2    1    2    0    0  0.62485881365E+02 -0.26216236805E+02 -0.80457823075E+01  0.11630534207E+03  0.94182915323E+02 0.  0.
          5    1    3    3  502    0 -0.71369083256E+02  0.68263006839E+02  0.20792049422E+01  0.98869508144E+02  0.41800000000E+01 0. -1.
         -5    1    3    3    0  502  0.88832018909E+01 -0.42046770035E+02  0.63851522429E+01  0.43647276151E+02  0.41800000000E+01 0. -1.
        -11    1    4    4    0    0  0.61317021425E+02  0.23247490688E+02  0.28666335669E+01  0.65638712112E+02  0.00000000000E+00 0.  1.
         11    1    4    4    0    0  0.11688599398E+01 -0.49463727493E+02 -0.10912415874E+02  0.50666629957E+02  0.00000000000E+00 0. -1.
</event>
<event>
 8    1  0.6787197E-009  0.8442007E+02  0.7561462E-02  0.1316956E+00
         -3   -1    0    0    0  501 -0.00000000000E+00  0.00000000000E+00  0.47493472896E+02  0.47493472896E+02  0.00000000000E+00 0.  1.
          3   -1    0    0  501    0  0.00000000000E+00 -0.00000000000E+00 -0.32378656347E+03  0.32378656347E+03  0.00000000000E+00 0. -1.
         25    2    1    2    0    0  0.41778149294E+02  0.25369588480E+02 -0.10208794950E+03  0.16869786049E+03  0.12509192189E+03 0.  0.
         23    2    1    2    0    0 -0.41778149294E+02 -0.25369588480E+02 -0.17420514107E+03  0.20258217588E+03  0.91121221621E+02 0.  0.
          5    1    3    3  502    0 -0.10672965596E+02  0.93874049716E+00 -0.10959928288E+03  0.11020103736E+03  0.41800000000E+01 0.  1.
         -5    1    3    3    0  502  0.52451114890E+02  0.24430847983E+02  0.75113333769E+01  0.58496823123E+02  0.41800000000E+01 0.  1.
        -11    1    4    4    0    0  0.11073257338E+02  0.24359320777E+02 -0.75278128461E+02  0.79892366102E+02  0.00000000000E+00 0.  1.
         11    1    4    4    0    0 -0.52851406632E+02 -0.49728909257E+02 -0.98927012608E+02  0.12268980977E+03  0.00000000000E+00 0. -1.
</event>
<event>
 8    1  0.6787197E-009  0.8403761E+02  0.7561462E-02  0.1317969E+00
         -2   -1    0    0    0  501 -0.00000000000E+00  0.00000000000E+00  0.47619247388E+02  0.47619247388E+02  0.00000000000E+00 0.  1.
          2   -1    0    0  501    0  0.00000000000E+00 -0.00000000000E+00 -0.36865514515E+03  0.36865514515E+03  0.00000000000E+00 0. -1.
         25    2    1    2    0    0  0.18609373865E+02  0.16814184405E+02 -0.63922762246E+02  0.14269626671E+03  0.12508828645E+03 0.  0.
         23    2    1    2    0    0 -0.18609373865E+02 -0.16814184405E+02 -0.25711313551E+03  0.27357812583E+03  0.90048880527E+02 0.  0.
          5    1    3    3  502    0  0.46591198870E+02  0.66968077624E+01 -0.90814052909E+02  0.10237310024E+03  0.41800000000E+01 0. -1.
         -5    1    3    3    0  502 -0.27981825005E+02  0.10117376643E+02  0.26891290663E+02  0.40323166471E+02  0.41800000000E+01 0. -1.
        -11    1    4    4    0    0 -0.52714704829E+02 -0.20303773192E+02 -0.12648962308E+03  0.13853053114E+03  0.00000000000E+00 0.  1.
         11    1    4    4    0    0  0.34105330964E+02  0.34895887867E+01 -0.13062351243E+03  0.13504759468E+03  0.00000000000E+00 0. -1.
</event>
<event>
 8    1  0.6787197E-009  0.1209470E+03  0.7561462E-02  0.1241543E+00
         -3   -1    0    0    0  501 -0.00000000000E+00  0.00000000000E+00  0.28361439103E+03  0.28361439103E+03  0.00000000000E+00 0.  1.
          3   -1    0    0  501    0  0.00000000000E+00 -0.00000000000E+00 -0.58858345796E+02  0.58858345796E+02  0.00000000000E+00 0. -1.
         25    2    1    2    0    0  0.67121674675E+02  0.15018829733E+02  0.10242463580E+03  0.17569301997E+03  0.12508535802E+03 0.  0.
         23    2    1    2    0    0 -0.67121674675E+02 -0.15018829733E+02  0.12233140944E+03  0.16677971686E+03  0.90108910559E+02 0.  0.
          5    1    3    3  502    0  0.98759610636E+02 -0.12977888781E+02  0.64294339145E+02  0.11863018476E+03  0.41800000000E+01 0.  1.
         -5    1    3    3    0  502 -0.31637935961E+02  0.27996718514E+02  0.38130296651E+02  0.57062835209E+02  0.41800000000E+01 0.  1.
        -11    1    4    4    0    0 -0.12586389267E+02 -0.38398873369E+02  0.91248317902E+02  0.99795521898E+02  0.00000000000E+00 0.  1.
         11    1    4    4    0    0 -0.54535285408E+02  0.23380043636E+02  0.31083091533E+02  0.66984194958E+02  0.00000000000E+00 0. -1.
</event>
<event>
 8    1  0.6787197E-009  0.9187996E+02  0.7561462E-02  0.1298362E+00
          4   -1    0    0  501    0  0.00000000000E+00  0.00000000000E+00  0.66318536501E+02  0.66318536501E+02  0.00000000000E+00 0. -1.
         -4   -1    0    0    0  501 -0.00000000000E+00 -0.00000000000E+00 -0.21739334677E+03  0.21739334677E+03  0.00000000000E+00 0.  1.
         25    2    1    2    0    0 -0.47020598894E+02 -0.20941269629E+01 -0.10868621236E+03  0.17226436223E+03  0.12508795165E+03 0.  0.
         23    2    1    2    0    0  0.47020598894E+02  0.20941269629E+01 -0.42388597908E+02  0.11144752104E+03  0.91697517009E+02 0.  0.
          5    1    3    3  502    0  0.10723178983E+02 -0.26562168240E+02 -0.10542455223E+03  0.10932677605E+03  0.41800000000E+01 0. -1.
         -5    1    3    3    0  502 -0.57743777877E+02  0.24468041277E+02 -0.32616601345E+01  0.62937586181E+02  0.41800000000E+01 0. -1.
        -11    1    4    4    0    0  0.42736515093E+02 -0.34617373091E+02  0.27742821898E+00  0.54998629151E+02  0.00000000000E+00 0. -1.
         11    1    4    4    0    0  0.42840838006E+01  0.36711500054E+02 -0.42666026127E+02  0.56448891891E+02  0.00000000000E+00 0.  1.
</event>
<event>
 8    1  0.6787197E-009  0.2089517E+03  0.7561462E-02  0.1142399E+00
         -1   -1    0    0    0  501 -0.00000000000E+00  0.00000000000E+00  0.65913216402E+02  0.65913216402E+02  0.00000000000E+00 0.  1.
          1   -1    0    0  501    0  0.00000000000E+00 -0.00000000000E+00 -0.81214565424E+03  0.81214565424E+03  0.00000000000E+00 0. -1.
         25    2    1    2    0    0 -0.15241152947E+03  0.10268114611E+03 -0.55422939045E+03  0.59715547478E+03  0.12510696122E+03 0.  0.
         23    2    1    2    0    0  0.15241152947E+03 -0.10268114611E+03 -0.19200304739E+03  0.28090339586E+03  0.90933247598E+02 0.  0.
          5    1    3    3  502    0 -0.94156539815E+02 -0.88935228815E+01 -0.27504927936E+03  0.29088507561E+03  0.41800000000E+01 0. -1.
         -5    1    3    3    0  502 -0.58254989651E+02  0.11157466899E+03 -0.27918011109E+03  0.30627039917E+03  0.41800000000E+01 0. -1.
        -11    1    4    4    0    0  0.13049364625E+02  0.11299430285E+02 -0.45913052162E+02  0.49050702347E+02  0.00000000000E+00 0.  1.
         11    1    4    4    0    0  0.13936216484E+03 -0.11398057639E+03 -0.14608999523E+03  0.23185269351E+03  0.00000000000E+00 0. -1.
</event>
<event>
 8    1  0.6787197E-009  0.1097310E+03  0.7561462E-02  0.1261069E+00
         -3   -1    0    0    0  501 -0.00000000000E+00  0.00000000000E+00  0.11361956188E+03  0.11361956188E+03  0.00000000000E+00 0.  1.
          3   -1    0    0  501    0  0.00000000000E+00 -0.00000000000E+00 -0.14721648698E+03  0.14721648698E+03  0.00000000000E+00 0. -1.
         25    2    1    2    0    0 -0.70275520071E+02  0.10421159724E+02 -0.34805786388E+02  0.14800789218E+03  0.12509054357E+03 0.  0.
         23    2    1    2    0    0  0.70275520071E+02 -0.10421159724E+02  0.12088612868E+01  0.11282815667E+03  0.87644065981E+02 0.  0.
          5    1    3    3  502    0 -0.39119522186E+02  0.47086410806E+02  0.29096108412E+02  0.67908195554E+02  0.41800000000E+01 0. -1.
         -5    1    3    3    0  502 -0.31155997885E+02 -0.36665251082E+02 -0.63901894800E+02  0.80099696629E+02  0.41800000000E+01 0. -1.
        -11    1    4    4    0    0 -0.71899523669E+01  0.23988540400E+02 -0.10697644826E+02  0.27232059973E+02  0.00000000000E+00 0. -1.
         11    1    4    4    0    0  0.77465472438E+02 -0.34409700124E+02  0.11906506113E+02  0.85596096701E+02  0.00000000000E+00 0.  1.
</event>
<event>
 8    1  0.6787197E-009  0.7994945E+02  0.7561462E-02  0.1329195E+00
          1   -1    0    0  501    0  0.00000000000E+00  0.00000000000E+00  0.38882049754E+03  0.38882049754E+03  0.00000000000E+00 0. -1.
         -1   -1    0    0    0  501 -0.00000000000E+00 -0.00000000000E+00 -0.33522136905E+02  0.33522136905E+02  0.00000000000E+00 0.  1.
         25    2    1    2    0    0  0.24999467597E+02  0.16791617287E+02  0.19176549504E+03  0.23092988009E+03  0.12509065768E+03 0.  0.
         23    2    1    2    0    0 -0.24999467597E+02 -0.16791617287E+02  0.16353286559E+03  0.19141275435E+03  0.94809876115E+02 0.  0.
          5    1    3    3  502    0  0.30068716266E+02 -0.14201666910E+02  0.19610822896E+03  0.19895156423E+03  0.41800000000E+01 0.  1.
         -5    1    3    3    0  502 -0.50692486694E+01  0.30993284197E+02 -0.43427339247E+01  0.31978315861E+02  0.41800000000E+01 0.  1.
        -11    1    4    4    0    0  0.28728310566E+02 -0.27666301476E+02  0.41113161685E+02  0.57280294422E+02  0.00000000000E+00 0.  1.
         11    1    4    4    0    0 -0.53727778163E+02  0.10874684188E+02  0.12241970391E+03  0.13413245993E+03  0.00000000000E+00 0. -1.
</event>
<event>
 8    1  0.6787197E-009  0.1163416E+03  0.7561462E-02  0.1249257E+00
          3   -1    0    0  501    0  0.00000000000E+00  0.00000000000E+00  0.48399239950E+02  0.48399239950E+02  0.00000000000E+00 0. -1.
         -3   -1    0    0    0  501 -0.00000000000E+00 -0.00000000000E+00 -0.36661831930E+03  0.36661831930E+03  0.00000000000E+00 0.  1.
         25    2    1    2    0    0 -0.57044740119E+00 -0.66850435295E+02 -0.23781553565E+03  0.27690146457E+03  0.12509550742E+03 0.  0.
         23    2    1    2    0    0  0.57044740119E+00  0.66850435295E+02 -0.80403543702E+02  0.13811609468E+03  0.90233140588E+02 0.  0.
          5    1    3    3  502    0 -0.25035700941E+02 -0.95421011559E+02 -0.13434887017E+03  0.16673046238E+03  0.41800000000E+01 0. -1.
         -5    1    3    3    0  502  0.24465253540E+02  0.28570576264E+02 -0.10346666548E+03  0.11017100219E+03  0.41800000000E+01 0. -1.
        -11    1    4    4    0    0  0.33481759387E+02  0.46857091442E+02 -0.81260091409E+02  0.99598281541E+02  0.00000000000E+00 0.  1.
         11    1    4    4    0    0 -0.32911311986E+02  0.19993343853E+02  0.85654770745E+00  0.38517813139E+02  0.00000000000E+00 0. -1.
</event>
<event>
 8    1  0.6787197E-009  0.1239527E+03  0.7561462E-02  0.1236715E+00
         -1   -1    0    0    0  501 -0.00000000000E+00  0.00000000000E+00  0.33783122950E+02  0.33783122950E+02  0.00000000000E+00 0.  1.
          1   -1    0    0  501    0  0.00000000000E+00 -0.00000000000E+00 -0.57559326577E+03  0.57559326577E+03  0.00000000000E+00 0. -1.
         25    2    1    2    0    0  0.73800847404E+02  0.37253255278E+02 -0.35885344988E+03  0.38891541825E+03  0.12508011015E+03 0.  0.
         23    2    1    2    0    0 -0.73800847404E+02 -0.37253255278E+02 -0.18295669294E+03  0.22046097047E+03  0.91079733761E+02 0.  0.
          5    1    3    3  502    0 -0.33611105722E+02  0.24156473027E+02 -0.95554886244E+02  0.10421828200E+03  0.41800000000E+01 0. -1.
         -5    1    3    3    0  502  0.10741195313E+03  0.13096782251E+02 -0.26329856364E+03  0.28469713626E+03  0.41800000000E+01 0. -1.
        -11    1    4    4    0    0 -0.69950402674E+02 -0.10200708419E+02 -0.54854830234E+02  0.89477179696E+02  0.00000000000E+00 0.  1.
         11    1    4    4    0    0 -0.38504447307E+01 -0.27052546859E+02 -0.12810186271E+03  0.13098379077E+03  0.00000000000E+00 0. -1.
</event>
<event>
 8    1  0.6787197E-009  0.1043440E+03  0.7561462E-02  0.1271417E+00
          2   -1    0    0  501    0  0.00000000000E+00  0.00000000000E+00  0.10679745207E+03  0.10679745207E+03  0.00000000000E+00 0. -1.
         -2   -1    0    0    0  501 -0.00000000000E+00 -0.00000000000E+00 -0.13250784323E+03  0.13250784323E+03  0.00000000000E+00 0.  1.
         25    2    1    2    0    0  0.15343837709E+02 -0.33200249197E+02 -0.98352338570E+00  0.13033174158E+03  0.12509078960E+03 0.  0.
         23    2    1    2    0    0 -0.15343837709E+02  0.33200249197E+02 -0.24726867778E+02  0.10897355372E+03  0.99629952916E+02 0.  0.
          5    1    3    3  502    0 -0.25543966390E+02 -0.65774566990E+02 -0.21706233503E+02  0.73942010079E+02  0.41800000000E+01 0.  1.
         -5    1    3    3    0  502  0.40887804098E+02  0.32574317793E+02  0.20722710117E+02  0.56389731497E+02  0.41800000000E+01 0.  1.
        -11    1    4    4    0    0 -0.30685868231E+02 -0.15586621568E+02 -0.42628833908E+02  0.54788527644E+02  0.00000000000E+00 0.  1.
         11    1    4    4    0    0  0.15342030522E+02  0.48786870766E+02  0.17901966131E+02  0.54185026077E+02  0.00000000000E+00 0. -1.
</event>
<event>
 8    1  0.6787197E-009  0.1075420E+03  0.7561462E-02  0.1265191E+00
         -1   -1    0    0    0  501 -0.00000000000E+00  0.00000000000E+00  0.17833013944E+03  0.17833013944E+03  0.00000000000E+00 0.  1.
          1   -1    0    0  501    0  0.00000000000E+00 -0.00000000000E+00 -0.79782615769E+02  0.79782615769E+02  0.00000000000E+00 0. -1.
         25    2    1    2    0    0  0.12803528033E+02  0.30046306700E+02  0.27718368295E+02  0.13221706772E+03  0.12508530761E+03 0.  0.
         23    2    1    2    0    0 -0.12803528033E+02 -0.30046306700E+02  0.70829155375E+02  0.12589568749E+03  0.98824308755E+02 0.  0.
          5    1    3    3  502    0 -0.22647431352E+01  0.76376042472E+02  0.10739633686E+01  0.76531396972E+02  0.41800000000E+01 0. -1.
         -5    1    3    3    0  502  0.15068271168E+02 -0.46329735772E+02  0.26644404926E+02  0.55685670747E+02  0.41800000000E+01 0. -1.
        -11    1    4    4    0    0 -0.31427202414E+02  0.19326379803E+02  0.62353528802E+02  0.72450952802E+02  0.00000000000E+00 0.  1.
         11    1    4    4    0    0  0.18623674381E+02 -0.49372686503E+02  0.84756265729E+01  0.53444734687E+02  0.00000000000E+00 0. -1.
</event>
<event>
 8    1  0.6787197E-009  0.1348496E+03  0.7561462E-02  0.1220432E+00
         -4   -1    0    0    0  501 -0.00000000000E+00  0.00000000000E+00  0.66171133817E+02  0.66171133817E+02  0.00000000000E+00 0.  1.
          4   -1    0    0  501    0  0.00000000000E+00 -0.00000000000E+00 -0.51653066351E+03  0.51653066351E+03  0.00000000000E+00 0. -1.
         25    2    1    2    0    0 -0.82508426969E+02 -0.75377675069E+01 -0.41144189272E+02  0.15557829232E+03  0.12508917727E+03 0.  0.
         23    2    1    2    0    0  0.82508426969E+02  0.75377675069E+01 -0.40921534042E+03  0.42712350501E+03  0.90071278626E+02 0.  0.
          5    1    3    3  502    0  0.18768421561E+02 -0.39343491356E+02 -0.11100603413E+02  0.45175875820E+02  0.41800000000E+01 0.  1.
         -5    1    3    3    0  502 -0.10127684853E+03  0.31805723850E+02 -0.30043585859E+02  0.11040241650E+03  0.41800000000E+01 0.  1.
        -11    1    4    4    0    0 -0.11521726695E+02 -0.18776409105E+02 -0.45851446457E+02  0.50869036427E+02  0.00000000000E+00 0.  1.
         11    1    4    4    0    0  0.94030153664E+02  0.26314176612E+02 -0.36336389396E+03  0.37625446858E+03  0.00000000000E+00 0. -1.
</event>
<event>
 8    1  0.6787197E-009  0.1242759E+03  0.7561462E-02  0.1236205E+00
          4   -1    0    0  501    0  0.00000000000E+00  0.00000000000E+00  0.17173864865E+04  0.17173864865E+04  0.00000000000E+00 0. -1.
         -4   -1    0    0    0  501 -0.00000000000E+00 -0.00000000000E+00 -0.13267215265E+02  0.13267215265E+02  0.00000000000E+00 0.  1.
         25    2    1    2    0    0  0.83152467494E+02  0.58794002962E+02  0.10621216036E+04  0.10742982889E+04  0.12507375830E+03 0.  0.
         23    2    1    2    0    0 -0.83152467494E+02 -0.58794002962E+02  0.64199766768E+03  0.65635541293E+03  0.90941492986E+02 0.  0.
          5    1    3    3  502    0  0.56563501036E+02  0.63489851816E+02  0.10232481555E+04  0.10267836438E+04  0.41800000000E+01 0. -1.
         -5    1    3    3    0  502  0.26588966457E+02 -0.46958488538E+01  0.38873448050E+02  0.47514645080E+02  0.41800000000E+01 0. -1.
        -11    1    4    4    0    0 -0.11053800775E+02 -0.62915359273E+02  0.32768341555E+03  0.33385168828E+03  0.00000000000E+00 0. -1.
         11    1    4    4    0    0 -0.72098666719E+02  0.41213563114E+01  0.31431425213E+03  0.32250372465E+03  0.00000000000E+00 0.  1.
</event>
<event>
 8    1  0.6787197E-009  0.6796211E+02  0.7561462E-02  0.1367163E+00
         -2   -1    0    0    0  501 -0.00000000000E+00  0.00000000000E+00  0.72641879371E+02  0.72641879371E+02  0.00000000000E+00 0.  1.
          2   -1    0    0  501    0  0.00000000000E+00 -0.00000000000E+00 -0.20690338691E+03  0.20690338691E+03  0.00000000000E+00 0. -1.
         25    2    1    2    0    0  0.11268745396E+02  0.51385828517E+02 -0.47827215700E+02  0.14388510885E+03  0.12509194215E+03 0.  0.
         23    2    1    2    0    0 -0.11268745396E+02 -0.51385828517E+02 -0.86434291842E+02  0.13566015744E+03  0.90362069002E+02 0.  0.
          5    1    3    3  502    0 -0.56913131408E+00  0.27088924990E+01  0.41276086102E+02  0.41579438343E+02  0.41800000000E+01 0. -1.
         -5    1    3    3    0  502  0.11837876710E+02  0.48676936018E+02 -0.89103301802E+02  0.10230567050E+03  0.41800000000E+01 0. -1.
        -11    1    4    4    0    0 -0.12188730060E+02 -0.65435616559E+02 -0.22602696640E+02  0.70294145918E+02  0.00000000000E+00 0.  1.
         11    1    4    4    0    0  0.91998466446E+00  0.14049788042E+02 -0.63831595202E+02  0.65366011518E+02  0.00000000000E+00 0. -1.
</event>
<event>
 8    1  0.6787197E-009  0.1571745E+03  0.7561462E-02  0.1191924E+00
         -1   -1    0    0    0  501 -0.00000000000E+00  0.00000000000E+00  0.11248028374E+04  0.11248028374E+04  0.00000000000E+00 0.  1.
          1   -1    0    0  501    0  0.00000000000E+00 -0.00000000000E+00 -0.26916992756E+02  0.26916992756E+02  0.00000000000E+00 0. -1.
         25    2    1    2    0    0 -0.13878472072E+02 -0.12100667696E+03  0.79304311709E+03  0.81203518323E+03  0.12509406615E+03 0.  0.
         23    2    1    2    0    0  0.13878472072E+02  0.12100667696E+03  0.30484272760E+03  0.33968464697E+03  0.87300303323E+02 0.  0.
          5    1    3    3  502    0  0.14799435788E+02  0.20008914456E+02  0.61772146938E+02  0.66728183661E+02  0.41800000000E+01 0.  1.
         -5    1    3    3    0  502 -0.28677907859E+02 -0.14101559142E+03  0.73127097015E+03  0.74530699957E+03  0.41800000000E+01 0.  1.
        -11    1    4    4    0    0  0.45229479742E+02  0.91637537942E+02  0.24956356719E+03  0.26967595048E+03  0.00000000000E+00 0.  1.
         11    1    4    4    0    0 -0.31351007671E+02  0.29369139021E+02  0.55279160404E+02  0.70008696487E+02  0.00000000000E+00 0. -1.
</event>
<event>
 8    1  0.6787197E-009  0.1443680E+03  0.7561462E-02  0.1207569E+00
          1   -1    0    0  501    0  0.00000000000E+00  0.00000000000E+00  0.26550052437E+03  0.26550052437E+03  0.00000000000E+00 0. -1.
         -1   -1    0    0    0  501 -0.00000000000E+00 -0.00000000000E+00 -0.15461572849E+03  0.15461572849E+03  0.00000000000E+00 0.  1.
         25    2    1    2    0    0  0.93946608680E+02  0.10417414038E+03 -0.44780537210E+02  0.19321081155E+03  0.12508758684E+03 0.  0.
         23    2    1    2    0    0 -0.93946608680E+02 -0.10417414038E+03  0.15566533309E+03  0.22690544131E+03  0.87041177397E+02 0.  0.
          5    1    3    3  502    0  0.55586851517E+02  0.72149156716E+02  0.36087767017E+02  0.98057117053E+02  0.41800000000E+01 0.  1.
         -5    1    3    3    0  502  0.38359757163E+02  0.32024983667E+02 -0.80868304227E+02  0.95153694500E+02  0.41800000000E+01 0.  1.
        -11    1    4    4    0    0 -0.70721124318E+02 -0.44941790067E+02  0.35634666672E+02  0.91055320482E+02  0.00000000000E+00 0.  1.
         11    1    4    4    0    0 -0.23225484363E+02 -0.59232350315E+02  0.12003066642E+03  0.13585012083E+03  0.00000000000E+00 0. -1.
</event>
<event>
 8    1  0.6787197E-009  0.9192823E+02  0.7561462E-02  0.1298248E+00
         -3   -1    0    0    0  501 -0.00000000000E+00  0.00000000000E+00  0.82164831635E+02  0.82164831635E+02  0.00000000000E+00 0.  1.
          3   -1    0    0  501    0  0.00000000000E+00 -0.00000000000E+00 -0.18057629692E+03  0.18057629692E+03  0.00000000000E+00 0. -1.
         25    2    1    2    0    0  0.96048892952E+01 -0.49702530577E+02 -0.28067736017E+02  0.13782392369E+03  0.12508013708E+03 0.  0.
         23    2    1    2    0    0 -0.96048892952E+01  0.49702530577E+02 -0.70343729266E+02  0.12491720486E+03  0.89963728135E+02 0.  0.
          5    1    3    3  502    0  0.39675245469E+02 -0.48807103048E+02  0.31865569716E+02  0.70633882410E+02  0.41800000000E+01 0.  1.
         -5    1    3    3    0  502 -0.30070356174E+02 -0.89542752892E+00 -0.59933305733E+02  0.67190041279E+02  0.41800000000E+01 0.  1.
        -11    1    4    4    0    0  0.17640003864E+02 -0.13110827485E+02  0.55852121206E+01  0.22677260154E+02  0.00000000000E+00 0.  1.
         11    1    4    4    0    0 -0.27244893159E+02  0.62813358062E+02 -0.75928941387E+02  0.10223994471E+03  0.00000000000E+00 0. -1.
</event>
<event>
 8    1  0.6787197E-009  0.1088160E+03  0.7561462E-02  0.1262778E+00
          2   -1    0    0  501    0  0.00000000000E+00  0.00000000000E+00  0.72811399685E+02  0.72811399685E+02  0.00000000000E+00 0. -1.
         -2   -1    0    0    0  501 -0.00000000000E+00 -0.00000000000E+00 -0.18552367849E+03  0.18552367849E+03  0.00000000000E+00 0.  1.
         25    2    1    2    0    0  0.61342424701E+01  0.31730320341E+02 -0.93362708129E+02  0.15940746106E+03  0.12509876584E+03 0.  0.
         23    2    1    2    0    0 -0.61342424701E+01 -0.31730320341E+02 -0.19349570681E+02  0.98927617115E+02  0.91475818569E+02 0.  0.
          5    1    3    3  502    0  0.30740292507E+02 -0.40410567723E+02 -0.24208454974E+02  0.56404798194E+02  0.41800000000E+01 0. -1.
         -5    1    3    3    0  502 -0.24606050036E+02  0.72140888064E+02 -0.69154253155E+02  0.10300266287E+03  0.41800000000E+01 0. -1.
        -11    1    4    4    0    0 -0.44630333921E+02 -0.86368189750E+01 -0.27746802779E+02  0.53257360171E+02  0.00000000000E+00 0.  1.
         11    1    4    4    0    0  0.38496091451E+02 -0.23093501366E+02  0.83972320984E+01  0.45670256943E+02  0.00000000000E+00 0. -1.
</event>
<event>
 8    1  0.6787197E-009  0.8828896E+02  0.7561462E-02  0.1307049E+00
         -1   -1    0    0    0  501 -0.00000000000E+00  0.00000000000E+00  0.16415913300E+02  0.16415913300E+02  0.00000000000E+00 0.  1.
          1   -1    0    0  501    0  0.00000000000E+00 -0.00000000000E+00 -0.72210742663E+03  0.72210742663E+03  0.00000000000E+00 0. -1.
         25    2    1    2    0    0  0.10510902264E+01  0.12489582791E+02 -0.45388619824E+03  0.47097507144E+03  0.12509093691E+03 0.  0.
         23    2    1    2    0    0 -0.10510902264E+01 -0.12489582791E+02 -0.25180531509E+03  0.26754826849E+03  0.89549231121E+02 0.  0.
          5    1    3    3  502    0  0.39319724315E+02 -0.17147792114E+02 -0.58752061031E+02  0.72865386638E+02  0.41800000000E+01 0.  1.
         -5    1    3    3    0  502 -0.38268634088E+02  0.29637374905E+02 -0.39513413721E+03  0.39810968480E+03  0.41800000000E+01 0.  1.
        -11    1    4    4    0    0  0.33060893859E+02  0.19287206599E+02 -0.69138864333E+02  0.79026587946E+02  0.00000000000E+00 0.  1.
         11    1    4    4    0    0 -0.34111984085E+02 -0.31776789391E+02 -0.18266645076E+03  0.18852168054E+03  0.00000000000E+00 0. -1.
</event>
<event>
 8    1  0.6787197E-009  0.1255714E+03  0.7561462E-02  0.1234179E+00
          3   -1    0    0  501    0  0.00000000000E+00  0.00000000000E+00  0.16756670810E+03  0.16756670810E+03  0.00000000000E+00 0. -1.
         -3   -1    0    0    0  501 -0.00000000000E+00 -0.00000000000E+00 -0.19511543520E+03  0.19511543520E+03  0.00000000000E+00 0.  1.
         25    2    1    2    0    0 -0.74845641655E+02 -0.21046492675E+01  0.11054559655E+03  0.18295890602E+03  0.12508929912E+03 0.  0.
         23    2    1    2    0    0  0.74845641655E+02  0.21046492675E+01 -0.13809432366E+03  0.17972323728E+03  0.87316093406E+02 0.  0.
          5    1    3    3  502    0 -0.27693190026E+02 -0.62125334194E+02  0.63839371605E+02  0.93377768711E+02  0.41800000000E+01 0. -1.
         -5    1    3    3    0  502 -0.47152451629E+02  0.60020684927E+02  0.46706224944E+02  0.89581137313E+02  0.41800000000E+01 0. -1.
        -11    1    4    4    0    0 -0.15826682228E+02  0.12861264570E+01 -0.17433652284E+01  0.15974270372E+02  0.00000000000E+00 0. -1.
         11    1    4    4    0    0  0.90672323883E+02  0.81852281055E+00 -0.13635095843E+03  0.16374896690E+03  0.00000000000E+00 0.  1.
</event>
<event>
 8    1  0.6787197E-009  0.1161291E+03  0.7561462E-02  0.1249623E+00
          2   -1    0    0  501    0  0.00000000000E+00  0.00000000000E+00  0.12546766398E+03  0.12546766398E+03  0.00000000000E+00 0. -1.
         -2   -1    0    0    0  501 -0.00000000000E+00 -0.00000000000E+00 -0.11018066999E+03  0.11018066999E+03  0.00000000000E+00 0.  1.
         25    2    1    2    0    0 -0.31960566047E+02 -0.45210255453E+02 -0.33342519886E+01  0.13683221937E+03  0.12508594661E+03 0.  0.
         23    2    1    2    0    0  0.31960566047E+02  0.45210255453E+02  0.18621245987E+02  0.98816114603E+02  0.79702124959E+02 0.  0.
          5    1    3    3  502    0 -0.74956398889E+02 -0.32782979924E+01  0.80086246078E+01  0.75569963876E+02  0.41800000000E+01 0. -1.
         -5    1    3    3    0  502  0.42995832842E+02 -0.41931957460E+02 -0.11342876596E+02  0.61262255490E+02  0.41800000000E+01 0. -1.
        -11    1    4    4    0    0 -0.88548345100E+01  0.54364967370E+02  0.13159824817E+02  0.56631605668E+02  0.00000000000E+00 0.  1.
         11    1    4    4    0    0  0.40815400557E+02 -0.91547119172E+01  0.54614211697E+01  0.42184508935E+02  0.00000000000E+00 0. -1.
</event>
<event>
 8    1  0.6787197E-009  0.1029603E+03  0.7561462E-02  0.1274191E+00
         -4   -1    0    0    0  501 -0.00000000000E+00  0.00000000000E+00  0.20103458469E+02  0.20103458469E+02  0.00000000000E+00 0.  1.
          4   -1    0    0  501    0  0.00000000000E+00 -0.00000000000E+00 -0.85525387914E+03  0.85525387914E+03  0.00000000000E+00 0. -1.
         25    2    1    2    0    0  0.26191738383E+02 -0.18504526709E+02 -0.68562899626E+03  0.69768379222E+03  0.12508848370E+03 0.  0.
         23    2    1    2    0    0 -0.26191738383E+02  0.18504526709E+02 -0.14952142441E+03  0.17767354538E+03  0.90458872990E+02 0.  0.
          5    1    3    3  502    0  0.49800389982E+02  0.40952856906E+02 -0.37200710738E+03  0.37757645010E+03  0.41800000000E+01 0.  1.
         -5    1    3    3    0  502 -0.23608651599E+02 -0.59457383615E+02 -0.31362188888E+03  0.32010734212E+03  0.41800000000E+01 0.  1.
        -11    1    4    4    0    0  0.95334106751E+01 -0.21527802736E+02 -0.57783653997E+01  0.24242972517E+02  0.00000000000E+00 0. -1.
         11    1    4    4    0    0 -0.35725149058E+02  0.40032329445E+02 -0.14374305901E+03  0.15343057286E+03  0.00000000000E+00 0.  1.
</event>
<event>
 8    1  0.6787197E-009  0.3343350E+03  0.7561462E-02  0.1069235E+00
         -2   -1    0    0    0  501 -0.00000000000E+00  0.00000000000E+00  0.19688231110E+03  0.19688231110E+03  0.00000000000E+00 0.  1.
          2   -1    0    0  501    0  0.00000000000E+00 -0.00000000000E+00 -0.63992927786E+03  0.63992927786E+03  0.00000000000E+00 0. -1.
         25    2    1    2    0    0 -0.30862481265E+03  0.12604409557E+03 -0.29171384410E+03  0.46030505325E+03  0.12508951274E+03 0.  0.
         23    2    1    2    0    0  0.30862481265E+03 -0.12604409557E+03 -0.15133312266E+03  0.37650653570E+03  0.87858229014E+02 0.  0.
          5    1    3    3  502    0 -0.19427092976E+02  0.16269631697E+02 -0.83606225637E+02  0.87461912981E+02  0.41800000000E+01 0.  1.
         -5    1    3    3    0  502 -0.28919771967E+03  0.10977446387E+03 -0.20810761847E+03  0.37284314027E+03  0.41800000000E+01 0.  1.
        -11    1    4    4    0    0  0.18611323354E+03 -0.82904798200E+02 -0.13769182610E+03  0.24590725943E+03  0.00000000000E+00 0. -1.
         11    1    4    4    0    0  0.12251157911E+03 -0.43139297365E+02 -0.13641296556E+02  0.13059927628E+03  0.00000000000E+00 0.  1.
</event>
<event>
 8    1  0.6787197E-009  0.1113884E+03  0.7561462E-02  0.1258020E+00
         -2   -1    0    0    0  501 -0.00000000000E+00  0.00000000000E+00  0.33407985380E+02  0.33407985380E+02  0.00000000000E+00 0. -1.
          2   -1    0    0  501    0  0.00000000000E+00 -0.00000000000E+00 -0.42781320385E+03  0.42781320385E+03  0.00000000000E+00 0.  1.
         25    2    1    2    0    0 -0.46569724532E+02  0.16135610110E+02 -0.20268409574E+03  0.24321983819E+03  0.12508377138E+03 0.  0.
         23    2    1    2    0    0  0.46569724532E+02 -0.16135610110E+02 -0.19172112272E+03  0.21800135104E+03  0.91315403959E+02 0.  0.
          5    1    3    3  502    0  0.33460392767E+02 -0.14020422403E+02 -0.20409287335E+02  0.41835171064E+02  0.41800000000E+01 0.  1.
         -5    1    3    3    0  502 -0.80030117299E+02  0.30156032513E+02 -0.18227480841E+03  0.20138466712E+03  0.41800000000E+01 0.  1.
        -11    1    4    4    0    0 -0.17137079432E+02 -0.30811951589E+02 -0.94321657486E+02  0.10069573438E+03  0.00000000000E+00 0.  1.
         11    1    4    4    0    0  0.63706803964E+02  0.14676341479E+02 -0.97399465238E+02  0.11730561666E+03  0.00000000000E+00 0. -1.
</event>
<event>
 8    1  0.6787197E-009  0.2414209E+03  0.7561462E-02  0.1118850E+00
         -3   -1    0    0    0  501 -0.00000000000E+00  0.00000000000E+00  0.27797586832E+03  0.27797586832E+03  0.00000000000E+00 0.  1.
          3   -1    0    0  501    0  0.00000000000E+00 -0.00000000000E+00 -0.23785147633E+03  0.23785147633E+03  0.00000000000E+00 0. -1.
         25    2    1    2    0    0  0.34562142812E+02  0.22753391289E+03 -0.14917597527E+02  0.26236290429E+03  0.12508211543E+03 0.  0.
         23    2    1    2    0    0 -0.34562142812E+02 -0.22753391289E+03  0.55041989519E+02  0.25346444036E+03  0.90820585155E+02 0.  0.
          5    1    3    3  502    0 -0.10573244128E+02  0.19336211376E+03  0.21551813437E+02  0.19489138922E+03  0.41800000000E+01 0.  1.
         -5    1    3    3    0  502  0.45135386940E+02  0.34171799129E+02 -0.36469410964E+02  0.67471515071E+02  0.41800000000E+01 0.  1.
        -11    1    4    4    0    0 -0.17909765395E+02 -0.19510217263E+03  0.77445600568E+02  0.21067377272E+03  0.00000000000E+00 0.  1.
         11    1    4    4    0    0 -0.16652377417E+02 -0.32431740255E+02 -0.22403611050E+02  0.42790667647E+02  0.00000000000E+00 0. -1.
</event>
<event>
 8    1  0.6787197E-009  0.1208567E+03  0.7561462E-02  0.1241690E+00
         -1   -1    0    0    0  501 -0.00000000000E+00  0.00000000000E+00  0.21980286598E+02  0.21980286598E+02  0.00000000000E+00 0.  1.
          1   -1    0    0  501    0  0.00000000000E+00 -0.00000000000E+00 -0.85710213438E+03  0.85710213438E+03  0.00000000000E+00 0. -1.
         25    2    1    2    0    0 -0.47424842498E+02  0.49233562750E+02 -0.61148788735E+03  0.62788193534E+03  0.12508088965E+03 0.  0.
         23    2    1    2    0    0  0.47424842498E+02 -0.49233562750E+02 -0.22363396042E+03  0.25120048564E+03  0.91741355682E+02 0.  0.
          5    1    3    3  502    0 -0.16888959927E+02  0.85806451412E+02 -0.29230193635E+03  0.30513255884E+03  0.41800000000E+01 0.  1.
         -5    1    3    3    0  502 -0.30535882571E+02 -0.36572888662E+02 -0.31918595101E+03  0.32274937650E+03  0.41800000000E+01 0.  1.
        -11    1    4    4    0    0  0.57449248539E+02 -0.14062334604E+01 -0.16585099996E+03  0.17552477842E+03  0.00000000000E+00 0. -1.
         11    1    4    4    0    0 -0.10024406041E+02 -0.47827329290E+02 -0.57782960465E+02  0.75675707222E+02  0.00000000000E+00 0.  1.
</event>
<event>
 8    1  0.6787197E-009  0.1220175E+03  0.7561462E-02  0.1239805E+00
          1   -1    0    0  501    0  0.00000000000E+00  0.00000000000E+00  0.77276984215E+03  0.77276984215E+03  0.00000000000E+00 0. -1.
         -1   -1    0    0    0  501 -0.00000000000E+00 -0.00000000000E+00 -0.31256582885E+02  0.31256582885E+02  0.00000000000E+00 0.  1.
         25    2    1    2    0    0 -0.62680669929E+02  0.84991397727E+02  0.48979698203E+03  0.51643064424E+03  0.12508845922E+03 0.  0.
         23    2    1    2    0    0  0.62680669929E+02 -0.84991397727E+02  0.25171627723E+03  0.28759578080E+03  0.90541950710E+02 0.  0.
          5    1    3    3  502    0 -0.50538432842E+02  0.67662908331E+02  0.12451220150E+03  0.15050967770E+03  0.41800000000E+01 0. -1.
         -5    1    3    3    0  502 -0.12142237087E+02  0.17328489396E+02  0.36528478053E+03  0.36592096654E+03  0.41800000000E+01 0. -1.
        -11    1    4    4    0    0  0.77837676309E+02 -0.34406084950E+02  0.13653199356E+03  0.16088339815E+03  0.00000000000E+00 0.  1.
         11    1    4    4    0    0 -0.15157006381E+02 -0.50585312777E+02  0.11518428367E+03  0.12671238264E+03  0.00000000000E+00 0. -1.
</event>
<event>
 8    1  0.6787197E-009  0.1388568E+03  0.7561462E-02  0.1214875E+00
          2   -1    0    0  501    0  0.00000000000E+00  0.00000000000E+00  0.65779217025E+02  0.65779217025E+02  0.00000000000E+00 0. -1.
         -2   -1    0    0    0  501 -0.00000000000E+00 -0.00000000000E+00 -0.35246781316E+03  0.35246781316E+03  0.00000000000E+00 0.  1.
         25    2    1    2    0    0 -0.10851468180E+03 -0.60780791437E-01 -0.14305164325E+03  0.21883132343E+03  0.12509170883E+03 0.  0.
         23    2    1    2    0    0  0.10851468180E+03  0.60780791437E-01 -0.14363695289E+03  0.19941570676E+03  0.85788169376E+02 0.  0.
          5    1    3    3  502    0 -0.12894239657E+03  0.12719174304E+02 -0.82842588800E+02  0.15384500625E+03  0.41800000000E+01 0. -1.
         -5    1    3    3    0  502  0.20427714772E+02 -0.12779955095E+02 -0.60209054450E+02  0.64986317182E+02  0.41800000000E+01 0. -1.
        -11    1    4    4    0    0  0.58906001892E+02  0.29558502190E+02 -0.12027969751E+03  0.13715257104E+03  0.00000000000E+00 0.  1.
         11    1    4    4    0    0  0.49608679910E+02 -0.29497721398E+02 -0.23357255380E+02  0.62263135714E+02  0.00000000000E+00 0. -1.
</event>
<event>
 8    1  0.6787197E-009  0.1186946E+03  0.7561462E-02  0.1245266E+00
         -2   -1    0    0    0  501 -0.00000000000E+00  0.00000000000E+00  0.77948310703E+02  0.77948310703E+02  0.00000000000E+00 0.  1.
          2   -1    0    0  501    0  0.00000000000E+00 -0.00000000000E+00 -0.30955029308E+03  0.30955029308E+03  0.00000000000E+00 0. -1.
         25    2    1    2    0    0  0.69906500963E+02 -0.65946886619E+01 -0.17940938003E+02  0.14456723342E+03  0.12508956362E+03 0.  0.
         23    2    1    2    0    0 -0.69906500963E+02  0.65946886619E+01 -0.21366104437E+03  0.24293137036E+03  0.91837900821E+02 0.  0.
          5    1    3    3  502    0  0.94261182506E+02  0.76438542068E+01  0.20346999683E+02  0.96824954587E+02  0.41800000000E+01 0. -1.
         -5    1    3    3    0  502 -0.24354681543E+02 -0.14238542869E+02 -0.38287937686E+02  0.47742278835E+02  0.41800000000E+01 0. -1.
        -11    1    4    4    0    0 -0.91222659040E+02 -0.19456286176E+01 -0.15396398857E+03  0.17897002198E+03  0.00000000000E+00 0.  1.
         11    1    4    4    0    0  0.21316158077E+02  0.85403172795E+01 -0.59697055807E+02  0.63961348378E+02  0.00000000000E+00 0. -1.
</event>
<event>
 8    1  0.6787197E-009  0.1072914E+03  0.7561462E-02  0.1265670E+00
          1   -1    0    0  501    0  0.00000000000E+00  0.00000000000E+00  0.93330342099E+02  0.93330342099E+02  0.00000000000E+00 0. -1.
         -1   -1    0    0    0  501 -0.00000000000E+00 -0.00000000000E+00 -0.15364108014E+03  0.15364108014E+03  0.00000000000E+00 0.  1.
         25    2    1    2    0    0 -0.47206862123E+02 -0.15791277676E+02 -0.25429383947E+02  0.13701259248E+03  0.12509174493E+03 0.  0.
         23    2    1    2    0    0  0.47206862123E+02  0.15791277676E+02 -0.34881354093E+02  0.10995882976E+03  0.91631779944E+02 0.  0.
          5    1    3    3  502    0 -0.47937821197E+02 -0.54234248848E+02 -0.52747418000E+02  0.89661312476E+02  0.41800000000E+01 0.  1.
         -5    1    3    3    0  502  0.73095907405E+00  0.38442971172E+02  0.27318034053E+02  0.47351280006E+02  0.41800000000E+01 0.  1.
        -11    1    4    4    0    0  0.12658275209E+01 -0.34938642248E+02 -0.18629224986E+02  0.39615136817E+02  0.00000000000E+00 0. -1.
         11    1    4    4    0    0  0.45941034602E+02  0.50729919923E+02 -0.16252129107E+02  0.70343692939E+02  0.00000000000E+00 0.  1.
</event>
<event>
 8    1  0.6787197E-009  0.1678951E+03  0.7561462E-02  0.1180061E+00
          2   -1    0    0  501    0  0.00000000000E+00  0.00000000000E+00  0.73745366220E+03  0.73745366220E+03  0.00000000000E+00 0. -1.
         -2   -1    0    0    0  501 -0.00000000000E+00 -0.00000000000E+00 -0.63778600505E+02  0.63778600505E+02  0.00000000000E+00 0.  1.
         25    2    1    2    0    0  0.65122480104E+02  0.14080565851E+03  0.15522641286E+03  0.25260526728E+03  0.12508801271E+03 0.  0.
         23    2    1    2    0    0 -0.65122480104E+02 -0.14080565851E+03  0.51844864884E+03  0.54862699543E+03  0.90196495203E+02 0.  0.
          5    1    3    3  502    0  0.18680796234E+02  0.10541956909E+03  0.25283355785E+02  0.11008623063E+03  0.41800000000E+01 0. -1.
         -5    1    3    3    0  502  0.46441683871E+02  0.35386089428E+02  0.12994305707E+03  0.14251903665E+03  0.41800000000E+01 0. -1.
        -11    1    4    4    0    0 -0.76193004729E+02 -0.89112086059E+02  0.26585052990E+03  0.29055609114E+03  0.00000000000E+00 0.  1.
         11    1    4    4    0    0  0.11070524625E+02 -0.51693572455E+02  0.25259811894E+03  0.25807090429E+03  0.00000000000E+00 0. -1.
</event>
<event>
 8    1  0.6787197E-009  0.1173552E+03  0.7561462E-02  0.1247525E+00
          1   -1    0    0  501    0  0.00000000000E+00  0.00000000000E+00  0.33464894328E+02  0.33464894328E+02  0.00000000000E+00 0. -1.
         -1   -1    0    0    0  501 -0.00000000000E+00 -0.00000000000E+00 -0.86724167871E+03  0.86724167871E+03  0.00000000000E+00 0.  1.
         25    2    1    2    0    0 -0.88069851788E+02  0.38792332632E+02 -0.66296387627E+03  0.68149220175E+03  0.12509746574E+03 0.  0.
         23    2    1    2    0    0  0.88069851788E+02 -0.38792332632E+02 -0.17081290811E+03  0.21921437129E+03  0.98065014860E+02 0.  0.
          5    1    3    3  502    0 -0.71490402885E+02  0.26937955262E+02 -0.65461939361E+03  0.65907552983E+03  0.41800000000E+01 0. -1.
         -5    1    3    3    0  502 -0.16579448903E+02  0.11854377370E+02 -0.83444826669E+01  0.22416671915E+02  0.41800000000E+01 0. -1.
        -11    1    4    4    0    0  0.24788065826E+02  0.33270229512E+02 -0.52301266037E+02  0.66759110302E+02  0.00000000000E+00 0. -1.
         11    1    4    4    0    0  0.63281785961E+02 -0.72062562144E+02 -0.11851164207E+03  0.15245526099E+03  0.00000000000E+00 0.  1.
</event>
<event>
 8    1  0.6787197E-009  0.3185755E+03  0.7561462E-02  0.1076307E+00
          1   -1    0    0  501    0  0.00000000000E+00  0.00000000000E+00  0.24663116680E+03  0.24663116680E+03  0.00000000000E+00 0. -1.
         -1   -1    0    0    0  501 -0.00000000000E+00 -0.00000000000E+00 -0.41385376222E+03  0.41385376222E+03  0.00000000000E+00 0.  1.
         25    2    1    2    0    0  0.28385790748E+03  0.94979259409E+02 -0.10878195900E+03  0.34216686043E+03  0.12509306304E+03 0.  0.
         23    2    1    2    0    0 -0.28385790748E+03 -0.94979259409E+02 -0.58440636419E+02  0.31831806859E+03  0.91185050567E+02 0.  0.
          5    1    3    3  502    0  0.87435484640E+02 -0.28706296775E+02 -0.26485099016E+02  0.95853786147E+02  0.41800000000E+01 0.  1.
         -5    1    3    3    0  502  0.19642242284E+03  0.12368555618E+03 -0.82296859982E+02  0.24631307429E+03  0.41800000000E+01 0.  1.
        -11    1    4    4    0    0 -0.24578544602E+03 -0.11327318541E+03 -0.52210079534E+02  0.27562146581E+03  0.00000000000E+00 0.  1.
         11    1    4    4    0    0 -0.38072461455E+02  0.18293925998E+02 -0.62305568848E+01  0.42696602777E+02  0.00000000000E+00 0. -1.
</event>
<event>
 8    1  0.6787197E-009  0.1111325E+03  0.7561462E-02  0.1258487E+00
         -1   -1    0    0    0  501 -0.00000000000E+00  0.00000000000E+00  0.46068964048E+02  0.46068964048E+02  0.00000000000E+00 0.  1.
          1   -1    0    0  501    0  0.00000000000E+00 -0.00000000000E+00 -0.31747816801E+03  0.31747816801E+03  0.00000000000E+00 0. -1.
         25    2    1    2    0    0 -0.16900047379E+02 -0.24206502622E+02 -0.90233554369E+02  0.15703742919E+03  0.12508834264E+03 0.  0.
         23    2    1    2    0    0  0.16900047379E+02  0.24206502622E+02 -0.18117564959E+03  0.20650970286E+03  0.94604836032E+02 0.  0.
          5    1    3    3  502    0  0.10221149956E+02 -0.71280363101E+02 -0.37873604760E+02  0.81469285057E+02  0.41800000000E+01 0.  1.
         -5    1    3    3    0  502 -0.27121197334E+02  0.47073860479E+02 -0.52359949608E+02  0.75568144137E+02  0.41800000000E+01 0.  1.
        -11    1    4    4    0    0 -0.67545290808E+01  0.55783910211E+02 -0.13200241516E+03  0.14346465039E+03  0.00000000000E+00 0. -1.
         11    1    4    4    0    0  0.23654576460E+02 -0.31577407589E+02 -0.49173234431E+02  0.63045052478E+02  0.00000000000E+00 0.  1.
</event>
<event>
 8    1  0.6787197E-009  0.1363407E+03  0.7561462E-02  0.1218339E+00
         -2   -1    0    0    0  501 -0.00000000000E+00  0.00000000000E+00  0.30044363759E+03  0.30044363759E+03  0.00000000000E+00 0. -1.
          2   -1    0    0  501    0  0.00000000000E+00 -0.00000000000E+00 -0.14569965638E+03  0.14569965638E+03  0.00000000000E+00 0.  1.
         25    2    1    2    0    0  0.45969997531E+02 -0.12776451531E+03  0.20742190413E+03  0.27768681381E+03  0.12509639566E+03 0.  0.
         23    2    1    2    0    0 -0.45969997531E+02  0.12776451531E+03 -0.52677922919E+02  0.16845648016E+03  0.84649926753E+02 0.  0.
          5    1    3    3  502    0  0.30096710410E+02 -0.64748782505E+02  0.13060275393E+02  0.72706670992E+02  0.41800000000E+01 0.  1.
         -5    1    3    3    0  502  0.15873287121E+02 -0.63015732808E+02  0.19436162874E+03  0.20498014282E+03  0.41800000000E+01 0.  1.
        -11    1    4    4    0    0 -0.26308591913E+02  0.84844009873E+02 -0.74980253398E+02  0.11624408122E+03  0.00000000000E+00 0.  1.
         11    1    4    4    0    0 -0.19661405618E+02  0.42920505440E+02  0.22302330479E+02  0.52212398939E+02  0.00000000000E+00 0. -1.
</event>
<event>
 8    1  0.6787197E-009  0.1025977E+03  0.7561462E-02  0.1274926E+00
         -2   -1    0    0    0  501 -0.00000000000E+00  0.00000000000E+00  0.11093675008E+02  0.11093675008E+02  0.00000000000E+00 0.  1.
          2   -1    0    0  501    0  0.00000000000E+00 -0.00000000000E+00 -0.11720225988E+04  0.11720225988E+04  0.00000000000E+00 0. -1.
         25    2    1    2    0    0 -0.35419161871E+02  0.24157389387E+01 -0.62260980753E+03  0.63604280242E+03  0.12508845371E+03 0.  0.
         23    2    1    2    0    0  0.35419161871E+02 -0.24157389387E+01 -0.53831911624E+03  0.54707347137E+03  0.90783034461E+02 0.  0.
          5    1    3    3  502    0  0.35890019937E+02  0.43216856030E+01 -0.41274922563E+03  0.41435029402E+03  0.41800000000E+01 0. -1.
         -5    1    3    3    0  502 -0.71309181808E+02 -0.19059466642E+01 -0.20986058190E+03  0.22169250839E+03  0.41800000000E+01 0. -1.
        -11    1    4    4    0    0  0.24965068944E+02  0.43555751768E+02 -0.26350819924E+03  0.26824788768E+03  0.00000000000E+00 0.  1.
         11    1    4    4    0    0  0.10454092927E+02 -0.45971490706E+02 -0.27481091700E+03  0.27882558369E+03  0.00000000000E+00 0. -1.
</event>
<event>
 8    1  0.6787197E-009  0.1498643E+03  0.7561462E-02  0.1200640E+00
          2   -1    0    0  501    0  0.00000000000E+00  0.00000000000E+00  0.87094374820E+02  0.87094374820E+02  0.00000000000E+00 0. -1.
         -2   -1    0    0    0  501 -0.00000000000E+00 -0.00000000000E+00 -0.29229468138E+03  0.29229468138E+03  0.00000000000E+00 0.  1.
         25    2    1    2    0    0 -0.82464810888E+02  0.81265723385E+02 -0.10076346188E+03  0.19800299889E+03  0.12508936600E+03 0.  0.
         23    2    1    2    0    0  0.82464810888E+02 -0.81265723385E+02 -0.10443684468E+03  0.18138605731E+03  0.92678392460E+02 0.  0.
          5    1    3    3  502    0 -0.91391844770E+02  0.13046932264E+02 -0.25331345449E+02  0.95821924392E+02  0.41800000000E+01 0. -1.
         -5    1    3    3    0  502  0.89270338816E+01  0.68218791121E+02 -0.75432116436E+02  0.10218107450E+03  0.41800000000E+01 0. -1.
        -11    1    4    4    0    0  0.10428433282E+01  0.13447444391E+02  0.59074383700E+01  0.14724778808E+02  0.00000000000E+00 0. -1.
         11    1    4    4    0    0  0.81421967560E+02 -0.94713167775E+02 -0.11034428305E+03  0.16666127851E+03  0.00000000000E+00 0.  1.
</event>
<event>
 8    1  0.6787197E-009  0.2614859E+03  0.7561462E-02  0.1106254E+00
          2   -1    0    0  501    0  0.00000000000E+00  0.00000000000E+00  0.12688728493E+03  0.12688728493E+03  0.00000000000E+00 0.  1.
         -2   -1    0    0    0  501 -0.00000000000E+00 -0.00000000000E+00 -0.58738140103E+03  0.58738140103E+03  0.00000000000E+00 0. -1.
         25    2    1    2    0    0  0.19384012843E+03  0.14772428707E+03 -0.16155353226E+03  0.31802969285E+03  0.12508749485E+03 0.  0.
         23    2    1    2    0    0 -0.19384012843E+03 -0.14772428707E+03 -0.29894058383E+03  0.39623899311E+03  0.90793207991E+02 0.  0.
          5    1    3    3  502    0  0.68188646895E+02 -0.95954145937E+01 -0.19845170067E+02  0.71784864154E+02  0.41800000000E+01 0. -1.
         -5    1    3    3    0  502  0.12565148154E+03  0.15731970166E+03 -0.14170836220E+03  0.24624482870E+03  0.41800000000E+01 0. -1.
        -11    1    4    4    0    0 -0.18335730308E+03 -0.11083838261E+03 -0.28239736303E+03  0.35447611810E+03  0.00000000000E+00 0.  1.
         11    1    4    4    0    0 -0.10482825357E+02 -0.36885904456E+02 -0.16543220798E+02  0.41762875013E+02  0.00000000000E+00 0. -1.
</event>
<event>
 8    1  0.6787197E-009  0.1754722E+03  0.7561462E-02  0.1172258E+00
          2   -1    0    0  501    0  0.00000000000E+00  0.00000000000E+00  0.12288033551E+03  0.12288033551E+03  0.00000000000E+00 0. -1.
         -2   -1    0    0    0  501 -0.00000000000E+00 -0.00000000000E+00 -0.27665019371E+03  0.27665019371E+03  0.00000000000E+00 0.  1.
         25    2    1    2    0    0 -0.70909039450E+02 -0.12657311993E+03 -0.44817138803E+02  0.19673760692E+03  0.12509301931E+03 0.  0.
         23    2    1    2    0    0  0.70909039450E+02  0.12657311993E+03 -0.10895271940E+03  0.20279292230E+03  0.90583815920E+02 0.  0.
          5    1    3    3  502    0 -0.98333654721E+02 -0.75930350417E+02 -0.11008155702E+01  0.12431254949E+03  0.41800000000E+01 0.  1.
         -5    1    3    3    0  502  0.27424615270E+02 -0.50642769513E+02 -0.43716323233E+02  0.72425057430E+02  0.41800000000E+01 0.  1.
        -11    1    4    4    0    0  0.74388876795E+02  0.44369273955E+02 -0.39836842899E+02  0.95337880794E+02  0.00000000000E+00 0.  1.
         11    1    4    4    0    0 -0.34798373448E+01  0.82203845976E+02 -0.69115876502E+02  0.10745504151E+03  0.00000000000E+00 0. -1.
</event>
<event>
 8    1  0.6787197E-009  0.1286049E+03  0.7561462E-02  0.1229541E+00
         -1   -1    0    0    0  501 -0.00000000000E+00  0.00000000000E+00  0.12117730496E+04  0.12117730496E+04  0.00000000000E+00 0.  1.
          1   -1    0    0  501    0  0.00000000000E+00 -0.00000000000E+00 -0.13776154950E+02  0.13776154950E+02  0.00000000000E+00 0. -1.
         25    2    1    2    0    0  0.45428911282E+02 -0.51675307434E+02  0.62926316348E+03  0.64525109317E+03  0.12507086369E+03 0.  0.
         23    2    1    2    0    0 -0.45428911282E+02  0.51675307434E+02  0.56873373116E+03  0.58029811137E+03  0.92486311003E+02 0.  0.
          5    1    3    3  502    0  0.41210731477E+02 -0.92203908133E+02  0.41743752078E+03  0.42950138675E+03  0.41800000000E+01 0. -1.
         -5    1    3    3    0  502  0.42181798055E+01  0.40528600699E+02  0.21182564270E+03  0.21574970642E+03  0.41800000000E+01 0. -1.
        -11    1    4    4    0    0  0.13312044309E+02  0.54751044192E+02  0.26586795242E+03  0.27177316919E+03  0.00000000000E+00 0.  1.
         11    1    4    4    0    0 -0.58740955591E+02 -0.30757367579E+01  0.30286577873E+03  0.30852494218E+03  0.00000000000E+00 0. -1.
</event>
<event>
 8    1  0.6787197E-009  0.9185493E+02  0.7561462E-02  0.1298421E+00
         -1   -1    0    0    0  501 -0.00000000000E+00  0.00000000000E+00  0.12764391985E+02  0.12764391985E+02  0.00000000000E+00 0.  1.
          1   -1    0    0  501    0  0.00000000000E+00 -0.00000000000E+00 -0.15346165384E+04  0.15346165384E+04  0.00000000000E+00 0. -1.
         25    2    1    2    0    0  0.57102267094E+02  0.47965826697E+02 -0.10763346222E+04  0.10861424603E+04  0.12509130924E+03 0.  0.
         23    2    1    2    0    0 -0.57102267094E+02 -0.47965826697E+02 -0.44551752418E+03  0.46123847007E+03  0.93239865291E+02 0.  0.
          5    1    3    3  502    0  0.40160727506E+02  0.44398534301E+02 -0.18217378898E+03  0.19180426396E+03  0.41800000000E+01 0.  1.
         -5    1    3    3    0  502  0.16941539588E+02  0.35672923957E+01 -0.89416083322E+03  0.89433819633E+03  0.41800000000E+01 0.  1.
        -11    1    4    4    0    0 -0.72221330795E+02 -0.21409946556E+02 -0.39561751659E+03  0.40272512445E+03  0.00000000000E+00 0. -1.
         11    1    4    4    0    0  0.15119063701E+02 -0.26555880141E+02 -0.49900007591E+02  0.58513345613E+02  0.00000000000E+00 0.  1.
</event>
<event>
 8    1  0.6787197E-009  0.1796045E+03  0.7561462E-02  0.1168186E+00
         -1   -1    0    0    0  501 -0.00000000000E+00  0.00000000000E+00  0.80081648239E+02  0.80081648239E+02  0.00000000000E+00 0.  1.
          1   -1    0    0  501    0  0.00000000000E+00 -0.00000000000E+00 -0.46433552125E+03  0.46433552125E+03  0.00000000000E+00 0. -1.
         25    2    1    2    0    0 -0.13488107155E+03  0.84280601693E+02 -0.20086335710E+03  0.28511630068E+03  0.12509633648E+03 0.  0.
         23    2    1    2    0    0  0.13488107155E+03 -0.84280601693E+02 -0.18339051590E+03  0.25930086881E+03  0.91152267972E+02 0.  0.
          5    1    3    3  502    0 -0.33507421430E+02  0.70719154313E+02 -0.15345767128E+03  0.17230982373E+03  0.41800000000E+01 0. -1.
         -5    1    3    3    0  502 -0.10137365012E+03  0.13561447380E+02 -0.47405685822E+02  0.11280647695E+03  0.41800000000E+01 0. -1.
        -11    1    4    4    0    0  0.13757062461E+01  0.13138052536E+02 -0.11174262480E+01  0.13257059762E+02  0.00000000000E+00 0.  1.
         11    1    4    4    0    0  0.13350536531E+03 -0.97418654229E+02 -0.18227308966E+03  0.24604380905E+03  0.00000000000E+00 0. -1.
</event>
<event>
 8    1  0.6787197E-009  0.1733781E+03  0.7561462E-02  0.1174370E+00
          2   -1    0    0  501    0  0.00000000000E+00  0.00000000000E+00  0.52734542262E+03  0.52734542262E+03  0.00000000000E+00 0.  1.
         -2   -1    0    0    0  501 -0.00000000000E+00 -0.00000000000E+00 -0.72969358165E+02  0.72969358165E+02  0.00000000000E+00 0. -1.
         25    2    1    2    0    0  0.69372250542E+02 -0.14912416242E+03  0.23669846946E+03  0.31420198811E+03  0.12508476695E+03 0.  0.
         23    2    1    2    0    0 -0.69372250542E+02  0.14912416242E+03  0.21767759500E+03  0.28611279268E+03  0.86176967970E+02 0.  0.
          5    1    3    3  502    0 -0.22739105887E+01 -0.76423139048E+02  0.18390663854E+03  0.19921041878E+03  0.41800000000E+01 0. -1.
         -5    1    3    3    0  502  0.71646161130E+02 -0.72701023372E+02  0.52791830913E+02  0.11499156932E+03  0.41800000000E+01 0. -1.
        -11    1    4    4    0    0 -0.30973397128E+02  0.31010099760E+02  0.12108687448E+03  0.12877503170E+03  0.00000000000E+00 0.  1.
         11    1    4    4    0    0 -0.38398853414E+02  0.11811406266E+03  0.96590720519E+02  0.15733776099E+03  0.00000000000E+00 0. -1.
</event>
<event>
 8    1  0.6787197E-009  0.1116070E+03  0.7561462E-02  0.1257623E+00
          2   -1    0    0  501    0  0.00000000000E+00  0.00000000000E+00  0.39212375520E+03  0.39212375520E+03  0.00000000000E+00 0. -1.
         -2   -1    0    0    0  501 -0.00000000000E+00 -0.00000000000E+00 -0.34141892347E+02  0.34141892347E+02  0.00000000000E+00 0.  1.
         25    2    1    2    0    0 -0.29815288249E+02  0.20443094704E+02  0.15329320021E+03  0.20113244955E+03  0.12509430641E+03 0.  0.
         23    2    1    2    0    0  0.29815288249E+02 -0.20443094704E+02  0.20468866264E+03  0.22513319800E+03  0.86490674012E+02 0.  0.
          5    1    3    3  502    0 -0.71251487070E+02  0.41824956817E+02  0.10748765952E+03  0.13563617058E+03  0.41800000000E+01 0. -1.
         -5    1    3    3    0  502  0.41436198821E+02 -0.21381862113E+02  0.45805540693E+02  0.65496278966E+02  0.41800000000E+01 0. -1.
        -11    1    4    4    0    0 -0.19892939837E+02 -0.36387757370E+02  0.86364793581E+02  0.95805404399E+02  0.00000000000E+00 0.  1.
         11    1    4    4    0    0  0.49708228086E+02  0.15944662667E+02  0.11832386906E+03  0.12932779360E+03  0.00000000000E+00 0. -1.
</event>
<event>
 8    1  0.6787197E-009  0.1577265E+03  0.7561462E-02  0.1191288E+00
          2   -1    0    0  501    0  0.00000000000E+00  0.00000000000E+00  0.87528549752E+03  0.87528549752E+03  0.00000000000E+00 0.  1.
         -2   -1    0    0    0  501 -0.00000000000E+00 -0.00000000000E+00 -0.35964025371E+02  0.35964025371E+02  0.00000000000E+00 0. -1.
         25    2    1    2    0    0 -0.87964240877E+02 -0.75509284141E+02  0.64776850214E+03  0.66984287879E+03  0.12508433246E+03 0.  0.
         23    2    1    2    0    0  0.87964240877E+02  0.75509284141E+02  0.19155297001E+03  0.24140664411E+03  0.90251137585E+02 0.  0.
          5    1    3    3  502    0 -0.85748554774E+02  0.72863246823E+01  0.37360924821E+03  0.38341524216E+03  0.41800000000E+01 0.  1.
         -5    1    3    3    0  502 -0.22156861032E+01 -0.82795608824E+02  0.27415925394E+03  0.28642763663E+03  0.41800000000E+01 0.  1.
        -11    1    4    4    0    0  0.31337967762E+02  0.83489718764E+02  0.10633363245E+03  0.13877839440E+03  0.00000000000E+00 0.  1.
         11    1    4    4    0    0  0.56626273116E+02 -0.79804346225E+01  0.85219337557E+02  0.10262824970E+03  0.00000000000E+00 0. -1.
</event>
<event>
 8    1  0.6787197E-009  0.2161794E+03  0.7561462E-02  0.1136764E+00
         -1   -1    0    0    0  501 -0.00000000000E+00  0.00000000000E+00  0.29774015402E+02  0.29774015402E+02  0.00000000000E+00 0.  1.
          1   -1    0    0  501    0  0.00000000000E+00 -0.00000000000E+00 -0.17169063930E+04  0.17169063930E+04  0.00000000000E+00 0. -1.
         25    2    1    2    0    0 -0.39063299860E+02 -0.19167064682E+03 -0.76623032930E+03  0.80063767435E+03  0.12509272482E+03 0.  0.
         23    2    1    2    0    0  0.39063299860E+02  0.19167064682E+03 -0.92090204825E+03  0.94604273401E+03  0.93127299147E+02 0.  0.
          5    1    3    3  502    0  0.24047755541E+02 -0.11899169574E+02 -0.31472923563E+02  0.41568041820E+02  0.41800000000E+01 0.  1.
         -5    1    3    3    0  502 -0.63111055402E+02 -0.17977147724E+03 -0.73475740574E+03  0.75906963253E+03  0.41800000000E+01 0.  1.
        -11    1    4    4    0    0  0.12741826036E+02 -0.67861129053E+01 -0.36187796495E+02  0.38961032767E+02  0.00000000000E+00 0.  1.
         11    1    4    4    0    0  0.26321473824E+02  0.19845675972E+03 -0.88471425176E+03  0.90708170124E+03  0.00000000000E+00 0. -1.
</event>
<event>
 8    1  0.6787197E-009  0.1087511E+03  0.7561462E-02  0.1262900E+00
          2   -1    0    0  501    0  0.00000000000E+00  0.00000000000E+00  0.24067714142E+03  0.24067714142E+03  0.00000000000E+00 0. -1.
         -2   -1    0    0    0  501 -0.00000000000E+00 -0.00000000000E+00 -0.66563655306E+02  0.66563655306E+02  0.00000000000E+00 0.  1.
         25    2    1    2    0    0 -0.36685212040E+02  0.36053795179E+02  0.14524386365E+03  0.19847507702E+03  0.12510353849E+03 0.  0.
         23    2    1    2    0    0  0.36685212040E+02 -0.36053795179E+02  0.28869622458E+02  0.10876571970E+03  0.91382962041E+02 0.  0.
          5    1    3    3  502    0  0.37895085043E+02  0.10956034393E+02  0.10006677750E+03  0.10764248473E+03  0.41800000000E+01 0. -1.
         -5    1    3    3    0  502 -0.74580297084E+02  0.25097760786E+02  0.45177086155E+02  0.90832592295E+02  0.41800000000E+01 0. -1.
        -11    1    4    4    0    0  0.23684546915E+02 -0.63983283695E+02  0.25945259025E+01  0.68275544081E+02  0.00000000000E+00 0. -1.
         11    1    4    4    0    0  0.13000665126E+02  0.27929488516E+02  0.26275096555E+02  0.40490175617E+02  0.00000000000E+00 0.  1.
</event>
<event>
 8    1  0.6787197E-009  0.1086738E+03  0.7561462E-02  0.1263046E+00
         -1   -1    0    0    0  501 -0.00000000000E+00  0.00000000000E+00  0.87895836045E+02  0.87895836045E+02  0.00000000000E+00 0.  1.
          1   -1    0    0  501    0  0.00000000000E+00 -0.00000000000E+00 -0.21139811385E+03  0.21139811385E+03  0.00000000000E+00 0. -1.
         25    2    1    2    0    0 -0.37211906834E+01 -0.70842776776E+02 -0.11273182867E+03  0.18273168605E+03  0.12509939093E+03 0.  0.
         23    2    1    2    0    0  0.37211906834E+01  0.70842776776E+02 -0.10770449140E+02  0.11656226385E+03  0.91859743616E+02 0.  0.
          5    1    3    3  502    0  0.21499515273E+02  0.31466975879E+02 -0.28734499569E+02  0.47911831455E+02  0.41800000000E+01 0.  1.
         -5    1    3    3    0  502 -0.25220705956E+02 -0.10230975265E+03 -0.83997329099E+02  0.13481985459E+03  0.41800000000E+01 0.  1.
        -11    1    4    4    0    0  0.11190628520E+02  0.29705963154E+02 -0.50002868653E+02  0.59228044769E+02  0.00000000000E+00 0. -1.
         11    1    4    4    0    0 -0.74694378367E+01  0.41136813622E+02  0.39232419513E+02  0.57334219079E+02  0.00000000000E+00 0.  1.
</event>
<event>
 8    1  0.6787197E-009  0.1185841E+03  0.7561462E-02  0.1245451E+00
          1   -1    0    0  501    0  0.00000000000E+00  0.00000000000E+00  0.19649845502E+03  0.19649845502E+03  0.00000000000E+00 0. -1.
         -1   -1    0    0    0  501 -0.00000000000E+00 -0.00000000000E+00 -0.13122490971E+03  0.13122490971E+03  0.00000000000E+00 0.  1.
         25    2    1    2    0    0 -0.93625296725E+02  0.28170117098E+02 -0.32142454551E+02  0.16198599556E+03  0.12508826359E+03 0.  0.
         23    2    1    2    0    0  0.93625296725E+02 -0.28170117098E+02  0.97415999864E+02  0.16573736917E+03  0.91759178427E+02 0.  0.
          5    1    3    3  502    0 -0.10208416882E+02 -0.23015855441E+02  0.34933209484E+02  0.43263644111E+02  0.41800000000E+01 0.  1.
         -5    1    3    3    0  502 -0.83416879843E+02  0.51185972539E+02 -0.67075664035E+02  0.11872235145E+03  0.41800000000E+01 0.  1.
        -11    1    4    4    0    0  0.13123585494E+02 -0.30445151370E+02 -0.69881051600E+01  0.33881696414E+02  0.00000000000E+00 0.  1.
         11    1    4    4    0    0  0.80501711231E+02  0.22750342717E+01  0.10440410502E+03  0.13185567276E+03  0.00000000000E+00 0. -1.
</event>
<event>
 8    1  0.6787197E-009  0.9533501E+02  0.7561462E-02  0.1290423E+00
          2   -1    0    0  501    0  0.00000000000E+00  0.00000000000E+00  0.43561500586E+03  0.43561500586E+03  0.00000000000E+00 0.  1.
         -2   -1    0    0    0  501 -0.00000000000E+00 -0.00000000000E+00 -0.41699688066E+02  0.41699688066E+02  0.00000000000E+00 0. -1.
         25    2    1    2    0    0 -0.41155956173E+02 -0.38360470355E+02  0.11770025386E+03  0.18074598353E+03  0.12510164823E+03 0.  0.
         23    2    1    2    0    0  0.41155956173E+02  0.38360470355E+02  0.27621506394E+03  0.29656871040E+03  0.92156931525E+02 0.  0.
          5    1    3    3  502    0  0.16507858812E+02 -0.72318080955E+01  0.11344709914E+03  0.11494574875E+03  0.41800000000E+01 0. -1.
         -5    1    3    3    0  502 -0.57663814985E+02 -0.31128662259E+02  0.42531547189E+01  0.65800234785E+02  0.41800000000E+01 0. -1.
        -11    1    4    4    0    0 -0.22333080698E+02  0.36741869943E+02  0.13614137032E+03  0.14276975945E+03  0.00000000000E+00 0.  1.
         11    1    4    4    0    0  0.63489036871E+02  0.16186004118E+01  0.14007369361E+03  0.15379895095E+03  0.00000000000E+00 0. -1.
</event>
<event>
 8    1  0.6787197E-009  0.1204284E+03  0.7561462E-02  0.1242392E+00
         -1   -1    0    0    0  501 -0.00000000000E+00  0.00000000000E+00  0.25996060027E+02  0.25996060027E+02  0.00000000000E+00 0.  1.
          1   -1    0    0  501    0  0.00000000000E+00 -0.00000000000E+00 -0.81524746422E+03  0.81524746422E+03  0.00000000000E+00 0. -1.
         25    2    1    2    0    0 -0.22701562297E+02 -0.72301354905E+02 -0.60447649546E+03  0.62191813819E+03  0.12508992844E+03 0.  0.
         23    2    1    2    0    0  0.22701562297E+02  0.72301354905E+02 -0.18477490873E+03  0.21932538605E+03  0.90658762503E+02 0.  0.
          5    1    3    3  502    0 -0.29747374835E+02  0.28506874275E+02 -0.11848180349E+03  0.12551078977E+03  0.41800000000E+01 0.  1.
         -5    1    3    3    0  502  0.70458125389E+01 -0.10080822918E+03 -0.48599469198E+03  0.49640734843E+03  0.41800000000E+01 0.  1.
        -11    1    4    4    0    0  0.38322944075E+02  0.19027744139E+02 -0.23614441772E+02  0.48870696228E+02  0.00000000000E+00 0.  1.
         11    1    4    4    0    0 -0.15621381778E+02  0.53273610766E+02 -0.16116046696E+03  0.17045468982E+03  0.00000000000E+00 0. -1.
</event>
<event>
 8    1  0.6787197E-009  0.1154046E+03  0.7561462E-02  0.1250876E+00
         -1   -1    0    0    0  501 -0.00000000000E+00  0.00000000000E+00  0.23608911716E+02  0.23608911716E+02  0.00000000000E+00 0.  1.
          1   -1    0    0  501    0  0.00000000000E+00 -0.00000000000E+00 -0.69402078114E+03  0.69402078114E+03  0.00000000000E+00 0. -1.
         25    2    1    2    0    0  0.62794048290E+02  0.14482382916E+02 -0.44236329323E+03  0.46419888343E+03  0.12506993350E+03 0.  0.
         23    2    1    2    0    0 -0.62794048290E+02 -0.14482382916E+02 -0.22804857619E+03  0.25343080943E+03  0.89823104746E+02 0.  0.
          5    1    3    3  502    0 -0.26656576284E+02 -0.77873044319E+01 -0.27895840579E+02  0.39583651816E+02  0.41800000000E+01 0. -1.
         -5    1    3    3    0  502  0.89450624575E+02  0.22269687348E+02 -0.41446745265E+03  0.42461523162E+03  0.41800000000E+01 0. -1.
        -11    1    4    4    0    0  0.17966669790E+01 -0.40700998306E+02 -0.89342458505E+02  0.98193045411E+02  0.00000000000E+00 0. -1.
         11    1    4    4    0    0 -0.64590715269E+02  0.26218615389E+02 -0.13870611769E+03  0.15523776402E+03  0.00000000000E+00 0.  1.
</event>
<event>
 8    1  0.6787197E-009  0.2873976E+03  0.7561462E-02  0.1091716E+00
         -2   -1    0    0    0  501 -0.00000000000E+00  0.00000000000E+00  0.15301136315E+03  0.15301136315E+03  0.00000000000E+00 0.  1.
          2   -1    0    0  501    0  0.00000000000E+00 -0.00000000000E+00 -0.69524762075E+03  0.69524762075E+03  0.00000000000E+00 0. -1.
         25    2    1    2    0    0 -0.19786526204E+03  0.18567804779E+03 -0.88722954900E+02  0.31167921400E+03  0.12508065541E+03 0.  0.
         23    2    1    2    0    0  0.19786526204E+03 -0.18567804779E+03 -0.45351330270E+03  0.53657976990E+03  0.92825289584E+02 0.  0.
          5    1    3    3  502    0 -0.20707320905E+03  0.18529445615E+03 -0.10107213605E+03  0.29571337216E+03  0.41800000000E+01 0.  1.
         -5    1    3    3    0  502  0.92079470100E+01  0.38359164080E+00  0.12349181149E+02  0.15965841842E+02  0.41800000000E+01 0.  1.
        -11    1    4    4    0    0  0.18250648825E+03 -0.11790373302E+03 -0.34553736846E+03  0.40817395987E+03  0.00000000000E+00 0.  1.
         11    1    4    4    0    0  0.15358773795E+02 -0.67774314769E+02 -0.10797593424E+03  0.12840581003E+03  0.00000000000E+00 0. -1.
</event>
<event>
 8    1  0.6787197E-009  0.1221228E+03  0.7561462E-02  0.1239636E+00
          2   -1    0    0  501    0  0.00000000000E+00  0.00000000000E+00  0.54710474052E+03  0.54710474052E+03  0.00000000000E+00 0. -1.
         -2   -1    0    0    0  501 -0.00000000000E+00 -0.00000000000E+00 -0.34201600081E+02  0.34201600081E+02  0.00000000000E+00 0.  1.
         25    2    1    2    0    0  0.23953038629E+02 -0.77711888416E+02  0.24771759394E+03  0.28917751290E+03  0.12508693761E+03 0.  0.
         23    2    1    2    0    0 -0.23953038629E+02  0.77711888416E+02  0.26518554650E+03  0.29212882770E+03  0.91667836451E+02 0.  0.
          5    1    3    3  502    0  0.59143397845E+01  0.32664265265E+02  0.88043156797E+02  0.94186004794E+02  0.41800000000E+01 0.  1.
         -5    1    3    3    0  502  0.18038698844E+02 -0.11037615368E+03  0.15967443714E+03  0.19499150811E+03  0.41800000000E+01 0.  1.
        -11    1    4    4    0    0  0.18492573297E+02  0.27212035038E+02  0.18681268709E+03  0.18968777023E+03  0.00000000000E+00 0. -1.
         11    1    4    4    0    0 -0.42445611926E+02  0.50499853377E+02  0.78372859414E+02  0.10244105747E+03  0.00000000000E+00 0.  1.
</event>
<event>
 8    1  0.6787197E-009  0.2753229E+03  0.7561462E-02  0.1098271E+00
          2   -1    0    0  501    0  0.00000000000E+00  0.00000000000E+00  0.62389585491E+03  0.62389585491E+03  0.00000000000E+00 0. -1.
         -2   -1    0    0    0  501 -0.00000000000E+00 -0.00000000000E+00 -0.14409210958E+03  0.14409210958E+03  0.00000000000E+00 0.  1.
         25    2    1    2    0    0 -0.18802713093E+03  0.19026612574E+03  0.35032624109E+03  0.45818307881E+03  0.12509139833E+03 0.  0.
         23    2    1    2    0    0  0.18802713093E+03 -0.19026612574E+03  0.12947750424E+03  0.30980488568E+03  0.87517098419E+02 0.  0.
          5    1    3    3  502    0 -0.11912353910E+03  0.17047691566E+03  0.31666117109E+03  0.37887275703E+03  0.41800000000E+01 0.  1.
         -5    1    3    3    0  502 -0.68903591831E+02  0.19789210077E+02  0.33665070005E+02  0.79310321782E+02  0.41800000000E+01 0.  1.
        -11    1    4    4    0    0  0.14080506366E+03 -0.11423010748E+03  0.45193460757E+02  0.18686099727E+03  0.00000000000E+00 0. -1.
         11    1    4    4    0    0  0.47222067274E+02 -0.76036018264E+02  0.84284043483E+02  0.12294388841E+03  0.00000000000E+00 0.  1.
</event>
<event>
 8    1  0.6787197E-009  0.9185041E+02  0.7561462E-02  0.1298432E+00
          2   -1    0    0  501    0  0.00000000000E+00  0.00000000000E+00  0.97706870452E+03  0.97706870452E+03  0.00000000000E+00 0. -1.
         -2   -1    0    0    0  501 -0.00000000000E+00 -0.00000000000E+00 -0.13938127877E+02  0.13938127877E+02  0.00000000000E+00 0.  1.
         25    2    1    2    0    0  0.15618547015E+01 -0.28785598540E+02  0.67085763493E+03  0.68302906683E+03  0.12509072593E+03 0.  0.
         23    2    1    2    0    0 -0.15618547015E+01  0.28785598540E+02  0.29227294172E+03  0.30797776557E+03  0.92713437826E+02 0.  0.
          5    1    3    3  502    0  0.33836600134E+02 -0.50230570753E+02  0.59160287631E+03  0.59470956054E+03  0.41800000000E+01 0. -1.
         -5    1    3    3    0  502 -0.32274745432E+02  0.21444972213E+02  0.79254758621E+02  0.88319506283E+02  0.41800000000E+01 0. -1.
        -11    1    4    4    0    0  0.31781476196E+02 -0.95741527764E+01  0.47277391318E+02  0.57765719596E+02  0.00000000000E+00 0.  1.
         11    1    4    4    0    0 -0.33343330898E+02  0.38359751316E+02  0.24499555040E+03  0.25021204598E+03  0.00000000000E+00 0. -1.
</event>
<event>
 8    1  0.6787197E-009  0.3905512E+03  0.7561462E-02  0.1047101E+00
          2   -1    0    0  501    0  0.00000000000E+00  0.00000000000E+00  0.10009120135E+03  0.10009120135E+03  0.00000000000E+00 0. -1.
         -2   -1    0    0    0  501 -0.00000000000E+00 -0.00000000000E+00 -0.15745860258E+04  0.15745860258E+04  0.00000000000E+00 0.  1.
         25    2    1    2    0    0  0.17925762383E+03  0.33394868296E+03 -0.68040965095E+03  0.78883462725E+03  0.12509099681E+03 0.  0.
         23    2    1    2    0    0 -0.17925762383E+03 -0.33394868296E+03 -0.79408517351E+03  0.88584259991E+03  0.10242475518E+03 0.  0.
          5    1    3    3  502    0  0.19826267170E+03  0.30405009717E+03 -0.62961124962E+03  0.72676154730E+03  0.41800000000E+01 0. -1.
         -5    1    3    3    0  502 -0.19005047870E+02  0.29898585791E+02 -0.50798401330E+02  0.62073079950E+02  0.41800000000E+01 0. -1.
        -11    1    4    4    0    0 -0.58869042600E+02 -0.64622777709E+02 -0.27765003891E+03  0.29108626158E+03  0.00000000000E+00 0.  1.
         11    1    4    4    0    0 -0.12038858123E+03 -0.26932590525E+03 -0.51643513460E+03  0.59475633832E+03  0.00000000000E+00 0. -1.
</event>
<event>
 8    1  0.6787197E-009  0.1238190E+03  0.7561462E-02  0.1236927E+00
         -2   -1    0    0    0  501 -0.00000000000E+00  0.00000000000E+00  0.29967618444E+02  0.29967618444E+02  0.00000000000E+00 0.  1.
          2   -1    0    0  501    0  0.00000000000E+00 -0.00000000000E+00 -0.53127851877E+03  0.53127851877E+03  0.00000000000E+00 0. -1.
         25    2    1    2    0    0 -0.66831766148E+02  0.16426432155E+01 -0.29473181767E+03  0.32708291789E+03  0.12508879881E+03 0.  0.
         23    2    1    2    0    0  0.66831766148E+02 -0.16426432155E+01 -0.20657908266E+03  0.23416321932E+03  0.87683023720E+02 0.  0.
          5    1    3    3  502    0 -0.10153659560E+03 -0.15670628939E+02 -0.21340772342E+03  0.23688726785E+03  0.41800000000E+01 0. -1.
         -5    1    3    3    0  502  0.34704829452E+02  0.17313272154E+02 -0.81324094250E+02  0.90195650036E+02  0.41800000000E+01 0. -1.
        -11    1    4    4    0    0  0.83968791855E+02  0.10754952142E+02 -0.13344232506E+03  0.15802936790E+03  0.00000000000E+00 0. -1.
         11    1    4    4    0    0 -0.17137025707E+02 -0.12397595358E+02 -0.73136757594E+02  0.76133851420E+02  0.00000000000E+00 0.  1.
</event>
<event>
 8    1  0.6787197E-009  0.1368140E+03  0.7561462E-02  0.1217681E+00
         -2   -1    0    0    0  501 -0.00000000000E+00  0.00000000000E+00  0.15067165856E+03  0.15067165856E+03  0.00000000000E+00 0.  1.
          2   -1    0    0  501    0  0.00000000000E+00 -0.00000000000E+00 -0.23938778640E+03  0.23938778640E+03  0.00000000000E+00 0. -1.
         25    2    1    2    0    0  0.33115979115E+02 -0.88915149387E+02  0.80502310962E+02  0.17643911120E+03  0.12509023154E+03 0.  0.
         23    2    1    2    0    0 -0.33115979115E+02  0.88915149387E+02 -0.16921843880E+03  0.21362033376E+03  0.89421446537E+02 0.  0.
          5    1    3    3  502    0 -0.24636372811E+02 -0.95366601277E+02  0.46780999030E+02  0.10912228817E+03  0.41800000000E+01 0. -1.
         -5    1    3    3    0  502  0.57752351926E+02  0.64514518905E+01  0.33721311932E+02  0.67316823031E+02  0.41800000000E+01 0. -1.
        -11    1    4    4    0    0  0.17784684660E+02  0.48900853635E+02 -0.29952089612E+02  0.60039288527E+02  0.00000000000E+00 0.  1.
         11    1    4    4    0    0 -0.50900663776E+02  0.40014295752E+02 -0.13926634919E+03  0.15358104523E+03  0.00000000000E+00 0. -1.
</event>
<event>
 8    1  0.6787197E-009  0.1692413E+03  0.7561462E-02  0.1178641E+00
          1   -1    0    0  501    0  0.00000000000E+00  0.00000000000E+00  0.41640275373E+03  0.41640275373E+03  0.00000000000E+00 0. -1.
         -1   -1    0    0    0  501 -0.00000000000E+00 -0.00000000000E+00 -0.89007590696E+02  0.89007590696E+02  0.00000000000E+00 0.  1.
         25    2    1    2    0    0  0.11615548676E+03 -0.84592844327E+02  0.26086928125E+03  0.32302974905E+03  0.12508952976E+03 0.  0.
         23    2    1    2    0    0 -0.11615548676E+03  0.84592844327E+02  0.66525881781E+02  0.18238059538E+03  0.90492774342E+02 0.  0.
          5    1    3    3  502    0  0.12628838278E+03 -0.10454237432E+03  0.24663626184E+03  0.29618369588E+03  0.41800000000E+01 0. -1.
         -5    1    3    3    0  502 -0.10132896023E+02  0.19949529997E+02  0.14233019419E+02  0.26846053168E+02  0.41800000000E+01 0. -1.
        -11    1    4    4    0    0 -0.19601337257E+02 -0.47559920443E+01  0.44687093310E+02  0.49028238710E+02  0.00000000000E+00 0. -1.
         11    1    4    4    0    0 -0.96554149499E+02  0.89348836371E+02  0.21838788471E+02  0.13335235667E+03  0.00000000000E+00 0.  1.
</event>
<event>
 8    1  0.6787197E-009  0.9887024E+02  0.7561462E-02  0.1282690E+00
          1   -1    0    0  501    0  0.00000000000E+00  0.00000000000E+00  0.66422324641E+03  0.66422324641E+03  0.00000000000E+00 0. -1.
         -1   -1    0    0    0  501 -0.00000000000E+00 -0.00000000000E+00 -0.43279166825E+02  0.43279166825E+02  0.00000000000E+00 0.  1.
         25    2    1    2    0    0  0.24035609316E+02 -0.70938933219E+02  0.55015266680E+03  0.56914774881E+03  0.12510459797E+03 0.  0.
         23    2    1    2    0    0 -0.24035609316E+02  0.70938933219E+02  0.70791412793E+02  0.13835466443E+03  0.92306805178E+02 0.  0.
          5    1    3    3  502    0  0.10446137073E+02 -0.70374788720E+02  0.12602052486E+03  0.14477699318E+03  0.41800000000E+01 0. -1.
         -5    1    3    3    0  502  0.13589472243E+02 -0.56414449940E+00  0.42413214194E+03  0.42437075563E+03  0.41800000000E+01 0. -1.
        -11    1    4    4    0    0 -0.49023046168E+02  0.15470615552E+02  0.55451163674E+02  0.75613692899E+02  0.00000000000E+00 0. -1.
         11    1    4    4    0    0  0.24987436852E+02  0.55468317668E+02  0.15340249119E+02  0.62740971528E+02  0.00000000000E+00 0.  1.
</event>
<event>
 8    1  0.6787197E-009  0.9605684E+02  0.7561462E-02  0.1288813E+00
         -1   -1    0    0    0  501 -0.00000000000E+00  0.00000000000E+00  0.13920343730E+03  0.13920343730E+03  0.00000000000E+00 0.  1.
          1   -1    0    0  501    0  0.00000000000E+00 -0.00000000000E+00 -0.95288178555E+02  0.95288178555E+02  0.00000000000E+00 0. -1.
         25    2    1    2    0    0 -0.25258899651E+02  0.25937416683E+02  0.17073740863E+02  0.13133978240E+03  0.12509142344E+03 0.  0.
         23    2    1    2    0    0  0.25258899651E+02 -0.25937416683E+02  0.26841517881E+02  0.10315183345E+03  0.92785085367E+02 0.  0.
          5    1    3    3  502    0 -0.31969187193E+02  0.73936387552E+02  0.18170835009E+02  0.82681739090E+02  0.41800000000E+01 0. -1.
         -5    1    3    3    0  502  0.67102875421E+01 -0.47998970870E+02 -0.10970941460E+01  0.48658043313E+02  0.41800000000E+01 0. -1.
        -11    1    4    4    0    0  0.39813628363E+02 -0.27169774870E+02  0.53957777588E+02  0.72351665026E+02  0.00000000000E+00 0.  1.
         11    1    4    4    0    0 -0.14554728712E+02  0.12323581870E+01 -0.27116259706E+02  0.30800168425E+02  0.00000000000E+00 0. -1.
</event>
<event>
 8    1  0.6787197E-009  0.1041569E+03  0.7561462E-02  0.1271790E+00
          2   -1    0    0  501    0  0.00000000000E+00  0.00000000000E+00  0.18342402964E+03  0.18342402964E+03  0.00000000000E+00 0.  1.
         -2   -1    0    0    0  501 -0.00000000000E+00 -0.00000000000E+00 -0.66261935380E+02  0.66261935380E+02  0.00000000000E+00 0. -1.
         25    2    1    2    0    0 -0.83622082694E+01 -0.24088971143E+02  0.10191976522E+03  0.16335520078E+03  0.12508828091E+03 0.  0.
         23    2    1    2    0    0  0.83622082694E+01  0.24088971143E+02  0.15242329035E+02  0.86330764238E+02  0.81058418450E+02 0.  0.
          5    1    3    3  502    0 -0.34807539407E+02  0.41031943355E+02  0.26318100631E+02  0.60044150388E+02  0.41800000000E+01 0.  1.
         -5    1    3    3    0  502  0.26445331137E+02 -0.65120914497E+02  0.75601664592E+02  0.10331105039E+03  0.41800000000E+01 0.  1.
        -11    1    4    4    0    0 -0.29730781824E+02  0.33404843676E+02  0.14826681038E+02  0.47112985890E+02  0.00000000000E+00 0. -1.
         11    1    4    4    0    0  0.38092990093E+02 -0.93158725333E+01  0.41564799703E+00  0.39217778348E+02  0.00000000000E+00 0.  1.
</event>
<event>
 8    1  0.6787197E-009  0.6761851E+02  0.7561462E-02  0.1368384E+00
          1   -1    0    0  501    0  0.00000000000E+00  0.00000000000E+00  0.13064218023E+03  0.13064218023E+03  0.00000000000E+00 0. -1.
         -1   -1    0    0    0  501 -0.00000000000E+00 -0.00000000000E+00 -0.12543956958E+03  0.12543956958E+03  0.00000000000E+00 0.  1.
         25    2    1    2    0    0  0.25888065182E+02  0.26879697168E+02 -0.52569467451E+02  0.14072557455E+03  0.12508968137E+03 0.  0.
         23    2    1    2    0    0 -0.25888065182E+02 -0.26879697168E+02  0.57772078107E+02  0.11535617526E+03  0.92610604809E+02 0.  0.
          5    1    3    3  502    0  0.48393436586E+02  0.40359545162E+02  0.17713374035E+02  0.65590042003E+02  0.41800000000E+01 0. -1.
         -5    1    3    3    0  502 -0.22505371404E+02 -0.13479847994E+02 -0.70282841486E+02  0.75135532548E+02  0.41800000000E+01 0. -1.
        -11    1    4    4    0    0  0.27130988253E+01 -0.13809630777E+02  0.77147234141E+02  0.78420421722E+02  0.00000000000E+00 0. -1.
         11    1    4    4    0    0 -0.28601164007E+02 -0.13070066391E+02 -0.19375156035E+02  0.36935753538E+02  0.00000000000E+00 0.  1.
</event>
<event>
 8    1  0.6787197E-009  0.9794291E+02  0.7561462E-02  0.1284682E+00
         -1   -1    0    0    0  501 -0.00000000000E+00  0.00000000000E+00  0.13578141636E+04  0.13578141636E+04  0.00000000000E+00 0.  1.
          1   -1    0    0  501    0  0.00000000000E+00 -0.00000000000E+00 -0.13899756191E+02  0.13899756191E+02  0.00000000000E+00 0. -1.
         25    2    1    2    0    0 -0.69765943539E+02 -0.33679163665E+02  0.91860127727E+03  0.93031018382E+03  0.12508860295E+03 0.  0.
         23    2    1    2    0    0  0.69765943539E+02  0.33679163665E+02  0.42531313019E+03  0.44140373601E+03  0.89131512453E+02 0.  0.
          5    1    3    3  502    0 -0.37090411908E+02 -0.30466812840E+02  0.87100748982E+03  0.87233906542E+03  0.41800000000E+01 0.  1.
         -5    1    3    3    0  502 -0.32675531632E+02 -0.32123508250E+01  0.47593787450E+02  0.57971118404E+02  0.41800000000E+01 0.  1.
        -11    1    4    4    0    0 -0.31313060948E+01  0.41203508267E+02  0.20804370250E+03  0.21210779411E+03  0.00000000000E+00 0.  1.
         11    1    4    4    0    0  0.72897249634E+02 -0.75243446017E+01  0.21726942768E+03  0.22929594190E+03  0.00000000000E+00 0. -1.
</event>
<event>
 8    1  0.6787197E-009  0.1433520E+03  0.7561462E-02  0.1208888E+00
         -2   -1    0    0    0  501 -0.00000000000E+00  0.00000000000E+00  0.12356661498E+03  0.12356661498E+03  0.00000000000E+00 0.  1.
          2   -1    0    0  501    0  0.00000000000E+00 -0.00000000000E+00 -0.18330303654E+03  0.18330303654E+03  0.00000000000E+00 0. -1.
         25    2    1    2    0    0 -0.40035082528E+02  0.88380677378E+02 -0.71716014136E+02  0.17379689668E+03  0.12509285609E+03 0.  0.
         23    2    1    2    0    0  0.40035082528E+02 -0.88380677378E+02  0.11979592583E+02  0.13307275484E+03  0.90282309873E+02 0.  0.
          5    1    3    3  502    0  0.32218300019E+02 -0.11905785226E+02 -0.14183574112E+02  0.37395357367E+02  0.41800000000E+01 0.  1.
         -5    1    3    3    0  502 -0.72253382547E+02  0.10028646260E+03 -0.57532440024E+02  0.13640153931E+03  0.41800000000E+01 0.  1.
        -11    1    4    4    0    0 -0.26570069336E+02 -0.25851577115E+02 -0.11375974825E+02  0.38777382933E+02  0.00000000000E+00 0. -1.
         11    1    4    4    0    0  0.66605151865E+02 -0.62529100263E+02  0.23355567408E+02  0.94295371910E+02  0.00000000000E+00 0.  1.
</event>
<event>
 8    1  0.6787197E-009  0.2275266E+03  0.7561462E-02  0.1128393E+00
          1   -1    0    0  501    0  0.00000000000E+00  0.00000000000E+00  0.18011918320E+04  0.18011918320E+04  0.00000000000E+00 0. -1.
         -1   -1    0    0    0  501 -0.00000000000E+00 -0.00000000000E+00 -0.39262076574E+02  0.39262076574E+02  0.00000000000E+00 0.  1.
         25    2    1    2    0    0  0.14437549672E+03  0.16035932584E+03  0.12907630120E+04  0.13146393231E+04  0.12509196343E+03 0.  0.
         23    2    1    2    0    0 -0.14437549672E+03 -0.16035932584E+03  0.47116674342E+03  0.52581458545E+03  0.89013935582E+02 0.  0.
          5    1    3    3  502    0  0.21811189951E+02  0.86587610404E+02  0.74811209876E+03  0.75343369117E+03  0.41800000000E+01 0. -1.
         -5    1    3    3    0  502  0.12256430676E+03  0.73771715433E+02  0.54265091321E+03  0.56120563192E+03  0.41800000000E+01 0. -1.
        -11    1    4    4    0    0 -0.11810804791E+03 -0.15639774971E+03  0.34407677185E+03  0.39597801962E+03  0.00000000000E+00 0.  1.
         11    1    4    4    0    0 -0.26267448805E+02 -0.39615761309E+01  0.12708997157E+03  0.12983656583E+03  0.00000000000E+00 0. -1.
</event>
<event>
 8    1  0.6787197E-009  0.1175368E+03  0.7561462E-02  0.1247217E+00
          1   -1    0    0  501    0  0.00000000000E+00  0.00000000000E+00  0.93894527450E+02  0.93894527450E+02  0.00000000000E+00 0. -1.
         -1   -1    0    0    0  501 -0.00000000000E+00 -0.00000000000E+00 -0.16972697245E+03  0.16972697245E+03  0.00000000000E+00 0.  1.
         25    2    1    2    0    0  0.64509200269E+02  0.13943729895E+01 -0.38234410773E+02  0.14585385917E+03  0.12509235338E+03 0.  0.
         23    2    1    2    0    0 -0.64509200269E+02 -0.13943729895E+01 -0.37598034228E+02  0.11776764073E+03  0.91061648512E+02 0.  0.
          5    1    3    3  502    0  0.12128117687E+02  0.57505536551E+02 -0.35795910810E+02  0.68940536721E+02  0.41800000000E+01 0.  1.
         -5    1    3    3    0  502  0.52381082581E+02 -0.56111163561E+02 -0.24384999633E+01  0.76913322452E+02  0.41800000000E+01 0.  1.
        -11    1    4    4    0    0 -0.36923569026E+02  0.36823077752E+02  0.73208056449E+01  0.52658173155E+02  0.00000000000E+00 0. -1.
         11    1    4    4    0    0 -0.27585631243E+02 -0.38217450741E+02 -0.44918839873E+02  0.65109467574E+02  0.00000000000E+00 0.  1.
</event>
<event>
 8    1  0.6787197E-009  0.1296967E+03  0.7561462E-02  0.1227907E+00
         -2   -1    0    0    0  501 -0.00000000000E+00  0.00000000000E+00  0.68764660623E+02  0.68764660623E+02  0.00000000000E+00 0.  1.
          2   -1    0    0  501    0  0.00000000000E+00 -0.00000000000E+00 -0.31603032659E+03  0.31603032659E+03  0.00000000000E+00 0. -1.
         25    2    1    2    0    0  0.10588156857E+02 -0.77409903180E+02 -0.20799479557E+03  0.25497751440E+03  0.12508915097E+03 0.  0.
         23    2    1    2    0    0 -0.10588156857E+02  0.77409903180E+02 -0.39270870392E+02  0.12981747281E+03  0.95947760832E+02 0.  0.
          5    1    3    3  502    0 -0.45063124286E+02 -0.41424668586E+01 -0.11695827103E+03  0.12547730777E+03  0.41800000000E+01 0. -1.
         -5    1    3    3    0  502  0.55651281143E+02 -0.73267436321E+02 -0.91036524541E+02  0.12950020663E+03  0.41800000000E+01 0. -1.
        -11    1    4    4    0    0 -0.49672439709E+02  0.62916258656E+02 -0.14909862407E+02  0.81535948311E+02  0.00000000000E+00 0.  1.
         11    1    4    4    0    0  0.39084282852E+02  0.14493644523E+02 -0.24361007985E+02  0.48281524496E+02  0.00000000000E+00 0. -1.
</event>
<event>
 8    1  0.6787197E-009  0.1206932E+03  0.7561462E-02  0.1241958E+00
         -1   -1    0    0    0  501 -0.00000000000E+00  0.00000000000E+00  0.38451288718E+03  0.38451288718E+03  0.00000000000E+00 0.  1.
          1   -1    0    0  501    0  0.00000000000E+00 -0.00000000000E+00 -0.46734354649E+02  0.46734354649E+02  0.00000000000E+00 0. -1.
         25    2    1    2    0    0  0.25017091631E+02  0.64576971314E+02  0.12693984899E+03  0.19119714423E+03  0.12508630061E+03 0.  0.
         23    2    1    2    0    0 -0.25017091631E+02 -0.64576971314E+02  0.21083868353E+03  0.24005009760E+03  0.91515347258E+02 0.  0.
          5    1    3    3  502    0 -0.33637897182E+02 -0.10440241881E+02  0.40858697913E+01  0.35702570066E+02  0.41800000000E+01 0. -1.
         -5    1    3    3    0  502  0.58654988813E+02  0.75017213195E+02  0.12285397920E+03  0.15549457416E+03  0.41800000000E+01 0. -1.
        -11    1    4    4    0    0  0.22910011505E+02 -0.57827866358E+02  0.85828341588E+02  0.10599733475E+03  0.00000000000E+00 0.  1.
         11    1    4    4    0    0 -0.47927103136E+02 -0.67491049560E+01  0.12501034195E+03  0.13405276284E+03  0.00000000000E+00 0. -1.
</event>
<event>
 8    1  0.6787197E-009  0.8899528E+02  0.7561462E-02  0.1305303E+00
         -1   -1    0    0    0  501 -0.00000000000E+00  0.00000000000E+00  0.17378627594E+02  0.17378627594E+02  0.00000000000E+00 0.  1.
          1   -1    0    0  501    0  0.00000000000E+00 -0.00000000000E+00 -0.80568453509E+03  0.80568453509E+03  0.00000000000E+00 0. -1.
         25    2    1    2    0    0 -0.63396536150E+00  0.36149340656E+02 -0.55294750214E+03  0.56807181050E+03  0.12508982781E+03 0.  0.
         23    2    1    2    0    0  0.63396536150E+00 -0.36149340656E+02 -0.23535840536E+03  0.25499135218E+03  0.91213123918E+02 0.  0.
          5    1    3    3  502    0 -0.39923159642E+02  0.43453996915E+01 -0.58798437449E+02  0.71326501531E+02  0.41800000000E+01 0. -1.
         -5    1    3    3    0  502  0.39289194280E+02  0.31803940964E+02 -0.49414906469E+03  0.49674530896E+03  0.41800000000E+01 0. -1.
        -11    1    4    4    0    0 -0.19497375262E+02  0.19584808575E+02 -0.14014259080E+03  0.14284137400E+03  0.00000000000E+00 0. -1.
         11    1    4    4    0    0  0.20131340624E+02 -0.55734149231E+02 -0.95215814552E+02  0.11214997818E+03  0.00000000000E+00 0.  1.
</event>
<event>
 8    1  0.6787197E-009  0.8476371E+02  0.7561462E-02  0.1316052E+00
          2   -1    0    0  501    0  0.00000000000E+00  0.00000000000E+00  0.30774574686E+03  0.30774574686E+03  0.00000000000E+00 0. -1.
         -2   -1    0    0    0  501 -0.00000000000E+00 -0.00000000000E+00 -0.58202216271E+02  0.58202216271E+02  0.00000000000E+00 0.  1.
         25    2    1    2    0    0 -0.45658458836E+02  0.40731020877E+01  0.22560223322E+03  0.26200197842E+03  0.12508950411E+03 0.  0.
         23    2    1    2    0    0  0.45658458836E+02 -0.40731020877E+01  0.23941297362E+02  0.10394598471E+03  0.90168159530E+02 0.  0.
          5    1    3    3  502    0 -0.38358168768E+02 -0.35479091507E+02  0.26312054433E+02  0.58650760045E+02  0.41800000000E+01 0.  1.
         -5    1    3    3    0  502 -0.73002900672E+01  0.39552193594E+02  0.19929017879E+03  0.20335121838E+03  0.41800000000E+01 0.  1.
        -11    1    4    4    0    0 -0.42524812811E+01 -0.22928333165E+02 -0.23094125811E+02  0.32819669495E+02  0.00000000000E+00 0.  1.
         11    1    4    4    0    0  0.49910940117E+02  0.18855231078E+02  0.47035423173E+02  0.71126315210E+02  0.00000000000E+00 0. -1.
</event>
<event>
 8    1  0.6787197E-009  0.2539463E+03  0.7561462E-02  0.1110836E+00
          2   -1    0    0  501    0  0.00000000000E+00  0.00000000000E+00  0.10360824282E+04  0.10360824282E+04  0.00000000000E+00 0.  1.
         -2   -1    0    0    0  501 -0.00000000000E+00 -0.00000000000E+00 -0.69078716497E+02  0.69078716497E+02  0.00000000000E+00 0. -1.
         25    2    1    2    0    0  0.12502848299E+03  0.20340755895E+03  0.60239119091E+03  0.65994645475E+03  0.12508964644E+03 0.  0.
         23    2    1    2    0    0 -0.12502848299E+03 -0.20340755895E+03  0.36461252081E+03  0.44521468997E+03  0.90923447110E+02 0.  0.
          5    1    3    3  502    0  0.52192586984E+02 -0.64810629192E+00  0.10235581592E+03  0.11497248206E+03  0.41800000000E+01 0. -1.
         -5    1    3    3    0  502  0.72835896008E+02  0.20405566524E+03  0.50003537499E+03  0.54497397269E+03  0.41800000000E+01 0. -1.
        -11    1    4    4    0    0 -0.33094504922E+02 -0.49326051257E+02  0.17205636542E+03  0.18202114842E+03  0.00000000000E+00 0.  1.
         11    1    4    4    0    0 -0.91933978069E+02 -0.15408150770E+03  0.19255615539E+03  0.26319354156E+03  0.00000000000E+00 0. -1.
</event>
<event>
 8    1  0.6787197E-009  0.1625969E+03  0.7561462E-02  0.1185796E+00
         -1   -1    0    0    0  501 -0.00000000000E+00  0.00000000000E+00  0.77280038042E+02  0.77280038042E+02  0.00000000000E+00 0.  1.
          1   -1    0    0  501    0  0.00000000000E+00 -0.00000000000E+00 -0.73539621333E+03  0.73539621333E+03  0.00000000000E+00 0. -1.
         25    2    1    2    0    0 -0.52654930751E+02  0.14233653372E+03 -0.59200588799E+03  0.62381695435E+03  0.12507753819E+03 0.  0.
         23    2    1    2    0    0  0.52654930751E+02 -0.14233653372E+03 -0.66110287294E+02  0.18885929701E+03  0.90912229204E+02 0.  0.
          5    1    3    3  502    0 -0.36176850350E+00  0.11347939139E+03 -0.50874066593E+03  0.52126024279E+03  0.41800000000E+01 0.  1.
         -5    1    3    3    0  502 -0.52293162247E+02  0.28857142326E+02 -0.83265222063E+02  0.10255671156E+03  0.41800000000E+01 0.  1.
        -11    1    4    4    0    0  0.26300291079E+02 -0.70926415919E+02  0.15546716286E+02  0.77226693398E+02  0.00000000000E+00 0.  1.
         11    1    4    4    0    0  0.26354639672E+02 -0.71410117801E+02 -0.81657003579E+02  0.11163260362E+03  0.00000000000E+00 0. -1.
</event>
<event>
 8    1  0.6787197E-009  0.7137914E+02  0.7561462E-02  0.1355465E+00
          1   -1    0    0  501    0  0.00000000000E+00  0.00000000000E+00  0.45671759796E+02  0.45671759796E+02  0.00000000000E+00 0. -1.
         -1   -1    0    0    0  501 -0.00000000000E+00 -0.00000000000E+00 -0.72435523756E+03  0.72435523756E+03  0.00000000000E+00 0.  1.
         25    2    1    2    0    0 -0.42364961162E+01 -0.52603895013E+02 -0.64647843743E+03  0.66058100086E+03  0.12509105071E+03 0.  0.
         23    2    1    2    0    0  0.42364961162E+01  0.52603895013E+02 -0.32205040338E+02  0.10944599650E+03  0.90311371687E+02 0.  0.
          5    1    3    3  502    0  0.12457340865E+02 -0.39469688796E+02 -0.63445551253E+03  0.63581782882E+03  0.41800000000E+01 0.  1.
         -5    1    3    3    0  502 -0.16693836981E+02 -0.13134206217E+02 -0.12022924900E+02  0.24763172036E+02  0.41800000000E+01 0.  1.
        -11    1    4    4    0    0  0.13868500443E+02  0.63482795304E+02 -0.53154224611E+02  0.83951010703E+02  0.00000000000E+00 0.  1.
         11    1    4    4    0    0 -0.96320043269E+01 -0.10878900291E+02  0.20949184273E+02  0.25494985793E+02  0.00000000000E+00 0. -1.
</event>
<event>
 8    1  0.6787197E-009  0.1137296E+03  0.7561462E-02  0.1253815E+00
         -2   -1    0    0    0  501 -0.00000000000E+00  0.00000000000E+00  0.33632041880E+03  0.33632041880E+03  0.00000000000E+00 0.  1.
          2   -1    0    0  501    0  0.00000000000E+00 -0.00000000000E+00 -0.46917836499E+02  0.46917836499E+02  0.00000000000E+00 0. -1.
         25    2    1    2    0    0 -0.19081204912E+02 -0.61426814031E+02  0.15934652773E+03  0.21254666878E+03  0.12508966642E+03 0.  0.
         23    2    1    2    0    0  0.19081204912E+02  0.61426814031E+02  0.13005605456E+03  0.17069158652E+03  0.89909368342E+02 0.  0.
          5    1    3    3  502    0  0.11506212390E+02 -0.88245439814E+02  0.66751151731E+02  0.11132312980E+03  0.41800000000E+01 0. -1.
         -5    1    3    3    0  502 -0.30587417302E+02  0.26818625782E+02  0.92595376002E+02  0.10122353898E+03  0.41800000000E+01 0. -1.
        -11    1    4    4    0    0 -0.27921990720E+02  0.16384468546E+02  0.95974637413E+01  0.33766842991E+02  0.00000000000E+00 0. -1.
         11    1    4    4    0    0  0.47003195632E+02  0.45042345485E+02  0.12045859082E+03  0.13692474353E+03  0.00000000000E+00 0.  1.
</event>
<event>
 8    1  0.6787197E-009  0.1534988E+03  0.7561462E-02  0.1196238E+00
          1   -1    0    0  501    0  0.00000000000E+00  0.00000000000E+00  0.18746402648E+03  0.18746402648E+03  0.00000000000E+00 0. -1.
         -1   -1    0    0    0  501 -0.00000000000E+00 -0.00000000000E+00 -0.13477698752E+03  0.13477698752E+03  0.00000000000E+00 0.  1.
         25    2    1    2    0    0  0.26809364160E+02  0.11053207854E+03  0.50081647896E+02  0.17632885272E+03  0.12509040910E+03 0.  0.
         23    2    1    2    0    0 -0.26809364160E+02 -0.11053207854E+03  0.26053910664E+01  0.14591216128E+03  0.91364590260E+02 0.  0.
          5    1    3    3  502    0  0.51237192802E+02  0.36909176877E+01 -0.81032631316E+01  0.52172867210E+02  0.41800000000E+01 0. -1.
         -5    1    3    3    0  502 -0.24427828642E+02  0.10684116086E+03  0.58184911028E+02  0.12415598550E+03  0.41800000000E+01 0. -1.
        -11    1    4    4    0    0 -0.60424055221E+02 -0.60516023144E+02 -0.12484710520E+01  0.85526686984E+02  0.00000000000E+00 0.  1.
         11    1    4    4    0    0  0.33614691061E+02 -0.50016055400E+02  0.38538621183E+01  0.60385474298E+02  0.00000000000E+00 0. -1.
</event>
<event>
 8    1  0.6787197E-009  0.8547711E+02  0.7561462E-02  0.1314190E+00
         -3   -1    0    0    0  501 -0.00000000000E+00  0.00000000000E+00  0.21276589290E+03  0.21276589290E+03  0.00000000000E+00 0.  1.
          3   -1    0    0  501    0  0.00000000000E+00 -0.00000000000E+00 -0.55515280739E+02  0.55515280739E+02  0.00000000000E+00 0. -1.
         25    2    1    2    0    0 -0.10155765473E+02  0.75562012317E+01  0.87472743011E+02  0.15316707767E+03  0.12509371353E+03 0.  0.
         23    2    1    2    0    0  0.10155765473E+02 -0.75562012317E+01  0.69777869150E+02  0.11511409596E+03  0.90675621405E+02 0.  0.
          5    1    3    3  502    0 -0.67034881086E+02 -0.49412751085E+01  0.46997318440E+02  0.82123759184E+02  0.41800000000E+01 0.  1.
         -5    1    3    3    0  502  0.56879115613E+02  0.12497476340E+02  0.40475424571E+02  0.71043318490E+02  0.41800000000E+01 0.  1.
        -11    1    4    4    0    0 -0.63216014789E+01  0.15582436886E+02 -0.16935848961E+02  0.23866251583E+02  0.00000000000E+00 0. -1.
         11    1    4    4    0    0  0.16477366952E+02 -0.23138638118E+02  0.86713718111E+02  0.91247844382E+02  0.00000000000E+00 0.  1.
</event>
<event>
 8    1  0.6787197E-009  0.1119388E+03  0.7561462E-02  0.1257021E+00
          2   -1    0    0  501    0  0.00000000000E+00  0.00000000000E+00  0.12352212238E+04  0.12352212238E+04  0.00000000000E+00 0. -1.
         -2   -1    0    0    0  501 -0.00000000000E+00 -0.00000000000E+00 -0.12924655738E+02  0.12924655738E+02  0.00000000000E+00 0.  1.
         25    2    1    2    0    0  0.55293360947E+02 -0.75204945802E+01  0.84472104713E+03  0.85575415015E+03  0.12509038507E+03 0.  0.
         23    2    1    2    0    0 -0.55293360947E+02  0.75204945802E+01  0.37757552089E+03  0.39239172934E+03  0.91071848980E+02 0.  0.
          5    1    3    3  502    0  0.35553145137E+02  0.47464904239E+02  0.64184721865E+03  0.64459465384E+03  0.41800000000E+01 0. -1.
         -5    1    3    3    0  502  0.19740215810E+02 -0.54985398819E+02  0.20287382848E+03  0.21115949632E+03  0.41800000000E+01 0. -1.
        -11    1    4    4    0    0 -0.19315420650E+02 -0.41075894774E+02  0.18826254513E+03  0.19365717262E+03  0.00000000000E+00 0.  1.
         11    1    4    4    0    0 -0.35977940297E+02  0.48596389354E+02  0.18931297576E+03  0.19873455673E+03  0.00000000000E+00 0. -1.
</event>
<event>
 8    1  0.6787197E-009  0.1105020E+03  0.7561462E-02  0.1259643E+00
         -3   -1    0    0    0  501 -0.00000000000E+00  0.00000000000E+00  0.68910896488E+02  0.68910896488E+02  0.00000000000E+00 0.  1.
          3   -1    0    0  501    0  0.00000000000E+00 -0.00000000000E+00 -0.18815852787E+03  0.18815852787E+03  0.00000000000E+00 0. -1.
         25    2    1    2    0    0 -0.20861239389E+02 -0.12101186297E+02 -0.55937969434E+02  0.13912350523E+03  0.12507862833E+03 0.  0.
         23    2    1    2    0    0  0.20861239389E+02  0.12101186297E+02 -0.63309661948E+02  0.11794591913E+03  0.96547897566E+02 0.  0.
          5    1    3    3  502    0 -0.64327591211E+02  0.21749208024E+02 -0.13270633284E+02  0.69315576521E+02  0.41800000000E+01 0. -1.
         -5    1    3    3    0  502  0.43466351821E+02 -0.33850394321E+02 -0.42667336150E+02  0.69807928708E+02  0.41800000000E+01 0. -1.
        -11    1    4    4    0    0  0.25015929785E+02 -0.39063366330E+02 -0.41245281643E+02  0.62071866331E+02  0.00000000000E+00 0.  1.
         11    1    4    4    0    0 -0.41546903960E+01  0.51164552627E+02 -0.22064380305E+02  0.55874052798E+02  0.00000000000E+00 0. -1.
</event>
<event>
 8    1  0.6787197E-009  0.1037395E+03  0.7561462E-02  0.1272623E+00
         -1   -1    0    0    0  501 -0.00000000000E+00  0.00000000000E+00  0.80702583690E+03  0.80702583690E+03  0.00000000000E+00 0.  1.
          1   -1    0    0  501    0  0.00000000000E+00 -0.00000000000E+00 -0.19629067044E+02  0.19629067044E+02  0.00000000000E+00 0. -1.
         25    2    1    2    0    0  0.23532611680E+02  0.58495638951E+02  0.39044038045E+03  0.41480892661E+03  0.12508889368E+03 0.  0.
         23    2    1    2    0    0 -0.23532611680E+02 -0.58495638951E+02  0.39695638940E+03  0.41184597733E+03  0.89817650640E+02 0.  0.
          5    1    3    3  502    0 -0.18578034165E+02 -0.83415933097E+01  0.26945826164E+03  0.27025904740E+03  0.41800000000E+01 0. -1.
         -5    1    3    3    0  502  0.42110645845E+02  0.66837232261E+02  0.12098211881E+03  0.14454987922E+03  0.41800000000E+01 0. -1.
        -11    1    4    4    0    0  0.18093694963E+02  0.14743674839E+02  0.56695920757E+02  0.61312194347E+02  0.00000000000E+00 0.  1.
         11    1    4    4    0    0 -0.41626306643E+02 -0.73239313790E+02  0.34026046864E+03  0.35053378298E+03  0.00000000000E+00 0. -1.
</event>
<event>
 8    1  0.6787197E-009  0.1225084E+03  0.7561462E-02  0.1239015E+00
          1   -1    0    0  501    0  0.00000000000E+00  0.00000000000E+00  0.14702786387E+04  0.14702786387E+04  0.00000000000E+00 0. -1.
         -1   -1    0    0    0  501 -0.00000000000E+00 -0.00000000000E+00 -0.19022588318E+02  0.19022588318E+02  0.00000000000E+00 0.  1.
         25    2    1    2    0    0  0.81307707627E+02 -0.40704484710E+02  0.11363100347E+04  0.11467847823E+04  0.12508814318E+03 0.  0.
         23    2    1    2    0    0 -0.81307707627E+02  0.40704484710E+02  0.31494601568E+03  0.34251644471E+03  0.99291105906E+02 0.  0.
          5    1    3    3  502    0 -0.28364281748E+02  0.79490622512E+01  0.36231988505E+03  0.36353939480E+03  0.41800000000E+01 0. -1.
         -5    1    3    3    0  502  0.10967198937E+03 -0.48653546961E+02  0.77399014962E+03  0.78324538747E+03  0.41800000000E+01 0. -1.
        -11    1    4    4    0    0 -0.30444533746E+02  0.61726660620E+00  0.12007059796E+02  0.32732554712E+02  0.00000000000E+00 0.  1.
         11    1    4    4    0    0 -0.50863173881E+02  0.40087218104E+02  0.30293895588E+03  0.30978389000E+03  0.00000000000E+00 0. -1.
</event>
<event>
 8    1  0.6787197E-009  0.1017135E+03  0.7561462E-02  0.1276733E+00
          1   -1    0    0  501    0  0.00000000000E+00  0.00000000000E+00  0.63544744596E+03  0.63544744596E+03  0.00000000000E+00 0. -1.
         -1   -1    0    0    0  501 -0.00000000000E+00 -0.00000000000E+00 -0.22375973298E+02  0.22375973298E+02  0.00000000000E+00 0.  1.
         25    2    1    2    0    0  0.98766692912E+00 -0.36732551599E+02  0.45884475500E+03  0.47700811797E+03  0.12509188459E+03 0.  0.
         23    2    1    2    0    0 -0.98766692912E+00  0.36732551599E+02  0.15422671766E+03  0.18081530128E+03  0.86936970870E+02 0.  0.
          5    1    3    3  502    0  0.57699607348E+02 -0.26281009840E+02  0.15171643419E+03  0.16448490803E+03  0.41800000000E+01 0. -1.
         -5    1    3    3    0  502 -0.56711940419E+02 -0.10451541759E+02  0.30712832080E+03  0.31252320994E+03  0.41800000000E+01 0. -1.
        -11    1    4    4    0    0 -0.45841974843E+01 -0.22380832123E+02  0.92473568839E+02  0.95253752928E+02  0.00000000000E+00 0. -1.
         11    1    4    4    0    0  0.35965305552E+01  0.59113383722E+02  0.61753148820E+02  0.85561548351E+02  0.00000000000E+00 0.  1.
</event>
<event>
 8    1  0.6787197E-009  0.2621786E+03  0.7561462E-02  0.1105841E+00
         -1   -1    0    0    0  501 -0.00000000000E+00  0.00000000000E+00  0.18308701991E+03  0.18308701991E+03  0.00000000000E+00 0.  1.
          1   -1    0    0  501    0  0.00000000000E+00 -0.00000000000E+00 -0.43433360684E+03  0.43433360684E+03  0.00000000000E+00 0. -1.
         25    2    1    2    0    0 -0.18859809490E+03 -0.16939150682E+03 -0.65335582325E+02  0.29013682958E+03  0.12509163673E+03 0.  0.
         23    2    1    2    0    0  0.18859809490E+03  0.16939150682E+03 -0.18591100460E+03  0.32728379716E+03  0.91044265441E+02 0.  0.
          5    1    3    3  502    0 -0.18131845391E+03 -0.11596584399E+03 -0.14250489020E+02  0.21574292002E+03  0.41800000000E+01 0.  1.
         -5    1    3    3    0  502 -0.72796409844E+01 -0.53425662833E+02 -0.51085093305E+02  0.74393909562E+02  0.41800000000E+01 0.  1.
        -11    1    4    4    0    0  0.45742490915E+02  0.57915878710E+02 -0.10619478099E+03  0.12932113513E+03  0.00000000000E+00 0. -1.
         11    1    4    4    0    0  0.14285560398E+03  0.11147562811E+03 -0.79716223618E+02  0.19796266203E+03  0.00000000000E+00 0.  1.
</event>
<event>
 8    1  0.6787197E-009  0.1038934E+03  0.7561462E-02  0.1272315E+00
         -1   -1    0    0    0  501 -0.00000000000E+00  0.00000000000E+00  0.42680004798E+02  0.42680004798E+02  0.00000000000E+00 0.  1.
          1   -1    0    0  501    0  0.00000000000E+00 -0.00000000000E+00 -0.43763590691E+03  0.43763590691E+03  0.00000000000E+00 0. -1.
         25    2    1    2    0    0 -0.11796595620E+02 -0.80415655794E+02 -0.18993503130E+03  0.24151438884E+03  0.12509215218E+03 0.  0.
         23    2    1    2    0    0  0.11796595620E+02  0.80415655794E+02 -0.20502087081E+03  0.23880152287E+03  0.91579323487E+02 0.  0.
          5    1    3    3  502    0  0.26721828332E+02 -0.72185522480E+02 -0.40817221073E+02  0.87225705507E+02  0.41800000000E+01 0.  1.
         -5    1    3    3    0  502 -0.38518423952E+02 -0.82301333140E+01 -0.14911781022E+03  0.15428868333E+03  0.41800000000E+01 0.  1.
        -11    1    4    4    0    0  0.27292265793E+02  0.50836685383E+02 -0.39449157423E+02  0.69896154217E+02  0.00000000000E+00 0.  1.
         11    1    4    4    0    0 -0.15495670172E+02  0.29578970410E+02 -0.16557171339E+03  0.16890536865E+03  0.00000000000E+00 0. -1.
</event>
<event>
 8    1  0.6787197E-009  0.1023756E+03  0.7561462E-02  0.1275378E+00
         -2   -1    0    0    0  501 -0.00000000000E+00  0.00000000000E+00  0.63074940623E+02  0.63074940623E+02  0.00000000000E+00 0.  1.
          2   -1    0    0  501    0  0.00000000000E+00 -0.00000000000E+00 -0.21312909515E+03  0.21312909515E+03  0.00000000000E+00 0. -1.
         25    2    1    2    0    0 -0.61929846407E+01 -0.42546209450E+02 -0.68885304797E+02  0.14913106992E+03  0.12508540203E+03 0.  0.
         23    2    1    2    0    0  0.61929846407E+01  0.42546209450E+02 -0.81168849736E+02  0.12707296586E+03  0.87810155949E+02 0.  0.
          5    1    3    3  502    0  0.69146487781E+01 -0.73314801178E+02 -0.84348141922E+02  0.11204889060E+03  0.41800000000E+01 0. -1.
         -5    1    3    3    0  502 -0.13107633419E+02  0.30768591728E+02  0.15462837126E+02  0.37082179315E+02  0.41800000000E+01 0. -1.
        -11    1    4    4    0    0  0.35510208495E+02 -0.10196383207E+02 -0.37043135894E+02  0.52317636173E+02  0.00000000000E+00 0. -1.
         11    1    4    4    0    0 -0.29317223854E+02  0.52742592656E+02 -0.44125713842E+02  0.74755329687E+02  0.00000000000E+00 0.  1.
</event>
<event>
 8    1  0.6787197E-009  0.5418823E+02  0.7561462E-02  0.1423977E+00
          1   -1    0    0  501    0  0.00000000000E+00  0.00000000000E+00  0.46309792715E+02  0.46309792715E+02  0.00000000000E+00 0. -1.
         -1   -1    0    0    0  501 -0.00000000000E+00 -0.00000000000E+00 -0.26684201067E+03  0.26684201067E+03  0.00000000000E+00 0.  1.
         25    2    1    2    0    0 -0.12382810748E+02  0.20147907690E+02 -0.11658961900E+03  0.17262727230E+03  0.12509102165E+03 0.  0.
         23    2    1    2    0    0  0.12382810748E+02 -0.20147907690E+02 -0.10394259895E+03  0.14052453108E+03  0.91563135448E+02 0.  0.
          5    1    3    3  502    0 -0.19106023761E+02  0.10406543826E+02  0.23314185190E+02  0.32161466531E+02  0.41800000000E+01 0.  1.
         -5    1    3    3    0  502  0.67232130128E+01  0.97413638638E+01 -0.13990380419E+03  0.14046580577E+03  0.41800000000E+01 0.  1.
        -11    1    4    4    0    0  0.12439703711E+02 -0.46084025591E+02 -0.18434435273E+02  0.51169444466E+02  0.00000000000E+00 0. -1.
         11    1    4    4    0    0 -0.56892963078E-01  0.25936117901E+02 -0.85508163681E+02  0.89355086619E+02  0.00000000000E+00 0.  1.
</event>
<event>
 8    1  0.6787197E-009  0.2368704E+03  0.7561462E-02  0.1121895E+00
         -2   -1    0    0    0  501 -0.00000000000E+00  0.00000000000E+00  0.52529034227E+02  0.52529034227E+02  0.00000000000E+00 0.  1.
          2   -1    0    0  501    0  0.00000000000E+00 -0.00000000000E+00 -0.10833491741E+04  0.10833491741E+04  0.00000000000E+00 0. -1.
         25    2    1    2    0    0 -0.16109600332E+03 -0.13791507173E+03 -0.54425542144E+03  0.59735537443E+03  0.12508793025E+03 0.  0.
         23    2    1    2    0    0  0.16109600332E+03  0.13791507173E+03 -0.48656471844E+03  0.53852283391E+03  0.91044649022E+02 0.  0.
          5    1    3    3  502    0 -0.89928637703E+02 -0.14838102822E+03 -0.36504780115E+03  0.40420472404E+03  0.41800000000E+01 0.  1.
         -5    1    3    3    0  502 -0.71167365615E+02  0.10465956490E+02 -0.17920762029E+03  0.19315065038E+03  0.41800000000E+01 0.  1.
        -11    1    4    4    0    0  0.13661001034E+00  0.39434127387E+02 -0.11880036099E+03  0.12517425788E+03  0.00000000000E+00 0. -1.
         11    1    4    4    0    0  0.16095939331E+03  0.98480944338E+02 -0.36776435745E+03  0.41334857603E+03  0.00000000000E+00 0.  1.
</event>
<event>
 8    1  0.6787197E-009  0.8692715E+02  0.7561462E-02  0.1310468E+00
          2   -1    0    0  501    0  0.00000000000E+00  0.00000000000E+00  0.23642850058E+03  0.23642850058E+03  0.00000000000E+00 0. -1.
         -2   -1    0    0    0  501 -0.00000000000E+00 -0.00000000000E+00 -0.62300329290E+02  0.62300329290E+02  0.00000000000E+00 0.  1.
         25    2    1    2    0    0 -0.49833759876E+02 -0.18489537209E+02  0.95532003869E+02  0.16612953455E+03  0.12508953544E+03 0.  0.
         23    2    1    2    0    0  0.49833759876E+02  0.18489537209E+02  0.78596167423E+02  0.13259929532E+03  0.92628013992E+02 0.  0.
          5    1    3    3  502    0  0.13193809742E+02 -0.23032158408E+02  0.99121158251E+02  0.10269875048E+03  0.41800000000E+01 0.  1.
         -5    1    3    3    0  502 -0.63027569618E+02  0.45426211986E+01 -0.35891543821E+01  0.63430784076E+02  0.41800000000E+01 0.  1.
        -11    1    4    4    0    0  0.33548090198E+02  0.42807464744E+02  0.64815760427E+01  0.54771929141E+02  0.00000000000E+00 0.  1.
         11    1    4    4    0    0  0.16285669677E+02 -0.24317927535E+02  0.72114591381E+02  0.77827366179E+02  0.00000000000E+00 0. -1.
</event>
<event>
 8    1  0.6787197E-009  0.2253166E+03  0.7561462E-02  0.1129980E+00
         -2   -1    0    0    0  501 -0.00000000000E+00  0.00000000000E+00  0.95434591407E+02  0.95434591407E+02  0.00000000000E+00 0. -1.
          2   -1    0    0  501    0  0.00000000000E+00 -0.00000000000E+00 -0.63523133636E+03  0.63523133636E+03  0.00000000000E+00 0.  1.
         25    2    1    2    0    0 -0.10612019335E+03  0.18921834070E+03 -0.33130568308E+03  0.41530197861E+03  0.12508877611E+03 0.  0.
         23    2    1    2    0    0  0.10612019335E+03 -0.18921834070E+03 -0.20849106188E+03  0.31536394916E+03  0.94450101383E+02 0.  0.
          5    1    3    3  502    0 -0.14885173303E+02  0.40737369686E+02 -0.31099929956E+01  0.43683476620E+02  0.41800000000E+01 0. -1.
         -5    1    3    3    0  502 -0.91235020051E+02  0.14848097101E+03 -0.32819569008E+03  0.37161850199E+03  0.41800000000E+01 0. -1.
        -11    1    4    4    0    0  0.10448771618E+03 -0.10372244209E+03 -0.10355760039E+03  0.18000056785E+03  0.00000000000E+00 0. -1.
         11    1    4    4    0    0  0.16324771709E+01 -0.85495898607E+02 -0.10493346149E+03  0.13536338131E+03  0.00000000000E+00 0.  1.
</event>
<event>
 8    1  0.6787197E-009  0.1655355E+03  0.7561462E-02  0.1182585E+00
         -2   -1    0    0    0  501 -0.00000000000E+00  0.00000000000E+00  0.21907927049E+03  0.21907927049E+03  0.00000000000E+00 0. -1.
          2   -1    0    0  501    0  0.00000000000E+00 -0.00000000000E+00 -0.13848303952E+03  0.13848303952E+03  0.00000000000E+00 0.  1.
         25    2    1    2    0    0 -0.73269300128E+02  0.10151135057E+03 -0.12334616624E+02  0.17740934300E+03  0.12509591352E+03 0.  0.
         23    2    1    2    0    0  0.73269300128E+02 -0.10151135057E+03  0.92930847590E+02  0.18015296701E+03  0.90255218436E+02 0.  0.
          5    1    3    3  502    0 -0.25567401076E+02 -0.28430879939E+02 -0.12987421278E+01  0.38485920322E+02  0.41800000000E+01 0. -1.
         -5    1    3    3    0  502 -0.47701899053E+02  0.12994223051E+03 -0.11035874497E+02  0.13892342268E+03  0.41800000000E+01 0. -1.
        -11    1    4    4    0    0  0.63456813061E+02 -0.12630315609E+02  0.34382415898E+02  0.73269656197E+02  0.00000000000E+00 0.  1.
         11    1    4    4    0    0  0.98124870675E+01 -0.88881034957E+02  0.58548431693E+02  0.10688331082E+03  0.00000000000E+00 0. -1.
</event>
<event>
 8    1  0.6787197E-009  0.1628336E+03  0.7561462E-02  0.1185534E+00
         -3   -1    0    0    0  501 -0.00000000000E+00  0.00000000000E+00  0.25654330475E+03  0.25654330475E+03  0.00000000000E+00 0.  1.
          3   -1    0    0  501    0  0.00000000000E+00 -0.00000000000E+00 -0.10798728240E+03  0.10798728240E+03  0.00000000000E+00 0. -1.
         25    2    1    2    0    0 -0.10212024828E+03 -0.74177570890E+02  0.88394332861E+02  0.19847224944E+03  0.12508724389E+03 0.  0.
         23    2    1    2    0    0  0.10212024828E+03  0.74177570890E+02  0.60161689489E+02  0.16605833771E+03  0.89582841603E+02 0.  0.
          5    1    3    3  502    0 -0.10621371334E+03 -0.98777781463E+01  0.79915533401E+02  0.13335249634E+03  0.41800000000E+01 0. -1.
         -5    1    3    3    0  502  0.40934650565E+01 -0.64299792744E+02  0.84787994597E+01  0.65119753097E+02  0.41800000000E+01 0. -1.
        -11    1    4    4    0    0 -0.31495273834E+01 -0.15648745239E+02  0.10134883037E+02  0.18908162377E+02  0.00000000000E+00 0.  1.
         11    1    4    4    0    0  0.10526977567E+03  0.89826316129E+02  0.50026806451E+02  0.14715017534E+03  0.00000000000E+00 0. -1.
</event>
<event>
 8    1  0.6787197E-009  0.1234108E+03  0.7561462E-02  0.1237574E+00
         -1   -1    0    0    0  501 -0.00000000000E+00  0.00000000000E+00  0.97180149831E+02  0.97180149831E+02  0.00000000000E+00 0.  1.
          1   -1    0    0  501    0  0.00000000000E+00 -0.00000000000E+00 -0.23915646891E+03  0.23915646891E+03  0.00000000000E+00 0. -1.
         25    2    1    2    0    0  0.10016257224E+03 -0.26321927342E+02 -0.10753731782E+03  0.19477841420E+03  0.12509584796E+03 0.  0.
         23    2    1    2    0    0 -0.10016257224E+03  0.26321927342E+02 -0.34439001252E+02  0.14155820454E+03  0.90151515394E+02 0.  0.
          5    1    3    3  502    0  0.54742877226E+02 -0.36385237947E+02 -0.12786993179E+03  0.14383622632E+03  0.41800000000E+01 0.  1.
         -5    1    3    3    0  502  0.45419695012E+02  0.10063310605E+02  0.20332613963E+02  0.50942187879E+02  0.41800000000E+01 0.  1.
        -11    1    4    4    0    0 -0.24991259349E+02  0.49612795810E+02 -0.29020111107E+02  0.62675030121E+02  0.00000000000E+00 0.  1.
         11    1    4    4    0    0 -0.75171312889E+02 -0.23290868468E+02 -0.54188901448E+01  0.78883174415E+02  0.00000000000E+00 0. -1.
</event>
<event>
 8    1  0.6787197E-009  0.1361586E+03  0.7561462E-02  0.1218593E+00
          2   -1    0    0  501    0  0.00000000000E+00  0.00000000000E+00  0.22690005128E+04  0.22690005128E+04  0.00000000000E+00 0. -1.
         -2   -1    0    0    0  501 -0.00000000000E+00 -0.00000000000E+00 -0.97843945804E+01  0.97843945804E+01  0.00000000000E+00 0.  1.
         25    2    1    2    0    0 -0.55055779564E+01 -0.88908634823E+02  0.16091302697E+04  0.16164411355E+04  0.12508662201E+03 0.  0.
         23    2    1    2    0    0  0.55055779564E+01  0.88908634823E+02  0.65008584857E+03  0.66234377191E+03  0.90291776713E+02 0.  0.
          5    1    3    3  502    0  0.41118964318E+02 -0.89788592501E+02  0.82237131174E+03  0.82829029171E+03  0.41800000000E+01 0. -1.
         -5    1    3    3    0  502 -0.46624542275E+02  0.87995767861E+00  0.78675895795E+03  0.78815084380E+03  0.41800000000E+01 0. -1.
        -11    1    4    4    0    0 -0.15970988294E+02  0.10083160062E+03  0.50929822290E+03  0.51942926757E+03  0.00000000000E+00 0. -1.
         11    1    4    4    0    0  0.21476566250E+02 -0.11922965797E+02  0.14078762567E+03  0.14291450434E+03  0.00000000000E+00 0.  1.
</event>
<event>
 8    1  0.6787197E-009  0.7698889E+02  0.7561462E-02  0.1337820E+00
          3   -1    0    0  501    0  0.00000000000E+00  0.00000000000E+00  0.74610200881E+02  0.74610200881E+02  0.00000000000E+00 0. -1.
         -3   -1    0    0    0  501 -0.00000000000E+00 -0.00000000000E+00 -0.16708451723E+03  0.16708451723E+03  0.00000000000E+00 0.  1.
         25    2    1    2    0    0  0.25249298319E+02  0.10030099734E+02 -0.56908350857E+02  0.14008600596E+03  0.12508956272E+03 0.  0.
         23    2    1    2    0    0 -0.25249298319E+02 -0.10030099734E+02 -0.35565965495E+02  0.10160871216E+03  0.91220954383E+02 0.  0.
          5    1    3    3  502    0  0.72414615411E+00  0.57286027246E+02 -0.64243758399E+02  0.86179731947E+02  0.41800000000E+01 0. -1.
         -5    1    3    3    0  502  0.24525152165E+02 -0.47255927511E+02  0.73354075419E+01  0.53906274008E+02  0.41800000000E+01 0. -1.
        -11    1    4    4    0    0 -0.15795874299E+02 -0.22494289012E+02  0.26151515094E+02  0.37939483717E+02  0.00000000000E+00 0. -1.
         11    1    4    4    0    0 -0.94534240198E+01  0.12464189277E+02 -0.61717480589E+02  0.63669228441E+02  0.00000000000E+00 0.  1.
</event>
<event>
 8    1  0.6787197E-009  0.1099085E+03  0.7561462E-02  0.1260739E+00
          1   -1    0    0  501    0  0.00000000000E+00  0.00000000000E+00  0.40872031924E+02  0.40872031924E+02  0.00000000000E+00 0. -1.
         -1   -1    0    0    0  501 -0.00000000000E+00 -0.00000000000E+00 -0.42240337190E+03  0.42240337190E+03  0.00000000000E+00 0.  1.
         25    2    1    2    0    0  0.73314561393E+02 -0.60229472723E-01 -0.21807693803E+03  0.26187937628E+03  0.12509287862E+03 0.  0.
         23    2    1    2    0    0 -0.73314561393E+02  0.60229472723E-01 -0.16345440195E+03  0.20139602755E+03  0.92021681441E+02 0.  0.
          5    1    3    3  502    0  0.52579724362E+02 -0.41367245914E+02 -0.20189378001E+03  0.21273092689E+03  0.41800000000E+01 0.  1.
         -5    1    3    3    0  502  0.20734837030E+02  0.41307016441E+02 -0.16183158018E+02  0.49148449389E+02  0.41800000000E+01 0.  1.
        -11    1    4    4    0    0 -0.49323481233E+02 -0.37395221741E+02 -0.13521495625E+03  0.14870875161E+03  0.00000000000E+00 0.  1.
         11    1    4    4    0    0 -0.23991080159E+02  0.37455451214E+02 -0.28239445699E+02  0.52687275942E+02  0.00000000000E+00 0. -1.
</event>
<event>
 8    1  0.6787197E-009  0.3447649E+03  0.7561462E-02  0.1064784E+00
          2   -1    0    0  501    0  0.00000000000E+00  0.00000000000E+00  0.10167789437E+04  0.10167789437E+04  0.00000000000E+00 0. -1.
         -2   -1    0    0    0  501 -0.00000000000E+00 -0.00000000000E+00 -0.13314156957E+03  0.13314156957E+03  0.00000000000E+00 0.  1.
         25    2    1    2    0    0  0.31792485153E+03 -0.12159856767E+03  0.31210897295E+03  0.47845750257E+03  0.12508856019E+03 0.  0.
         23    2    1    2    0    0 -0.31792485153E+03  0.12159856767E+03  0.57152840119E+03  0.67146301072E+03  0.91408087745E+02 0.  0.
          5    1    3    3  502    0  0.31831573979E+03 -0.11807022427E+03  0.32149185030E+03  0.46758953182E+03  0.41800000000E+01 0.  1.
         -5    1    3    3    0  502 -0.39088825715E+00 -0.35283434020E+01 -0.93828773545E+01  0.10867970751E+02  0.41800000000E+01 0.  1.
        -11    1    4    4    0    0 -0.24157985555E+03  0.67145636219E+02  0.47358554265E+03  0.53586624197E+03  0.00000000000E+00 0. -1.
         11    1    4    4    0    0 -0.76344995986E+02  0.54452931454E+02  0.97942858543E+02  0.13559676875E+03  0.00000000000E+00 0.  1.
</event>
<event>
 8    1  0.6787197E-009  0.2464485E+03  0.7561462E-02  0.1115570E+00
          2   -1    0    0  501    0  0.00000000000E+00  0.00000000000E+00  0.80931002951E+03  0.80931002951E+03  0.00000000000E+00 0.  1.
         -2   -1    0    0    0  501 -0.00000000000E+00 -0.00000000000E+00 -0.83197091207E+02  0.83197091207E+02  0.00000000000E+00 0. -1.
         25    2    1    2    0    0  0.20897412674E+03 -0.10216297453E+03  0.31313600247E+03  0.40964537811E+03  0.12509085001E+03 0.  0.
         23    2    1    2    0    0 -0.20897412674E+03  0.10216297453E+03  0.41297693584E+03  0.48286174261E+03  0.92184889921E+02 0.  0.
          5    1    3    3  502    0  0.93173613451E+02 -0.10550496575E+03  0.12308414719E+03  0.18702887405E+03  0.41800000000E+01 0.  1.
         -5    1    3    3    0  502  0.11580051329E+03  0.33419912216E+01  0.19005185528E+03  0.22261650406E+03  0.41800000000E+01 0.  1.
        -11    1    4    4    0    0 -0.10487870708E+03  0.73868439003E+02  0.30190357960E+03  0.32802722578E+03  0.00000000000E+00 0.  1.
         11    1    4    4    0    0 -0.10409541966E+03  0.28294535525E+02  0.11107335624E+03  0.15483451683E+03  0.00000000000E+00 0. -1.
</event>
<event>
 8    1  0.6787197E-009  0.1064831E+03  0.7561462E-02  0.1267225E+00
          1   -1    0    0  501    0  0.00000000000E+00  0.00000000000E+00  0.43829010644E+02  0.43829010644E+02  0.00000000000E+00 0. -1.
         -1   -1    0    0    0  501 -0.00000000000E+00 -0.00000000000E+00 -0.56089610395E+03  0.56089610395E+03  0.00000000000E+00 0.  1.
         25    2    1    2    0    0  0.27573489821E+02 -0.63231111136E+02 -0.10753590409E+03  0.17880262941E+03  0.12509172178E+03 0.  0.
         23    2    1    2    0    0 -0.27573489821E+02  0.63231111136E+02 -0.40953118922E+03  0.42592248519E+03  0.94528819374E+02 0.  0.
          5    1    3    3  502    0 -0.39013414516E+02 -0.14852719654E+02  0.16735778602E+01  0.41987177283E+02  0.41800000000E+01 0.  1.
         -5    1    3    3    0  502  0.66586904337E+02 -0.48378391482E+02 -0.10920948195E+03  0.13681545212E+03  0.41800000000E+01 0.  1.
        -11    1    4    4    0    0 -0.40223483917E+02  0.64364769647E+02 -0.40558090752E+03  0.41262164846E+03  0.00000000000E+00 0.  1.
         11    1    4    4    0    0  0.12649994096E+02 -0.11336585112E+01 -0.39502816933E+01  0.13300836730E+02  0.00000000000E+00 0. -1.
</event>
<event>
 8    1  0.6787197E-009  0.8736553E+02  0.7561462E-02  0.1309360E+00
          1   -1    0    0  501    0  0.00000000000E+00  0.00000000000E+00  0.38110930014E+03  0.38110930014E+03  0.00000000000E+00 0. -1.
         -1   -1    0    0    0  501 -0.00000000000E+00 -0.00000000000E+00 -0.39560683667E+02  0.39560683667E+02  0.00000000000E+00 0.  1.
         25    2    1    2    0    0 -0.44485493345E+02  0.29224119789E+01  0.25150133881E+03  0.28440639235E+03  0.12508626214E+03 0.  0.
         23    2    1    2    0    0  0.44485493345E+02 -0.29224119789E+01  0.90047277664E+02  0.13626359146E+03  0.92042134551E+02 0.  0.
          5    1    3    3  502    0 -0.36645685248E+02  0.28183036455E+02  0.25334802195E+03  0.25756529739E+03  0.41800000000E+01 0. -1.
         -5    1    3    3    0  502 -0.78398080972E+01 -0.25260624477E+02 -0.18466831446E+01  0.26841094959E+02  0.41800000000E+01 0. -1.
        -11    1    4    4    0    0  0.72239914722E+02  0.57209229732E+01  0.56606919771E+02  0.91954758467E+02  0.00000000000E+00 0. -1.
         11    1    4    4    0    0 -0.27754421378E+02 -0.86433349520E+01  0.33440357893E+02  0.44308832992E+02  0.00000000000E+00 0.  1.
</event>
<event>
 8    1  0.6787197E-009  0.9725770E+02  0.7561462E-02  0.1286171E+00
          2   -1    0    0  501    0  0.00000000000E+00  0.00000000000E+00  0.55793838489E+02  0.55793838489E+02  0.00000000000E+00 0.  1.
         -2   -1    0    0    0  501 -0.00000000000E+00 -0.00000000000E+00 -0.21516015679E+03  0.21516015679E+03  0.00000000000E+00 0. -1.
         25    2    1    2    0    0  0.16304297185E+02 -0.29263755672E+01 -0.58668176068E+02  0.13915310849E+03  0.12508892413E+03 0.  0.
         23    2    1    2    0    0 -0.16304297185E+02  0.29263755672E+01 -0.10069814223E+03  0.13180088679E+03  0.83408417608E+02 0.  0.
          5    1    3    3  502    0  0.60203451879E+02 -0.18791042050E+02 -0.66379302414E+02  0.91658295143E+02  0.41800000000E+01 0.  1.
         -5    1    3    3    0  502 -0.43899154695E+02  0.15864666483E+02  0.77111263465E+01  0.47494813349E+02  0.41800000000E+01 0.  1.
        -11    1    4    4    0    0 -0.44835400346E+02  0.22182981069E+02 -0.67158550248E+02  0.83741080986E+02  0.00000000000E+00 0.  1.
         11    1    4    4    0    0  0.28531103161E+02 -0.19256605502E+02 -0.33539591986E+02  0.48059805801E+02  0.00000000000E+00 0. -1.
</event>
<event>
 8    1  0.6787197E-009  0.1904554E+03  0.7561462E-02  0.1158051E+00
         -1   -1    0    0    0  501 -0.00000000000E+00  0.00000000000E+00  0.42293164390E+02  0.42293164390E+02  0.00000000000E+00 0.  1.
          1   -1    0    0  501    0  0.00000000000E+00 -0.00000000000E+00 -0.99923471082E+03  0.99923471082E+03  0.00000000000E+00 0. -1.
         25    2    1    2    0    0  0.12060549999E+03 -0.12552791331E+03 -0.51792718827E+03  0.56053431627E+03  0.12508878331E+03 0.  0.
         23    2    1    2    0    0 -0.12060549999E+03  0.12552791331E+03 -0.43901435816E+03  0.48099355894E+03  0.91204459475E+02 0.  0.
          5    1    3    3  502    0 -0.63223160508E+01 -0.29525733805E+02 -0.22576169939E+03  0.22781035523E+03  0.41800000000E+01 0. -1.
         -5    1    3    3    0  502  0.12692781604E+03 -0.96002179509E+02 -0.29216548888E+03  0.33272396104E+03  0.41800000000E+01 0. -1.
        -11    1    4    4    0    0 -0.33300135552E+02  0.91767288392E+02 -0.27931064006E+03  0.29587931306E+03  0.00000000000E+00 0. -1.
         11    1    4    4    0    0 -0.87305364438E+02  0.33760624922E+02 -0.15970371810E+03  0.18511424589E+03  0.00000000000E+00 0.  1.
</event>
<event>
 8    1  0.6787197E-009  0.7669702E+02  0.7561462E-02  0.1338695E+00
          1   -1    0    0  501    0  0.00000000000E+00  0.00000000000E+00  0.55259363461E+03  0.55259363461E+03  0.00000000000E+00 0. -1.
         -1   -1    0    0    0  501 -0.00000000000E+00 -0.00000000000E+00 -0.23557821762E+02  0.23557821762E+02  0.00000000000E+00 0.  1.
         25    2    1    2    0    0 -0.24535929420E+02  0.17664612837E+02  0.35196283342E+03  0.37475193976E+03  0.12508848814E+03 0.  0.
         23    2    1    2    0    0  0.24535929420E+02 -0.17664612837E+02  0.17707297943E+03  0.20139951661E+03  0.91065223158E+02 0.  0.
          5    1    3    3  502    0  0.16744491941E+02 -0.91625670779E+01  0.20486041035E+00  0.19540854987E+02  0.41800000000E+01 0. -1.
         -5    1    3    3    0  502 -0.41280421361E+02  0.26827179915E+02  0.35175797301E+03  0.35521108477E+03  0.41800000000E+01 0. -1.
        -11    1    4    4    0    0 -0.22685333970E+02  0.14849047639E+02  0.10938001037E+03  0.11269030687E+03  0.00000000000E+00 0. -1.
         11    1    4    4    0    0  0.47221263389E+02 -0.32513660477E+02  0.67692969054E+02  0.88709209742E+02  0.00000000000E+00 0.  1.
</event>
<event>
 8    1  0.6787197E-009  0.1002176E+03  0.7561462E-02  0.1279839E+00
         -2   -1    0    0    0  501 -0.00000000000E+00  0.00000000000E+00  0.36573011416E+02  0.36573011416E+02  0.00000000000E+00 0.  1.
          2   -1    0    0  501    0  0.00000000000E+00 -0.00000000000E+00 -0.39829684001E+03  0.39829684001E+03  0.00000000000E+00 0. -1.
         25    2    1    2    0    0  0.27466355381E+02  0.35137163026E+02 -0.25944919784E+03  0.29146328928E+03  0.12509173368E+03 0.  0.
         23    2    1    2    0    0 -0.27466355381E+02 -0.35137163026E+02 -0.10227463076E+03  0.14340656215E+03  0.90090626970E+02 0.  0.
          5    1    3    3  502    0  0.37276756547E+02 -0.37155288354E+02 -0.15687489949E+03  0.16552123284E+03  0.41800000000E+01 0. -1.
         -5    1    3    3    0  502 -0.98104011662E+01  0.72292451380E+02 -0.10257429835E+03  0.12594205644E+03  0.41800000000E+01 0. -1.
        -11    1    4    4    0    0  0.41816225672E+01 -0.41976866519E+02 -0.69758790606E+01  0.42757527744E+02  0.00000000000E+00 0.  1.
         11    1    4    4    0    0 -0.31647977948E+02  0.68397034936E+01 -0.95298751696E+02  0.10064903441E+03  0.00000000000E+00 0. -1.
</event>
<event>
 8    1  0.6787197E-009  0.1038452E+03  0.7561462E-02  0.1272412E+00
         -1   -1    0    0    0  501 -0.00000000000E+00  0.00000000000E+00  0.10625280134E+03  0.10625280134E+03  0.00000000000E+00 0.  1.
          1   -1    0    0  501    0  0.00000000000E+00 -0.00000000000E+00 -0.12098669199E+03  0.12098669199E+03  0.00000000000E+00 0. -1.
         25    2    1    2    0    0  0.23089424452E+02 -0.39478003756E+02 -0.37017938421E+01  0.13323938577E+03  0.12508955328E+03 0.  0.
         23    2    1    2    0    0 -0.23089424452E+02  0.39478003756E+02 -0.11032096807E+02  0.94000107567E+02  0.81379842470E+02 0.  0.
          5    1    3    3  502    0  0.63329021961E+02 -0.60508727709E+01  0.30422457993E+02  0.70641180866E+02  0.41800000000E+01 0. -1.
         -5    1    3    3    0  502 -0.40239597509E+02 -0.33427130985E+02 -0.34124251835E+02  0.62598204902E+02  0.41800000000E+01 0. -1.
        -11    1    4    4    0    0 -0.31113604964E+02 -0.16285950639E+02  0.48852716313E+01  0.35456374335E+02  0.00000000000E+00 0. -1.
         11    1    4    4    0    0  0.80241805115E+01  0.55763954395E+02 -0.15917368438E+02  0.58543733232E+02  0.00000000000E+00 0.  1.
</event>
<event>
 8    1  0.6787197E-009  0.1010815E+03  0.7561462E-02  0.1278038E+00
          2   -1    0    0  501    0  0.00000000000E+00  0.00000000000E+00  0.49207304816E+03  0.49207304816E+03  0.00000000000E+00 0. -1.
         -2   -1    0    0    0  501 -0.00000000000E+00 -0.00000000000E+00 -0.25818997061E+02  0.25818997061E+02  0.00000000000E+00 0.  1.
         25    2    1    2    0    0 -0.33089228709E+01 -0.10547488470E+02  0.21211647993E+03  0.24651024511E+03  0.12510676001E+03 0.  0.
         23    2    1    2    0    0  0.33089228709E+01  0.10547488470E+02  0.25413757117E+03  0.27138180012E+03  0.94551456206E+02 0.  0.
          5    1    3    3  502    0 -0.17286483135E+02 -0.58371703639E+02  0.17169090889E+03  0.18221229070E+03  0.41800000000E+01 0.  1.
         -5    1    3    3    0  502  0.13977560264E+02  0.47824215170E+02  0.40425571040E+02  0.64297954411E+02  0.41800000000E+01 0.  1.
        -11    1    4    4    0    0  0.20093867109E+02 -0.36238372298E+02  0.77475690992E+02  0.87860490648E+02  0.00000000000E+00 0.  1.
         11    1    4    4    0    0 -0.16784944238E+02  0.46785860768E+02  0.17666188018E+03  0.18352130947E+03  0.00000000000E+00 0. -1.
</event>
<event>
 8    1  0.6787197E-009  0.1718719E+03  0.7561462E-02  0.1175910E+00
          2   -1    0    0  501    0  0.00000000000E+00  0.00000000000E+00  0.38627412033E+03  0.38627412033E+03  0.00000000000E+00 0. -1.
         -2   -1    0    0    0  501 -0.00000000000E+00 -0.00000000000E+00 -0.84668706416E+02  0.84668706416E+02  0.00000000000E+00 0.  1.
         25    2    1    2    0    0  0.85363871498E+02 -0.10377921069E+03  0.90334150294E+02  0.20461114857E+03  0.12509335826E+03 0.  0.
         23    2    1    2    0    0 -0.85363871498E+02  0.10377921069E+03  0.21127126362E+03  0.26633167818E+03  0.90773899554E+02 0.  0.
          5    1    3    3  502    0  0.50162260024E+02  0.20459574704E+02  0.29105029782E+02  0.61639449108E+02  0.41800000000E+01 0.  1.
         -5    1    3    3    0  502  0.35201611474E+02 -0.12423878540E+03  0.61229120511E+02  0.14297169946E+03  0.41800000000E+01 0.  1.
        -11    1    4    4    0    0 -0.10482777108E+02 -0.15895316847E+02  0.13483829437E+02  0.23331595956E+02  0.00000000000E+00 0.  1.
         11    1    4    4    0    0 -0.74881094390E+02  0.11967452754E+03  0.19778743418E+03  0.24300008222E+03  0.00000000000E+00 0. -1.
</event>
<event>
 8    1  0.6787197E-009  0.9008342E+02  0.7561462E-02  0.1302650E+00
          4   -1    0    0  501    0  0.00000000000E+00  0.00000000000E+00  0.76822969193E+02  0.76822969193E+02  0.00000000000E+00 0.  1.
         -4   -1    0    0    0  501 -0.00000000000E+00 -0.00000000000E+00 -0.15396316502E+03  0.15396316502E+03  0.00000000000E+00 0. -1.
         25    2    1    2    0    0 -0.10147225769E+02  0.10145582225E+02 -0.52265643111E+02  0.13632558923E+03  0.12508824805E+03 0.  0.
         23    2    1    2    0    0  0.10147225769E+02 -0.10145582225E+02 -0.24874552713E+02  0.94460544977E+02  0.89989733610E+02 0.  0.
          5    1    3    3  502    0 -0.54412367254E+02 -0.32025638242E+02 -0.16580002510E+02  0.65411895693E+02  0.41800000000E+01 0.  1.
         -5    1    3    3    0  502  0.44265141485E+02  0.42171220468E+02 -0.35685640601E+02  0.70913693540E+02  0.41800000000E+01 0.  1.
        -11    1    4    4    0    0 -0.31613661663E+01 -0.30842541398E+02 -0.50293768558E+02  0.59082313358E+02  0.00000000000E+00 0. -1.
         11    1    4    4    0    0  0.13308591935E+02  0.20696959173E+02  0.25419215845E+02  0.35378231619E+02  0.00000000000E+00 0.  1.
</event>
<event>
 8    1  0.6787197E-009  0.1301326E+03  0.7561462E-02  0.1227259E+00
         -1   -1    0    0    0  501 -0.00000000000E+00  0.00000000000E+00  0.49400351000E+02  0.49400351000E+02  0.00000000000E+00 0.  1.
          1   -1    0    0  501    0  0.00000000000E+00 -0.00000000000E+00 -0.54569861505E+03  0.54569861505E+03  0.00000000000E+00 0. -1.
         25    2    1    2    0    0  0.87585425776E+02  0.18470453910E+02 -0.41700139695E+03  0.44446562192E+03  0.12508860675E+03 0.  0.
         23    2    1    2    0    0 -0.87585425776E+02 -0.18470453910E+02 -0.79296867101E+02  0.15063334413E+03  0.91597198400E+02 0.  0.
          5    1    3    3  502    0  0.87925775457E+02 -0.38468822077E+02 -0.24121797512E+03  0.25964278573E+03  0.41800000000E+01 0. -1.
         -5    1    3    3    0  502 -0.34034968126E+00  0.56939275987E+02 -0.17578342183E+03  0.18482283619E+03  0.41800000000E+01 0. -1.
        -11    1    4    4    0    0  0.85901749474E+01 -0.51462113606E+01 -0.47381787060E+02  0.48428383640E+02  0.00000000000E+00 0. -1.
         11    1    4    4    0    0 -0.96175600723E+02 -0.13324242549E+02 -0.31915080041E+02  0.10220496049E+03  0.00000000000E+00 0.  1.
</event>
<event>
 8    1  0.6787197E-009  0.7146422E+02  0.7561462E-02  0.1355184E+00
         -2   -1    0    0    0  501 -0.00000000000E+00  0.00000000000E+00  0.42901659993E+02  0.42901659993E+02  0.00000000000E+00 0.  1.
          2   -1    0    0  501    0  0.00000000000E+00 -0.00000000000E+00 -0.39151728076E+03  0.39151728076E+03  0.00000000000E+00 0. -1.
         25    2    1    2    0    0 -0.30409955581E+02  0.63205868707E+02 -0.20647286011E+03  0.25139271856E+03  0.12509000656E+03 0.  0.
         23    2    1    2    0    0  0.30409955581E+02 -0.63205868707E+02 -0.14214276066E+03  0.18302622220E+03  0.91511127021E+02 0.  0.
          5    1    3    3  502    0 -0.27655484712E+02  0.45843964071E+02 -0.22148405408E+03  0.22790163117E+03  0.41800000000E+01 0.  1.
         -5    1    3    3    0  502 -0.27544708687E+01  0.17361904636E+02  0.15011193967E+02  0.23491087388E+02  0.41800000000E+01 0.  1.
        -11    1    4    4    0    0  0.11969882533E+02 -0.38565093610E+02 -0.29677622668E+01  0.40488913863E+02  0.00000000000E+00 0.  1.
         11    1    4    4    0    0  0.18440073048E+02 -0.24640775097E+02 -0.13917499839E+03  0.14253730834E+03  0.00000000000E+00 0. -1.
</event>
<event>
 8    1  0.6787197E-009  0.8682201E+02  0.7561462E-02  0.1310735E+00
          3   -1    0    0  501    0  0.00000000000E+00  0.00000000000E+00  0.50211698780E+02  0.50211698780E+02  0.00000000000E+00 0. -1.
         -3   -1    0    0    0  501 -0.00000000000E+00 -0.00000000000E+00 -0.25659232326E+03  0.25659232326E+03  0.00000000000E+00 0.  1.
         25    2    1    2    0    0 -0.16707176468E+02 -0.28833219288E+02 -0.13722656231E+03  0.18865170981E+03  0.12509138233E+03 0.  0.
         23    2    1    2    0    0  0.16707176468E+02  0.28833219288E+02 -0.69154062169E+02  0.11815231222E+03  0.89817594541E+02 0.  0.
          5    1    3    3  502    0  0.41823085236E+02  0.13729490220E+02 -0.15273346393E+02  0.46780518065E+02  0.41800000000E+01 0. -1.
         -5    1    3    3    0  502 -0.58530261705E+02 -0.42562709508E+02 -0.12195321591E+03  0.14187119175E+03  0.41800000000E+01 0. -1.
        -11    1    4    4    0    0  0.27625615550E+02  0.34849110598E+02  0.33384572587E+01  0.44595744650E+02  0.00000000000E+00 0. -1.
         11    1    4    4    0    0 -0.10918439082E+02 -0.60158913096E+01 -0.72492519428E+02  0.73556567574E+02  0.00000000000E+00 0.  1.
</event>
<event>
 8    1  0.6787197E-009  0.1064901E+03  0.7561462E-02  0.1267211E+00
          2   -1    0    0  501    0  0.00000000000E+00  0.00000000000E+00  0.22990256463E+03  0.22990256463E+03  0.00000000000E+00 0. -1.
         -2   -1    0    0    0  501 -0.00000000000E+00 -0.00000000000E+00 -0.79862272924E+02  0.79862272924E+02  0.00000000000E+00 0.  1.
         25    2    1    2    0    0  0.60418418535E+02 -0.31807820541E+02  0.33136455111E+02  0.14630872736E+03  0.12508435673E+03 0.  0.
         23    2    1    2    0    0 -0.60418418535E+02  0.31807820541E+02  0.11690383660E+03  0.16345611020E+03  0.91592959361E+02 0.  0.
          5    1    3    3  502    0  0.77574559662E+02 -0.40860426509E+02  0.64686266151E+02  0.10903748067E+03  0.41800000000E+01 0. -1.
         -5    1    3    3    0  502 -0.17156141127E+02  0.90526059680E+01 -0.31549811040E+02  0.37271246690E+02  0.41800000000E+01 0. -1.
        -11    1    4    4    0    0 -0.22388578338E+02  0.55984627294E+02  0.96953672200E+02  0.11417329585E+03  0.00000000000E+00 0. -1.
         11    1    4    4    0    0 -0.38029840197E+02 -0.24176806754E+02  0.19950164396E+02  0.49282814344E+02  0.00000000000E+00 0.  1.
</event>
<event>
 8    1  0.6787197E-009  0.1164948E+03  0.7561462E-02  0.1248994E+00
          2   -1    0    0  501    0  0.00000000000E+00  0.00000000000E+00  0.32614080987E+02  0.32614080987E+02  0.00000000000E+00 0. -1.
         -2   -1    0    0    0  501 -0.00000000000E+00 -0.00000000000E+00 -0.43271106173E+03  0.43271106173E+03  0.00000000000E+00 0.  1.
         25    2    1    2    0    0 -0.14481972872E+02 -0.53708344985E+02 -0.25799484430E+03  0.29206697615E+03  0.12508982777E+03 0.  0.
         23    2    1    2    0    0  0.14481972872E+02  0.53708344985E+02 -0.14210213644E+03  0.17325816656E+03  0.82043045048E+02 0.  0.
          5    1    3    3  502    0  0.47132867060E+02  0.80601835144E+01 -0.71316850444E+02  0.85965337624E+02  0.41800000000E+01 0. -1.
         -5    1    3    3    0  502 -0.61614839932E+02 -0.61768528499E+02 -0.18667799386E+03  0.20610163853E+03  0.41800000000E+01 0. -1.
        -11    1    4    4    0    0  0.47106935496E+02  0.21436517412E+02 -0.90072183285E+02  0.10388255798E+03  0.00000000000E+00 0.  1.
         11    1    4    4    0    0 -0.32624962624E+02  0.32271827573E+02 -0.52029953151E+02  0.69375608581E+02  0.00000000000E+00 0. -1.
</event>
<event>
 8    1  0.6787197E-009  0.1671102E+03  0.7561462E-02  0.1180895E+00
          2   -1    0    0  501    0  0.00000000000E+00  0.00000000000E+00  0.13587055225E+04  0.13587055225E+04  0.00000000000E+00 0. -1.
         -2   -1    0    0    0  501 -0.00000000000E+00 -0.00000000000E+00 -0.24521385447E+02  0.24521385447E+02  0.00000000000E+00 0.  1.
         25    2    1    2    0    0 -0.60075111934E+02 -0.12535814509E+03  0.87540776304E+03  0.89516064255E+03  0.12510052263E+03 0.  0.
         23    2    1    2    0    0  0.60075111934E+02  0.12535814509E+03  0.45877637404E+03  0.48806626543E+03  0.91701878154E+02 0.  0.
          5    1    3    3  502    0  0.50002692617E+01 -0.11564816678E+03  0.65273753662E+03  0.66293534020E+03  0.41800000000E+01 0. -1.
         -5    1    3    3    0  502 -0.65075381195E+02 -0.97099783022E+01  0.22267022642E+03  0.23222530235E+03  0.41800000000E+01 0. -1.
        -11    1    4    4    0    0  0.50452078268E+02  0.13163422007E+03  0.45441196669E+03  0.47577643444E+03  0.00000000000E+00 0. -1.
         11    1    4    4    0    0  0.96230336657E+01 -0.62760749879E+01  0.43644073491E+01  0.12289830987E+02  0.00000000000E+00 0.  1.
</event>
<event>
 8    1  0.6787197E-009  0.1345250E+03  0.7561462E-02  0.1220892E+00
         -1   -1    0    0    0  501 -0.00000000000E+00  0.00000000000E+00  0.52210922517E+03  0.52210922517E+03  0.00000000000E+00 0. -1.
          1   -1    0    0  501    0  0.00000000000E+00 -0.00000000000E+00 -0.44578294209E+02  0.44578294209E+02  0.00000000000E+00 0.  1.
         25    2    1    2    0    0 -0.10811821469E+03 -0.10956199632E+02  0.25078900562E+03  0.30058667509E+03  0.12509051620E+03 0.  0.
         23    2    1    2    0    0  0.10811821469E+03  0.10956199632E+02  0.22674192534E+03  0.26610084429E+03  0.87110114030E+02 0.  0.
          5    1    3    3  502    0 -0.10644375552E+03 -0.43573413975E+02  0.23960292182E+03  0.26581186587E+03  0.41800000000E+01 0. -1.
         -5    1    3    3    0  502 -0.16744591766E+01  0.32617214344E+02  0.11186083796E+02  0.34774809213E+02  0.41800000000E+01 0. -1.
        -11    1    4    4    0    0  0.10556567194E+03 -0.42112791430E+01  0.22735982898E+03  0.25070767399E+03  0.00000000000E+00 0. -1.
         11    1    4    4    0    0  0.25525427509E+01  0.15167478775E+02 -0.61790364161E+00  0.15393170297E+02  0.00000000000E+00 0.  1.
</event>
<event>
 8    1  0.6787197E-009  0.1159728E+03  0.7561462E-02  0.1249892E+00
          1   -1    0    0  501    0  0.00000000000E+00  0.00000000000E+00  0.63522880264E+03  0.63522880264E+03  0.00000000000E+00 0. -1.
         -1   -1    0    0    0  501 -0.00000000000E+00 -0.00000000000E+00 -0.24505898543E+02  0.24505898543E+02  0.00000000000E+00 0.  1.
         25    2    1    2    0    0 -0.30087543125E+02  0.52807921578E+02  0.37654712384E+03  0.40140910476E+03  0.12509035167E+03 0.  0.
         23    2    1    2    0    0  0.30087543125E+02 -0.52807921578E+02  0.23417578026E+03  0.25832559642E+03  0.90553193615E+02 0.  0.
          5    1    3    3  502    0 -0.45897615804E+02 -0.22565407199E+02  0.80375413746E+02  0.95359678446E+02  0.41800000000E+01 0. -1.
         -5    1    3    3    0  502  0.15810072679E+02  0.75373328777E+02  0.29617171009E+03  0.30604942632E+03  0.41800000000E+01 0. -1.
        -11    1    4    4    0    0 -0.27248078345E+02 -0.33105582584E+02  0.13915835303E+03  0.14561416342E+03  0.00000000000E+00 0.  1.
         11    1    4    4    0    0  0.57335621470E+02 -0.19702338994E+02  0.95017427233E+02  0.11271143300E+03  0.00000000000E+00 0. -1.
</event>
<event>
 8    1  0.6787197E-009  0.2632574E+03  0.7561462E-02  0.1105202E+00
          1   -1    0    0  501    0  0.00000000000E+00  0.00000000000E+00  0.11817142261E+04  0.11817142261E+04  0.00000000000E+00 0. -1.
         -1   -1    0    0    0  501 -0.00000000000E+00 -0.00000000000E+00 -0.87719899321E+02  0.87719899321E+02  0.00000000000E+00 0.  1.
         25    2    1    2    0    0 -0.12687557516E+03  0.21075962123E+03  0.20861557135E+03  0.34595537984E+03  0.12509052212E+03 0.  0.
         23    2    1    2    0    0  0.12687557516E+03 -0.21075962123E+03  0.88537875545E+03  0.92347874560E+03  0.91653823998E+02 0.  0.
          5    1    3    3  502    0 -0.35992567768E+02 -0.75542025775E+01  0.45478756942E+02  0.58637195057E+02  0.41800000000E+01 0.  1.
         -5    1    3    3    0  502 -0.90883007389E+02  0.21831382380E+03  0.16313681441E+03  0.28731818479E+03  0.41800000000E+01 0.  1.
        -11    1    4    4    0    0  0.55930797556E+02 -0.14819274262E+03  0.42677375720E+03  0.45521992807E+03  0.00000000000E+00 0.  1.
         11    1    4    4    0    0  0.70944777601E+02 -0.62566878607E+02  0.45860499826E+03  0.46825881753E+03  0.00000000000E+00 0. -1.
</event>
<event>
 8    1  0.6787197E-009  0.8482723E+02  0.7561462E-02  0.1315885E+00
          1   -1    0    0  501    0  0.00000000000E+00  0.00000000000E+00  0.57369623988E+03  0.57369623988E+03  0.00000000000E+00 0. -1.
         -1   -1    0    0    0  501 -0.00000000000E+00 -0.00000000000E+00 -0.21773283254E+02  0.21773283254E+02  0.00000000000E+00 0.  1.
         25    2    1    2    0    0  0.21318517526E+02  0.14631611399E+02  0.37811403956E+03  0.39910451075E+03  0.12508245419E+03 0.  0.
         23    2    1    2    0    0 -0.21318517526E+02 -0.14631611399E+02  0.17380891707E+03  0.19636501239E+03  0.87641971653E+02 0.  0.
          5    1    3    3  502    0  0.40911321590E+02 -0.25344385521E+02  0.56235189763E+02  0.74134628072E+02  0.41800000000E+01 0.  1.
         -5    1    3    3    0  502 -0.19592804064E+02  0.39975996920E+02  0.32187884979E+03  0.32496988267E+03  0.41800000000E+01 0.  1.
        -11    1    4    4    0    0  0.26900723103E+02 -0.33237722984E+01  0.17177913037E+02  0.32090139639E+02  0.00000000000E+00 0.  1.
         11    1    4    4    0    0 -0.48219240629E+02 -0.11307839101E+02  0.15663100403E+03  0.16427487275E+03  0.00000000000E+00 0. -1.
</event>
<event>
 8    1  0.6787197E-009  0.1362585E+03  0.7561462E-02  0.1218454E+00
          1   -1    0    0  501    0  0.00000000000E+00  0.00000000000E+00  0.10562390179E+04  0.10562390179E+04  0.00000000000E+00 0. -1.
         -1   -1    0    0    0  501 -0.00000000000E+00 -0.00000000000E+00 -0.27972010249E+02  0.27972010249E+02  0.00000000000E+00 0.  1.
         25    2    1    2    0    0  0.74283282571E+02 -0.10293912847E+03  0.42043980278E+03  0.45665255013E+03  0.12508978194E+03 0.  0.
         23    2    1    2    0    0 -0.74283282571E+02  0.10293912847E+03  0.60782720489E+03  0.62755847803E+03  0.90891485308E+02 0.  0.
          5    1    3    3  502    0  0.35215932475E+01  0.45585534474E+00  0.22111935744E+03  0.22118736867E+03  0.41800000000E+01 0.  1.
         -5    1    3    3    0  502  0.70761689324E+02 -0.10339498382E+03  0.19932044534E+03  0.23546518147E+03  0.41800000000E+01 0.  1.
        -11    1    4    4    0    0 -0.40601783350E+02  0.99921597643E+02  0.55078484975E+03  0.56124574047E+03  0.00000000000E+00 0. -1.
         11    1    4    4    0    0 -0.33681499221E+02  0.30175308301E+01  0.57042355143E+02  0.66312737557E+02  0.00000000000E+00 0.  1.
</event>
<event>
 8    1  0.6787197E-009  0.1288290E+03  0.7561462E-02  0.1229204E+00
         -1   -1    0    0    0  501 -0.00000000000E+00  0.00000000000E+00  0.24812905574E+03  0.24812905574E+03  0.00000000000E+00 0.  1.
          1   -1    0    0  501    0  0.00000000000E+00 -0.00000000000E+00 -0.11164070231E+03  0.11164070231E+03  0.00000000000E+00 0. -1.
         25    2    1    2    0    0  0.10981624854E+03  0.39585651220E+02  0.12022305224E+03  0.20911114308E+03  0.12508899090E+03 0.  0.
         23    2    1    2    0    0 -0.10981624854E+03 -0.39585651220E+02  0.16265301179E+02  0.15065861497E+03  0.93844690933E+02 0.  0.
          5    1    3    3  502    0  0.68664597067E+02  0.43804508924E+02  0.14080473366E+03  0.16271787644E+03  0.41800000000E+01 0.  1.
         -5    1    3    3    0  502  0.41151651473E+02 -0.42188577041E+01 -0.20581681419E+02  0.46393266637E+02  0.41800000000E+01 0.  1.
        -11    1    4    4    0    0 -0.83317779209E+02 -0.58642486074E+02  0.40876572827E+02  0.10978017905E+03  0.00000000000E+00 0.  1.
         11    1    4    4    0    0 -0.26498469331E+02  0.19056834854E+02 -0.24611271647E+02  0.40878435925E+02  0.00000000000E+00 0. -1.
</event>
<event>
 8    1  0.6787197E-009  0.1181937E+03  0.7561462E-02  0.1246107E+00
         -2   -1    0    0    0  501 -0.00000000000E+00  0.00000000000E+00  0.60130237696E+02  0.60130237696E+02  0.00000000000E+00 0.  1.
          2   -1    0    0  501    0  0.00000000000E+00 -0.00000000000E+00 -0.38175517090E+03  0.38175517090E+03  0.00000000000E+00 0. -1.
         25    2    1    2    0    0  0.53441269849E+02 -0.92064654706E+02 -0.17769220254E+03  0.24197857434E+03  0.12508893488E+03 0.  0.
         23    2    1    2    0    0 -0.53441269849E+02  0.92064654706E+02 -0.14393273066E+03  0.19990683425E+03  0.88962022542E+02 0.  0.
          5    1    3    3  502    0 -0.86923393672E+01 -0.33662066182E+02 -0.14722185287E+03  0.15132890612E+03  0.41800000000E+01 0. -1.
         -5    1    3    3    0  502  0.62133609217E+02 -0.58402588523E+02 -0.30470349663E+02  0.90649668224E+02  0.41800000000E+01 0. -1.
        -11    1    4    4    0    0 -0.49987680683E+02  0.40553829664E+02 -0.13209028083E+03  0.14693952365E+03  0.00000000000E+00 0. -1.
         11    1    4    4    0    0 -0.34535891665E+01  0.51510825042E+02 -0.11842449837E+02  0.52967310605E+02  0.00000000000E+00 0.  1.
</event>
<event>
 8    1  0.6787197E-009  0.1193700E+03  0.7561462E-02  0.1244140E+00
          1   -1    0    0  501    0  0.00000000000E+00  0.00000000000E+00  0.44592922836E+03  0.44592922836E+03  0.00000000000E+00 0. -1.
         -1   -1    0    0    0  501 -0.00000000000E+00 -0.00000000000E+00 -0.54112291525E+02  0.54112291525E+02  0.00000000000E+00 0.  1.
         25    2    1    2    0    0  0.10667851965E+03  0.30081840575E+02  0.19609799571E+03  0.25765846427E+03  0.12509291187E+03 0.  0.
         23    2    1    2    0    0 -0.10667851965E+03 -0.30081840575E+02  0.19571894112E+03  0.24238305562E+03  0.90323961660E+02 0.  0.
          5    1    3    3  502    0  0.93653717041E+02  0.27419236716E+02  0.21384388532E+03  0.23509468932E+03  0.41800000000E+01 0. -1.
         -5    1    3    3    0  502  0.13024802608E+02  0.26626038593E+01 -0.17745889602E+02  0.22563774952E+02  0.41800000000E+01 0. -1.
        -11    1    4    4    0    0 -0.12672997786E+01 -0.21317159457E+02  0.91249325123E+02  0.93714815646E+02  0.00000000000E+00 0.  1.
         11    1    4    4    0    0 -0.10541121987E+03 -0.87646811179E+01  0.10446961600E+03  0.14866823997E+03  0.00000000000E+00 0. -1.
</event>
<event>
 8    1  0.6787197E-009  0.2590018E+03  0.7561462E-02  0.1107744E+00
          2   -1    0    0  501    0  0.00000000000E+00  0.00000000000E+00  0.32786144246E+03  0.32786144246E+03  0.00000000000E+00 0. -1.
         -2   -1    0    0    0  501 -0.00000000000E+00 -0.00000000000E+00 -0.22185468056E+03  0.22185468056E+03  0.00000000000E+00 0.  1.
         25    2    1    2    0    0  0.71667006387E+02  0.22472596293E+03 -0.18541900512E+02  0.26763698918E+03  0.12509131737E+03 0.  0.
         23    2    1    2    0    0 -0.71667006387E+02 -0.22472596293E+03  0.12454866241E+03  0.28207913384E+03  0.91751567948E+02 0.  0.
          5    1    3    3  502    0 -0.15155902696E+02  0.15422955462E+03 -0.13272772955E+02  0.15559593763E+03  0.41800000000E+01 0.  1.
         -5    1    3    3    0  502  0.86822909083E+02  0.70496408308E+02 -0.52691275572E+01  0.11204105154E+03  0.41800000000E+01 0.  1.
        -11    1    4    4    0    0 -0.45410298774E+02 -0.29673490092E+02  0.12726816319E+02  0.55718785904E+02  0.00000000000E+00 0.  1.
         11    1    4    4    0    0 -0.26256707613E+02 -0.19505247284E+03  0.11182184609E+03  0.22636034794E+03  0.00000000000E+00 0. -1.
</event>
<event>
 8    1  0.6787197E-009  0.1286158E+03  0.7561462E-02  0.1229524E+00
         -2   -1    0    0    0  501 -0.00000000000E+00  0.00000000000E+00  0.15392754039E+03  0.15392754039E+03  0.00000000000E+00 0. -1.
          2   -1    0    0  501    0  0.00000000000E+00 -0.00000000000E+00 -0.14394530221E+03  0.14394530221E+03  0.00000000000E+00 0.  1.
         25    2    1    2    0    0 -0.64764469512E+02  0.69404283997E+02  0.40789151838E+02  0.16224302851E+03  0.12509058415E+03 0.  0.
         23    2    1    2    0    0  0.64764469512E+02 -0.69404283997E+02 -0.30806913664E+02  0.13562981409E+03  0.91842198321E+02 0.  0.
          5    1    3    3  502    0 -0.27019133998E+02 -0.16200540495E+02  0.58835499343E+02  0.66869869876E+02  0.41800000000E+01 0.  1.
         -5    1    3    3    0  502 -0.37745335514E+02  0.85604824492E+02 -0.18046347505E+02  0.95373158633E+02  0.41800000000E+01 0.  1.
        -11    1    4    4    0    0  0.85553040111E+02 -0.36796288336E+02 -0.17696825604E+02  0.94796978559E+02  0.00000000000E+00 0. -1.
         11    1    4    4    0    0 -0.20788570599E+02 -0.32607995661E+02 -0.13110088059E+02  0.40832835531E+02  0.00000000000E+00 0.  1.
</event>
<event>
 8    1  0.6787197E-009  0.1741966E+03  0.7561462E-02  0.1173541E+00
         -2   -1    0    0    0  501 -0.00000000000E+00  0.00000000000E+00  0.87462453566E+02  0.87462453566E+02  0.00000000000E+00 0.  1.
          2   -1    0    0  501    0  0.00000000000E+00 -0.00000000000E+00 -0.38830658715E+03  0.38830658715E+03  0.00000000000E+00 0. -1.
         25    2    1    2    0    0 -0.13242417276E+03  0.61102594135E+02 -0.13839124677E+03  0.23678969067E+03  0.12509009507E+03 0.  0.
         23    2    1    2    0    0  0.13242417276E+03 -0.61102594135E+02 -0.16245288681E+03  0.23897935004E+03  0.97213686137E+02 0.  0.
          5    1    3    3  502    0 -0.10248918620E+03 -0.12216708727E+02 -0.11395167213E+03  0.15380421724E+03  0.41800000000E+01 0.  1.
         -5    1    3    3    0  502 -0.29934986560E+02  0.73319302862E+02 -0.24439574646E+02  0.82985473436E+02  0.41800000000E+01 0.  1.
        -11    1    4    4    0    0  0.97882198270E+02 -0.26803337339E+01 -0.56201576213E+02  0.11290139988E+03  0.00000000000E+00 0.  1.
         11    1    4    4    0    0  0.34541974489E+02 -0.58422260401E+02 -0.10625131060E+03  0.12607795016E+03  0.00000000000E+00 0. -1.
</event>
<event>
 8    1  0.6787197E-009  0.9665988E+02  0.7561462E-02  0.1287481E+00
         -1   -1    0    0    0  501 -0.00000000000E+00  0.00000000000E+00  0.33486124105E+03  0.33486124105E+03  0.00000000000E+00 0.  1.
          1   -1    0    0  501    0  0.00000000000E+00 -0.00000000000E+00 -0.50707652170E+02  0.50707652170E+02  0.00000000000E+00 0. -1.
         25    2    1    2    0    0 -0.24692431239E+02 -0.61800929606E+02  0.11385746486E+03  0.18178284981E+03  0.12510959644E+03 0.  0.
         23    2    1    2    0    0  0.24692431239E+02  0.61800929606E+02  0.17029612402E+03  0.20378604341E+03  0.89993947414E+02 0.  0.
          5    1    3    3  502    0  0.13494518804E+02 -0.28719789782E+02 -0.20615607306E+02  0.38071039222E+02  0.41800000000E+01 0. -1.
         -5    1    3    3    0  502 -0.38186950042E+02 -0.33081139824E+02  0.13447307216E+03  0.14371181059E+03  0.41800000000E+01 0. -1.
        -11    1    4    4    0    0 -0.33303393756E+02  0.27860603361E+02  0.82466036562E+02  0.93198586049E+02  0.00000000000E+00 0.  1.
         11    1    4    4    0    0  0.57995824994E+02  0.33940326245E+02  0.87830087461E+02  0.11058745736E+03  0.00000000000E+00 0. -1.
</event>
<event>
 8    1  0.6787197E-009  0.1970487E+03  0.7561462E-02  0.1152253E+00
         -2   -1    0    0    0  501 -0.00000000000E+00  0.00000000000E+00  0.92917677004E+03  0.92917677004E+03  0.00000000000E+00 0.  1.
          2   -1    0    0  501    0  0.00000000000E+00 -0.00000000000E+00 -0.54623607166E+02  0.54623607166E+02  0.00000000000E+00 0. -1.
         25    2    1    2    0    0 -0.19497656225E+03  0.15991758758E+02  0.40333806456E+03  0.46540276563E+03  0.12508614533E+03 0.  0.
         23    2    1    2    0    0  0.19497656225E+03 -0.15991758758E+02  0.47121509831E+03  0.51839761158E+03  0.91765018609E+02 0.  0.
          5    1    3    3  502    0 -0.10721465240E+03  0.32142716107E+01  0.91111969908E+02  0.14079835472E+03  0.41800000000E+01 0.  1.
         -5    1    3    3    0  502 -0.87761909846E+02  0.12777487147E+02  0.31222609465E+03  0.32460441091E+03  0.41800000000E+01 0.  1.
        -11    1    4    4    0    0  0.87537237866E+02  0.79350061240E+01  0.11011352677E+03  0.14089258715E+03  0.00000000000E+00 0. -1.
         11    1    4    4    0    0  0.10743932438E+03 -0.23926764882E+02  0.36110157154E+03  0.37750502443E+03  0.00000000000E+00 0.  1.
</event>
<event>
 8    1  0.6787197E-009  0.1410560E+03  0.7561462E-02  0.1211915E+00
          1   -1    0    0  501    0  0.00000000000E+00  0.00000000000E+00  0.41199273396E+03  0.41199273396E+03  0.00000000000E+00 0. -1.
         -1   -1    0    0    0  501 -0.00000000000E+00 -0.00000000000E+00 -0.54549756646E+02  0.54549756646E+02  0.00000000000E+00 0.  1.
         25    2    1    2    0    0 -0.93719961281E+02 -0.42862613383E+02  0.19477921949E+03  0.25339061877E+03  0.12508887466E+03 0.  0.
         23    2    1    2    0    0  0.93719961281E+02  0.42862613383E+02  0.16266375783E+03  0.21315187184E+03  0.91397962732E+02 0.  0.
          5    1    3    3  502    0 -0.53903841069E+02  0.29754276808E+02  0.29336603544E+02  0.68330445468E+02  0.41800000000E+01 0.  1.
         -5    1    3    3    0  502 -0.39816120212E+02 -0.72616890191E+02  0.16544261595E+03  0.18506017330E+03  0.41800000000E+01 0.  1.
        -11    1    4    4    0    0 -0.16746629739E+02  0.17329366479E+02  0.23650367609E+02  0.33765314129E+02  0.00000000000E+00 0.  1.
         11    1    4    4    0    0  0.11046659102E+03  0.25533246904E+02  0.13901339022E+03  0.17938655772E+03  0.00000000000E+00 0. -1.
</event>
<event>
 8    1  0.6787197E-009  0.1027344E+03  0.7561462E-02  0.1274649E+00
          1   -1    0    0  501    0  0.00000000000E+00  0.00000000000E+00  0.45754075934E+02  0.45754075934E+02  0.00000000000E+00 0. -1.
         -1   -1    0    0    0  501 -0.00000000000E+00 -0.00000000000E+00 -0.32823562732E+03  0.32823562732E+03  0.00000000000E+00 0.  1.
         25    2    1    2    0    0  0.16180898163E+02 -0.54619114000E+02 -0.16833686739E+03  0.21732427927E+03  0.12508985714E+03 0.  0.
         23    2    1    2    0    0 -0.16180898163E+02  0.54619114000E+02 -0.11414468399E+03  0.15666542398E+03  0.90939414489E+02 0.  0.
          5    1    3    3  502    0  0.68579799953E+02 -0.11977131820E+02 -0.87303898737E+02  0.11174114633E+03  0.41800000000E+01 0.  1.
         -5    1    3    3    0  502 -0.52398901790E+02 -0.42641982180E+02 -0.81032968653E+02  0.10558313294E+03  0.41800000000E+01 0.  1.
        -11    1    4    4    0    0 -0.27133461815E+02  0.26781686788E+02  0.55532562863E+00  0.38128622895E+02  0.00000000000E+00 0. -1.
         11    1    4    4    0    0  0.10952563653E+02  0.27837427212E+02 -0.11470000962E+03  0.11853680109E+03  0.00000000000E+00 0.  1.
</event>
<event>
 8    1  0.6787197E-009  0.1247739E+03  0.7561462E-02  0.1235423E+00
         -2   -1    0    0    0  501 -0.00000000000E+00  0.00000000000E+00  0.49229506565E+02  0.49229506565E+02  0.00000000000E+00 0.  1.
          2   -1    0    0  501    0  0.00000000000E+00 -0.00000000000E+00 -0.50437008283E+03  0.50437008283E+03  0.00000000000E+00 0. -1.
         25    2    1    2    0    0  0.74873711593E+02 -0.85178831046E+02 -0.22867702921E+03  0.28425790468E+03  0.12509143351E+03 0.  0.
         23    2    1    2    0    0 -0.74873711593E+02  0.85178831046E+02 -0.22646354705E+03  0.26934168471E+03  0.91638960248E+02 0.  0.
          5    1    3    3  502    0 -0.34878621304E+01 -0.39037866773E+02 -0.17325322880E+03  0.17768025753E+03  0.41800000000E+01 0.  1.
         -5    1    3    3    0  502  0.78361573723E+02 -0.46140964273E+02 -0.55423800405E+02  0.10657764715E+03  0.41800000000E+01 0.  1.
        -11    1    4    4    0    0 -0.22296569668E+02  0.52893480070E+02 -0.32852068919E+02  0.66137097647E+02  0.00000000000E+00 0.  1.
         11    1    4    4    0    0 -0.52577141925E+02  0.32285350976E+02 -0.19361147813E+03  0.20320458707E+03  0.00000000000E+00 0. -1.
</event>
<event>
 8    1  0.6787197E-009  0.1781252E+03  0.7561462E-02  0.1169630E+00
         -2   -1    0    0    0  501 -0.00000000000E+00  0.00000000000E+00  0.27696632566E+02  0.27696632566E+02  0.00000000000E+00 0.  1.
          2   -1    0    0  501    0  0.00000000000E+00 -0.00000000000E+00 -0.14314247995E+04  0.14314247995E+04  0.00000000000E+00 0. -1.
         25    2    1    2    0    0 -0.23636679475E+02 -0.15909316388E+03 -0.85564916388E+03  0.87957470514E+03  0.12508734098E+03 0.  0.
         23    2    1    2    0    0  0.23636679475E+02  0.15909316388E+03 -0.54807900308E+03  0.57954672694E+03  0.98053494010E+02 0.  0.
          5    1    3    3  502    0 -0.10307507418E+02 -0.15792916784E+03 -0.84973908501E+03  0.86436210685E+03  0.41800000000E+01 0.  1.
         -5    1    3    3    0  502 -0.13329172057E+02 -0.11639960365E+01 -0.59100788611E+01  0.15212598287E+02  0.41800000000E+01 0.  1.
        -11    1    4    4    0    0 -0.29117860974E+02  0.10245054348E+03 -0.37730079023E+03  0.39204572436E+03  0.00000000000E+00 0.  1.
         11    1    4    4    0    0  0.52754540449E+02  0.56642620403E+02 -0.17077821285E+03  0.18750100258E+03  0.00000000000E+00 0. -1.
</event>
<event>
 8    1  0.6787197E-009  0.1065320E+03  0.7561462E-02  0.1267130E+00
         -4   -1    0    0    0  501 -0.00000000000E+00  0.00000000000E+00  0.63329920023E+02  0.63329920023E+02  0.00000000000E+00 0.  1.
          4   -1    0    0  501    0  0.00000000000E+00 -0.00000000000E+00 -0.19675727902E+03  0.19675727902E+03  0.00000000000E+00 0. -1.
         25    2    1    2    0    0 -0.17735269449E+02 -0.18250695399E+02 -0.73338740651E+02  0.14722205604E+03  0.12509250673E+03 0.  0.
         23    2    1    2    0    0  0.17735269449E+02  0.18250695399E+02 -0.60088618351E+02  0.11286514300E+03  0.92088385724E+02 0.  0.
          5    1    3    3  502    0 -0.59983492674E+02  0.18365785105E+02 -0.65192284870E+02  0.90569464294E+02  0.41800000000E+01 0. -1.
         -5    1    3    3    0  502  0.42248223225E+02 -0.36616480504E+02 -0.81464557810E+01  0.56652591750E+02  0.41800000000E+01 0. -1.
        -11    1    4    4    0    0 -0.32566757036E+02 -0.12826099331E+02 -0.13219541899E+02  0.37414686634E+02  0.00000000000E+00 0.  1.
         11    1    4    4    0    0  0.50302026485E+02  0.31076794729E+02 -0.46869076452E+02  0.75450456371E+02  0.00000000000E+00 0. -1.
</event>
<event>
 8    1  0.6787197E-009  0.1282989E+03  0.7561462E-02  0.1230002E+00
         -2   -1    0    0    0  501 -0.00000000000E+00  0.00000000000E+00  0.39062687558E+03  0.39062687558E+03  0.00000000000E+00 0.  1.
          2   -1    0    0  501    0  0.00000000000E+00 -0.00000000000E+00 -0.54939578249E+02  0.54939578249E+02  0.00000000000E+00 0. -1.
         25    2    1    2    0    0  0.52513520932E+02 -0.81328855551E+02  0.20501756495E+03  0.25894316639E+03  0.12508920360E+03 0.  0.
         23    2    1    2    0    0 -0.52513520932E+02  0.81328855551E+02  0.13066973238E+03  0.18662328744E+03  0.91551186929E+02 0.  0.
          5    1    3    3  502    0  0.91862426296E+02 -0.41021929584E+02  0.14492387591E+03  0.17647069524E+03  0.41800000000E+01 0. -1.
         -5    1    3    3    0  502 -0.39348905364E+02 -0.40306925967E+02  0.60093689039E+02  0.82472471144E+02  0.41800000000E+01 0. -1.
        -11    1    4    4    0    0 -0.31964264194E+02  0.28834471987E+02 -0.13522308146E+01  0.43069356722E+02  0.00000000000E+00 0. -1.
         11    1    4    4    0    0 -0.20549256738E+02  0.52494383564E+02  0.13202196320E+03  0.14355393072E+03  0.00000000000E+00 0.  1.
</event>
<event>
 8    1  0.6787197E-009  0.1392209E+03  0.7561462E-02  0.1214381E+00
          1   -1    0    0  501    0  0.00000000000E+00  0.00000000000E+00  0.47791537207E+02  0.47791537207E+02  0.00000000000E+00 0. -1.
         -1   -1    0    0    0  501 -0.00000000000E+00 -0.00000000000E+00 -0.62485456223E+03  0.62485456223E+03  0.00000000000E+00 0.  1.
         25    2    1    2    0    0 -0.81196909583E+02 -0.40574919152E+02 -0.11348629150E+03  0.19174217474E+03  0.12508661409E+03 0.  0.
         23    2    1    2    0    0  0.81196909583E+02  0.40574919152E+02 -0.46357673353E+03  0.48090392470E+03  0.90143966710E+02 0.  0.
          5    1    3    3  502    0 -0.11113758785E+03 -0.45002133498E+02 -0.10644131807E+03  0.16038697592E+03  0.41800000000E+01 0.  1.
         -5    1    3    3    0  502  0.29940678271E+02  0.44272143455E+01 -0.70449734305E+01  0.31355198817E+02  0.41800000000E+01 0.  1.
        -11    1    4    4    0    0 -0.58618970885E+01  0.40430725255E+02 -0.14474477953E+03  0.15039965620E+03  0.00000000000E+00 0.  1.
         11    1    4    4    0    0  0.87058806672E+02  0.14419389698E+00 -0.31883195399E+03  0.33050426850E+03  0.00000000000E+00 0. -1.
</event>
<event>
 8    1  0.6787197E-009  0.2829237E+03  0.7561462E-02  0.1094103E+00
         -2   -1    0    0    0  501 -0.00000000000E+00  0.00000000000E+00  0.81382676461E+02  0.81382676461E+02  0.00000000000E+00 0.  1.
          2   -1    0    0  501    0  0.00000000000E+00 -0.00000000000E+00 -0.11285187364E+04  0.11285187364E+04  0.00000000000E+00 0. -1.
         25    2    1    2    0    0 -0.10172522830E+01 -0.27581941707E+03 -0.40647054390E+03  0.50689554866E+03  0.12508960212E+03 0.  0.
         23    2    1    2    0    0  0.10172522830E+01  0.27581941707E+03 -0.64066551599E+03  0.70300586416E+03  0.87678709082E+02 0.  0.
          5    1    3    3  502    0 -0.16584738695E+02 -0.93736077385E+02 -0.53188397141E+02  0.10912370848E+03  0.41800000000E+01 0. -1.
         -5    1    3    3    0  502  0.15567486412E+02 -0.18208333968E+03 -0.35328214676E+03  0.39777184018E+03  0.41800000000E+01 0. -1.
        -11    1    4    4    0    0 -0.33119926024E+02  0.21894268117E+03 -0.45934006119E+03  0.50992756245E+03  0.00000000000E+00 0.  1.
         11    1    4    4    0    0  0.34137178307E+02  0.56876735893E+02 -0.18132545481E+03  0.19307830170E+03  0.00000000000E+00 0. -1.
</event>
<event>
 8    1  0.6787197E-009  0.1030218E+03  0.7561462E-02  0.1274067E+00
          1   -1    0    0  501    0  0.00000000000E+00  0.00000000000E+00  0.41541640959E+03  0.41541640959E+03  0.00000000000E+00 0. -1.
         -1   -1    0    0    0  501 -0.00000000000E+00 -0.00000000000E+00 -0.38061206088E+02  0.38061206088E+02  0.00000000000E+00 0.  1.
         25    2    1    2    0    0 -0.80786150341E+01 -0.26017274083E+02  0.10519769246E+03  0.16569810556E+03  0.12508854910E+03 0.  0.
         23    2    1    2    0    0  0.80786150341E+01  0.26017274083E+02  0.27215751104E+03  0.28777951012E+03  0.89471632689E+02 0.  0.
          5    1    3    3  502    0 -0.59062487858E+02 -0.35172276744E+02  0.86276952474E+02  0.11039316759E+03  0.41800000000E+01 0. -1.
         -5    1    3    3    0  502  0.50983872824E+02  0.91550026606E+01  0.18920739989E+02  0.55304937967E+02  0.41800000000E+01 0. -1.
        -11    1    4    4    0    0 -0.26562835821E+02  0.39861775483E+02  0.20907064628E+03  0.21448794961E+03  0.00000000000E+00 0. -1.
         11    1    4    4    0    0  0.34641450856E+02 -0.13844501400E+02  0.63086864759E+02  0.73291560506E+02  0.00000000000E+00 0.  1.
</event>
<event>
 8    1  0.6787197E-009  0.1160249E+03  0.7561462E-02  0.1249803E+00
         -1   -1    0    0    0  501 -0.00000000000E+00  0.00000000000E+00  0.11405689152E+02  0.11405689152E+02  0.00000000000E+00 0.  1.
          1   -1    0    0  501    0  0.00000000000E+00 -0.00000000000E+00 -0.11810151931E+04  0.11810151931E+04  0.00000000000E+00 0. -1.
         25    2    1    2    0    0  0.23632951911E+01  0.40895585112E+02 -0.65570174426E+03  0.66878279926E+03  0.12509045173E+03 0.  0.
         23    2    1    2    0    0 -0.23632951911E+01 -0.40895585112E+02 -0.51390775968E+03  0.52363808298E+03  0.91747601860E+02 0.  0.
          5    1    3    3  502    0  0.62302496274E+02  0.76660100827E+01 -0.32312097996E+03  0.32918840934E+03  0.41800000000E+01 0.  1.
         -5    1    3    3    0  502 -0.59939201083E+02  0.33229575030E+02 -0.33258076430E+03  0.33959438992E+03  0.41800000000E+01 0.  1.
        -11    1    4    4    0    0  0.40809201442E+02 -0.40222097511E+02 -0.29345047177E+03  0.29899228657E+03  0.00000000000E+00 0.  1.
         11    1    4    4    0    0 -0.43172496633E+02 -0.67348760108E+00 -0.22045728791E+03  0.22464579641E+03  0.00000000000E+00 0. -1.
</event>
<event>
 8    1  0.6787197E-009  0.1026254E+03  0.7561462E-02  0.1274870E+00
          2   -1    0    0  501    0  0.00000000000E+00  0.00000000000E+00  0.11255714187E+04  0.11255714187E+04  0.00000000000E+00 0. -1.
         -2   -1    0    0    0  501 -0.00000000000E+00 -0.00000000000E+00 -0.22700951063E+02  0.22700951063E+02  0.00000000000E+00 0.  1.
         25    2    1    2    0    0  0.60419774107E+02  0.34150417566E+02  0.92848248747E+03  0.93943807534E+03  0.12508943898E+03 0.  0.
         23    2    1    2    0    0 -0.60419774107E+02 -0.34150417566E+02  0.17438798019E+03  0.20883429445E+03  0.91563064484E+02 0.  0.
          5    1    3    3  502    0 -0.10767345958E+02  0.47533066382E+02  0.64378854900E+03  0.64564424908E+03  0.41800000000E+01 0.  1.
         -5    1    3    3    0  502  0.71187120065E+02 -0.13382648816E+02  0.28469393846E+03  0.29379382626E+03  0.41800000000E+01 0.  1.
        -11    1    4    4    0    0 -0.47895610921E+01 -0.27314472687E+02  0.22741684595E+01  0.27824308721E+02  0.00000000000E+00 0.  1.
         11    1    4    4    0    0 -0.55630213014E+02 -0.68359448791E+01  0.17211381173E+03  0.18100998572E+03  0.00000000000E+00 0. -1.
</event>
<event>
 8    1  0.6787197E-009  0.1281981E+03  0.7561462E-02  0.1230154E+00
         -1   -1    0    0    0  501 -0.00000000000E+00  0.00000000000E+00  0.58998931560E+02  0.58998931560E+02  0.00000000000E+00 0.  1.
          1   -1    0    0  501    0  0.00000000000E+00 -0.00000000000E+00 -0.39060248682E+03  0.39060248682E+03  0.00000000000E+00 0. -1.
         25    2    1    2    0    0  0.60865388840E+02  0.78898746865E+02 -0.14081327266E+03  0.21308759671E+03  0.12509331836E+03 0.  0.
         23    2    1    2    0    0 -0.60865388840E+02 -0.78898746865E+02 -0.19079028260E+03  0.23651382167E+03  0.98021671540E+02 0.  0.
          5    1    3    3  502    0  0.71785346460E+02  0.42243808906E+02 -0.19262851090E+02  0.85593254345E+02  0.41800000000E+01 0. -1.
         -5    1    3    3    0  502 -0.10919957620E+02  0.36654937960E+02 -0.12155042157E+03  0.12749434237E+03  0.41800000000E+01 0. -1.
        -11    1    4    4    0    0 -0.74141942977E+01 -0.80702498548E+02 -0.82010589494E+02  0.11529787656E+03  0.00000000000E+00 0.  1.
         11    1    4    4    0    0 -0.53451194542E+02  0.18037516829E+01 -0.10877969311E+03  0.12121594512E+03  0.00000000000E+00 0. -1.
</event>
<event>
 8    1  0.6787197E-009  0.1288919E+03  0.7561462E-02  0.1229109E+00
          1   -1    0    0  501    0  0.00000000000E+00  0.00000000000E+00  0.12362203720E+03  0.12362203720E+03  0.00000000000E+00 0. -1.
         -1   -1    0    0    0  501 -0.00000000000E+00 -0.00000000000E+00 -0.16359220434E+03  0.16359220434E+03  0.00000000000E+00 0.  1.
         25    2    1    2    0    0  0.40986304590E+02 -0.55463787672E+02 -0.78398927062E+02  0.16294323089E+03  0.12509194947E+03 0.  0.
         23    2    1    2    0    0 -0.40986304590E+02  0.55463787672E+02  0.38428759923E+02  0.12427101065E+03  0.95970858039E+02 0.  0.
          5    1    3    3  502    0 -0.21338691056E+02 -0.72515696128E+02 -0.27368267730E+02  0.80500685708E+02  0.41800000000E+01 0. -1.
         -5    1    3    3    0  502  0.62324995646E+02  0.17051908455E+02 -0.51030659332E+02  0.82442545183E+02  0.41800000000E+01 0. -1.
        -11    1    4    4    0    0  0.19638441503E+02  0.53146233869E+02  0.11121783742E+02  0.57739801115E+02  0.00000000000E+00 0.  1.
         11    1    4    4    0    0 -0.60624746093E+02  0.23175538032E+01  0.27306976181E+02  0.66531209539E+02  0.00000000000E+00 0. -1.
</event>
<event>
 8    1  0.6787197E-009  0.1097389E+03  0.7561462E-02  0.1261054E+00
          1   -1    0    0  501    0  0.00000000000E+00  0.00000000000E+00  0.14975624534E+02  0.14975624534E+02  0.00000000000E+00 0. -1.
         -1   -1    0    0    0  501 -0.00000000000E+00 -0.00000000000E+00 -0.13506907943E+04  0.13506907943E+04  0.00000000000E+00 0.  1.
         25    2    1    2    0    0 -0.18514240092E+02 -0.48730828814E+02 -0.11044480487E+04  0.11127311223E+04  0.12509031754E+03 0.  0.
         23    2    1    2    0    0  0.18514240092E+02  0.48730828814E+02 -0.23126712111E+03  0.25293529655E+03  0.88172060055E+02 0.  0.
          5    1    3    3  502    0  0.35781654611E+02  0.13395389061E+02 -0.15494668400E+03  0.15964244591E+03  0.41800000000E+01 0.  1.
         -5    1    3    3    0  502 -0.54295894703E+02 -0.62126217874E+02 -0.94950136467E+03  0.95308867637E+03  0.41800000000E+01 0.  1.
        -11    1    4    4    0    0  0.35062404539E+02 -0.10761984658E+02 -0.12236922278E+03  0.12774748220E+03  0.00000000000E+00 0.  1.
         11    1    4    4    0    0 -0.16548164447E+02  0.59492813472E+02 -0.10889789833E+03  0.12518781435E+03  0.00000000000E+00 0. -1.
</event>
<event>
 8    1  0.6787197E-009  0.1040620E+03  0.7561462E-02  0.1271979E+00
         -2   -1    0    0    0  501 -0.00000000000E+00  0.00000000000E+00  0.16495017960E+03  0.16495017960E+03  0.00000000000E+00 0.  1.
          2   -1    0    0  501    0  0.00000000000E+00 -0.00000000000E+00 -0.85286608943E+02  0.85286608943E+02  0.00000000000E+00 0. -1.
         25    2    1    2    0    0  0.29571363405E+02  0.36187183309E+02  0.58750579421E+02  0.14588845811E+03  0.12509130209E+03 0.  0.
         23    2    1    2    0    0 -0.29571363405E+02 -0.36187183309E+02  0.20912991237E+02  0.10434833043E+03  0.90924381174E+02 0.  0.
          5    1    3    3  502    0  0.17199798757E+02  0.69314252047E+02  0.77645808013E+02  0.10557766107E+03  0.41800000000E+01 0.  1.
         -5    1    3    3    0  502  0.12371564648E+02 -0.33127068738E+02 -0.18895228592E+02  0.40310797047E+02  0.41800000000E+01 0.  1.
        -11    1    4    4    0    0 -0.39665167626E+01 -0.63451150346E+02  0.52256065493E+01  0.63789408990E+02  0.00000000000E+00 0. -1.
         11    1    4    4    0    0 -0.25604846642E+02  0.27263967037E+02  0.15687384688E+02  0.40558921442E+02  0.00000000000E+00 0.  1.
</event>
<event>
 8    1  0.6787197E-009  0.2193456E+03  0.7561462E-02  0.1134372E+00
         -2   -1    0    0    0  501 -0.00000000000E+00  0.00000000000E+00  0.51956560517E+02  0.51956560517E+02  0.00000000000E+00 0.  1.
          2   -1    0    0  501    0  0.00000000000E+00 -0.00000000000E+00 -0.11202619077E+04  0.11202619077E+04  0.00000000000E+00 0. -1.
         25    2    1    2    0    0 -0.19647336666E+02 -0.20446373388E+03 -0.70701985731E+03  0.74680396599E+03  0.12509056187E+03 0.  0.
         23    2    1    2    0    0  0.19647336666E+02  0.20446373388E+03 -0.36128548983E+03  0.42541450218E+03  0.90878254816E+02 0.  0.
          5    1    3    3  502    0  0.56014081945E+01 -0.20521365617E+03 -0.67645690160E+03  0.70693382475E+03  0.41800000000E+01 0. -1.
         -5    1    3    3    0  502 -0.25248744861E+02  0.74992228438E+00 -0.30562955712E+02  0.39870141238E+02  0.41800000000E+01 0. -1.
        -11    1    4    4    0    0  0.73600772470E+00  0.15174900960E+03 -0.32500023994E+03  0.35868295134E+03  0.00000000000E+00 0.  1.
         11    1    4    4    0    0  0.18911328941E+02  0.52714724284E+02 -0.36285249886E+02  0.66731550844E+02  0.00000000000E+00 0. -1.
</event>
<event>
 8    1  0.6787197E-009  0.2007408E+03  0.7561462E-02  0.1149116E+00
          1   -1    0    0  501    0  0.00000000000E+00  0.00000000000E+00  0.28432575215E+03  0.28432575215E+03  0.00000000000E+00 0. -1.
         -1   -1    0    0    0  501 -0.00000000000E+00 -0.00000000000E+00 -0.21523467542E+03  0.21523467542E+03  0.00000000000E+00 0.  1.
         25    2    1    2    0    0  0.10446408772E+03 -0.14947395421E+03  0.16315373358E+03  0.27481276254E+03  0.12509078728E+03 0.  0.
         23    2    1    2    0    0 -0.10446408772E+03  0.14947395421E+03 -0.94062656848E+02  0.22474766503E+03  0.91697987505E+02 0.  0.
          5    1    3    3  502    0  0.98968907939E+02 -0.16921903351E+03  0.16114094889E+03  0.25379874675E+03  0.41800000000E+01 0. -1.
         -5    1    3    3    0  502  0.54951797815E+01  0.19745079303E+02  0.20127846902E+01  0.21014015792E+02  0.41800000000E+01 0. -1.
        -11    1    4    4    0    0 -0.82657383940E+02  0.95686505600E+02 -0.10658320827E+03  0.16537270258E+03  0.00000000000E+00 0. -1.
         11    1    4    4    0    0 -0.21806703781E+02  0.53787448610E+02  0.12520551424E+02  0.59374962448E+02  0.00000000000E+00 0.  1.
</event>
<event>
 8    1  0.6787197E-009  0.9598703E+02  0.7561462E-02  0.1288968E+00
          1   -1    0    0  501    0  0.00000000000E+00  0.00000000000E+00  0.29832370858E+02  0.29832370858E+02  0.00000000000E+00 0. -1.
         -1   -1    0    0    0  501 -0.00000000000E+00 -0.00000000000E+00 -0.46283387866E+03  0.46283387866E+03  0.00000000000E+00 0.  1.
         25    2    1    2    0    0 -0.43086475337E+02 -0.12344811369E+02 -0.25173972676E+03  0.28465564856E+03  0.12508840676E+03 0.  0.
         23    2    1    2    0    0  0.43086475337E+02  0.12344811369E+02 -0.18126178105E+03  0.20801060096E+03  0.91671904736E+02 0.  0.
          5    1    3    3  502    0  0.28324525591E+02 -0.82687377527E+01 -0.18284243250E+03  0.18525517077E+03  0.41800000000E+01 0.  1.
         -5    1    3    3    0  502 -0.71411000928E+02 -0.40760736158E+01 -0.68897294259E+02  0.99400477795E+02  0.41800000000E+01 0.  1.
        -11    1    4    4    0    0 -0.46124663354E+01 -0.27799495170E+02 -0.18479976852E+02  0.33698610088E+02  0.00000000000E+00 0. -1.
         11    1    4    4    0    0  0.47698941672E+02  0.40144306539E+02 -0.16278180420E+03  0.17431199087E+03  0.00000000000E+00 0.  1.
</event>
<event>
 8    1  0.6787197E-009  0.8802318E+02  0.7561462E-02  0.1307711E+00
         -4   -1    0    0    0  501 -0.00000000000E+00  0.00000000000E+00  0.57172383466E+03  0.57172383466E+03  0.00000000000E+00 0.  1.
          4   -1    0    0  501    0  0.00000000000E+00 -0.00000000000E+00 -0.27314351653E+02  0.27314351653E+02  0.00000000000E+00 0. -1.
         25    2    1    2    0    0 -0.41066476773E+01  0.33273671447E+02  0.42802088135E+03  0.44718431155E+03  0.12509169377E+03 0.  0.
         23    2    1    2    0    0  0.41066476773E+01 -0.33273671447E+02  0.11638860165E+03  0.15185387476E+03  0.91593072446E+02 0.  0.
          5    1    3    3  502    0 -0.13487554007E+02  0.53784078439E+02  0.41877871356E+03  0.42245440528E+03  0.41800000000E+01 0. -1.
         -5    1    3    3    0  502  0.93809063295E+01 -0.20510406992E+02  0.92421677946E+01  0.24729906269E+02  0.41800000000E+01 0. -1.
        -11    1    4    4    0    0  0.31866155068E+02  0.19863694610E+02  0.42868068177E+02  0.56988502978E+02  0.00000000000E+00 0. -1.
         11    1    4    4    0    0 -0.27759507390E+02 -0.53137366058E+02  0.73520533471E+02  0.94865371785E+02  0.00000000000E+00 0.  1.
</event>
<event>
 8    1  0.6787197E-009  0.1129534E+03  0.7561462E-02  0.1255196E+00
         -3   -1    0    0    0  501 -0.00000000000E+00  0.00000000000E+00  0.46111563352E+02  0.46111563352E+02  0.00000000000E+00 0.  1.
          3   -1    0    0  501    0  0.00000000000E+00 -0.00000000000E+00 -0.34495645980E+03  0.34495645980E+03  0.00000000000E+00 0. -1.
         25    2    1    2    0    0 -0.17901565251E+02 -0.39354134984E+02 -0.96589770475E+02  0.16384873058E+03  0.12509040241E+03 0.  0.
         23    2    1    2    0    0  0.17901565251E+02  0.39354134984E+02 -0.20225512597E+03  0.22721929257E+03  0.94086433420E+02 0.  0.
          5    1    3    3  502    0 -0.59126719587E+02  0.10554667824E+02 -0.19914341444E+02  0.63414693701E+02  0.41800000000E+01 0.  1.
         -5    1    3    3    0  502  0.41225154336E+02 -0.49908802808E+02 -0.76675429031E+02  0.10043403688E+03  0.41800000000E+01 0.  1.
        -11    1    4    4    0    0  0.43718834341E+02  0.55294796209E+02 -0.16312403957E+03  0.17770285098E+03  0.00000000000E+00 0.  1.
         11    1    4    4    0    0 -0.25817269091E+02 -0.15940661225E+02 -0.39131086409E+02  0.49516441584E+02  0.00000000000E+00 0. -1.
</event>
<event>
 8    1  0.6787197E-009  0.1327693E+03  0.7561462E-02  0.1223403E+00
          2   -1    0    0  501    0  0.00000000000E+00  0.00000000000E+00  0.10439702067E+04  0.10439702067E+04  0.00000000000E+00 0. -1.
         -2   -1    0    0    0  501 -0.00000000000E+00 -0.00000000000E+00 -0.26638007858E+02  0.26638007858E+02  0.00000000000E+00 0.  1.
         25    2    1    2    0    0 -0.12225675664E+03 -0.27964017953E+02  0.47455886183E+03  0.50653974124E+03  0.12509074810E+03 0.  0.
         23    2    1    2    0    0  0.12225675664E+03  0.27964017953E+02  0.54277333705E+03  0.56406847337E+03  0.88553071016E+02 0.  0.
          5    1    3    3  502    0 -0.82779671727E+02 -0.19987310473E+02  0.45243498750E+03  0.46039858486E+03  0.41800000000E+01 0.  1.
         -5    1    3    3    0  502 -0.39477084916E+02 -0.79767074800E+01  0.22123874336E+02  0.46141156372E+02  0.41800000000E+01 0.  1.
        -11    1    4    4    0    0  0.67530921119E+02 -0.16218798302E+02  0.15334486868E+03  0.16833931055E+03  0.00000000000E+00 0.  1.
         11    1    4    4    0    0  0.54725835524E+02  0.44182816255E+02  0.38942846837E+03  0.39572916281E+03  0.00000000000E+00 0. -1.
</event>
<event>
 8    1  0.6787197E-009  0.1138036E+03  0.7561462E-02  0.1253684E+00
         -1   -1    0    0    0  501 -0.00000000000E+00  0.00000000000E+00  0.32318949135E+03  0.32318949135E+03  0.00000000000E+00 0.  1.
          1   -1    0    0  501    0  0.00000000000E+00 -0.00000000000E+00 -0.63033608685E+02  0.63033608685E+02  0.00000000000E+00 0. -1.
         25    2    1    2    0    0 -0.79151397038E+02  0.42189694012E+02  0.11595713517E+03  0.19271424781E+03  0.12509120743E+03 0.  0.
         23    2    1    2    0    0  0.79151397038E+02 -0.42189694012E+02  0.14419874749E+03  0.19350885223E+03  0.92776522779E+02 0.  0.
          5    1    3    3  502    0 -0.91974956128E+02  0.63541672769E+02  0.12322945379E+03  0.16643289163E+03  0.41800000000E+01 0.  1.
         -5    1    3    3    0  502  0.12823559090E+02 -0.21351978756E+02 -0.72723186182E+01  0.26281356179E+02  0.41800000000E+01 0.  1.
        -11    1    4    4    0    0  0.77372194720E+01 -0.85895098244E+01 -0.13129870667E+02  0.17493934604E+02  0.00000000000E+00 0. -1.
         11    1    4    4    0    0  0.71414177566E+02 -0.33600184188E+02  0.15732861816E+03  0.17601491762E+03  0.00000000000E+00 0.  1.
</event>
<event>
 8    1  0.6787197E-009  0.1180610E+03  0.7561462E-02  0.1246331E+00
          3   -1    0    0  501    0  0.00000000000E+00  0.00000000000E+00  0.74403596423E+02  0.74403596423E+02  0.00000000000E+00 0. -1.
         -3   -1    0    0    0  501 -0.00000000000E+00 -0.00000000000E+00 -0.24488334722E+03  0.24488334722E+03  0.00000000000E+00 0.  1.
         25    2    1    2    0    0 -0.29618576214E+02  0.38619839964E+02 -0.17437147865E+02  0.13534493805E+03  0.12508175740E+03 0.  0.
         23    2    1    2    0    0  0.29618576214E+02 -0.38619839964E+02 -0.15304260293E+03  0.18394200559E+03  0.89687630219E+02 0.  0.
          5    1    3    3  502    0 -0.37638553953E+02 -0.39975616059E+02 -0.55802571775E+01  0.55347288038E+02  0.41800000000E+01 0.  1.
         -5    1    3    3    0  502  0.80199777388E+01  0.78595456022E+02 -0.11856890687E+02  0.79997650010E+02  0.41800000000E+01 0.  1.
        -11    1    4    4    0    0  0.19210454423E+01  0.28899406338E+02 -0.47211235547E+02  0.55387425145E+02  0.00000000000E+00 0.  1.
         11    1    4    4    0    0  0.27697530772E+02 -0.67519246302E+02 -0.10583136738E+03  0.12855458045E+03  0.00000000000E+00 0. -1.
</event>
<event>
 8    1  0.6787197E-009  0.1317258E+03  0.7561462E-02  0.1224917E+00
         -2   -1    0    0    0  501 -0.00000000000E+00  0.00000000000E+00  0.29061879846E+02  0.29061879846E+02  0.00000000000E+00 0.  1.
          2   -1    0    0  501    0  0.00000000000E+00 -0.00000000000E+00 -0.10341948829E+04  0.10341948829E+04  0.00000000000E+00 0. -1.
         25    2    1    2    0    0  0.94605767651E+02  0.83168493571E+02 -0.37425870329E+03  0.41422698945E+03  0.12508865737E+03 0.  0.
         23    2    1    2    0    0 -0.94605767651E+02 -0.83168493571E+02 -0.63087429980E+03  0.64902977333E+03  0.85848791085E+02 0.  0.
          5    1    3    3  502    0  0.43037171700E+02  0.71065202338E+02 -0.80700040836E+02  0.11589836117E+03  0.41800000000E+01 0. -1.
         -5    1    3    3    0  502  0.51568595951E+02  0.12103291232E+02 -0.29355866246E+03  0.29832862828E+03  0.41800000000E+01 0. -1.
        -11    1    4    4    0    0 -0.46319348295E+01 -0.10499647367E+02 -0.49293970034E+01  0.12489850676E+02  0.00000000000E+00 0.  1.
         11    1    4    4    0    0 -0.89973832822E+02 -0.72668846204E+02 -0.62594490279E+03  0.63653992266E+03  0.00000000000E+00 0. -1.
</event>
<event>
 8    1  0.6787197E-009  0.1031659E+03  0.7561462E-02  0.1273776E+00
          1   -1    0    0  501    0  0.00000000000E+00  0.00000000000E+00  0.68946383901E+03  0.68946383901E+03  0.00000000000E+00 0. -1.
         -1   -1    0    0    0  501 -0.00000000000E+00 -0.00000000000E+00 -0.41663426113E+02  0.41663426113E+02  0.00000000000E+00 0.  1.
         25    2    1    2    0    0 -0.93553781194E+02  0.17837064003E+02  0.53500241379E+03  0.55762641445E+03  0.12509662063E+03 0.  0.
         23    2    1    2    0    0  0.93553781194E+02 -0.17837064003E+02  0.11279799910E+03  0.17350085067E+03  0.91151992602E+02 0.  0.
          5    1    3    3  502    0 -0.17436574836E+02  0.23090742372E+02  0.16593027279E+02  0.33615732620E+02  0.41800000000E+01 0.  1.
         -5    1    3    3    0  502 -0.76117206358E+02 -0.52536783693E+01  0.51840938652E+03  0.52401068183E+03  0.41800000000E+01 0.  1.
        -11    1    4    4    0    0  0.73436073426E+02  0.53748485329E+00  0.19042649396E+02  0.75866779727E+02  0.00000000000E+00 0.  1.
         11    1    4    4    0    0  0.20117707768E+02 -0.18374548856E+02  0.93755349701E+02  0.97634070944E+02  0.00000000000E+00 0. -1.
</event>
<event>
 8    1  0.6787197E-009  0.9165021E+02  0.7561462E-02  0.1298904E+00
         -1   -1    0    0    0  501 -0.00000000000E+00  0.00000000000E+00  0.21557501044E+03  0.21557501044E+03  0.00000000000E+00 0.  1.
          1   -1    0    0  501    0  0.00000000000E+00 -0.00000000000E+00 -0.10302955303E+03  0.10302955303E+03  0.00000000000E+00 0. -1.
         25    2    1    2    0    0  0.56833441047E+02  0.30856584173E+02  0.14383811532E+03  0.20129073394E+03  0.12508552011E+03 0.  0.
         23    2    1    2    0    0 -0.56833441047E+02 -0.30856584173E+02 -0.31292657912E+02  0.11731382954E+03  0.92742306167E+02 0.  0.
          5    1    3    3  502    0  0.25953973430E+02  0.48650557501E+02  0.23775567224E+01  0.55349893025E+02  0.41800000000E+01 0.  1.
         -5    1    3    3    0  502  0.30879467617E+02 -0.17793973329E+02  0.14146055860E+03  0.14594084091E+03  0.41800000000E+01 0.  1.
        -11    1    4    4    0    0 -0.48296937422E+02 -0.51000477940E+02  0.96428384381E+01  0.70898711184E+02  0.00000000000E+00 0.  1.
         11    1    4    4    0    0 -0.85365036253E+01  0.20143893767E+02 -0.40935496350E+02  0.46415118352E+02  0.00000000000E+00 0. -1.
</event>
<event>
 8    1  0.6787197E-009  0.1233666E+03  0.7561462E-02  0.1237644E+00
          2   -1    0    0  501    0  0.00000000000E+00  0.00000000000E+00  0.39500160998E+03  0.39500160998E+03  0.00000000000E+00 0. -1.
         -2   -1    0    0    0  501 -0.00000000000E+00 -0.00000000000E+00 -0.40343122514E+02  0.40343122514E+02  0.00000000000E+00 0.  1.
         25    2    1    2    0    0  0.83745866275E+01  0.57835527383E+02  0.15229904548E+03  0.20556659690E+03  0.12509014581E+03 0.  0.
         23    2    1    2    0    0 -0.83745866275E+01 -0.57835527383E+02  0.20235944199E+03  0.22977813559E+03  0.91834448358E+02 0.  0.
          5    1    3    3  502    0  0.65961211243E+02  0.20275327000E+02  0.79161366312E+02  0.10509978397E+03  0.41800000000E+01 0. -1.
         -5    1    3    3    0  502 -0.57586624615E+02  0.37560200383E+02  0.73137679164E+02  0.10046681293E+03  0.41800000000E+01 0. -1.
        -11    1    4    4    0    0  0.41706743823E+02 -0.22138276242E+02  0.93522965386E+02  0.10476688795E+03  0.00000000000E+00 0.  1.
         11    1    4    4    0    0 -0.50081330450E+02 -0.35697251141E+02  0.10883647660E+03  0.12501124765E+03  0.00000000000E+00 0. -1.
</event>
<event>
 8    1  0.6787197E-009  0.3772956E+03  0.7561462E-02  0.1051938E+00
         -1   -1    0    0    0  501 -0.00000000000E+00  0.00000000000E+00  0.27582954695E+03  0.27582954695E+03  0.00000000000E+00 0. -1.
          1   -1    0    0  501    0  0.00000000000E+00 -0.00000000000E+00 -0.56087659619E+03  0.56087659619E+03  0.00000000000E+00 0.  1.
         25    2    1    2    0    0  0.37024968419E+03 -0.47995633765E+01 -0.65252073910E+02  0.39624896567E+03  0.12509014824E+03 0.  0.
         23    2    1    2    0    0 -0.37024968419E+03  0.47995633765E+01 -0.21979497532E+03  0.44045717747E+03  0.92654355283E+02 0.  0.
          5    1    3    3  502    0  0.36280998607E+03  0.60617820578E+01 -0.36956120825E+02  0.36476164610E+03  0.41800000000E+01 0. -1.
         -5    1    3    3    0  502  0.74396981213E+01 -0.10861345434E+02 -0.28295953085E+02  0.31487319571E+02  0.41800000000E+01 0. -1.
        -11    1    4    4    0    0 -0.15129933632E+03 -0.35150178937E+02 -0.12125827659E+03  0.19705479921E+03  0.00000000000E+00 0. -1.
         11    1    4    4    0    0 -0.21895034787E+03  0.39949742314E+02 -0.98536698733E+02  0.24340237826E+03  0.00000000000E+00 0.  1.
</event>
<event>
 8    1  0.6787197E-009  0.9146069E+02  0.7561462E-02  0.1299352E+00
         -1   -1    0    0    0  501 -0.00000000000E+00  0.00000000000E+00  0.20000356947E+02  0.20000356947E+02  0.00000000000E+00 0.  1.
          1   -1    0    0  501    0  0.00000000000E+00 -0.00000000000E+00 -0.62621670447E+03  0.62621670447E+03  0.00000000000E+00 0. -1.
         25    2    1    2    0    0  0.13425078766E+02 -0.19312644286E+02 -0.33770360919E+03  0.36089457656E+03  0.12509179334E+03 0.  0.
         23    2    1    2    0    0 -0.13425078766E+02  0.19312644286E+02 -0.26851273833E+03  0.28532248486E+03  0.93576806682E+02 0.  0.
          5    1    3    3  502    0 -0.24597577852E+02  0.29032138946E+02 -0.34646779085E+02  0.51631169161E+02  0.41800000000E+01 0. -1.
         -5    1    3    3    0  502  0.38022656618E+02 -0.48344783232E+02 -0.30305683011E+03  0.30926340740E+03  0.41800000000E+01 0. -1.
        -11    1    4    4    0    0 -0.45855731399E+02  0.12513805390E+01 -0.21719439483E+03  0.22198585361E+03  0.00000000000E+00 0.  1.
         11    1    4    4    0    0  0.32430652633E+02  0.18061263746E+02 -0.51318343497E+02  0.63336631246E+02  0.00000000000E+00 0. -1.
</event>
<event>
 8    1  0.6787197E-009  0.1305554E+03  0.7561462E-02  0.1226634E+00
          2   -1    0    0  501    0  0.00000000000E+00  0.00000000000E+00  0.92602290122E+01  0.92602290122E+01  0.00000000000E+00 0.  1.
         -2   -1    0    0    0  501 -0.00000000000E+00 -0.00000000000E+00 -0.21804308708E+04  0.21804308708E+04  0.00000000000E+00 0. -1.
         25    2    1    2    0    0 -0.17742292553E+02  0.71355679616E+02 -0.16136998814E+04  0.16202100993E+04  0.12508811547E+03 0.  0.
         23    2    1    2    0    0  0.17742292553E+02 -0.71355679616E+02 -0.55747076040E+03  0.56948100054E+03  0.90158412349E+02 0.  0.
          5    1    3    3  502    0 -0.47074618367E+02 -0.18132614263E+02 -0.52260988146E+03  0.52505558944E+03  0.41800000000E+01 0. -1.
         -5    1    3    3    0  502  0.29332325814E+02  0.89488293879E+02 -0.10910900000E+04  0.10951545099E+04  0.41800000000E+01 0. -1.
        -11    1    4    4    0    0  0.28316593001E+02  0.13036960647E+02 -0.13861779514E+03  0.14207985400E+03  0.00000000000E+00 0.  1.
         11    1    4    4    0    0 -0.10574300447E+02 -0.84392640263E+02 -0.41885296526E+03  0.42740114655E+03  0.00000000000E+00 0. -1.
</event>
<event>
 8    1  0.6787197E-009  0.1567320E+03  0.7561462E-02  0.1192437E+00
          1   -1    0    0  501    0  0.00000000000E+00  0.00000000000E+00  0.92274443728E+02  0.92274443728E+02  0.00000000000E+00 0. -1.
         -1   -1    0    0    0  501 -0.00000000000E+00 -0.00000000000E+00 -0.32519428133E+03  0.32519428133E+03  0.00000000000E+00 0.  1.
         25    2    1    2    0    0  0.12214380109E+03  0.47942546058E+02 -0.16193541738E+03  0.24308136484E+03  0.12509146519E+03 0.  0.
         23    2    1    2    0    0 -0.12214380109E+03 -0.47942546058E+02 -0.70984420219E+02  0.17438736021E+03  0.90302644588E+02 0.  0.
          5    1    3    3  502    0  0.70116214986E+02  0.70753831323E+02 -0.38023176381E+02  0.10670343290E+03  0.41800000000E+01 0.  1.
         -5    1    3    3    0  502  0.52027586108E+02 -0.22811285265E+02 -0.12391224100E+03  0.13637793194E+03  0.41800000000E+01 0.  1.
        -11    1    4    4    0    0 -0.47180190082E+02  0.23972843683E+02 -0.38845565951E+02  0.65647890785E+02  0.00000000000E+00 0.  1.
         11    1    4    4    0    0 -0.74963611012E+02 -0.71915389741E+02 -0.32138854268E+02  0.10873946943E+03  0.00000000000E+00 0. -1.
</event>
<event>
 8    1  0.6787197E-009  0.1958323E+03  0.7561462E-02  0.1153304E+00
          2   -1    0    0  501    0  0.00000000000E+00  0.00000000000E+00  0.11109621163E+04  0.11109621163E+04  0.00000000000E+00 0. -1.
         -2   -1    0    0    0  501 -0.00000000000E+00 -0.00000000000E+00 -0.52477442763E+02  0.52477442763E+02  0.00000000000E+00 0.  1.
         25    2    1    2    0    0  0.14392785790E+03  0.11364179845E+03  0.27296005876E+03  0.35182956348E+03  0.12508861430E+03 0.  0.
         23    2    1    2    0    0 -0.14392785790E+03 -0.11364179845E+03  0.78552461481E+03  0.81160999561E+03  0.89622418367E+02 0.  0.
          5    1    3    3  502    0  0.10269056915E+03  0.12300260287E+03  0.14197567850E+03  0.21412510126E+03  0.41800000000E+01 0. -1.
         -5    1    3    3    0  502  0.41237288748E+02 -0.93608044209E+01  0.13098438026E+03  0.13770446222E+03  0.41800000000E+01 0. -1.
        -11    1    4    4    0    0 -0.79579503861E+02 -0.34114532662E+02  0.51812649645E+03  0.52531111268E+03  0.00000000000E+00 0.  1.
         11    1    4    4    0    0 -0.64348354037E+02 -0.79527265788E+02  0.26739811835E+03  0.28629888293E+03  0.00000000000E+00 0. -1.
</event>
<event>
 8    1  0.6787197E-009  0.3716065E+03  0.7561462E-02  0.1054080E+00
          2   -1    0    0  501    0  0.00000000000E+00  0.00000000000E+00  0.12458099702E+04  0.12458099702E+04  0.00000000000E+00 0. -1.
         -2   -1    0    0    0  501 -0.00000000000E+00 -0.00000000000E+00 -0.12688778494E+03  0.12688778494E+03  0.00000000000E+00 0.  1.
         25    2    1    2    0    0  0.28106971545E+03  0.23468143405E+03  0.75444303223E+03  0.84788448143E+03  0.12509294360E+03 0.  0.
         23    2    1    2    0    0 -0.28106971545E+03 -0.23468143405E+03  0.36447915303E+03  0.52481327372E+03  0.92240765668E+02 0.  0.
          5    1    3    3  502    0  0.27890613814E+03  0.22291653340E+03  0.75502362065E+03  0.83519970958E+03  0.41800000000E+01 0.  1.
         -5    1    3    3    0  502  0.21635773104E+01  0.11764900646E+02 -0.58058841091E+00  0.12684771850E+02  0.41800000000E+01 0.  1.
        -11    1    4    4    0    0 -0.53840310470E+01 -0.29049337870E+02  0.53607607322E+02  0.61209700079E+02  0.00000000000E+00 0.  1.
         11    1    4    4    0    0 -0.27568568440E+03 -0.20563209618E+03  0.31087154570E+03  0.46360357364E+03  0.00000000000E+00 0. -1.
</event>
<event>
 8    1  0.6787197E-009  0.9190187E+02  0.7561462E-02  0.1298310E+00
          2   -1    0    0  501    0  0.00000000000E+00  0.00000000000E+00  0.94149244049E+03  0.94149244049E+03  0.00000000000E+00 0. -1.
         -2   -1    0    0    0  501 -0.00000000000E+00 -0.00000000000E+00 -0.15157566726E+02  0.15157566726E+02  0.00000000000E+00 0.  1.
         25    2    1    2    0    0  0.22973355618E+02 -0.69899568677E+01  0.35366771020E+03  0.37590365528E+03  0.12508426857E+03 0.  0.
         23    2    1    2    0    0 -0.22973355618E+02  0.69899568677E+01  0.57266716356E+03  0.58074635194E+03  0.93498719279E+02 0.  0.
          5    1    3    3  502    0 -0.19008329243E+02  0.26871030281E+02  0.29196581240E+03  0.29384498780E+03  0.41800000000E+01 0.  1.
         -5    1    3    3    0  502  0.41981684861E+02 -0.33860987148E+02  0.61701897808E+02  0.82058667473E+02  0.41800000000E+01 0.  1.
        -11    1    4    4    0    0 -0.24012259240E+02  0.48967058775E+02  0.32661426212E+03  0.33113628261E+03  0.00000000000E+00 0. -1.
         11    1    4    4    0    0  0.10389036226E+01 -0.41977101907E+02  0.24605290144E+03  0.24961006933E+03  0.00000000000E+00 0.  1.
</event>
<event>
 8    1  0.6787197E-009  0.1994897E+03  0.7561462E-02  0.1150170E+00
          2   -1    0    0  501    0  0.00000000000E+00  0.00000000000E+00  0.13824846356E+04  0.13824846356E+04  0.00000000000E+00 0. -1.
         -2   -1    0    0    0  501 -0.00000000000E+00 -0.00000000000E+00 -0.37703624212E+02  0.37703624212E+02  0.00000000000E+00 0.  1.
         25    2    1    2    0    0 -0.51646684937E+02  0.17041148563E+03  0.99184434390E+03  0.10154366665E+04  0.12509582979E+03 0.  0.
         23    2    1    2    0    0  0.51646684937E+02 -0.17041148563E+03  0.35293666749E+03  0.40475159332E+03  0.86902856915E+02 0.  0.
          5    1    3    3  502    0 -0.81668961835E+02  0.15390142997E+03  0.69184060652E+03  0.71345382941E+03  0.41800000000E+01 0.  1.
         -5    1    3    3    0  502  0.30022276897E+02  0.16510055652E+02  0.30000373738E+03  0.30198283708E+03  0.41800000000E+01 0.  1.
        -11    1    4    4    0    0  0.58137135243E+02 -0.76674587219E+02  0.12163538247E+03  0.15509379449E+03  0.00000000000E+00 0.  1.
         11    1    4    4    0    0 -0.64904503058E+01 -0.93736898407E+02  0.23130128502E+03  0.24965779883E+03  0.00000000000E+00 0. -1.
</event>
<event>
 8    1  0.6787197E-009  0.1079872E+03  0.7561462E-02  0.1264343E+00
          4   -1    0    0  501    0  0.00000000000E+00  0.00000000000E+00  0.10342922422E+03  0.10342922422E+03  0.00000000000E+00 0.  1.
         -4   -1    0    0    0  501 -0.00000000000E+00 -0.00000000000E+00 -0.17936739101E+03  0.17936739101E+03  0.00000000000E+00 0. -1.
         25    2    1    2    0    0 -0.38669948930E+02 -0.46916487373E+02 -0.99176550105E+02  0.17081913342E+03  0.12508663603E+03 0.  0.
         23    2    1    2    0    0  0.38669948930E+02  0.46916487373E+02  0.23238383315E+02  0.11197748182E+03  0.91117573708E+02 0.  0.
          5    1    3    3  502    0 -0.67376317561E+02 -0.31420221466E+02 -0.92072259245E+01  0.75026954452E+02  0.41800000000E+01 0. -1.
         -5    1    3    3    0  502  0.28706368631E+02 -0.15496265907E+02 -0.89969324181E+02  0.95792178964E+02  0.41800000000E+01 0. -1.
        -11    1    4    4    0    0  0.62978771708E+02  0.54368816639E+02  0.11564925304E+02  0.84000246463E+02  0.00000000000E+00 0.  1.
         11    1    4    4    0    0 -0.24308822779E+02 -0.74523292658E+01  0.11673458011E+02  0.27977235358E+02  0.00000000000E+00 0. -1.
</event>
<event>
 8    1  0.6787197E-009  0.7395790E+02  0.7561462E-02  0.1347129E+00
         -1   -1    0    0    0  501 -0.00000000000E+00  0.00000000000E+00  0.38391171985E+02  0.38391171985E+02  0.00000000000E+00 0.  1.
          1   -1    0    0  501    0  0.00000000000E+00 -0.00000000000E+00 -0.32201463307E+03  0.32201463307E+03  0.00000000000E+00 0. -1.
         25    2    1    2    0    0 -0.17296658473E+02  0.92970864427E+01 -0.18445117692E+03  0.22372671469E+03  0.12508315628E+03 0.  0.
         23    2    1    2    0    0  0.17296658473E+02 -0.92970864427E+01 -0.99172284159E+02  0.13667909036E+03  0.91980550047E+02 0.  0.
          5    1    3    3  502    0  0.17434506209E+02  0.23708901098E+02  0.53407385562E+01  0.30200494803E+02  0.41800000000E+01 0. -1.
         -5    1    3    3    0  502 -0.34731164682E+02 -0.14411814655E+02 -0.18979191548E+03  0.19352621988E+03  0.41800000000E+01 0. -1.
        -11    1    4    4    0    0 -0.18196049211E+02  0.25053330452E+02 -0.64605153305E+01  0.31630741882E+02  0.00000000000E+00 0.  1.
         11    1    4    4    0    0  0.35492707684E+02 -0.34350416895E+02 -0.92711768828E+02  0.10504834848E+03  0.00000000000E+00 0. -1.
</event>
<event>
 8    1  0.6787197E-009  0.9773883E+02  0.7561462E-02  0.1285124E+00
         -1   -1    0    0    0  501 -0.00000000000E+00  0.00000000000E+00  0.23254537823E+03  0.23254537823E+03  0.00000000000E+00 0.  1.
          1   -1    0    0  501    0  0.00000000000E+00 -0.00000000000E+00 -0.59842835321E+02  0.59842835321E+02  0.00000000000E+00 0. -1.
         25    2    1    2    0    0 -0.15210072583E+01  0.27644613105E+00  0.40598437555E+02  0.13152274862E+03  0.12509040885E+03 0.  0.
         23    2    1    2    0    0  0.15210072583E+01 -0.27644613105E+00  0.13210410535E+03  0.16086546493E+03  0.91781333995E+02 0.  0.
          5    1    3    3  502    0 -0.98140141990E+01  0.56057726236E+02 -0.71517906559E+01  0.57510034386E+02  0.41800000000E+01 0.  1.
         -5    1    3    3    0  502  0.82930069407E+01 -0.55781280105E+02  0.47750228211E+02  0.74012714235E+02  0.41800000000E+01 0.  1.
        -11    1    4    4    0    0  0.23664719400E+02  0.33778799108E+02  0.10283578677E+03  0.11079812839E+03  0.00000000000E+00 0.  1.
         11    1    4    4    0    0 -0.22143712141E+02 -0.34055245239E+02  0.29268318585E+02  0.50067336543E+02  0.00000000000E+00 0. -1.
</event>
<event>
 8    1  0.6787197E-009  0.1380143E+03  0.7561462E-02  0.1216026E+00
         -1   -1    0    0    0  501 -0.00000000000E+00  0.00000000000E+00  0.48288980440E+02  0.48288980440E+02  0.00000000000E+00 0.  1.
          1   -1    0    0  501    0  0.00000000000E+00 -0.00000000000E+00 -0.60794183042E+03  0.60794183042E+03  0.00000000000E+00 0. -1.
         25    2    1    2    0    0 -0.22924573317E+02  0.12037013185E+03 -0.20264516726E+03  0.26781864610E+03  0.12508900305E+03 0.  0.
         23    2    1    2    0    0  0.22924573317E+02 -0.12037013185E+03 -0.35700768272E+03  0.38841216476E+03  0.91624339052E+02 0.  0.
          5    1    3    3  502    0 -0.25126920308E+02  0.10561329538E+03 -0.21950554322E+03  0.24491975460E+03  0.41800000000E+01 0. -1.
         -5    1    3    3    0  502  0.22023469905E+01  0.14756836466E+02  0.16860375961E+02  0.22898891508E+02  0.41800000000E+01 0. -1.
        -11    1    4    4    0    0  0.46649271241E+02 -0.23644124609E+02 -0.10152483086E+03  0.11420372330E+03  0.00000000000E+00 0. -1.
         11    1    4    4    0    0 -0.23724697924E+02 -0.96726007241E+02 -0.25548285186E+03  0.27420844145E+03  0.00000000000E+00 0.  1.
</event>
<event>
 8    1  0.6787197E-009  0.2478689E+03  0.7561462E-02  0.1114659E+00
          1   -1    0    0  501    0  0.00000000000E+00  0.00000000000E+00  0.12229131474E+03  0.12229131474E+03  0.00000000000E+00 0. -1.
         -1   -1    0    0    0  501 -0.00000000000E+00 -0.00000000000E+00 -0.53088429960E+03  0.53088429960E+03  0.00000000000E+00 0.  1.
         25    2    1    2    0    0  0.11713038193E+03  0.18999398935E+03 -0.28087040326E+03  0.37993778323E+03  0.12508914155E+03 0.  0.
         23    2    1    2    0    0 -0.11713038193E+03 -0.18999398935E+03 -0.12772258160E+03  0.27323783111E+03  0.92350485308E+02 0.  0.
          5    1    3    3  502    0  0.13282722051E+03  0.10911420328E+03 -0.17056005736E+03  0.24219245536E+03  0.41800000000E+01 0.  1.
         -5    1    3    3    0  502 -0.15696838579E+02  0.80879786071E+02 -0.11031034590E+03  0.13774532787E+03  0.41800000000E+01 0.  1.
        -11    1    4    4    0    0 -0.13146011299E+03 -0.15356721356E+03 -0.10228201372E+03  0.22655299759E+03  0.00000000000E+00 0. -1.
         11    1    4    4    0    0  0.14329731051E+02 -0.36426775795E+02 -0.25440567875E+02  0.46684833518E+02  0.00000000000E+00 0.  1.
</event>
<event>
 8    1  0.6787197E-009  0.1830591E+03  0.7561462E-02  0.1164875E+00
         -2   -1    0    0    0  501 -0.00000000000E+00  0.00000000000E+00  0.12018501012E+03  0.12018501012E+03  0.00000000000E+00 0.  1.
          2   -1    0    0  501    0  0.00000000000E+00 -0.00000000000E+00 -0.50889500741E+03  0.50889500741E+03  0.00000000000E+00 0. -1.
         25    2    1    2    0    0 -0.33913570837E+02  0.14962933291E+03 -0.40371624241E+03  0.44963678537E+03  0.12508943529E+03 0.  0.
         23    2    1    2    0    0  0.33913570837E+02 -0.14962933291E+03  0.15006245120E+02  0.17944323215E+03  0.91845623844E+02 0.  0.
          5    1    3    3  502    0 -0.11433128600E+02 -0.20841877749E+02 -0.32239273622E+02  0.40273359201E+02  0.41800000000E+01 0.  1.
         -5    1    3    3    0  502 -0.22480442237E+02  0.17047121066E+03 -0.37147696879E+03  0.40936342617E+03  0.41800000000E+01 0.  1.
        -11    1    4    4    0    0  0.57039384124E+02 -0.97577448441E+02  0.36182567947E+02  0.11867614760E+03  0.00000000000E+00 0.  1.
         11    1    4    4    0    0 -0.23125813287E+02 -0.52051884467E+02 -0.21176322827E+02  0.60767084554E+02  0.00000000000E+00 0. -1.
</event>
<event>
 8    1  0.6787197E-009  0.1089074E+03  0.7561462E-02  0.1262607E+00
         -1   -1    0    0    0  501 -0.00000000000E+00  0.00000000000E+00  0.13558313644E+03  0.13558313644E+03  0.00000000000E+00 0.  1.
          1   -1    0    0  501    0  0.00000000000E+00 -0.00000000000E+00 -0.13291435815E+03  0.13291435815E+03  0.00000000000E+00 0. -1.
         25    2    1    2    0    0  0.77935544013E+01 -0.56706024368E+02 -0.53827147924E+02  0.14771983483E+03  0.12508986793E+03 0.  0.
         23    2    1    2    0    0 -0.77935544013E+01  0.56706024368E+02  0.56495926216E+02  0.12077765976E+03  0.90106274636E+02 0.  0.
          5    1    3    3  502    0  0.50942686748E+02 -0.21842152685E+02  0.16563004049E+02  0.58000366121E+02  0.41800000000E+01 0.  1.
         -5    1    3    3    0  502 -0.43149132346E+02 -0.34863871682E+02 -0.70390151973E+02  0.89719468711E+02  0.41800000000E+01 0.  1.
        -11    1    4    4    0    0 -0.47327595381E+02  0.16265999698E+02  0.29731151147E+02  0.58210182779E+02  0.00000000000E+00 0.  1.
         11    1    4    4    0    0  0.39534040979E+02  0.40440024670E+02  0.26764775069E+02  0.62567476982E+02  0.00000000000E+00 0. -1.
</event>
<event>
 8    1  0.6787197E-009  0.1034104E+03  0.7561462E-02  0.1273284E+00
          1   -1    0    0  501    0  0.00000000000E+00  0.00000000000E+00  0.16831317763E+03  0.16831317763E+03  0.00000000000E+00 0. -1.
         -1   -1    0    0    0  501 -0.00000000000E+00 -0.00000000000E+00 -0.71847730385E+02  0.71847730385E+02  0.00000000000E+00 0.  1.
         25    2    1    2    0    0  0.21023116286E+02  0.18826562234E+01  0.44129540883E+02  0.13431738206E+03  0.12509287322E+03 0.  0.
         23    2    1    2    0    0 -0.21023116286E+02 -0.18826562234E+01  0.52335906367E+02  0.10584352596E+03  0.89544899798E+02 0.  0.
          5    1    3    3  502    0  0.24557112307E+01  0.57782418880E+02 -0.40195747801E+01  0.58124588865E+02  0.41800000000E+01 0.  1.
         -5    1    3    3    0  502  0.18567405056E+02 -0.55899762656E+02  0.48149115663E+02  0.76192793194E+02  0.41800000000E+01 0.  1.
        -11    1    4    4    0    0  0.30604856233E+01  0.40725758082E+02  0.12421731782E+02  0.42687859680E+02  0.00000000000E+00 0.  1.
         11    1    4    4    0    0 -0.24083601910E+02 -0.42608414306E+02  0.39914174585E+02  0.63155666281E+02  0.00000000000E+00 0. -1.
</event>
<event>
 8    1  0.6787197E-009  0.1260742E+03  0.7561462E-02  0.1233400E+00
          2   -1    0    0  501    0  0.00000000000E+00  0.00000000000E+00  0.11511609921E+03  0.11511609921E+03  0.00000000000E+00 0. -1.
         -2   -1    0    0    0  501 -0.00000000000E+00 -0.00000000000E+00 -0.19730634439E+03  0.19730634439E+03  0.00000000000E+00 0.  1.
         25    2    1    2    0    0 -0.95139847079E+02 -0.31114956475E+02 -0.15785977089E+02  0.16098652690E+03  0.12509090196E+03 0.  0.
         23    2    1    2    0    0  0.95139847079E+02  0.31114956475E+02 -0.66404268095E+02  0.15143591671E+03  0.92214852537E+02 0.  0.
          5    1    3    3  502    0 -0.62537775931E+02 -0.72457916270E+02  0.19097526624E+02  0.97689871388E+02  0.41800000000E+01 0. -1.
         -5    1    3    3    0  502 -0.32602071148E+02  0.41342959795E+02 -0.34883503713E+02  0.63296655512E+02  0.41800000000E+01 0. -1.
        -11    1    4    4    0    0  0.89762548117E+02  0.21176456074E+02 -0.87738317070E+02  0.12729402821E+03  0.00000000000E+00 0.  1.
         11    1    4    4    0    0  0.53772989624E+01  0.99385004013E+01  0.21334048975E+02  0.24141888493E+02  0.00000000000E+00 0. -1.
</event>
<event>
 8    1  0.6787197E-009  0.1501334E+03  0.7561462E-02  0.1200309E+00
          1   -1    0    0  501    0  0.00000000000E+00  0.00000000000E+00  0.99364059513E+02  0.99364059513E+02  0.00000000000E+00 0.  1.
         -1   -1    0    0    0  501 -0.00000000000E+00 -0.00000000000E+00 -0.33167178297E+03  0.33167178297E+03  0.00000000000E+00 0. -1.
         25    2    1    2    0    0  0.18272884688E+02  0.12197509010E+03 -0.21491414412E+03  0.27757422765E+03  0.12509013387E+03 0.  0.
         23    2    1    2    0    0 -0.18272884688E+02 -0.12197509010E+03 -0.17393579336E+02  0.15346161484E+03  0.89644351231E+02 0.  0.
          5    1    3    3  502    0 -0.31710036954E+02 -0.88570851999E+01 -0.60928521324E+02  0.69381060187E+02  0.41800000000E+01 0.  1.
         -5    1    3    3    0  502  0.49982921642E+02  0.13083217530E+03 -0.15398562280E+03  0.20819316746E+03  0.41800000000E+01 0.  1.
        -11    1    4    4    0    0 -0.26307511176E+02 -0.79693031624E+02  0.30294955276E+02  0.89223588522E+02  0.00000000000E+00 0.  1.
         11    1    4    4    0    0  0.80346264887E+01 -0.42282058473E+02 -0.47688534612E+02  0.64238026316E+02  0.00000000000E+00 0. -1.
</event>
<event>
 8    1  0.6787197E-009  0.9723320E+02  0.7561462E-02  0.1286224E+00
         -2   -1    0    0    0  501 -0.00000000000E+00  0.00000000000E+00  0.16823743401E+03  0.16823743401E+03  0.00000000000E+00 0.  1.
          2   -1    0    0  501    0  0.00000000000E+00 -0.00000000000E+00 -0.84423294593E+02  0.84423294593E+02  0.00000000000E+00 0. -1.
         25    2    1    2    0    0  0.32030574691E+01  0.48261880071E+02  0.58112543047E+02  0.14616501884E+03  0.12509067282E+03 0.  0.
         23    2    1    2    0    0 -0.32030574691E+01 -0.48261880071E+02  0.25701596375E+02  0.10649570977E+03  0.91330693080E+02 0.  0.
          5    1    3    3  502    0  0.26959842075E+02 -0.21105348840E+02 -0.19244774913E+02  0.39498134080E+02  0.41800000000E+01 0.  1.
         -5    1    3    3    0  502 -0.23756784606E+02  0.69367228911E+02  0.77357317960E+02  0.10666688476E+03  0.41800000000E+01 0.  1.
        -11    1    4    4    0    0  0.99985279538E+00  0.19056500087E+02 -0.17913392208E+02  0.26173259667E+02  0.00000000000E+00 0.  1.
         11    1    4    4    0    0 -0.42029102644E+01 -0.67318380158E+02  0.43614988583E+02  0.80322450105E+02  0.00000000000E+00 0. -1.
</event>
<event>
 8    1  0.6787197E-009  0.1070071E+03  0.7561462E-02  0.1266215E+00
          1   -1    0    0  501    0  0.00000000000E+00  0.00000000000E+00  0.51231435714E+02  0.51231435714E+02  0.00000000000E+00 0. -1.
         -1   -1    0    0    0  501 -0.00000000000E+00 -0.00000000000E+00 -0.36793186667E+03  0.36793186667E+03  0.00000000000E+00 0.  1.
         25    2    1    2    0    0 -0.57811339636E+02  0.23186636620E+02 -0.24895635022E+03  0.28549390557E+03  0.12509090572E+03 0.  0.
         23    2    1    2    0    0  0.57811339636E+02 -0.23186636620E+02 -0.67744080729E+02  0.13366939681E+03  0.96945737714E+02 0.  0.
          5    1    3    3  502    0  0.14173458166E+02  0.46231567919E+02 -0.16707448041E+03  0.17398160591E+03  0.41800000000E+01 0.  1.
         -5    1    3    3    0  502 -0.71984797801E+02 -0.23044931298E+02 -0.81881869809E+02  0.11151229966E+03  0.41800000000E+01 0.  1.
        -11    1    4    4    0    0  0.63643012515E+02 -0.37816104618E+02 -0.83362581056E+02  0.11148906104E+03  0.00000000000E+00 0.  1.
         11    1    4    4    0    0 -0.58316728799E+01  0.14629467997E+02  0.15618500327E+02  0.22180335771E+02  0.00000000000E+00 0. -1.
</event>
<event>
 8    1  0.6787197E-009  0.1277670E+03  0.7561462E-02  0.1230807E+00
          3   -1    0    0  501    0  0.00000000000E+00  0.00000000000E+00  0.23816157339E+03  0.23816157339E+03  0.00000000000E+00 0. -1.
         -3   -1    0    0    0  501 -0.00000000000E+00 -0.00000000000E+00 -0.12180320562E+03  0.12180320562E+03  0.00000000000E+00 0.  1.
         25    2    1    2    0    0  0.30784999140E+02 -0.64389355550E+02  0.17541153202E+03  0.22695903752E+03  0.12508994310E+03 0.  0.
         23    2    1    2    0    0 -0.30784999140E+02  0.64389355550E+02 -0.59053164252E+02  0.13300574150E+03  0.95443940524E+02 0.  0.
          5    1    3    3  502    0 -0.91142603534E+01 -0.92986981316E+02  0.10037559079E+03  0.13719467943E+03  0.41800000000E+01 0. -1.
         -5    1    3    3    0  502  0.39899259493E+02  0.28597625767E+02  0.75035941232E+02  0.89764358095E+02  0.41800000000E+01 0. -1.
        -11    1    4    4    0    0 -0.60766026142E+02  0.32269552830E+02 -0.56439405195E+02  0.88990114236E+02  0.00000000000E+00 0.  1.
         11    1    4    4    0    0  0.29981027002E+02  0.32119802719E+02 -0.26137590577E+01  0.44015627261E+02  0.00000000000E+00 0. -1.
</event>
<event>
 8    1  0.6787197E-009  0.1238532E+03  0.7561462E-02  0.1236873E+00
          1   -1    0    0  501    0  0.00000000000E+00  0.00000000000E+00  0.98634355794E+02  0.98634355794E+02  0.00000000000E+00 0. -1.
         -1   -1    0    0    0  501 -0.00000000000E+00 -0.00000000000E+00 -0.18700412160E+03  0.18700412160E+03  0.00000000000E+00 0.  1.
         25    2    1    2    0    0 -0.56317630633E+02 -0.39409157260E+02 -0.82826695350E+01  0.14296948193E+03  0.12508762110E+03 0.  0.
         23    2    1    2    0    0  0.56317630633E+02  0.39409157260E+02 -0.80087096271E+02  0.14266899546E+03  0.95998656661E+02 0.  0.
          5    1    3    3  502    0 -0.10422226809E+02  0.38068830565E+02 -0.30580143655E+02  0.50104653060E+02  0.41800000000E+01 0.  1.
         -5    1    3    3    0  502 -0.45895403824E+02 -0.77477987825E+02  0.22297474120E+02  0.92864828874E+02  0.41800000000E+01 0.  1.
        -11    1    4    4    0    0 -0.55199549993E+01 -0.26747153566E+02 -0.15106253805E+02  0.31210239203E+02  0.00000000000E+00 0. -1.
         11    1    4    4    0    0  0.61837585632E+02  0.66156310827E+02 -0.64980842466E+02  0.11145875626E+03  0.00000000000E+00 0.  1.
</event>
<event>
 8    1  0.6787197E-009  0.1335523E+03  0.7561462E-02  0.1222278E+00
          1   -1    0    0  501    0  0.00000000000E+00  0.00000000000E+00  0.77222223517E+03  0.77222223517E+03  0.00000000000E+00 0. -1.
         -1   -1    0    0    0  501 -0.00000000000E+00 -0.00000000000E+00 -0.29002132953E+02  0.29002132953E+02  0.00000000000E+00 0.  1.
         25    2    1    2    0    0  0.76988341590E+02  0.55621128594E+02  0.50088909990E+03  0.52493635936E+03  0.12508947317E+03 0.  0.
         23    2    1    2    0    0 -0.76988341590E+02 -0.55621128594E+02  0.24233100232E+03  0.27628800876E+03  0.92681359575E+02 0.  0.
          5    1    3    3  502    0 -0.44065316810E+01  0.68129970337E+02  0.30166785435E+03  0.30932519640E+03  0.41800000000E+01 0. -1.
         -5    1    3    3    0  502  0.81394873271E+02 -0.12508841743E+02  0.19922124555E+03  0.21561116296E+03  0.41800000000E+01 0. -1.
        -11    1    4    4    0    0  0.81122732237E+01 -0.24213918510E+02  0.10995480509E+02  0.27803298690E+02  0.00000000000E+00 0.  1.
         11    1    4    4    0    0 -0.85100614814E+02 -0.31407210084E+02  0.23133552181E+03  0.24848471007E+03  0.00000000000E+00 0. -1.
</event>
<event>
 8    1  0.6787197E-009  0.1245724E+03  0.7561462E-02  0.1235739E+00
         -2   -1    0    0    0  501 -0.00000000000E+00  0.00000000000E+00  0.81027554369E+02  0.81027554369E+02  0.00000000000E+00 0.  1.
          2   -1    0    0  501    0  0.00000000000E+00 -0.00000000000E+00 -0.23927649833E+03  0.23927649833E+03  0.00000000000E+00 0. -1.
         25    2    1    2    0    0  0.37260742001E+02 -0.78724066956E+02 -0.97348857833E+02  0.18086082426E+03  0.12509195026E+03 0.  0.
         23    2    1    2    0    0 -0.37260742001E+02  0.78724066956E+02 -0.60900086123E+02  0.13944322843E+03  0.90275976056E+02 0.  0.
          5    1    3    3  502    0  0.12196742907E+02 -0.98085472913E+02 -0.10868107595E+03  0.14696451682E+03  0.41800000000E+01 0.  1.
         -5    1    3    3    0  502  0.25063999094E+02  0.19361405958E+02  0.11332218113E+02  0.33896307448E+02  0.41800000000E+01 0.  1.
        -11    1    4    4    0    0 -0.36074349182E+02 -0.33109871751E+01  0.16676779547E+01  0.36264341366E+02  0.00000000000E+00 0.  1.
         11    1    4    4    0    0 -0.11863928193E+01  0.82035054131E+02 -0.62567764078E+02  0.10317888706E+03  0.00000000000E+00 0. -1.
</event>
<event>
 8    1  0.6787197E-009  0.1047949E+03  0.7561462E-02  0.1270524E+00
         -1   -1    0    0    0  501 -0.00000000000E+00  0.00000000000E+00  0.67561513668E+02  0.67561513668E+02  0.00000000000E+00 0.  1.
          1   -1    0    0  501    0  0.00000000000E+00 -0.00000000000E+00 -0.28710437752E+03  0.28710437752E+03  0.00000000000E+00 0. -1.
         25    2    1    2    0    0 -0.21642678108E+02  0.67850266114E+02 -0.60171948296E+02  0.15601340525E+03  0.12508978827E+03 0.  0.
         23    2    1    2    0    0  0.21642678108E+02 -0.67850266114E+02 -0.15937091556E+03  0.19865248594E+03  0.94824349809E+02 0.  0.
          5    1    3    3  502    0  0.30527867625E+02 -0.63122417309E+01  0.17984491988E+02  0.36231332427E+02  0.41800000000E+01 0. -1.
         -5    1    3    3    0  502 -0.52170545733E+02  0.74162507845E+02 -0.78156440283E+02  0.11978207282E+03  0.41800000000E+01 0. -1.
        -11    1    4    4    0    0  0.38101849965E+02 -0.52429981834E+02 -0.16336081723E+03  0.17574814528E+03  0.00000000000E+00 0. -1.
         11    1    4    4    0    0 -0.16459171856E+02 -0.15420284280E+02  0.39899016699E+01  0.22904340654E+02  0.00000000000E+00 0.  1.
</event>
<event>
 8    1  0.6787197E-009  0.1168063E+03  0.7561462E-02  0.1248461E+00
         -2   -1    0    0    0  501 -0.00000000000E+00  0.00000000000E+00  0.67462931484E+02  0.67462931484E+02  0.00000000000E+00 0.  1.
          2   -1    0    0  501    0  0.00000000000E+00 -0.00000000000E+00 -0.28458640408E+03  0.28458640408E+03  0.00000000000E+00 0. -1.
         25    2    1    2    0    0  0.44073689335E+02  0.71646582975E+02 -0.14174687848E+03  0.20692302658E+03  0.12509691613E+03 0.  0.
         23    2    1    2    0    0 -0.44073689335E+02 -0.71646582975E+02 -0.75376594114E+02  0.14512630898E+03  0.91127886374E+02 0.  0.
          5    1    3    3  502    0  0.76021922853E+02  0.76954218347E+02 -0.72285962134E+02  0.13016918682E+03  0.41800000000E+01 0.  1.
         -5    1    3    3    0  502 -0.31948233518E+02 -0.53076353713E+01 -0.69460916344E+02  0.76753839757E+02  0.41800000000E+01 0.  1.
        -11    1    4    4    0    0  0.69960792670E+01 -0.14265372120E+02  0.18134032977E+02  0.24109938176E+02  0.00000000000E+00 0.  1.
         11    1    4    4    0    0 -0.51069768602E+02 -0.57381210856E+02 -0.93510627091E+02  0.12101637081E+03  0.00000000000E+00 0. -1.
</event>
<event>
 8    1  0.6787197E-009  0.1465443E+03  0.7561462E-02  0.1204785E+00
         -2   -1    0    0    0  501 -0.00000000000E+00  0.00000000000E+00  0.78566472181E+02  0.78566472181E+02  0.00000000000E+00 0.  1.
          2   -1    0    0  501    0  0.00000000000E+00 -0.00000000000E+00 -0.37303547274E+03  0.37303547274E+03  0.00000000000E+00 0. -1.
         25    2    1    2    0    0  0.84122204359E+02  0.97528395620E+02 -0.20722168629E+03  0.27418401029E+03  0.12509081107E+03 0.  0.
         23    2    1    2    0    0 -0.84122204359E+02 -0.97528395620E+02 -0.87247314277E+02  0.17741793463E+03  0.85303554809E+02 0.  0.
          5    1    3    3  502    0  0.79764407635E+02  0.18967116311E+02 -0.16615878627E+03  0.18533301617E+03  0.41800000000E+01 0. -1.
         -5    1    3    3    0  502  0.43577967232E+01  0.78561279308E+02 -0.41062900013E+02  0.88850994121E+02  0.41800000000E+01 0. -1.
        -11    1    4    4    0    0 -0.19005632910E+02 -0.43920528506E+02  0.97906680750E+01  0.48847559693E+02  0.00000000000E+00 0.  1.
         11    1    4    4    0    0 -0.65116571449E+02 -0.53607867114E+02 -0.97037982352E+02  0.12857037494E+03  0.00000000000E+00 0. -1.
</event>
<event>
 8    1  0.6787197E-009  0.2486375E+03  0.7561462E-02  0.1114169E+00
          1   -1    0    0  501    0  0.00000000000E+00  0.00000000000E+00  0.60625954770E+02  0.60625954770E+02  0.00000000000E+00 0. -1.
         -1   -1    0    0    0  501 -0.00000000000E+00 -0.00000000000E+00 -0.12394943736E+04  0.12394943736E+04  0.00000000000E+00 0.  1.
         25    2    1    2    0    0 -0.18134798559E+03  0.15745136011E+03 -0.42839047202E+03  0.50679789387E+03  0.12509071119E+03 0.  0.
         23    2    1    2    0    0  0.18134798559E+03 -0.15745136011E+03 -0.75047794676E+03  0.79332243446E+03  0.92007139751E+02 0.  0.
          5    1    3    3  502    0 -0.10525865424E+03  0.98666565722E+02 -0.13352688508E+03  0.19662496516E+03  0.41800000000E+01 0.  1.
         -5    1    3    3    0  502 -0.76089331350E+02  0.58784794384E+02 -0.29486358695E+03  0.31017292871E+03  0.41800000000E+01 0.  1.
        -11    1    4    4    0    0  0.98752575981E+02 -0.27135312048E+02 -0.27586618424E+03  0.29426271940E+03  0.00000000000E+00 0.  1.
         11    1    4    4    0    0  0.82595409613E+02 -0.13031604806E+03 -0.47461176252E+03  0.49905971506E+03  0.00000000000E+00 0. -1.
</event>
<event>
 8    1  0.6787197E-009  0.1249504E+03  0.7561462E-02  0.1235147E+00
         -2   -1    0    0    0  501 -0.00000000000E+00  0.00000000000E+00  0.18227038223E+03  0.18227038223E+03  0.00000000000E+00 0.  1.
          2   -1    0    0  501    0  0.00000000000E+00 -0.00000000000E+00 -0.12103073608E+03  0.12103073608E+03  0.00000000000E+00 0. -1.
         25    2    1    2    0    0  0.39751548441E+02  0.84862618313E+02  0.70145525405E+02  0.17131659612E+03  0.12508849580E+03 0.  0.
         23    2    1    2    0    0 -0.39751548441E+02 -0.84862618313E+02 -0.89058792572E+01  0.13198452220E+03  0.92513511574E+02 0.  0.
          5    1    3    3  502    0  0.75625586885E+02  0.66250628492E+02  0.13386268048E+02  0.10151374163E+03  0.41800000000E+01 0. -1.
         -5    1    3    3    0  502 -0.35874038445E+02  0.18611989821E+02  0.56759257357E+02  0.69802854491E+02  0.41800000000E+01 0. -1.
        -11    1    4    4    0    0 -0.22224168847E+02 -0.88064727882E+02  0.24545445684E+02  0.94083945929E+02  0.00000000000E+00 0.  1.
         11    1    4    4    0    0 -0.17527379593E+02  0.32021095688E+01 -0.33451324941E+02  0.37900576267E+02  0.00000000000E+00 0. -1.
</event>
<event>
 8    1  0.6787197E-009  0.1278494E+03  0.7561462E-02  0.1230682E+00
          2   -1    0    0  501    0  0.00000000000E+00  0.00000000000E+00  0.16256291650E+04  0.16256291650E+04  0.00000000000E+00 0. -1.
         -2   -1    0    0    0  501 -0.00000000000E+00 -0.00000000000E+00 -0.12705718386E+02  0.12705718386E+02  0.00000000000E+00 0.  1.
         25    2    1    2    0    0 -0.74069987589E+02  0.56382201643E+02  0.10721070262E+04  0.10833868803E+04  0.12509332928E+03 0.  0.
         23    2    1    2    0    0  0.74069987589E+02 -0.56382201643E+02  0.54081642046E+03  0.55494800314E+03  0.82580686783E+02 0.  0.
          5    1    3    3  502    0 -0.40296904009E+02  0.80429014135E+02  0.95213422351E+03  0.95638366713E+03  0.41800000000E+01 0. -1.
         -5    1    3    3    0  502 -0.33773083580E+02 -0.24046812492E+02  0.11997280269E+03  0.12700321315E+03  0.41800000000E+01 0. -1.
        -11    1    4    4    0    0  0.10218794388E+01 -0.50693376621E+02  0.24513161375E+03  0.25032053597E+03  0.00000000000E+00 0.  1.
         11    1    4    4    0    0  0.73048108150E+02 -0.56888250226E+01  0.29568480671E+03  0.30462746717E+03  0.00000000000E+00 0. -1.
</event>
<event>
 8    1  0.6787197E-009  0.2505952E+03  0.7561462E-02  0.1112929E+00
         -1   -1    0    0    0  501 -0.00000000000E+00  0.00000000000E+00  0.97244891545E+03  0.97244891545E+03  0.00000000000E+00 0.  1.
          1   -1    0    0  501    0  0.00000000000E+00 -0.00000000000E+00 -0.67380005838E+02  0.67380005838E+02  0.00000000000E+00 0. -1.
         25    2    1    2    0    0  0.11360729526E+03  0.19636683825E+03  0.37010414741E+03  0.45176489688E+03  0.12509152415E+03 0.  0.
         23    2    1    2    0    0 -0.11360729526E+03 -0.19636683825E+03  0.53496476220E+03  0.58806402441E+03  0.90362864665E+02 0.  0.
          5    1    3    3  502    0  0.97758655757E+01  0.13827764115E+03  0.22179331542E+03  0.26158367830E+03  0.41800000000E+01 0. -1.
         -5    1    3    3    0  502  0.10383142969E+03  0.58089197101E+02  0.14831083200E+03  0.19018121857E+03  0.41800000000E+01 0. -1.
        -11    1    4    4    0    0 -0.99362811891E+02 -0.20427753716E+03  0.50930404181E+03  0.55766736284E+03  0.00000000000E+00 0.  1.
         11    1    4    4    0    0 -0.14244483374E+02  0.79106989059E+01  0.25660720388E+02  0.30396661570E+02  0.00000000000E+00 0. -1.
</event>
<event>
 8    1  0.6787197E-009  0.1071643E+03  0.7561462E-02  0.1265913E+00
         -2   -1    0    0    0  501 -0.00000000000E+00  0.00000000000E+00  0.29120251017E+02  0.29120251017E+02  0.00000000000E+00 0.  1.
          2   -1    0    0  501    0  0.00000000000E+00 -0.00000000000E+00 -0.56805381030E+03  0.56805381030E+03  0.00000000000E+00 0. -1.
         25    2    1    2    0    0 -0.45540385762E+02 -0.29147248354E+02 -0.19440101589E+03  0.23740924754E+03  0.12509159451E+03 0.  0.
         23    2    1    2    0    0  0.45540385762E+02  0.29147248354E+02 -0.34453254339E+03  0.35976481377E+03  0.88343414884E+02 0.  0.
          5    1    3    3  502    0 -0.82168602676E+02 -0.41823002290E+02 -0.10451566276E+03  0.13943399495E+03  0.41800000000E+01 0.  1.
         -5    1    3    3    0  502  0.36628216913E+02  0.12675753936E+02 -0.89885353131E+02  0.97975252587E+02  0.41800000000E+01 0.  1.
        -11    1    4    4    0    0  0.39953491470E+02  0.48539941598E+02 -0.32713038963E+03  0.33311664508E+03  0.00000000000E+00 0. -1.
         11    1    4    4    0    0  0.55868942920E+01 -0.19392693244E+02 -0.17402153754E+02  0.26648168687E+02  0.00000000000E+00 0.  1.
</event>
<event>
 8    1  0.6787197E-009  0.1103239E+03  0.7561462E-02  0.1259971E+00
          1   -1    0    0  501    0  0.00000000000E+00  0.00000000000E+00  0.92406168153E+02  0.92406168153E+02  0.00000000000E+00 0. -1.
         -1   -1    0    0    0  501 -0.00000000000E+00 -0.00000000000E+00 -0.19711119781E+03  0.19711119781E+03  0.00000000000E+00 0.  1.
         25    2    1    2    0    0 -0.12922971960E+02 -0.73826523392E+02 -0.75344074093E+02  0.16414150750E+03  0.12509335004E+03 0.  0.
         23    2    1    2    0    0  0.12922971960E+02  0.73826523392E+02 -0.29360955559E+02  0.12537585845E+03  0.96123261552E+02 0.  0.
          5    1    3    3  502    0  0.56034247048E+02 -0.35278884976E+02 -0.40204482919E+02  0.77577763658E+02  0.41800000000E+01 0.  1.
         -5    1    3    3    0  502 -0.68957219008E+02 -0.38547638416E+02 -0.35139591174E+02  0.86563743846E+02  0.41800000000E+01 0.  1.
        -11    1    4    4    0    0  0.74703501495E+01  0.25938938952E+02 -0.61692184690E+02  0.67339144167E+02  0.00000000000E+00 0.  1.
         11    1    4    4    0    0  0.54526218107E+01  0.47887584440E+02  0.32331229131E+02  0.58036714287E+02  0.00000000000E+00 0. -1.
</event>
<event>
 8    1  0.6787197E-009  0.7622243E+02  0.7561462E-02  0.1340127E+00
         -2   -1    0    0    0  501 -0.00000000000E+00  0.00000000000E+00  0.10715442381E+03  0.10715442381E+03  0.00000000000E+00 0.  1.
          2   -1    0    0  501    0  0.00000000000E+00 -0.00000000000E+00 -0.15467805533E+03  0.15467805533E+03  0.00000000000E+00 0. -1.
         25    2    1    2    0    0  0.16816570417E+02  0.51533062209E+02  0.15519359395E+02  0.13720978529E+03  0.12508885291E+03 0.  0.
         23    2    1    2    0    0 -0.16816570417E+02 -0.51533062209E+02 -0.63042990914E+02  0.12462269385E+03  0.92832879835E+02 0.  0.
          5    1    3    3  502    0 -0.13576197010E+02  0.17638258067E+02  0.65600656208E+02  0.69399854235E+02  0.41800000000E+01 0. -1.
         -5    1    3    3    0  502  0.30392767427E+02  0.33894804142E+02 -0.50081296813E+02  0.67809931059E+02  0.41800000000E+01 0. -1.
        -11    1    4    4    0    0 -0.35455625345E+02 -0.54688688548E+02 -0.70880380398E+01  0.65560615517E+02  0.00000000000E+00 0.  1.
         11    1    4    4    0    0  0.18639054928E+02  0.31556263388E+01 -0.55954952875E+02  0.59062078336E+02  0.00000000000E+00 0. -1.
</event>
<event>
 8    1  0.6787197E-009  0.1070536E+03  0.7561462E-02  0.1266125E+00
          1   -1    0    0  501    0  0.00000000000E+00  0.00000000000E+00  0.31006004123E+03  0.31006004123E+03  0.00000000000E+00 0. -1.
         -1   -1    0    0    0  501 -0.00000000000E+00 -0.00000000000E+00 -0.44482757683E+02  0.44482757683E+02  0.00000000000E+00 0.  1.
         25    2    1    2    0    0  0.42658509681E+02  0.48543946100E+01  0.16625976416E+03  0.21244269762E+03  0.12508507904E+03 0.  0.
         23    2    1    2    0    0 -0.42658509681E+02 -0.48543946100E+01  0.99317519379E+02  0.14210010129E+03  0.92114903976E+02 0.  0.
          5    1    3    3  502    0 -0.21678329185E+02 -0.39070138587E+02  0.25778887291E+02  0.51753735280E+02  0.41800000000E+01 0. -1.
         -5    1    3    3    0  502  0.64336838866E+02  0.43924533197E+02  0.14048087687E+03  0.16068896234E+03  0.41800000000E+01 0. -1.
        -11    1    4    4    0    0  0.15449135346E+02 -0.25277921108E+02  0.59025971700E+01  0.30207444974E+02  0.00000000000E+00 0.  1.
         11    1    4    4    0    0 -0.58107645028E+02  0.20423526498E+02  0.93414922209E+02  0.11189265631E+03  0.00000000000E+00 0. -1.
</event>
<event>
 8    1  0.6787197E-009  0.1885838E+03  0.7561462E-02  0.1159745E+00
          2   -1    0    0  501    0  0.00000000000E+00  0.00000000000E+00  0.40620955949E+03  0.40620955949E+03  0.00000000000E+00 0. -1.
         -2   -1    0    0    0  501 -0.00000000000E+00 -0.00000000000E+00 -0.13255508961E+03  0.13255508961E+03  0.00000000000E+00 0.  1.
         25    2    1    2    0    0 -0.78853804919E+02  0.14389666680E+03 -0.54112771590E+00  0.20632927330E+03  0.12508917994E+03 0.  0.
         23    2    1    2    0    0  0.78853804919E+02 -0.14389666680E+03  0.27419559760E+03  0.33243537580E+03  0.91683586741E+02 0.  0.
          5    1    3    3  502    0  0.24872968570E+02  0.77490160610E+02 -0.12787169827E+02  0.82488627513E+02  0.41800000000E+01 0. -1.
         -5    1    3    3    0  502 -0.10372677349E+03  0.66406506189E+02  0.12246042111E+02  0.12384064579E+03  0.41800000000E+01 0. -1.
        -11    1    4    4    0    0  0.56466415899E+02 -0.48443564557E+02  0.55663172817E+02  0.92917295912E+02  0.00000000000E+00 0.  1.
         11    1    4    4    0    0  0.22387389020E+02 -0.95453102242E+02  0.21853242478E+03  0.23951807989E+03  0.00000000000E+00 0. -1.
</event>
<event>
 8    1  0.6787197E-009  0.9923207E+02  0.7561462E-02  0.1281919E+00
         -1   -1    0    0    0  501 -0.00000000000E+00  0.00000000000E+00  0.22435133673E+02  0.22435133673E+02  0.00000000000E+00 0.  1.
          1   -1    0    0  501    0  0.00000000000E+00 -0.00000000000E+00 -0.58854101526E+03  0.58854101526E+03  0.00000000000E+00 0. -1.
         25    2    1    2    0    0  0.10470565052E+02  0.27791950576E+02 -0.42001112231E+03  0.43924735729E+03  0.12508746051E+03 0.  0.
         23    2    1    2    0    0 -0.10470565052E+02 -0.27791950576E+02 -0.14609475928E+03  0.17172879164E+03  0.85235403090E+02 0.  0.
          5    1    3    3  502    0 -0.51812944192E+02 -0.11013444148E+02 -0.13982746675E+03  0.14958298699E+03  0.41800000000E+01 0.  1.
         -5    1    3    3    0  502  0.62283509245E+02  0.38805394724E+02 -0.28018365556E+03  0.28966437031E+03  0.41800000000E+01 0.  1.
        -11    1    4    4    0    0  0.59963790980E+01 -0.46510812224E+02 -0.36755947815E+02  0.59583654771E+02  0.00000000000E+00 0.  1.
         11    1    4    4    0    0 -0.16466944150E+02  0.18718861648E+02 -0.10933881146E+03  0.11214513687E+03  0.00000000000E+00 0. -1.
</event>
<event>
 8    1  0.6787197E-009  0.1343180E+03  0.7561462E-02  0.1221186E+00
         -2   -1    0    0    0  501 -0.00000000000E+00  0.00000000000E+00  0.84481568154E+02  0.84481568154E+02  0.00000000000E+00 0.  1.
          2   -1    0    0  501    0  0.00000000000E+00 -0.00000000000E+00 -0.28581217974E+03  0.28581217974E+03  0.00000000000E+00 0. -1.
         25    2    1    2    0    0  0.58980476495E+02  0.80068046631E+02 -0.51364151778E+02  0.16785498447E+03  0.12508969192E+03 0.  0.
         23    2    1    2    0    0 -0.58980476495E+02 -0.80068046631E+02 -0.14996645980E+03  0.20243876342E+03  0.92746564203E+02 0.  0.
          5    1    3    3  502    0  0.32187877674E+02 -0.13817725559E+02  0.25497250842E+02  0.43526672389E+02  0.41800000000E+01 0.  1.
         -5    1    3    3    0  502  0.26792598820E+02  0.93885772189E+02 -0.76861402620E+02  0.12432831208E+03  0.41800000000E+01 0.  1.
        -11    1    4    4    0    0 -0.15813570047E+01 -0.78189913229E+02 -0.93559583342E+02  0.12194080062E+03  0.00000000000E+00 0. -1.
         11    1    4    4    0    0 -0.57399119490E+02 -0.18781334017E+01 -0.56406876462E+02  0.80497962803E+02  0.00000000000E+00 0.  1.
</event>
<event>
 8    1  0.6787197E-009  0.1577657E+03  0.7561462E-02  0.1191243E+00
          2   -1    0    0  501    0  0.00000000000E+00  0.00000000000E+00  0.14555313392E+04  0.14555313392E+04  0.00000000000E+00 0. -1.
         -2   -1    0    0    0  501 -0.00000000000E+00 -0.00000000000E+00 -0.23218251457E+02  0.23218251457E+02  0.00000000000E+00 0.  1.
         25    2    1    2    0    0 -0.19574879863E+02  0.14643745833E+03  0.80459673110E+03  0.82755656989E+03  0.12508745559E+03 0.  0.
         23    2    1    2    0    0  0.19574879863E+02 -0.14643745833E+03  0.62771635660E+03  0.65119302072E+03  0.90539608865E+02 0.  0.
          5    1    3    3  502    0 -0.98923338688E+01  0.28817646681E+02  0.49884024903E+03  0.49978733626E+03  0.41800000000E+01 0. -1.
         -5    1    3    3    0  502 -0.96825459944E+01  0.11761981165E+03  0.30575648207E+03  0.32776923363E+03  0.41800000000E+01 0. -1.
        -11    1    4    4    0    0  0.43801086664E+02 -0.13058253017E+03  0.57262895694E+03  0.58896031675E+03  0.00000000000E+00 0.  1.
         11    1    4    4    0    0 -0.24226206800E+02 -0.15854928153E+02  0.55087399661E+02  0.62232703975E+02  0.00000000000E+00 0. -1.
</event>
<event>
 8    1  0.6787197E-009  0.6180273E+02  0.7561462E-02  0.1390419E+00
         -2   -1    0    0    0  501 -0.00000000000E+00  0.00000000000E+00  0.71561615295E+02  0.71561615295E+02  0.00000000000E+00 0. -1.
          2   -1    0    0  501    0  0.00000000000E+00 -0.00000000000E+00 -0.20777186937E+03  0.20777186937E+03  0.00000000000E+00 0.  1.
         25    2    1    2    0    0 -0.38845240971E+01 -0.28748993405E+02 -0.12936406685E+03  0.18227339923E+03  0.12508771373E+03 0.  0.
         23    2    1    2    0    0  0.38845240971E+01  0.28748993405E+02 -0.68461872246E+01  0.97060085435E+02  0.92369885547E+02 0.  0.
          5    1    3    3  502    0 -0.23535702159E+02 -0.36600500554E+02 -0.14765600071E+03  0.15399121035E+03  0.41800000000E+01 0.  1.
         -5    1    3    3    0  502  0.19651178062E+02  0.78515071491E+01  0.18291933862E+02  0.28282188885E+02  0.41800000000E+01 0.  1.
        -11    1    4    4    0    0 -0.22096754476E+02  0.40356481388E+01 -0.41502934444E+02  0.47191594397E+02  0.00000000000E+00 0.  1.
         11    1    4    4    0    0  0.25981278573E+02  0.24713345266E+02  0.34656747220E+02  0.49868491038E+02  0.00000000000E+00 0. -1.
</event>
<event>
 8    1  0.6787197E-009  0.1101079E+03  0.7561462E-02  0.1260370E+00
         -2   -1    0    0    0  501 -0.00000000000E+00  0.00000000000E+00  0.37114553364E+02  0.37114553364E+02  0.00000000000E+00 0.  1.
          2   -1    0    0  501    0  0.00000000000E+00 -0.00000000000E+00 -0.51343012038E+03  0.51343012038E+03  0.00000000000E+00 0. -1.
         25    2    1    2    0    0 -0.15742139517E+02  0.57846612882E+02 -0.38171160069E+03  0.40613511774E+03  0.12509173507E+03 0.  0.
         23    2    1    2    0    0  0.15742139517E+02 -0.57846612882E+02 -0.94603966325E+02  0.14440955600E+03  0.91160100052E+02 0.  0.
          5    1    3    3  502    0 -0.55135237046E+02  0.25422829696E+02 -0.82180674468E+02  0.10226118663E+03  0.41800000000E+01 0.  1.
         -5    1    3    3    0  502  0.39393097529E+02  0.32423783186E+02 -0.29953092622E+03  0.30387393112E+03  0.41800000000E+01 0.  1.
        -11    1    4    4    0    0 -0.28289268719E+02 -0.57557444326E+02 -0.46644575563E+02  0.79302323746E+02  0.00000000000E+00 0. -1.
         11    1    4    4    0    0  0.44031408236E+02 -0.28916855583E+00 -0.47959390762E+02  0.65107232255E+02  0.00000000000E+00 0.  1.
</event>
<event>
 8    1  0.6787197E-009  0.7985307E+02  0.7561462E-02  0.1329469E+00
         -1   -1    0    0    0  501 -0.00000000000E+00  0.00000000000E+00  0.25240448415E+02  0.25240448415E+02  0.00000000000E+00 0.  1.
          1   -1    0    0  501    0  0.00000000000E+00 -0.00000000000E+00 -0.50064886898E+03  0.50064886898E+03  0.00000000000E+00 0. -1.
         25    2    1    2    0    0 -0.17836467491E+02 -0.20467238966E+02 -0.30603257786E+03  0.33172627677E+03  0.12509730830E+03 0.  0.
         23    2    1    2    0    0  0.17836467491E+02  0.20467238966E+02 -0.16937584270E+03  0.19416304062E+03  0.90961875585E+02 0.  0.
          5    1    3    3  502    0 -0.29433030534E+02  0.15787699428E+02 -0.12812785071E+02  0.36016587857E+02  0.41800000000E+01 0.  1.
         -5    1    3    3    0  502  0.11596563043E+02 -0.36254938393E+02 -0.29321979279E+03  0.29570968891E+03  0.41800000000E+01 0.  1.
        -11    1    4    4    0    0  0.51521127339E+02  0.10035225501E+02 -0.62485105123E+02  0.81605886279E+02  0.00000000000E+00 0.  1.
         11    1    4    4    0    0 -0.33684659848E+02  0.10432013465E+02 -0.10689073758E+03  0.11255715435E+03  0.00000000000E+00 0. -1.
</event>
<event>
 8    1  0.6787197E-009  0.1486701E+03  0.7561462E-02  0.1202117E+00
         -2   -1    0    0    0  501 -0.00000000000E+00  0.00000000000E+00  0.10048837879E+03  0.10048837879E+03  0.00000000000E+00 0.  1.
          2   -1    0    0  501    0  0.00000000000E+00 -0.00000000000E+00 -0.35399990745E+03  0.35399990745E+03  0.00000000000E+00 0. -1.
         25    2    1    2    0    0  0.18342676817E+01  0.12306404175E+03 -0.24556823387E+03  0.30182738345E+03  0.12509152251E+03 0.  0.
         23    2    1    2    0    0 -0.18342676817E+01 -0.12306404175E+03 -0.79432947876E+01  0.15266090279E+03  0.89967396314E+02 0.  0.
          5    1    3    3  502    0 -0.17654905442E+02  0.14252621022E+03 -0.17806281472E+03  0.22879959500E+03  0.41800000000E+01 0. -1.
         -5    1    3    3    0  502  0.19489173124E+02 -0.19462168473E+02 -0.67505419156E+02  0.73027788452E+02  0.41800000000E+01 0. -1.
        -11    1    4    4    0    0 -0.13673357223E+02 -0.79217454945E+02 -0.46687927450E+02  0.92963048763E+02  0.00000000000E+00 0. -1.
         11    1    4    4    0    0  0.11839089541E+02 -0.43846586801E+02  0.38744632662E+02  0.59697854026E+02  0.00000000000E+00 0.  1.
</event>
<event>
 8    1  0.6787197E-009  0.8882199E+02  0.7561462E-02  0.1305730E+00
         -4   -1    0    0    0  501 -0.00000000000E+00  0.00000000000E+00  0.10049956111E+03  0.10049956111E+03  0.00000000000E+00 0.  1.
          4   -1    0    0  501    0  0.00000000000E+00 -0.00000000000E+00 -0.14830615116E+03  0.14830615116E+03  0.00000000000E+00 0. -1.
         25    2    1    2    0    0 -0.52895595422E+02 -0.43129651345E+00 -0.46736152475E+02  0.14363158779E+03  0.12509050736E+03 0.  0.
         23    2    1    2    0    0  0.52895595422E+02  0.43129651345E+00 -0.10704375665E+01  0.10517412448E+03  0.90897307949E+02 0.  0.
          5    1    3    3  502    0  0.33183908773E+02 -0.84585542449E+01  0.14689488105E+02  0.37496298512E+02  0.41800000000E+01 0.  1.
         -5    1    3    3    0  502 -0.86079504195E+02  0.80272577314E+01 -0.61425640580E+02  0.10613528928E+03  0.41800000000E+01 0.  1.
        -11    1    4    4    0    0  0.45255942323E+02 -0.71623917190E+01  0.41159885224E+02  0.61591690368E+02  0.00000000000E+00 0.  1.
         11    1    4    4    0    0  0.76396530990E+01  0.75936882325E+01 -0.42230322790E+02  0.43582434115E+02  0.00000000000E+00 0. -1.
</event>
<event>
 8    1  0.6787197E-009  0.2003657E+03  0.7561462E-02  0.1149431E+00
          3   -1    0    0  501    0  0.00000000000E+00  0.00000000000E+00  0.11839120006E+04  0.11839120006E+04  0.00000000000E+00 0. -1.
         -3   -1    0    0    0  501 -0.00000000000E+00 -0.00000000000E+00 -0.67740918389E+02  0.67740918389E+02  0.00000000000E+00 0.  1.
         25    2    1    2    0    0 -0.17876260401E+03  0.57840426550E+01  0.99252862126E+03  0.10162429186E+04  0.12508829578E+03 0.  0.
         23    2    1    2    0    0  0.17876260401E+03 -0.57840426550E+01  0.12364246093E+03  0.23541000042E+03  0.90226860809E+02 0.  0.
          5    1    3    3  502    0 -0.19597316380E+03  0.59621511435E+01  0.95237861973E+03  0.97235977698E+03  0.41800000000E+01 0. -1.
         -5    1    3    3    0  502  0.17210559791E+02 -0.17810848857E+00  0.40150001536E+02  0.43883141573E+02  0.41800000000E+01 0. -1.
        -11    1    4    4    0    0  0.86290023411E+02  0.24337657031E+02  0.17315845030E+02  0.91313351593E+02  0.00000000000E+00 0.  1.
         11    1    4    4    0    0  0.92472580597E+02 -0.30121699686E+02  0.10632661590E+03  0.14409664883E+03  0.00000000000E+00 0. -1.
</event>
<event>
 8    1  0.6787197E-009  0.1063391E+03  0.7561462E-02  0.1267504E+00
         -1   -1    0    0    0  501 -0.00000000000E+00  0.00000000000E+00  0.14957126896E+03  0.14957126896E+03  0.00000000000E+00 0.  1.
          1   -1    0    0  501    0  0.00000000000E+00 -0.00000000000E+00 -0.81556024049E+02  0.81556024049E+02  0.00000000000E+00 0. -1.
         25    2    1    2    0    0 -0.11332508801E+02  0.10754535228E+02  0.62588820815E+02  0.14074485113E+03  0.12509063452E+03 0.  0.
         23    2    1    2    0    0  0.11332508801E+02 -0.10754535228E+02  0.54264240910E+01  0.90382441872E+02  0.88856366888E+02 0.  0.
          5    1    3    3  502    0 -0.68072258739E+02  0.14230897768E+01  0.37796049701E+02  0.77986353726E+02  0.41800000000E+01 0.  1.
         -5    1    3    3    0  502  0.56739749938E+02  0.93314454509E+01  0.24792771114E+02  0.62758497407E+02  0.41800000000E+01 0.  1.
        -11    1    4    4    0    0  0.48673995062E+02 -0.37677479405E+01 -0.91919606985E+01  0.49677418022E+02  0.00000000000E+00 0.  1.
         11    1    4    4    0    0 -0.37341486261E+02 -0.69867872872E+01  0.14618384789E+02  0.40705023850E+02  0.00000000000E+00 0. -1.
</event>
<event>
 8    1  0.6787197E-009  0.1441634E+03  0.7561462E-02  0.1207834E+00
         -1   -1    0    0    0  501 -0.00000000000E+00  0.00000000000E+00  0.20125203039E+03  0.20125203039E+03  0.00000000000E+00 0.  1.
          1   -1    0    0  501    0  0.00000000000E+00 -0.00000000000E+00 -0.17853900781E+03  0.17853900781E+03  0.00000000000E+00 0. -1.
         25    2    1    2    0    0  0.11792520183E+03  0.12921251833E+02  0.11397213324E+03  0.20665665545E+03  0.12507603332E+03 0.  0.
         23    2    1    2    0    0 -0.11792520183E+03 -0.12921251833E+02 -0.91259110659E+02  0.17313438274E+03  0.87028600094E+02 0.  0.
          5    1    3    3  502    0  0.10431441948E+03  0.39078573849E+02  0.26956146906E+02  0.11468539272E+03  0.41800000000E+01 0.  1.
         -5    1    3    3    0  502  0.13610782343E+02 -0.26157322016E+02  0.87015986333E+02  0.91971262732E+02  0.41800000000E+01 0.  1.
        -11    1    4    4    0    0 -0.11815103938E+03 -0.36370805526E+02 -0.78450312720E+02  0.14641364406E+03  0.00000000000E+00 0.  1.
         11    1    4    4    0    0  0.22583755301E+00  0.23449553694E+02 -0.12808797938E+02  0.26720738681E+02  0.00000000000E+00 0. -1.
</event>
<event>
 8    1  0.6787197E-009  0.1507409E+03  0.7561462E-02  0.1199566E+00
         -1   -1    0    0    0  501 -0.00000000000E+00  0.00000000000E+00  0.77798187201E+02  0.77798187201E+02  0.00000000000E+00 0.  1.
          1   -1    0    0  501    0  0.00000000000E+00 -0.00000000000E+00 -0.36720690073E+03  0.36720690073E+03  0.00000000000E+00 0. -1.
         25    2    1    2    0    0 -0.33969377485E+02 -0.12156809592E+03 -0.17377044834E+03  0.24854824300E+03  0.12508932740E+03 0.  0.
         23    2    1    2    0    0  0.33969377485E+02  0.12156809592E+03 -0.11563826519E+03  0.19645684493E+03  0.96386529101E+02 0.  0.
          5    1    3    3  502    0  0.20185465372E+02 -0.29943310543E+02 -0.12720932520E+03  0.13230169945E+03  0.41800000000E+01 0. -1.
         -5    1    3    3    0  502 -0.54154842857E+02 -0.91624785377E+02 -0.46561123138E+02  0.11624654355E+03  0.41800000000E+01 0. -1.
        -11    1    4    4    0    0 -0.32113728209E+02  0.21324906679E+02 -0.32444037041E+02  0.50385104186E+02  0.00000000000E+00 0. -1.
         11    1    4    4    0    0  0.66083105693E+02  0.10024318924E+03 -0.83194228153E+02  0.14607174075E+03  0.00000000000E+00 0.  1.
</event>
<event>
 8    1  0.6787197E-009  0.7011175E+02  0.7561462E-02  0.1359713E+00
         -2   -1    0    0    0  501 -0.00000000000E+00  0.00000000000E+00  0.34356007293E+02  0.34356007293E+02  0.00000000000E+00 0.  1.
          2   -1    0    0  501    0  0.00000000000E+00 -0.00000000000E+00 -0.11161205088E+04  0.11161205088E+04  0.00000000000E+00 0. -1.
         25    2    1    2    0    0  0.14675522868E+02  0.22564714832E+02 -0.10402524971E+04  0.10480923176E+04  0.12509081170E+03 0.  0.
         23    2    1    2    0    0 -0.14675522868E+02 -0.22564714832E+02 -0.41512004343E+02  0.10238419843E+03  0.89636712656E+02 0.  0.
          5    1    3    3  502    0  0.32704550463E+02 -0.79731449912E+01 -0.95579027123E+03  0.95639200835E+03  0.41800000000E+01 0.  1.
         -5    1    3    3    0  502 -0.18029027595E+02  0.30537859823E+02 -0.84462225914E+02  0.91700309295E+02  0.41800000000E+01 0.  1.
        -11    1    4    4    0    0 -0.40722736678E+02 -0.15822798337E+02  0.95017299498E+01  0.44710011203E+02  0.00000000000E+00 0.  1.
         11    1    4    4    0    0  0.26047213810E+02 -0.67419164945E+01 -0.51013734292E+02  0.57674187222E+02  0.00000000000E+00 0. -1.
</event>
<event>
 8    1  0.6787197E-009  0.1064582E+03  0.7561462E-02  0.1267273E+00
         -1   -1    0    0    0  501 -0.00000000000E+00  0.00000000000E+00  0.29079773597E+02  0.29079773597E+02  0.00000000000E+00 0.  1.
          1   -1    0    0  501    0  0.00000000000E+00 -0.00000000000E+00 -0.59559515542E+03  0.59559515542E+03  0.00000000000E+00 0. -1.
         25    2    1    2    0    0  0.79745552251E+01  0.22631074682E+02 -0.48279214689E+03  0.49931117375E+03  0.12509049546E+03 0.  0.
         23    2    1    2    0    0 -0.79745552251E+01 -0.22631074682E+02 -0.83723234930E+02  0.12536375527E+03  0.90170571675E+02 0.  0.
          5    1    3    3  502    0  0.25616634840E+01  0.72359081048E+02 -0.21636256069E+03  0.22819427862E+03  0.41800000000E+01 0.  1.
         -5    1    3    3    0  502  0.54128917411E+01 -0.49728006366E+02 -0.26642958621E+03  0.27111689512E+03  0.41800000000E+01 0.  1.
        -11    1    4    4    0    0  0.57918725375E+01  0.32683881257E+02 -0.47061205575E+02  0.57589399647E+02  0.00000000000E+00 0. -1.
         11    1    4    4    0    0 -0.13766427763E+02 -0.55314955939E+02 -0.36662029355E+02  0.67774355624E+02  0.00000000000E+00 0.  1.
</event>
<event>
 8    1  0.6787197E-009  0.9523483E+02  0.7561462E-02  0.1290648E+00
         -2   -1    0    0    0  501 -0.00000000000E+00  0.00000000000E+00  0.27768698283E+02  0.27768698283E+02  0.00000000000E+00 0.  1.
          2   -1    0    0  501    0  0.00000000000E+00 -0.00000000000E+00 -0.64914286621E+03  0.64914286621E+03  0.00000000000E+00 0. -1.
         25    2    1    2    0    0 -0.74629805030E+02  0.10970320863E+02 -0.39706158112E+03  0.42307805368E+03  0.12508870680E+03 0.  0.
         23    2    1    2    0    0  0.74629805030E+02 -0.10970320863E+02 -0.22431258681E+03  0.25383351081E+03  0.91789753625E+02 0.  0.
          5    1    3    3  502    0 -0.38053211549E+02  0.39917253265E+02 -0.55613322479E+02  0.78433080103E+02  0.41800000000E+01 0.  1.
         -5    1    3    3    0  502 -0.36576593481E+02 -0.28946932402E+02 -0.34144825864E+03  0.34464497358E+03  0.41800000000E+01 0.  1.
        -11    1    4    4    0    0  0.43880676972E+02 -0.29082534805E+02 -0.40047933421E+02  0.66144875942E+02  0.00000000000E+00 0.  1.
         11    1    4    4    0    0  0.30749128058E+02  0.18112213942E+02 -0.18426465339E+03  0.18768863487E+03  0.00000000000E+00 0. -1.
</event>
<event>
 8    1  0.6787197E-009  0.7997644E+02  0.7561462E-02  0.1329118E+00
         -1   -1    0    0    0  501 -0.00000000000E+00  0.00000000000E+00  0.24029007610E+03  0.24029007610E+03  0.00000000000E+00 0.  1.
          1   -1    0    0  501    0  0.00000000000E+00 -0.00000000000E+00 -0.75359080190E+02  0.75359080190E+02  0.00000000000E+00 0. -1.
         25    2    1    2    0    0  0.81963067564E+01  0.22540752260E+02  0.18140356935E+03  0.22165043025E+03  0.12508554394E+03 0.  0.
         23    2    1    2    0    0 -0.81963067564E+01 -0.22540752260E+02 -0.16472573442E+02  0.93998726035E+02  0.89382044413E+02 0.  0.
          5    1    3    3  502    0 -0.15090737621E+02  0.51430164809E+02  0.22264486095E+02  0.58189105125E+02  0.41800000000E+01 0. -1.
         -5    1    3    3    0  502  0.23287044377E+02 -0.28889412549E+02  0.15913908325E+03  0.16346132513E+03  0.41800000000E+01 0. -1.
        -11    1    4    4    0    0 -0.98479664040E+01  0.22091857408E+02  0.23746400527E+02  0.33895783573E+02  0.00000000000E+00 0.  1.
         11    1    4    4    0    0  0.16516596477E+01 -0.44632609668E+02 -0.40218973970E+02  0.60102942462E+02  0.00000000000E+00 0. -1.
</event>
<event>
 8    1  0.6787197E-009  0.8892913E+02  0.7561462E-02  0.1305466E+00
         -3   -1    0    0    0  501 -0.00000000000E+00  0.00000000000E+00  0.15480063757E+03  0.15480063757E+03  0.00000000000E+00 0.  1.
          3   -1    0    0  501    0  0.00000000000E+00 -0.00000000000E+00 -0.85801745200E+02  0.85801745200E+02  0.00000000000E+00 0. -1.
         25    2    1    2    0    0  0.20072509595E+01  0.11045520691E+02  0.78948035664E+02  0.14834893853E+03  0.12509429501E+03 0.  0.
         23    2    1    2    0    0 -0.20072509595E+01 -0.11045520691E+02 -0.99491432954E+01  0.92253444241E+02  0.91025710315E+02 0.  0.
          5    1    3    3  502    0  0.28375219609E+02  0.40159112211E+02  0.93927767752E+02  0.10610280551E+03  0.41800000000E+01 0.  1.
         -5    1    3    3    0  502 -0.26367968649E+02 -0.29113591520E+02 -0.14979732087E+02  0.42246133022E+02  0.41800000000E+01 0.  1.
        -11    1    4    4    0    0 -0.21040613666E+02 -0.45228311902E+02 -0.16589866421E+02  0.52569299870E+02  0.00000000000E+00 0.  1.
         11    1    4    4    0    0  0.19033362706E+02  0.34182791211E+02  0.66407231258E+01  0.39684144371E+02  0.00000000000E+00 0. -1.
</event>
<event>
 8    1  0.6787197E-009  0.9243522E+02  0.7561462E-02  0.1297059E+00
         -1   -1    0    0    0  501 -0.00000000000E+00  0.00000000000E+00  0.24454736471E+03  0.24454736471E+03  0.00000000000E+00 0.  1.
          1   -1    0    0  501    0  0.00000000000E+00 -0.00000000000E+00 -0.67062048850E+02  0.67062048850E+02  0.00000000000E+00 0. -1.
         25    2    1    2    0    0  0.13781214461E+02  0.70622320063E+02  0.91427976659E+02  0.17082855981E+03  0.12508352397E+03 0.  0.
         23    2    1    2    0    0 -0.13781214461E+02 -0.70622320063E+02  0.86057339198E+02  0.14078085375E+03  0.85064382610E+02 0.  0.
          5    1    3    3  502    0  0.22489442848E+02  0.30773725244E+02  0.11658150886E+03  0.12272537558E+03  0.41800000000E+01 0. -1.
         -5    1    3    3    0  502 -0.87082283873E+01  0.39848594820E+02 -0.25153532197E+02  0.48103184226E+02  0.41800000000E+01 0. -1.
        -11    1    4    4    0    0  0.22072891293E+02  0.42784333466E+01  0.19191422559E+01  0.22565474268E+02  0.00000000000E+00 0. -1.
         11    1    4    4    0    0 -0.35854105754E+02 -0.74900753410E+02  0.84138196942E+02  0.11821537948E+03  0.00000000000E+00 0.  1.
</event>
<event>
 8    1  0.6787197E-009  0.1485307E+03  0.7561462E-02  0.1202290E+00
          1   -1    0    0  501    0  0.00000000000E+00  0.00000000000E+00  0.49083760984E+03  0.49083760984E+03  0.00000000000E+00 0. -1.
         -1   -1    0    0    0  501 -0.00000000000E+00 -0.00000000000E+00 -0.53387941169E+02  0.53387941169E+02  0.00000000000E+00 0.  1.
         25    2    1    2    0    0 -0.57200815791E+02  0.83588916514E+02  0.12637596197E+03  0.20463888883E+03  0.12508857169E+03 0.  0.
         23    2    1    2    0    0  0.57200815791E+02 -0.83588916514E+02  0.31107370670E+03  0.33958666218E+03  0.91067062298E+02 0.  0.
          5    1    3    3  502    0  0.39992244893E+02  0.26504258932E+02  0.37834206424E+02  0.61243407554E+02  0.41800000000E+01 0. -1.
         -5    1    3    3    0  502 -0.97193060684E+02  0.57084657582E+02  0.88541755547E+02  0.14339548128E+03  0.41800000000E+01 0. -1.
        -11    1    4    4    0    0  0.58668180027E+02 -0.65255406936E+01  0.12851727696E+03  0.14142569960E+03  0.00000000000E+00 0.  1.
         11    1    4    4    0    0 -0.14673642358E+01 -0.77063375820E+02  0.18255642974E+03  0.19816096258E+03  0.00000000000E+00 0. -1.
</event>
<event>
 8    1  0.6787197E-009  0.5710887E+02  0.7561462E-02  0.1410381E+00
          2   -1    0    0  501    0  0.00000000000E+00  0.00000000000E+00  0.12891331124E+02  0.12891331124E+02  0.00000000000E+00 0. -1.
         -2   -1    0    0    0  501 -0.00000000000E+00 -0.00000000000E+00 -0.11882317328E+04  0.11882317328E+04  0.00000000000E+00 0.  1.
         25    2    1    2    0    0 -0.16956735442E+02 -0.13890109134E+02 -0.92692061249E+03  0.93558016166E+03  0.12509177044E+03 0.  0.
         23    2    1    2    0    0  0.16956735442E+02  0.13890109134E+02 -0.24841978914E+03  0.26554290221E+03  0.91214994772E+02 0.  0.
          5    1    3    3  502    0 -0.12656106363E+02 -0.18158121451E+02 -0.25082445625E+02  0.33711954577E+02  0.41800000000E+01 0.  1.
         -5    1    3    3    0  502 -0.43006290789E+01  0.42680123164E+01 -0.90183816686E+03  0.90186820709E+03  0.41800000000E+01 0.  1.
        -11    1    4    4    0    0 -0.21335397771E+02 -0.22851879008E+02 -0.41688756516E+02  0.52109116209E+02  0.00000000000E+00 0. -1.
         11    1    4    4    0    0  0.38292133214E+02  0.36741988142E+02 -0.20673103262E+03  0.21343378600E+03  0.00000000000E+00 0.  1.
</event>
<event>
 8    1  0.6787197E-009  0.1268207E+03  0.7561462E-02  0.1232251E+00
          1   -1    0    0  501    0  0.00000000000E+00  0.00000000000E+00  0.45605650488E+03  0.45605650488E+03  0.00000000000E+00 0. -1.
         -1   -1    0    0    0  501 -0.00000000000E+00 -0.00000000000E+00 -0.52402562302E+02  0.52402562302E+02  0.00000000000E+00 0.  1.
         25    2    1    2    0    0 -0.79986661954E+02  0.74288095318E+02  0.22783137843E+03  0.28190577992E+03  0.12508854688E+03 0.  0.
         23    2    1    2    0    0  0.79986661954E+02 -0.74288095318E+02  0.17582256415E+03  0.22655328726E+03  0.92175000446E+02 0.  0.
          5    1    3    3  502    0 -0.37650161814E+01 -0.49657456196E+01 -0.14185358480E+02  0.16047765316E+02  0.41800000000E+01 0.  1.
         -5    1    3    3    0  502 -0.76221645773E+02  0.79253840937E+02  0.24201673691E+03  0.26585801461E+03  0.41800000000E+01 0.  1.
        -11    1    4    4    0    0  0.24223389549E+02  0.16672598192E+02  0.71598720829E+02  0.77402357562E+02  0.00000000000E+00 0. -1.
         11    1    4    4    0    0  0.55763272406E+02 -0.90960693510E+02  0.10422384332E+03  0.14915092970E+03  0.00000000000E+00 0.  1.
</event>
<event>
 8    1  0.6787197E-009  0.1042487E+03  0.7561462E-02  0.1271607E+00
         -2   -1    0    0    0  501 -0.00000000000E+00  0.00000000000E+00  0.18958465763E+03  0.18958465763E+03  0.00000000000E+00 0.  1.
          2   -1    0    0  501    0  0.00000000000E+00 -0.00000000000E+00 -0.93189342933E+02  0.93189342933E+02  0.00000000000E+00 0. -1.
         25    2    1    2    0    0  0.29044939309E+02 -0.61200504876E+02  0.90864219038E+02  0.16879859825E+03  0.12509016817E+03 0.  0.
         23    2    1    2    0    0 -0.29044939309E+02  0.61200504876E+02  0.55310956585E+01  0.11397540232E+03  0.91491469645E+02 0.  0.
          5    1    3    3  502    0  0.13645791803E+02 -0.85857419928E+02  0.10485169544E+03  0.13626831850E+03  0.41800000000E+01 0. -1.
         -5    1    3    3    0  502  0.15399147506E+02  0.24656915052E+02 -0.13987476406E+02  0.32530279740E+02  0.41800000000E+01 0. -1.
        -11    1    4    4    0    0 -0.17823251372E+02 -0.97118757097E+01 -0.28124211319E+02  0.34683714933E+02  0.00000000000E+00 0. -1.
         11    1    4    4    0    0 -0.11221687937E+02  0.70912380586E+02  0.33655306977E+02  0.79291687384E+02  0.00000000000E+00 0.  1.
</event>
<event>
 8    1  0.6787197E-009  0.1288220E+03  0.7561462E-02  0.1229214E+00
          1   -1    0    0  501    0  0.00000000000E+00  0.00000000000E+00  0.24431922419E+02  0.24431922419E+02  0.00000000000E+00 0. -1.
         -1   -1    0    0    0  501 -0.00000000000E+00 -0.00000000000E+00 -0.71423584289E+03  0.71423584289E+03  0.00000000000E+00 0.  1.
         25    2    1    2    0    0 -0.56199736076E+02  0.42264352718E+02 -0.30982070175E+03  0.34144562906E+03  0.12510621298E+03 0.  0.
         23    2    1    2    0    0  0.56199736076E+02 -0.42264352718E+02 -0.37998321872E+03  0.39722213625E+03  0.91942879936E+02 0.  0.
          5    1    3    3  502    0 -0.33684605853E+02 -0.42880029471E+02 -0.10308714991E+03  0.11669525473E+03  0.41800000000E+01 0. -1.
         -5    1    3    3    0  502 -0.22515130223E+02  0.85144382189E+02 -0.20673355184E+03  0.22475037433E+03  0.41800000000E+01 0. -1.
        -11    1    4    4    0    0 -0.20436424054E+02 -0.31282773693E+02 -0.14880949271E+03  0.15342921651E+03  0.00000000000E+00 0.  1.
         11    1    4    4    0    0  0.76636160130E+02 -0.10981579026E+02 -0.23117372601E+03  0.24379291974E+03  0.00000000000E+00 0. -1.
</event>
<event>
 8    1  0.6787197E-009  0.1240282E+03  0.7561462E-02  0.1236596E+00
          2   -1    0    0  501    0  0.00000000000E+00  0.00000000000E+00  0.27506159764E+02  0.27506159764E+02  0.00000000000E+00 0. -1.
         -2   -1    0    0    0  501 -0.00000000000E+00 -0.00000000000E+00 -0.57635558673E+03  0.57635558673E+03  0.00000000000E+00 0.  1.
         25    2    1    2    0    0  0.51508875962E+02 -0.32999794415E+02 -0.35089021587E+03  0.37751081447E+03  0.12509324809E+03 0.  0.
         23    2    1    2    0    0 -0.51508875962E+02  0.32999794415E+02 -0.19795921110E+03  0.22635093202E+03  0.91130370532E+02 0.  0.
          5    1    3    3  502    0 -0.38910824036E+02  0.73776835493E+01 -0.11233573881E+03  0.11918587608E+03  0.41800000000E+01 0.  1.
         -5    1    3    3    0  502  0.90419699998E+02 -0.40377477964E+02 -0.23855447705E+03  0.25832493840E+03  0.41800000000E+01 0.  1.
        -11    1    4    4    0    0 -0.54126675162E+02  0.60681196261E+02 -0.15760632550E+03  0.17734615412E+03  0.00000000000E+00 0.  1.
         11    1    4    4    0    0  0.26177992005E+01 -0.27681401846E+02 -0.40352885598E+02  0.49004777899E+02  0.00000000000E+00 0. -1.
</event>
<event>
 8    1  0.6787197E-009  0.9375436E+02  0.7561462E-02  0.1294006E+00
         -1   -1    0    0    0  501 -0.00000000000E+00  0.00000000000E+00  0.20159800504E+02  0.20159800504E+02  0.00000000000E+00 0.  1.
          1   -1    0    0  501    0  0.00000000000E+00 -0.00000000000E+00 -0.85422235787E+03  0.85422235787E+03  0.00000000000E+00 0. -1.
         25    2    1    2    0    0 -0.44614840815E+02  0.23208291783E+02 -0.63543892194E+03  0.64958709305E+03  0.12510659097E+03 0.  0.
         23    2    1    2    0    0  0.44614840815E+02 -0.23208291783E+02 -0.19862363542E+03  0.22479506533E+03  0.92478992312E+02 0.  0.
          5    1    3    3  502    0  0.28406767234E+02  0.31082755902E+02 -0.41598335948E+03  0.41813001555E+03  0.41800000000E+01 0. -1.
         -5    1    3    3    0  502 -0.73021608049E+02 -0.78744641185E+01 -0.21945556246E+03  0.23145707749E+03  0.41800000000E+01 0. -1.
        -11    1    4    4    0    0  0.30986128550E+02  0.12497556503E+02 -0.17850445569E+03  0.18160443217E+03  0.00000000000E+00 0. -1.
         11    1    4    4    0    0  0.13628712265E+02 -0.35705848286E+02 -0.20119179731E+02  0.43190633161E+02  0.00000000000E+00 0.  1.
</event>
<event>
 8    1  0.6787197E-009  0.9608959E+02  0.7561462E-02  0.1288741E+00
          2   -1    0    0  501    0  0.00000000000E+00  0.00000000000E+00  0.64747937352E+03  0.64747937352E+03  0.00000000000E+00 0. -1.
         -2   -1    0    0    0  501 -0.00000000000E+00 -0.00000000000E+00 -0.36105630557E+02  0.36105630557E+02  0.00000000000E+00 0.  1.
         25    2    1    2    0    0  0.78036105073E+02 -0.84344960199E+01  0.15793366966E+03  0.21621175395E+03  0.12507479408E+03 0.  0.
         23    2    1    2    0    0 -0.78036105073E+02  0.84344960199E+01  0.45344007330E+03  0.46737325013E+03  0.81664438058E+02 0.  0.
          5    1    3    3  502    0  0.39823378847E+02 -0.36098437488E+02  0.27717478098E+01  0.53982901717E+02  0.41800000000E+01 0. -1.
         -5    1    3    3    0  502  0.38212726226E+02  0.27663941468E+02  0.15516192185E+03  0.16222885223E+03  0.41800000000E+01 0. -1.
        -11    1    4    4    0    0 -0.27923422466E+01  0.15112086254E+02  0.11949810914E+02  0.19467159707E+02  0.00000000000E+00 0.  1.
         11    1    4    4    0    0 -0.75243762826E+02 -0.66775902336E+01  0.44149026239E+03  0.44790609042E+03  0.00000000000E+00 0. -1.
</event>
<event>
 8    1  0.6787197E-009  0.9022902E+02  0.7561462E-02  0.1302298E+00
          1   -1    0    0  501    0  0.00000000000E+00  0.00000000000E+00  0.56244754787E+02  0.56244754787E+02  0.00000000000E+00 0. -1.
         -1   -1    0    0    0  501 -0.00000000000E+00 -0.00000000000E+00 -0.28826715913E+03  0.28826715913E+03  0.00000000000E+00 0.  1.
         25    2    1    2    0    0  0.56683104660E+02  0.29889178529E+02 -0.10595088373E+03  0.17600749113E+03  0.12508680916E+03 0.  0.
         23    2    1    2    0    0 -0.56683104660E+02 -0.29889178529E+02 -0.12607152061E+03  0.16850442278E+03  0.91615363560E+02 0.  0.
          5    1    3    3  502    0  0.78115478685E+02  0.10189611733E+02 -0.14845131748E+02  0.80272701052E+02  0.41800000000E+01 0.  1.
         -5    1    3    3    0  502 -0.21432374026E+02  0.19699566796E+02 -0.91105751980E+02  0.95734790082E+02  0.41800000000E+01 0.  1.
        -11    1    4    4    0    0 -0.32335587201E+02 -0.34604528544E+02 -0.13427515381E+03  0.14238286598E+03  0.00000000000E+00 0.  1.
         11    1    4    4    0    0 -0.24347517459E+02  0.47153500156E+01  0.82036331913E+01  0.26121556801E+02  0.00000000000E+00 0. -1.
</event>
<event>
 8    1  0.6787197E-009  0.8990774E+02  0.7561462E-02  0.1303075E+00
         -1   -1    0    0    0  501 -0.00000000000E+00  0.00000000000E+00  0.27932004024E+02  0.27932004024E+02  0.00000000000E+00 0.  1.
          1   -1    0    0  501    0  0.00000000000E+00 -0.00000000000E+00 -0.48713744668E+03  0.48713744668E+03  0.00000000000E+00 0. -1.
         25    2    1    2    0    0 -0.38703882796E+02  0.97269860663E+01 -0.30397076879E+03  0.33111736007E+03  0.12509145878E+03 0.  0.
         23    2    1    2    0    0  0.38703882796E+02 -0.97269860663E+01 -0.15523467387E+03  0.18395209063E+03  0.90266067138E+02 0.  0.
          5    1    3    3  502    0  0.17520902683E+02  0.32804611181E+02 -0.23690014449E+02  0.44292366500E+02  0.41800000000E+01 0. -1.
         -5    1    3    3    0  502 -0.56224785479E+02 -0.23077625115E+02 -0.28028075434E+03  0.28682499357E+03  0.41800000000E+01 0. -1.
        -11    1    4    4    0    0  0.59675029578E+02 -0.99471624762E+01 -0.55709146514E+02  0.82240891300E+02  0.00000000000E+00 0.  1.
         11    1    4    4    0    0 -0.20971146782E+02  0.22017640990E+00 -0.99525527354E+02  0.10171119933E+03  0.00000000000E+00 0. -1.
</event>
<event>
 8    1  0.6787197E-009  0.1075840E+03  0.7561462E-02  0.1265110E+00
          2   -1    0    0  501    0  0.00000000000E+00  0.00000000000E+00  0.48087981915E+03  0.48087981915E+03  0.00000000000E+00 0. -1.
         -2   -1    0    0    0  501 -0.00000000000E+00 -0.00000000000E+00 -0.37142286634E+02  0.37142286634E+02  0.00000000000E+00 0.  1.
         25    2    1    2    0    0 -0.61345470251E+02  0.46845874551E+02  0.21030830448E+03  0.25658122230E+03  0.12508612240E+03 0.  0.
         23    2    1    2    0    0  0.61345470251E+02 -0.46845874551E+02  0.23342922804E+03  0.26144088349E+03  0.88906289856E+02 0.  0.
          5    1    3    3  502    0 -0.29136606923E+02  0.57214980829E+02  0.26414397283E+02  0.69553495082E+02  0.41800000000E+01 0.  1.
         -5    1    3    3    0  502 -0.32208863329E+02 -0.10369106278E+02  0.18389390720E+03  0.18702772721E+03  0.41800000000E+01 0.  1.
        -11    1    4    4    0    0  0.84124443772E+02 -0.36040740153E+02  0.19597583214E+03  0.21629235718E+03  0.00000000000E+00 0.  1.
         11    1    4    4    0    0 -0.22778973521E+02 -0.10805134398E+02  0.37453395893E+02  0.45148526310E+02  0.00000000000E+00 0. -1.
</event>
<event>
 8    1  0.6787197E-009  0.1095636E+03  0.7561462E-02  0.1261380E+00
         -4   -1    0    0    0  501 -0.00000000000E+00  0.00000000000E+00  0.13362811306E+03  0.13362811306E+03  0.00000000000E+00 0. -1.
          4   -1    0    0  501    0  0.00000000000E+00 -0.00000000000E+00 -0.10199259113E+03  0.10199259113E+03  0.00000000000E+00 0.  1.
         25    2    1    2    0    0  0.19675158395E+02 -0.77568696012E+01 -0.20208425599E+02  0.12846546264E+03  0.12509082197E+03 0.  0.
         23    2    1    2    0    0 -0.19675158395E+02  0.77568696012E+01  0.51843947532E+02  0.10715524156E+03  0.91362848102E+02 0.  0.
          5    1    3    3  502    0 -0.52555397522E+02 -0.53700355487E+01  0.10939908901E+01  0.53005436576E+02  0.41800000000E+01 0.  1.
         -5    1    3    3    0  502  0.72230555917E+02 -0.23868340525E+01 -0.21302416490E+02  0.75460026061E+02  0.41800000000E+01 0.  1.
        -11    1    4    4    0    0 -0.14861530855E+02 -0.41587795463E+02  0.22935636866E+02  0.49763975618E+02  0.00000000000E+00 0. -1.
         11    1    4    4    0    0 -0.48136275394E+01  0.49344665064E+02  0.28908310667E+02  0.57391265938E+02  0.00000000000E+00 0.  1.
</event>
<event>
 8    1  0.6787197E-009  0.1468235E+03  0.7561462E-02  0.1204432E+00
          2   -1    0    0  501    0  0.00000000000E+00  0.00000000000E+00  0.13926935560E+04  0.13926935560E+04  0.00000000000E+00 0. -1.
         -2   -1    0    0    0  501 -0.00000000000E+00 -0.00000000000E+00 -0.22084918988E+02  0.22084918988E+02  0.00000000000E+00 0.  1.
         25    2    1    2    0    0 -0.11491921859E+03  0.95051260174E+01  0.10368260559E+04  0.10506910462E+04  0.12508649045E+03 0.  0.
         23    2    1    2    0    0  0.11491921859E+03 -0.95051260174E+01  0.33378258114E+03  0.36408742884E+03  0.88611907483E+02 0.  0.
          5    1    3    3  502    0 -0.82293244463E+02  0.64677570430E+02  0.70009335242E+03  0.70788667222E+03  0.41800000000E+01 0. -1.
         -5    1    3    3    0  502 -0.32625974124E+02 -0.55172444412E+02  0.33673270349E+03  0.34280437397E+03  0.41800000000E+01 0. -1.
        -11    1    4    4    0    0  0.69285177681E+02 -0.28908692836E+02  0.28425640327E+03  0.29400314823E+03  0.00000000000E+00 0. -1.
         11    1    4    4    0    0  0.45634040906E+02  0.19403566819E+02  0.49526177862E+02  0.70084280608E+02  0.00000000000E+00 0.  1.
</event>
<event>
 8    1  0.6787197E-009  0.1062484E+03  0.7561462E-02  0.1267679E+00
         -1   -1    0    0    0  501 -0.00000000000E+00  0.00000000000E+00  0.87638516683E+02  0.87638516683E+02  0.00000000000E+00 0.  1.
          1   -1    0    0  501    0  0.00000000000E+00 -0.00000000000E+00 -0.13803856051E+03  0.13803856051E+03  0.00000000000E+00 0. -1.
         25    2    1    2    0    0 -0.15574634867E+02  0.44498247602E+01 -0.18306103561E+02  0.12745639187E+03  0.12509056003E+03 0.  0.
         23    2    1    2    0    0  0.15574634867E+02 -0.44498247602E+01 -0.32093940263E+02  0.98220685323E+02  0.91405206811E+02 0.  0.
          5    1    3    3  502    0 -0.10890954682E+02 -0.59157934504E+02 -0.19969585276E+02  0.63517956868E+02  0.41800000000E+01 0.  1.
         -5    1    3    3    0  502 -0.46836801850E+01  0.63607759264E+02  0.16634817148E+01  0.63938434999E+02  0.41800000000E+01 0.  1.
        -11    1    4    4    0    0 -0.35378205568E+02  0.69885534278E+01 -0.28339659275E+02  0.45864949537E+02  0.00000000000E+00 0.  1.
         11    1    4    4    0    0  0.50952840435E+02 -0.11438378188E+02 -0.37542809881E+01  0.52355735786E+02  0.00000000000E+00 0. -1.
</event>
<event>
 8    1  0.6787197E-009  0.2478223E+03  0.7561462E-02  0.1114689E+00
          2   -1    0    0  501    0  0.00000000000E+00  0.00000000000E+00  0.94104836206E+03  0.94104836206E+03  0.00000000000E+00 0. -1.
         -2   -1    0    0    0  501 -0.00000000000E+00 -0.00000000000E+00 -0.87040030736E+02  0.87040030736E+02  0.00000000000E+00 0.  1.
         25    2    1    2    0    0 -0.15998084748E+03 -0.17651094593E+03  0.64259266663E+03  0.69665098724E+03  0.12508907713E+03 0.  0.
         23    2    1    2    0    0  0.15998084748E+03  0.17651094593E+03  0.21141566469E+03  0.33143740556E+03  0.91674341736E+02 0.  0.
          5    1    3    3  502    0 -0.11923650981E+03 -0.16360399691E+03  0.61002939367E+03  0.64275729994E+03  0.41800000000E+01 0.  1.
         -5    1    3    3    0  502 -0.40744337668E+02 -0.12906949021E+02  0.32563272957E+02  0.53893687300E+02  0.41800000000E+01 0.  1.
        -11    1    4    4    0    0 -0.75122853219E+01  0.18427804866E+02  0.17399757948E+01  0.19976134228E+02  0.00000000000E+00 0.  1.
         11    1    4    4    0    0  0.16749313280E+03  0.15808314107E+03  0.20967568890E+03  0.31146127133E+03  0.00000000000E+00 0. -1.
</event>
<event>
 8    1  0.6787197E-009  0.9272032E+02  0.7561462E-02  0.1296395E+00
         -2   -1    0    0    0  501 -0.00000000000E+00  0.00000000000E+00  0.18832154853E+02  0.18832154853E+02  0.00000000000E+00 0.  1.
          2   -1    0    0  501    0  0.00000000000E+00 -0.00000000000E+00 -0.65976537377E+03  0.65976537377E+03  0.00000000000E+00 0. -1.
         25    2    1    2    0    0 -0.94797217963E+01  0.48288144895E+01 -0.33948755471E+03  0.36195624218E+03  0.12508932359E+03 0.  0.
         23    2    1    2    0    0  0.94797217963E+01 -0.48288144895E+01 -0.30144566421E+03  0.31664128644E+03  0.96327738662E+02 0.  0.
          5    1    3    3  502    0  0.10295239264E+02  0.43570057852E+02 -0.29907642304E+03  0.30243763177E+03  0.41800000000E+01 0.  1.
         -5    1    3    3    0  502 -0.19774961060E+02 -0.38741243363E+02 -0.40411131667E+02  0.59518610408E+02  0.41800000000E+01 0.  1.
        -11    1    4    4    0    0  0.52640202201E+02  0.37533938466E+01 -0.15604829381E+03  0.16473053407E+03  0.00000000000E+00 0.  1.
         11    1    4    4    0    0 -0.43160480404E+02 -0.85822083361E+01 -0.14539737039E+03  0.15191075237E+03  0.00000000000E+00 0. -1.
</event>
<event>
 8    1  0.6787197E-009  0.1217172E+03  0.7561462E-02  0.1240291E+00
         -1   -1    0    0    0  501 -0.00000000000E+00  0.00000000000E+00  0.19756252920E+03  0.19756252920E+03  0.00000000000E+00 0.  1.
          1   -1    0    0  501    0  0.00000000000E+00 -0.00000000000E+00 -0.21189407766E+03  0.21189407766E+03  0.00000000000E+00 0. -1.
         25    2    1    2    0    0 -0.54239949548E+02 -0.34485464241E+01 -0.16834851138E+03  0.21667315295E+03  0.12510863010E+03 0.  0.
         23    2    1    2    0    0  0.54239949548E+02  0.34485464241E+01  0.15401696292E+03  0.19278345391E+03  0.10242251039E+03 0.  0.
          5    1    3    3  502    0  0.27821166774E+02 -0.30382180164E+02 -0.22517846702E+02  0.47134064245E+02  0.41800000000E+01 0.  1.
         -5    1    3    3    0  502 -0.82061116322E+02  0.26933633740E+02 -0.14583066468E+03  0.16953908870E+03  0.41800000000E+01 0.  1.
        -11    1    4    4    0    0 -0.14174319275E+02  0.36808619551E+02  0.60242615337E+02  0.72006655961E+02  0.00000000000E+00 0. -1.
         11    1    4    4    0    0  0.68414268823E+02 -0.33360073127E+02  0.93774347587E+02  0.12077679795E+03  0.00000000000E+00 0.  1.
</event>
<event>
 8    1  0.6787197E-009  0.1607120E+03  0.7561462E-02  0.1187895E+00
         -2   -1    0    0    0  501 -0.00000000000E+00  0.00000000000E+00  0.64823621255E+02  0.64823621255E+02  0.00000000000E+00 0. -1.
          2   -1    0    0  501    0  0.00000000000E+00 -0.00000000000E+00 -0.49034112182E+03  0.49034112182E+03  0.00000000000E+00 0.  1.
         25    2    1    2    0    0 -0.57303289414E+02 -0.11395390801E+03 -0.13228678959E+03  0.22229718238E+03  0.12508829866E+03 0.  0.
         23    2    1    2    0    0  0.57303289414E+02  0.11395390801E+03 -0.29323071097E+03  0.33286756070E+03  0.92452165906E+02 0.  0.
          5    1    3    3  502    0 -0.26455233558E+02 -0.13702553544E+03 -0.98250289172E+02  0.17072336825E+03  0.41800000000E+01 0.  1.
         -5    1    3    3    0  502 -0.30848055855E+02  0.23071627427E+02 -0.34036500423E+02  0.51573814123E+02  0.41800000000E+01 0.  1.
        -11    1    4    4    0    0  0.38959790001E+02  0.13944670701E+02 -0.31270753706E+02  0.51866936628E+02  0.00000000000E+00 0. -1.
         11    1    4    4    0    0  0.18343499413E+02  0.10000923731E+03 -0.26195995726E+03  0.28100062407E+03  0.00000000000E+00 0.  1.
</event>
<event>
 8    1  0.6787197E-009  0.1056924E+03  0.7561462E-02  0.1268761E+00
          2   -1    0    0  501    0  0.00000000000E+00  0.00000000000E+00  0.74079640227E+03  0.74079640227E+03  0.00000000000E+00 0. -1.
         -2   -1    0    0    0  501 -0.00000000000E+00 -0.00000000000E+00 -0.31766784606E+02  0.31766784606E+02  0.00000000000E+00 0.  1.
         25    2    1    2    0    0  0.60928591362E+02 -0.55273001485E+02  0.20540647439E+03  0.25418039513E+03  0.12509378724E+03 0.  0.
         23    2    1    2    0    0 -0.60928591362E+02  0.55273001485E+02  0.50362314327E+03  0.51838279174E+03  0.91197864022E+02 0.  0.
          5    1    3    3  502    0  0.33678021756E+02 -0.96867606536E+01 -0.63209200354E+01  0.35853436536E+02  0.41800000000E+01 0.  1.
         -5    1    3    3    0  502  0.27250569606E+02 -0.45586240832E+02  0.21172739443E+03  0.21832695859E+03  0.41800000000E+01 0.  1.
        -11    1    4    4    0    0 -0.84695680207E+02  0.35238564665E+02  0.37573721502E+03  0.38677327912E+03  0.00000000000E+00 0. -1.
         11    1    4    4    0    0  0.23767088844E+02  0.20034436821E+02  0.12788592824E+03  0.13160951263E+03  0.00000000000E+00 0.  1.
</event>
<event>
 8    1  0.6787197E-009  0.1128195E+03  0.7561462E-02  0.1255436E+00
          2   -1    0    0  501    0  0.00000000000E+00  0.00000000000E+00  0.37332614138E+03  0.37332614138E+03  0.00000000000E+00 0. -1.
         -2   -1    0    0    0  501 -0.00000000000E+00 -0.00000000000E+00 -0.47771269433E+02  0.47771269433E+02  0.00000000000E+00 0.  1.
         25    2    1    2    0    0  0.53691847697E+02 -0.56671619620E+02  0.18091957453E+03  0.23339111129E+03  0.12508009994E+03 0.  0.
         23    2    1    2    0    0 -0.53691847697E+02  0.56671619620E+02  0.14463529741E+03  0.18770629952E+03  0.90663105184E+02 0.  0.
          5    1    3    3  502    0  0.80253672787E+02 -0.25489452014E+02  0.54388199385E+02  0.10032902268E+03  0.41800000000E+01 0. -1.
         -5    1    3    3    0  502 -0.26561825090E+02 -0.31182167606E+02  0.12653137515E+03  0.13306208861E+03  0.41800000000E+01 0. -1.
        -11    1    4    4    0    0 -0.33394283363E+02  0.68825019417E+02  0.52996225234E+02  0.93062674301E+02  0.00000000000E+00 0. -1.
         11    1    4    4    0    0 -0.20297564334E+02 -0.12153399796E+02  0.91639072178E+02  0.94643625216E+02  0.00000000000E+00 0.  1.
</event>
<event>
 8    1  0.6787197E-009  0.8613603E+02  0.7561462E-02  0.1312488E+00
         -1   -1    0    0    0  501 -0.00000000000E+00  0.00000000000E+00  0.16425993833E+03  0.16425993833E+03  0.00000000000E+00 0.  1.
          1   -1    0    0  501    0  0.00000000000E+00 -0.00000000000E+00 -0.85003779678E+02  0.85003779678E+02  0.00000000000E+00 0. -1.
         25    2    1    2    0    0 -0.10188058364E+02  0.43754113605E+02  0.62577464187E+02  0.14690765193E+03  0.12509076776E+03 0.  0.
         23    2    1    2    0    0  0.10188058364E+02 -0.43754113605E+02  0.16678694470E+02  0.10235606609E+03  0.90445378128E+02 0.  0.
          5    1    3    3  502    0 -0.28619845826E+02  0.76603685450E+02  0.10577532198E+02  0.82562562866E+02  0.41800000000E+01 0.  1.
         -5    1    3    3    0  502  0.18431787462E+02 -0.32849571845E+02  0.51999931988E+02  0.64345089061E+02  0.41800000000E+01 0.  1.
        -11    1    4    4    0    0  0.19357140318E+02 -0.33855210608E+02 -0.32869992957E+02  0.51003045043E+02  0.00000000000E+00 0. -1.
         11    1    4    4    0    0 -0.91690819543E+01 -0.98989029975E+01  0.49548687427E+02  0.51353021043E+02  0.00000000000E+00 0.  1.
</event>
<event>
 8    1  0.6787197E-009  0.9451764E+02  0.7561462E-02  0.1292266E+00
          1   -1    0    0  501    0  0.00000000000E+00  0.00000000000E+00  0.20001289354E+03  0.20001289354E+03  0.00000000000E+00 0. -1.
         -1   -1    0    0    0  501 -0.00000000000E+00 -0.00000000000E+00 -0.85619414794E+02  0.85619414794E+02  0.00000000000E+00 0.  1.
         25    2    1    2    0    0 -0.56263767110E+02  0.51747790383E+02  0.59254466257E+02  0.15811950473E+03  0.12508893118E+03 0.  0.
         23    2    1    2    0    0  0.56263767110E+02 -0.51747790383E+02  0.55139012492E+02  0.12751280361E+03  0.85882239652E+02 0.  0.
          5    1    3    3  502    0 -0.86237893636E+01  0.79570447410E+00 -0.37531170243E+02  0.38743567574E+02  0.41800000000E+01 0.  1.
         -5    1    3    3    0  502 -0.47639977746E+02  0.50952085909E+02  0.96785636500E+02  0.11937593715E+03  0.41800000000E+01 0.  1.
        -11    1    4    4    0    0  0.16965077908E+02 -0.65686448503E+02  0.14678252021E+02  0.69411630637E+02  0.00000000000E+00 0. -1.
         11    1    4    4    0    0  0.39298689202E+02  0.13938658120E+02  0.40460760472E+02  0.58101172975E+02  0.00000000000E+00 0.  1.
</event>
<event>
 8    1  0.6787197E-009  0.1358398E+03  0.7561462E-02  0.1219039E+00
         -2   -1    0    0    0  501 -0.00000000000E+00  0.00000000000E+00  0.38283354765E+03  0.38283354765E+03  0.00000000000E+00 0. -1.
          2   -1    0    0  501    0  0.00000000000E+00 -0.00000000000E+00 -0.50494727321E+02  0.50494727321E+02  0.00000000000E+00 0.  1.
         25    2    1    2    0    0 -0.85573553549E+02 -0.61553823485E+00  0.15808006459E+03  0.21899879777E+03  0.12509178490E+03 0.  0.
         23    2    1    2    0    0  0.85573553549E+02  0.61553823485E+00  0.17425875574E+03  0.21432947720E+03  0.90817393111E+02 0.  0.
          5    1    3    3  502    0 -0.39256436848E+02 -0.61041908578E+02  0.97471628276E+02  0.12159511979E+03  0.41800000000E+01 0.  1.
         -5    1    3    3    0  502 -0.46317116702E+02  0.60426370343E+02  0.60608436313E+02  0.97403677984E+02  0.41800000000E+01 0.  1.
        -11    1    4    4    0    0 -0.14753371320E+01 -0.30316655898E+02  0.61315576501E+02  0.68416928944E+02  0.00000000000E+00 0. -1.
         11    1    4    4    0    0  0.87048890681E+02  0.30932194133E+02  0.11294317924E+03  0.14591254826E+03  0.00000000000E+00 0.  1.
</event>
<event>
 8    1  0.6787197E-009  0.2696160E+03  0.7561462E-02  0.1101500E+00
         -1   -1    0    0    0  501 -0.00000000000E+00  0.00000000000E+00  0.21601490309E+03  0.21601490309E+03  0.00000000000E+00 0.  1.
          1   -1    0    0  501    0  0.00000000000E+00 -0.00000000000E+00 -0.35402135422E+03  0.35402135422E+03  0.00000000000E+00 0. -1.
         25    2    1    2    0    0 -0.58218823336E+02  0.24385308832E+03 -0.29282938200E+02  0.28170726432E+03  0.12509089587E+03 0.  0.
         23    2    1    2    0    0  0.58218823336E+02 -0.24385308832E+03 -0.10872351292E+03  0.28832899299E+03  0.91973071401E+02 0.  0.
          5    1    3    3  502    0 -0.90306336964E+02  0.21280622638E+03 -0.62569398731E+01  0.23129709505E+03  0.41800000000E+01 0. -1.
         -5    1    3    3    0  502  0.32087513628E+02  0.31046861931E+02 -0.23025998327E+02  0.50410169267E+02  0.41800000000E+01 0. -1.
        -11    1    4    4    0    0  0.78572064103E+02 -0.19007578133E+03 -0.63746196671E+02  0.21532754003E+03  0.00000000000E+00 0. -1.
         11    1    4    4    0    0 -0.20353240768E+02 -0.53777306981E+02 -0.44977316252E+02  0.73001452952E+02  0.00000000000E+00 0.  1.
</event>
<event>
 8    1  0.6787197E-009  0.1606339E+03  0.7561462E-02  0.1187983E+00
          2   -1    0    0  501    0  0.00000000000E+00  0.00000000000E+00  0.28108358950E+03  0.28108358950E+03  0.00000000000E+00 0. -1.
         -2   -1    0    0    0  501 -0.00000000000E+00 -0.00000000000E+00 -0.12236661367E+03  0.12236661367E+03  0.00000000000E+00 0.  1.
         25    2    1    2    0    0 -0.74849267767E+02 -0.12206580168E+03  0.36270579337E+02  0.19355784392E+03  0.12508641491E+03 0.  0.
         23    2    1    2    0    0  0.74849267767E+02  0.12206580168E+03  0.12244639649E+03  0.20989235925E+03  0.92515996645E+02 0.  0.
          5    1    3    3  502    0  0.55985954562E+01 -0.33661503418E+02  0.62299935844E+02  0.71156134589E+02  0.41800000000E+01 0.  1.
         -5    1    3    3    0  502 -0.80447863223E+02 -0.88404298257E+02 -0.26029356507E+02  0.12240170933E+03  0.41800000000E+01 0.  1.
        -11    1    4    4    0    0  0.61648321297E+02  0.20649322430E+02  0.67806117745E+02  0.93939233759E+02  0.00000000000E+00 0. -1.
         11    1    4    4    0    0  0.13200946469E+02  0.10141647925E+03  0.54640278744E+02  0.11595312549E+03  0.00000000000E+00 0.  1.
</event>
<event>
 8    1  0.6787197E-009  0.9005298E+02  0.7561462E-02  0.1302723E+00
         -2   -1    0    0    0  501 -0.00000000000E+00  0.00000000000E+00  0.29137120561E+03  0.29137120561E+03  0.00000000000E+00 0.  1.
          2   -1    0    0  501    0  0.00000000000E+00 -0.00000000000E+00 -0.56399463109E+02  0.56399463109E+02  0.00000000000E+00 0. -1.
         25    2    1    2    0    0 -0.25127540184E+02  0.24770149266E+02  0.51545495117E+02  0.13982173144E+03  0.12509286528E+03 0.  0.
         23    2    1    2    0    0  0.25127540184E+02 -0.24770149266E+02  0.18342624739E+03  0.20794893729E+03  0.91392662272E+02 0.  0.
          5    1    3    3  502    0 -0.47156029467E+02 -0.26988222718E+02 -0.11006098256E+02  0.55593721582E+02  0.41800000000E+01 0. -1.
         -5    1    3    3    0  502  0.22028489283E+02  0.51758371984E+02  0.62551593373E+02  0.84228009854E+02  0.41800000000E+01 0. -1.
        -11    1    4    4    0    0 -0.52821147472E+01 -0.36301539698E+02  0.16799055624E+03  0.17194920618E+03  0.00000000000E+00 0.  1.
         11    1    4    4    0    0  0.30409654931E+02  0.11531390432E+02  0.15435691147E+02  0.35999731103E+02  0.00000000000E+00 0. -1.
</event>
<event>
 8    1  0.6787197E-009  0.1391174E+03  0.7561462E-02  0.1214521E+00
         -1   -1    0    0    0  501 -0.00000000000E+00  0.00000000000E+00  0.48842468256E+03  0.48842468256E+03  0.00000000000E+00 0.  1.
          1   -1    0    0  501    0  0.00000000000E+00 -0.00000000000E+00 -0.44588702663E+02  0.44588702663E+02  0.00000000000E+00 0. -1.
         25    2    1    2    0    0 -0.19287376054E+02  0.90831456588E+02  0.17592633755E+03  0.23499010795E+03  0.12509163925E+03 0.  0.
         23    2    1    2    0    0  0.19287376054E+02 -0.90831456588E+02  0.26790964234E+03  0.29802327727E+03  0.91760236218E+02 0.  0.
          5    1    3    3  502    0 -0.62851031230E+02  0.88275897060E+02  0.10106754548E+03  0.14823969535E+03  0.41800000000E+01 0.  1.
         -5    1    3    3    0  502  0.43563655176E+02  0.25555595286E+01  0.74858792066E+02  0.86750412601E+02  0.41800000000E+01 0.  1.
        -11    1    4    4    0    0  0.41524427060E+02 -0.10825172626E+02  0.13151832868E+03  0.13834208753E+03  0.00000000000E+00 0.  1.
         11    1    4    4    0    0 -0.22237051006E+02 -0.80006283962E+02  0.13639131367E+03  0.15968118973E+03  0.00000000000E+00 0. -1.
</event>
<event>
 8    1  0.6787197E-009  0.8739482E+02  0.7561462E-02  0.1309286E+00
         -2   -1    0    0    0  501 -0.00000000000E+00  0.00000000000E+00  0.43330047540E+03  0.43330047540E+03  0.00000000000E+00 0.  1.
          2   -1    0    0  501    0  0.00000000000E+00 -0.00000000000E+00 -0.34044004062E+02  0.34044004062E+02  0.00000000000E+00 0. -1.
         25    2    1    2    0    0  0.53936461138E+02 -0.66619564886E+01  0.24251014916E+03  0.27823005887E+03  0.12508904713E+03 0.  0.
         23    2    1    2    0    0 -0.53936461138E+02  0.66619564886E+01  0.15674632217E+03  0.18911442058E+03  0.90781777097E+02 0.  0.
          5    1    3    3  502    0  0.60706700862E+02 -0.67176228740E+00  0.25505400217E+03  0.26221321709E+03  0.41800000000E+01 0. -1.
         -5    1    3    3    0  502 -0.67702397245E+01 -0.59901942012E+01 -0.12543853008E+02  0.16016841786E+02  0.41800000000E+01 0. -1.
        -11    1    4    4    0    0 -0.39929351737E+02 -0.39240705073E+02  0.66731398361E+02  0.87104911412E+02  0.00000000000E+00 0.  1.
         11    1    4    4    0    0 -0.14007109400E+02  0.45902661562E+02  0.90014923813E+02  0.10200950917E+03  0.00000000000E+00 0. -1.
</event>
<event>
 8    1  0.6787197E-009  0.2591447E+03  0.7561462E-02  0.1107658E+00
          2   -1    0    0  501    0  0.00000000000E+00  0.00000000000E+00  0.16497594105E+04  0.16497594105E+04  0.00000000000E+00 0. -1.
         -2   -1    0    0    0  501 -0.00000000000E+00 -0.00000000000E+00 -0.45483456804E+02  0.45483456804E+02  0.00000000000E+00 0.  1.
         25    2    1    2    0    0  0.10451086742E+03  0.22604406521E+03  0.92924475133E+03  0.97013337663E+03  0.12507805464E+03 0.  0.
         23    2    1    2    0    0 -0.10451086742E+03 -0.22604406521E+03  0.67503120232E+03  0.72510949062E+03  0.89990046487E+02 0.  0.
          5    1    3    3  502    0  0.44847503602E+02  0.18650006826E+03  0.79628411311E+03  0.81907230159E+03  0.41800000000E+01 0.  1.
         -5    1    3    3    0  502  0.59663363814E+02  0.39543996947E+02  0.13296063822E+03  0.15106107504E+03  0.41800000000E+01 0.  1.
        -11    1    4    4    0    0 -0.10409619331E+03 -0.17456281542E+03  0.60474728654E+03  0.63798704890E+03  0.00000000000E+00 0. -1.
         11    1    4    4    0    0 -0.41467410889E+00 -0.51481249796E+02  0.70283915781E+02  0.87122441728E+02  0.00000000000E+00 0.  1.
</event>
<event>
 8    1  0.6787197E-009  0.1985568E+03  0.7561462E-02  0.1150962E+00
         -2   -1    0    0    0  501 -0.00000000000E+00  0.00000000000E+00  0.45782658685E+02  0.45782658685E+02  0.00000000000E+00 0. -1.
          2   -1    0    0  501    0  0.00000000000E+00 -0.00000000000E+00 -0.11418054753E+04  0.11418054753E+04  0.00000000000E+00 0.  1.
         25    2    1    2    0    0  0.26606673558E+02  0.16990942066E+03 -0.29735931232E+03  0.36557728544E+03  0.12508822766E+03 0.  0.
         23    2    1    2    0    0 -0.26606673558E+02 -0.16990942066E+03 -0.79866350426E+03  0.82201084851E+03  0.90891780287E+02 0.  0.
          5    1    3    3  502    0  0.60136386122E+02  0.35194982264E+02 -0.13452466361E+03  0.15155668653E+03  0.41800000000E+01 0.  1.
         -5    1    3    3    0  502 -0.33529712563E+02  0.13471443840E+03 -0.16283464871E+03  0.21402059891E+03  0.41800000000E+01 0.  1.
        -11    1    4    4    0    0 -0.53911602955E+02 -0.10590978088E+03 -0.39850958148E+03  0.41585241271E+03  0.00000000000E+00 0. -1.
         11    1    4    4    0    0  0.27304929396E+02 -0.63999639785E+02 -0.40015392278E+03  0.40615843581E+03  0.00000000000E+00 0.  1.
</event>
<event>
 8    1  0.6787197E-009  0.2167100E+03  0.7561462E-02  0.1136360E+00
          2   -1    0    0  501    0  0.00000000000E+00  0.00000000000E+00  0.39434433832E+04  0.39434433832E+04  0.00000000000E+00 0.  1.
         -2   -1    0    0    0  501 -0.00000000000E+00 -0.00000000000E+00 -0.19877767438E+02  0.19877767438E+02  0.00000000000E+00 0. -1.
         25    2    1    2    0    0  0.15292313858E+03 -0.13750540809E+03  0.31052903636E+04  0.31146056996E+04  0.12508876026E+03 0.  0.
         23    2    1    2    0    0 -0.15292313858E+03  0.13750540809E+03  0.81827525222E+03  0.84871545113E+03  0.91925540649E+02 0.  0.
          5    1    3    3  502    0  0.11747391341E+03 -0.14820710535E+03  0.20644140830E+04  0.20730625763E+04  0.41800000000E+01 0.  1.
         -5    1    3    3    0  502  0.35449225166E+02  0.10701697266E+02  0.10408762805E+04  0.10415431233E+04  0.41800000000E+01 0.  1.
        -11    1    4    4    0    0 -0.42976366196E+02  0.53509799455E+02  0.13356952639E+03  0.15017018702E+03  0.00000000000E+00 0. -1.
         11    1    4    4    0    0 -0.10994677238E+03  0.83995608632E+02  0.68470572583E+03  0.69854526411E+03  0.00000000000E+00 0.  1.
</event>
<event>
 8    1  0.6787197E-009  0.1124509E+03  0.7561462E-02  0.1256097E+00
         -1   -1    0    0    0  501 -0.00000000000E+00  0.00000000000E+00  0.66882274958E+02  0.66882274958E+02  0.00000000000E+00 0.  1.
          1   -1    0    0  501    0  0.00000000000E+00 -0.00000000000E+00 -0.27453799550E+03  0.27453799550E+03  0.00000000000E+00 0. -1.
         25    2    1    2    0    0  0.29671594148E+02 -0.19516742524E+02 -0.22311517561E+02  0.13193485654E+03  0.12509075032E+03 0.  0.
         23    2    1    2    0    0 -0.29671594148E+02  0.19516742524E+02 -0.18534420299E+03  0.20948541392E+03  0.90941510480E+02 0.  0.
          5    1    3    3  502    0 -0.37424514514E+02  0.28322243821E+02 -0.31212811637E+01  0.47222437229E+02  0.41800000000E+01 0.  1.
         -5    1    3    3    0  502  0.67096108663E+02 -0.47838986346E+02 -0.19190236398E+02  0.84712419310E+02  0.41800000000E+01 0.  1.
        -11    1    4    4    0    0 -0.35792431561E+02 -0.29187811732E+02 -0.11285373934E+03  0.12193848036E+03  0.00000000000E+00 0.  1.
         11    1    4    4    0    0  0.61208374127E+01  0.48704554257E+02 -0.72490463646E+02  0.87546933559E+02  0.00000000000E+00 0. -1.
</event>
<event>
 8    1  0.6787197E-009  0.8446259E+02  0.7561462E-02  0.1316844E+00
          1   -1    0    0  501    0  0.00000000000E+00  0.00000000000E+00  0.31532538457E+03  0.31532538457E+03  0.00000000000E+00 0. -1.
         -1   -1    0    0    0  501 -0.00000000000E+00 -0.00000000000E+00 -0.42138350311E+02  0.42138350311E+02  0.00000000000E+00 0.  1.
         25    2    1    2    0    0  0.28013070812E+02 -0.75163231646E+01  0.11191625642E+03  0.17033912191E+03  0.12509572635E+03 0.  0.
         23    2    1    2    0    0 -0.28013070812E+02  0.75163231646E+01  0.16127077784E+03  0.18712461297E+03  0.90366640664E+02 0.  0.
          5    1    3    3  502    0  0.59172965172E+02  0.12975897682E+02  0.11763011614E+03  0.13237873829E+03  0.41800000000E+01 0. -1.
         -5    1    3    3    0  502 -0.31159894360E+02 -0.20492220847E+02 -0.57138597183E+01  0.37960383621E+02  0.41800000000E+01 0. -1.
        -11    1    4    4    0    0 -0.73804830583E+01  0.35302285791E+02  0.19117667618E+02  0.40819212724E+02  0.00000000000E+00 0.  1.
         11    1    4    4    0    0 -0.20632587753E+02 -0.27785962626E+02  0.14215311022E+03  0.14630540025E+03  0.00000000000E+00 0. -1.
</event>
<event>
 8    1  0.6787197E-009  0.1014819E+03  0.7561462E-02  0.1277210E+00
          1   -1    0    0  501    0  0.00000000000E+00  0.00000000000E+00  0.12282172694E+03  0.12282172694E+03  0.00000000000E+00 0. -1.
         -1   -1    0    0    0  501 -0.00000000000E+00 -0.00000000000E+00 -0.11075228238E+03  0.11075228238E+03  0.00000000000E+00 0.  1.
         25    2    1    2    0    0  0.19277859671E+02  0.34601862951E+02  0.12018901400E+00  0.13121349815E+03  0.12509213747E+03 0.  0.
         23    2    1    2    0    0 -0.19277859671E+02 -0.34601862951E+02  0.11949255549E+02  0.10236051117E+03  0.93626730934E+02 0.  0.
          5    1    3    3  502    0  0.25743411071E+01  0.79091837376E+02  0.16176317554E+02  0.80878251844E+02  0.41800000000E+01 0.  1.
         -5    1    3    3    0  502  0.16703518564E+02 -0.44489974425E+02 -0.16056128540E+02  0.50335246304E+02  0.41800000000E+01 0.  1.
        -11    1    4    4    0    0 -0.10970623531E+02  0.18909600776E+02  0.36779961478E+02  0.42786600104E+02  0.00000000000E+00 0. -1.
         11    1    4    4    0    0 -0.83072361409E+01 -0.53511463727E+02 -0.24830705929E+02  0.59573911064E+02  0.00000000000E+00 0.  1.
</event>
<event>
 8    1  0.6787197E-009  0.2035365E+03  0.7561462E-02  0.1146789E+00
         -1   -1    0    0    0  501 -0.00000000000E+00  0.00000000000E+00  0.10738267195E+03  0.10738267195E+03  0.00000000000E+00 0.  1.
          1   -1    0    0  501    0  0.00000000000E+00 -0.00000000000E+00 -0.41131186895E+03  0.41131186895E+03  0.00000000000E+00 0. -1.
         25    2    1    2    0    0  0.80065231503E+02 -0.16105277108E+03 -0.14971833079E+03  0.26535328173E+03  0.12509336188E+03 0.  0.
         23    2    1    2    0    0 -0.80065231503E+02  0.16105277108E+03 -0.15421086621E+03  0.25334125916E+03  0.89734976295E+02 0.  0.
          5    1    3    3  502    0  0.23902678907E+02  0.17655834365E+02 -0.32983863373E+02  0.44592310874E+02  0.41800000000E+01 0. -1.
         -5    1    3    3    0  502  0.56162552596E+02 -0.17870860544E+03 -0.11673446742E+03  0.22076097086E+03  0.41800000000E+01 0. -1.
        -11    1    4    4    0    0 -0.38200840900E+02  0.13518769026E+03 -0.72827621759E+02  0.15823677933E+03  0.00000000000E+00 0. -1.
         11    1    4    4    0    0 -0.41864390603E+02  0.25865080815E+02 -0.81383244449E+02  0.95104479828E+02  0.00000000000E+00 0.  1.
</event>
<event>
 8    1  0.6787197E-009  0.8412695E+02  0.7561462E-02  0.1317732E+00
         -2   -1    0    0    0  501 -0.00000000000E+00  0.00000000000E+00  0.50224466062E+02  0.50224466062E+02  0.00000000000E+00 0.  1.
          2   -1    0    0  501    0  0.00000000000E+00 -0.00000000000E+00 -0.27826999163E+03  0.27826999163E+03  0.00000000000E+00 0. -1.
         25    2    1    2    0    0 -0.77230403805E+01  0.36164877569E+02 -0.89491227531E+02  0.15818315011E+03  0.12508271444E+03 0.  0.
         23    2    1    2    0    0  0.77230403805E+01 -0.36164877569E+02 -0.13855429804E+03  0.17031130759E+03  0.91875482392E+02 0.  0.
          5    1    3    3  502    0  0.17304532670E+02  0.67162056091E+02 -0.11391053423E+02  0.70408927896E+02  0.41800000000E+01 0.  1.
         -5    1    3    3    0  502 -0.25027573050E+02 -0.30997178522E+02 -0.78100174109E+02  0.87774222212E+02  0.41800000000E+01 0.  1.
        -11    1    4    4    0    0 -0.15821634206E+02 -0.30709650370E+02 -0.53804776117E+01  0.34962212088E+02  0.00000000000E+00 0.  1.
         11    1    4    4    0    0  0.23544674586E+02 -0.54552271992E+01 -0.13317382043E+03  0.13534909550E+03  0.00000000000E+00 0. -1.
</event>
<event>
 8    1  0.6787197E-009  0.1244553E+03  0.7561462E-02  0.1235923E+00
         -2   -1    0    0    0  501 -0.00000000000E+00  0.00000000000E+00  0.23968547055E+02  0.23968547055E+02  0.00000000000E+00 0.  1.
          2   -1    0    0  501    0  0.00000000000E+00 -0.00000000000E+00 -0.78482928667E+03  0.78482928667E+03  0.00000000000E+00 0. -1.
         25    2    1    2    0    0 -0.82344514062E+02 -0.27235078889E+01 -0.37243783338E+03  0.40142919017E+03  0.12508964184E+03 0.  0.
         23    2    1    2    0    0  0.82344514062E+02  0.27235078889E+01 -0.38842290624E+03  0.40736864356E+03  0.91042963339E+02 0.  0.
          5    1    3    3  502    0 -0.58107714320E+01 -0.40700004015E+02 -0.37710284338E+02  0.55944555913E+02  0.41800000000E+01 0.  1.
         -5    1    3    3    0  502 -0.76533742630E+02  0.37976496126E+02 -0.33472754905E+03  0.34548463426E+03  0.41800000000E+01 0.  1.
        -11    1    4    4    0    0  0.89600274483E+02  0.29478181023E+02 -0.31770350516E+03  0.33141015304E+03  0.00000000000E+00 0.  1.
         11    1    4    4    0    0 -0.72557604217E+01 -0.26754673134E+02 -0.70719401071E+02  0.75958490517E+02  0.00000000000E+00 0. -1.
</event>
<event>
 8    1  0.6787197E-009  0.3512358E+03  0.7561462E-02  0.1062109E+00
         -2   -1    0    0    0  501 -0.00000000000E+00  0.00000000000E+00  0.10444814271E+03  0.10444814271E+03  0.00000000000E+00 0. -1.
          2   -1    0    0  501    0  0.00000000000E+00 -0.00000000000E+00 -0.33689701362E+04  0.33689701362E+04  0.00000000000E+00 0.  1.
         25    2    1    2    0    0 -0.18603594367E+03  0.28000793806E+03 -0.30348562699E+04  0.30559801415E+04  0.12509288005E+03 0.  0.
         23    2    1    2    0    0  0.18603594367E+03 -0.28000793806E+03 -0.22966572362E+03  0.41743813744E+03  0.92165266045E+02 0.  0.
          5    1    3    3  502    0  0.78098496772E+01  0.77199308796E+02 -0.59998544670E+03  0.60499647576E+03  0.41800000000E+01 0.  1.
         -5    1    3    3    0  502 -0.19384579334E+03  0.20280862927E+03 -0.24348708232E+04  0.24509836657E+04  0.41800000000E+01 0.  1.
        -11    1    4    4    0    0  0.83962297503E+02 -0.65011669854E+02 -0.10254275626E+03  0.14761843205E+03  0.00000000000E+00 0.  1.
         11    1    4    4    0    0  0.10207364616E+03 -0.21499626821E+03 -0.12712296737E+03  0.26981970539E+03  0.00000000000E+00 0. -1.
</event>
<event>
 8    1  0.6787197E-009  0.9596077E+02  0.7561462E-02  0.1289027E+00
          2   -1    0    0  501    0  0.00000000000E+00  0.00000000000E+00  0.69232575374E+02  0.69232575374E+02  0.00000000000E+00 0.  1.
         -2   -1    0    0    0  501 -0.00000000000E+00 -0.00000000000E+00 -0.22497974105E+03  0.22497974105E+03  0.00000000000E+00 0. -1.
         25    2    1    2    0    0 -0.18295471827E+02 -0.42414778608E+02 -0.43602392823E+02  0.14028915690E+03  0.12508453601E+03 0.  0.
         23    2    1    2    0    0  0.18295471827E+02  0.42414778608E+02 -0.11214477285E+03  0.15392315953E+03  0.94774211820E+02 0.  0.
          5    1    3    3  502    0 -0.38247995780E+02  0.87071106408E+01  0.29160321557E+02  0.49056291240E+02  0.41800000000E+01 0.  1.
         -5    1    3    3    0  502  0.19952523953E+02 -0.51121889249E+02 -0.72762714381E+02  0.91232865660E+02  0.41800000000E+01 0.  1.
        -11    1    4    4    0    0  0.51707310299E+02  0.37016017993E+02 -0.98897352457E+02  0.11757770983E+03  0.00000000000E+00 0. -1.
         11    1    4    4    0    0 -0.33411838472E+02  0.53987606148E+01 -0.13247420397E+02  0.36345449694E+02  0.00000000000E+00 0.  1.
</event>
<event>
 8    1  0.6787197E-009  0.8504231E+02  0.7561462E-02  0.1315322E+00
          4   -1    0    0  501    0  0.00000000000E+00  0.00000000000E+00  0.24832827906E+02  0.24832827906E+02  0.00000000000E+00 0. -1.
         -4   -1    0    0    0  501 -0.00000000000E+00 -0.00000000000E+00 -0.50407887874E+03  0.50407887874E+03  0.00000000000E+00 0.  1.
         25    2    1    2    0    0  0.20214130524E+02  0.15327752421E+02 -0.33055235351E+03  0.35433901263E+03  0.12509087256E+03 0.  0.
         23    2    1    2    0    0 -0.20214130524E+02 -0.15327752421E+02 -0.14869369733E+03  0.17457269401E+03  0.87876383648E+02 0.  0.
          5    1    3    3  502    0 -0.31816937627E+02 -0.26018182588E+02 -0.23036860800E+03  0.23404365254E+03  0.41800000000E+01 0.  1.
         -5    1    3    3    0  502  0.52031068151E+02  0.41345935009E+02 -0.10018374551E+03  0.12029536009E+03  0.41800000000E+01 0.  1.
        -11    1    4    4    0    0 -0.20672817373E+02  0.18864844250E+02 -0.70516382814E+01  0.28861277331E+02  0.00000000000E+00 0. -1.
         11    1    4    4    0    0  0.45868684870E+00 -0.34192596672E+02 -0.14164205905E+03  0.14571141668E+03  0.00000000000E+00 0.  1.
</event>
<event>
 8    1  0.6787197E-009  0.1011306E+03  0.7561462E-02  0.1277936E+00
          2   -1    0    0  501    0  0.00000000000E+00  0.00000000000E+00  0.45449322571E+02  0.45449322571E+02  0.00000000000E+00 0. -1.
         -2   -1    0    0    0  501 -0.00000000000E+00 -0.00000000000E+00 -0.31265506677E+03  0.31265506677E+03  0.00000000000E+00 0.  1.
         25    2    1    2    0    0  0.45454682818E+02  0.12103589305E+02 -0.17669316110E+03  0.22154062663E+03  0.12508857264E+03 0.  0.
         23    2    1    2    0    0 -0.45454682818E+02 -0.12103589305E+02 -0.90512583101E+02  0.13656376271E+03  0.90799275998E+02 0.  0.
          5    1    3    3  502    0  0.76220872000E+02 -0.22125504761E+02 -0.14547940972E+03  0.16577361172E+03  0.41800000000E+01 0.  1.
         -5    1    3    3    0  502 -0.30766189181E+02  0.34229094066E+02 -0.31213751377E+02  0.55767014913E+02  0.41800000000E+01 0.  1.
        -11    1    4    4    0    0 -0.12890976500E+02  0.24435264557E+02 -0.82456285828E+02  0.86961477113E+02  0.00000000000E+00 0.  1.
         11    1    4    4    0    0 -0.32563706318E+02 -0.36538853862E+02 -0.80562972728E+01  0.49602285597E+02  0.00000000000E+00 0. -1.
</event>
<event>
 8    1  0.6787197E-009  0.9699778E+02  0.7561462E-02  0.1286739E+00
         -1   -1    0    0    0  501 -0.00000000000E+00  0.00000000000E+00  0.37316092765E+02  0.37316092765E+02  0.00000000000E+00 0.  1.
          1   -1    0    0  501    0  0.00000000000E+00 -0.00000000000E+00 -0.34625549920E+03  0.34625549920E+03  0.00000000000E+00 0. -1.
         25    2    1    2    0    0 -0.28780860691E+02  0.10848140161E+01 -0.14059556845E+03  0.19037844849E+03  0.12508926820E+03 0.  0.
         23    2    1    2    0    0  0.28780860691E+02 -0.10848140161E+01 -0.16834383799E+03  0.19319314348E+03  0.90301872265E+02 0.  0.
          5    1    3    3  502    0 -0.57776180845E+02  0.38998282314E+02 -0.43957184133E+02  0.82514601941E+02  0.41800000000E+01 0.  1.
         -5    1    3    3    0  502  0.28995320153E+02 -0.37913468298E+02 -0.96638384316E+02  0.10786384655E+03  0.41800000000E+01 0.  1.
        -11    1    4    4    0    0  0.51911225262E+02 -0.69884376868E+01 -0.49818085700E+02  0.72287310313E+02  0.00000000000E+00 0.  1.
         11    1    4    4    0    0 -0.23130364571E+02  0.59036236707E+01 -0.11852575229E+03  0.12090583316E+03  0.00000000000E+00 0. -1.
</event>
<event>
 8    1  0.6787197E-009  0.1059880E+03  0.7561462E-02  0.1268185E+00
          1   -1    0    0  501    0  0.00000000000E+00  0.00000000000E+00  0.33688305915E+03  0.33688305915E+03  0.00000000000E+00 0. -1.
         -1   -1    0    0    0  501 -0.00000000000E+00 -0.00000000000E+00 -0.71555099724E+02  0.71555099724E+02  0.00000000000E+00 0.  1.
         25    2    1    2    0    0 -0.48529895139E+02 -0.78828685671E+02  0.57656606394E+02  0.16594674295E+03  0.12507967392E+03 0.  0.
         23    2    1    2    0    0  0.48529895139E+02  0.78828685671E+02  0.20767135303E+03  0.24249141593E+03  0.84294623320E+02 0.  0.
          5    1    3    3  502    0 -0.56974335253E+02 -0.26052805901E+02 -0.24871658554E+02  0.67534401397E+02  0.41800000000E+01 0. -1.
         -5    1    3    3    0  502  0.84444401143E+01 -0.52775879771E+02  0.82528264948E+02  0.98412341552E+02  0.41800000000E+01 0. -1.
        -11    1    4    4    0    0  0.11453416466E+02  0.41146424032E+01 -0.56692525053E+01  0.13425775763E+02  0.00000000000E+00 0.  1.
         11    1    4    4    0    0  0.37076478673E+02  0.74714043268E+02  0.21334060554E+03  0.22906564017E+03  0.00000000000E+00 0. -1.
</event>
<event>
 8    1  0.6787197E-009  0.1156000E+03  0.7561462E-02  0.1250537E+00
         -1   -1    0    0    0  501 -0.00000000000E+00  0.00000000000E+00  0.22422322431E+03  0.22422322431E+03  0.00000000000E+00 0.  1.
          1   -1    0    0  501    0  0.00000000000E+00 -0.00000000000E+00 -0.60686779185E+02  0.60686779185E+02  0.00000000000E+00 0. -1.
         25    2    1    2    0    0  0.40901987188E+02 -0.13990801091E+02  0.99526250749E+02  0.16559350036E+03  0.12508803981E+03 0.  0.
         23    2    1    2    0    0 -0.40901987188E+02  0.13990801091E+02  0.64010194378E+02  0.11931650313E+03  0.90941782830E+02 0.  0.
          5    1    3    3  502    0  0.57639017304E+02  0.42572394942E+02  0.66561933995E+02  0.97890901436E+02  0.41800000000E+01 0. -1.
         -5    1    3    3    0  502 -0.16737030116E+02 -0.56563196033E+02  0.32964316754E+02  0.67702598928E+02  0.41800000000E+01 0. -1.
        -11    1    4    4    0    0 -0.39618341675E+02  0.50258245984E+02  0.45927013042E+02  0.78770519951E+02  0.00000000000E+00 0.  1.
         11    1    4    4    0    0 -0.12836455135E+01 -0.36267444893E+02  0.18083181336E+02  0.40545983181E+02  0.00000000000E+00 0. -1.
</event>
<event>
 8    1  0.6787197E-009  0.3413099E+03  0.7561462E-02  0.1066239E+00
         -1   -1    0    0    0  501 -0.00000000000E+00  0.00000000000E+00  0.44156286963E+03  0.44156286963E+03  0.00000000000E+00 0.  1.
          1   -1    0    0  501    0  0.00000000000E+00 -0.00000000000E+00 -0.47582175088E+03  0.47582175088E+03  0.00000000000E+00 0. -1.
         25    2    1    2    0    0  0.29652939992E+03 -0.15044346681E+03 -0.31332596664E+03  0.47369117025E+03  0.12508893510E+03 0.  0.
         23    2    1    2    0    0 -0.29652939992E+03  0.15044346681E+03  0.27906708538E+03  0.44369345026E+03  0.91774277094E+02 0.  0.
          5    1    3    3  502    0  0.22623899883E+03 -0.85101616991E+02 -0.15089004601E+03  0.28497657481E+03  0.41800000000E+01 0.  1.
         -5    1    3    3    0  502  0.70290401092E+02 -0.65341849822E+02 -0.16243592062E+03  0.18871459544E+03  0.41800000000E+01 0.  1.
        -11    1    4    4    0    0 -0.18357533744E+03  0.42204614399E+02  0.15863790633E+03  0.24626635848E+03  0.00000000000E+00 0.  1.
         11    1    4    4    0    0 -0.11295406248E+03  0.10823885241E+03  0.12042917905E+03  0.19742709178E+03  0.00000000000E+00 0. -1.
</event>
<event>
 8    1  0.6787197E-009  0.1348101E+03  0.7561462E-02  0.1220488E+00
          4   -1    0    0  501    0  0.00000000000E+00  0.00000000000E+00  0.14620673573E+03  0.14620673573E+03  0.00000000000E+00 0. -1.
         -4   -1    0    0    0  501 -0.00000000000E+00 -0.00000000000E+00 -0.14996589561E+03  0.14996589561E+03  0.00000000000E+00 0.  1.
         25    2    1    2    0    0 -0.36247184870E+02  0.91431694071E+02 -0.22758871320E+02  0.16074147120E+03  0.12508493614E+03 0.  0.
         23    2    1    2    0    0  0.36247184870E+02 -0.91431694071E+02  0.18999711442E+02  0.13543116014E+03  0.91142728788E+02 0.  0.
          5    1    3    3  502    0  0.22710833910E+02 -0.10520574840E+02  0.23072233719E+02  0.34296717636E+02  0.41800000000E+01 0. -1.
         -5    1    3    3    0  502 -0.58958018780E+02  0.10195226891E+03 -0.45831105039E+02  0.12644475356E+03  0.41800000000E+01 0. -1.
        -11    1    4    4    0    0  0.17972687739E+02 -0.10314010255E+03 -0.27154171958E+01  0.10472951709E+03  0.00000000000E+00 0.  1.
         11    1    4    4    0    0  0.18274497131E+02  0.11708408480E+02  0.21715128637E+02  0.30701643055E+02  0.00000000000E+00 0. -1.
</event>
<event>
 8    1  0.6787197E-009  0.9190449E+02  0.7561462E-02  0.1298304E+00
         -1   -1    0    0    0  501 -0.00000000000E+00  0.00000000000E+00  0.23988876909E+03  0.23988876909E+03  0.00000000000E+00 0.  1.
          1   -1    0    0  501    0  0.00000000000E+00 -0.00000000000E+00 -0.54950058102E+02  0.54950058102E+02  0.00000000000E+00 0. -1.
         25    2    1    2    0    0  0.65676537278E+01 -0.19719297322E+02  0.64676244138E+02  0.14234556529E+03  0.12508900288E+03 0.  0.
         23    2    1    2    0    0 -0.65676537278E+01  0.19719297322E+02  0.12026246685E+03  0.15249326190E+03  0.91428383061E+02 0.  0.
          5    1    3    3  502    0  0.33263784698E+02  0.44848439979E+02  0.20778805211E+02  0.59725146186E+02  0.41800000000E+01 0.  1.
         -5    1    3    3    0  502 -0.26696130970E+02 -0.64567737302E+02  0.43897438927E+02  0.82620419107E+02  0.41800000000E+01 0.  1.
        -11    1    4    4    0    0  0.23890548047E+02  0.90883679840E+01 -0.23870286116E+01  0.25672059212E+02  0.00000000000E+00 0. -1.
         11    1    4    4    0    0 -0.30458201774E+02  0.10630929339E+02  0.12264949546E+03  0.12682120269E+03  0.00000000000E+00 0.  1.
</event>
<event>
 8    1  0.6787197E-009  0.1021256E+03  0.7561462E-02  0.1275889E+00
         -2   -1    0    0    0  501 -0.00000000000E+00  0.00000000000E+00  0.80327424482E+02  0.80327424482E+02  0.00000000000E+00 0.  1.
          2   -1    0    0  501    0  0.00000000000E+00 -0.00000000000E+00 -0.14950711340E+03  0.14950711340E+03  0.00000000000E+00 0. -1.
         25    2    1    2    0    0 -0.56076618226E+00  0.21755588105E+02 -0.42037735638E+02  0.13374863702E+03  0.12509159290E+03 0.  0.
         23    2    1    2    0    0  0.56076618226E+00 -0.21755588105E+02 -0.27141953284E+02  0.96085900871E+02  0.89566705006E+02 0.  0.
          5    1    3    3  502    0 -0.48356253868E+02  0.37798282636E+02 -0.53896355995E+02  0.81788306303E+02  0.41800000000E+01 0.  1.
         -5    1    3    3    0  502  0.47795487686E+02 -0.16042694531E+02  0.11858620358E+02  0.51960330712E+02  0.41800000000E+01 0.  1.
        -11    1    4    4    0    0 -0.33583271435E+02  0.19309079432E+02 -0.10224323592E+02  0.40065115272E+02  0.00000000000E+00 0. -1.
         11    1    4    4    0    0  0.34144037618E+02 -0.41064667537E+02 -0.16917629691E+02  0.56020785599E+02  0.00000000000E+00 0.  1.
</event>
<event>
 8    1  0.6787197E-009  0.1075711E+03  0.7561462E-02  0.1265135E+00
         -2   -1    0    0    0  501 -0.00000000000E+00  0.00000000000E+00  0.88845957434E+02  0.88845957434E+02  0.00000000000E+00 0.  1.
          2   -1    0    0  501    0  0.00000000000E+00 -0.00000000000E+00 -0.16317976315E+03  0.16317976315E+03  0.00000000000E+00 0. -1.
         25    2    1    2    0    0 -0.34419462715E+02  0.47548715754E+02 -0.26145265363E+02  0.14062985171E+03  0.12509036937E+03 0.  0.
         23    2    1    2    0    0  0.34419462715E+02 -0.47548715754E+02 -0.48188540351E+02  0.11139586887E+03  0.81494321253E+02 0.  0.
          5    1    3    3  502    0  0.35730111799E+02  0.14288101304E+02 -0.46264290367E+02  0.60321204325E+02  0.41800000000E+01 0.  1.
         -5    1    3    3    0  502 -0.70149574514E+02  0.33260614450E+02  0.20119025004E+02  0.80308647388E+02  0.41800000000E+01 0.  1.
        -11    1    4    4    0    0 -0.13234668356E+02 -0.49255278010E+02 -0.14539856810E+02  0.53034387848E+02  0.00000000000E+00 0.  1.
         11    1    4    4    0    0  0.47654131072E+02  0.17065622566E+01 -0.33648683541E+02  0.58361481021E+02  0.00000000000E+00 0. -1.
</event>
<event>
 8    1  0.6787197E-009  0.1016633E+03  0.7561462E-02  0.1276837E+00
         -3   -1    0    0    0  501 -0.00000000000E+00  0.00000000000E+00  0.46722182274E+03  0.46722182274E+03  0.00000000000E+00 0.  1.
          3   -1    0    0  501    0  0.00000000000E+00 -0.00000000000E+00 -0.78311815893E+02  0.78311815893E+02  0.00000000000E+00 0. -1.
         25    2    1    2    0    0  0.28260650678E+02 -0.54993035245E+02  0.40891803579E+03  0.43206991860E+03  0.12509019250E+03 0.  0.
         23    2    1    2    0    0 -0.28260650678E+02  0.54993035245E+02 -0.20008028944E+02  0.11346372003E+03  0.93009656701E+02 0.  0.
          5    1    3    3  502    0 -0.41775426765E+02  0.50386783250E+00  0.70757866618E+02  0.82277507574E+02  0.41800000000E+01 0.  1.
         -5    1    3    3    0  502  0.70036077444E+02 -0.55496903077E+02  0.33816016917E+03  0.34979241103E+03  0.41800000000E+01 0.  1.
        -11    1    4    4    0    0 -0.16821538810E+02  0.57722034752E+02  0.26345185486E+02  0.65641955046E+02  0.00000000000E+00 0.  1.
         11    1    4    4    0    0 -0.11439111868E+02 -0.27289995077E+01 -0.46353214430E+02  0.47821764989E+02  0.00000000000E+00 0. -1.
</event>
<event>
 8    1  0.6787197E-009  0.2117857E+03  0.7561462E-02  0.1140160E+00
         -1   -1    0    0    0  501 -0.00000000000E+00  0.00000000000E+00  0.50298782200E+03  0.50298782200E+03  0.00000000000E+00 0.  1.
          1   -1    0    0  501    0  0.00000000000E+00 -0.00000000000E+00 -0.92577163320E+02  0.92577163320E+02  0.00000000000E+00 0. -1.
         25    2    1    2    0    0  0.41194555574E+02 -0.17762648988E+03  0.16694051034E+03  0.27707210242E+03  0.12510657310E+03 0.  0.
         23    2    1    2    0    0 -0.41194555574E+02  0.17762648988E+03  0.24347014834E+03  0.31849288290E+03  0.94402552981E+02 0.  0.
          5    1    3    3  502    0  0.77083180322E+02 -0.16586966947E+03  0.14240242614E+03  0.23184151334E+03  0.41800000000E+01 0. -1.
         -5    1    3    3    0  502 -0.35888624748E+02 -0.11756820412E+02  0.24538084193E+02  0.45230589078E+02  0.41800000000E+01 0. -1.
        -11    1    4    4    0    0 -0.55375716742E+02  0.51250190647E+02  0.11642063254E+03  0.13873289346E+03  0.00000000000E+00 0.  1.
         11    1    4    4    0    0  0.14181161167E+02  0.12637629923E+03  0.12704951581E+03  0.17975998945E+03  0.00000000000E+00 0. -1.
</event>
<event>
 8    1  0.6787197E-009  0.1565738E+03  0.7561462E-02  0.1192620E+00
          2   -1    0    0  501    0  0.00000000000E+00  0.00000000000E+00  0.11523322359E+04  0.11523322359E+04  0.00000000000E+00 0. -1.
         -2   -1    0    0    0  501 -0.00000000000E+00 -0.00000000000E+00 -0.24622167334E+02  0.24622167334E+02  0.00000000000E+00 0.  1.
         25    2    1    2    0    0 -0.11072332073E+03  0.62683488607E+02  0.60698799188E+03  0.63266891646E+03  0.12508661825E+03 0.  0.
         23    2    1    2    0    0  0.11072332073E+03 -0.62683488607E+02  0.52072207672E+03  0.54428548681E+03  0.94373388579E+02 0.  0.
          5    1    3    3  502    0 -0.92844496823E+01 -0.34858767732E+02  0.95968703210E+02  0.10260993660E+03  0.41800000000E+01 0. -1.
         -5    1    3    3    0  502 -0.10143887105E+03  0.97542256340E+02  0.51101928867E+03  0.53005897985E+03  0.41800000000E+01 0. -1.
        -11    1    4    4    0    0  0.16924191531E+02  0.78761657659E+01  0.11984443345E+02  0.22183082032E+02  0.00000000000E+00 0.  1.
         11    1    4    4    0    0  0.93799129202E+02 -0.70559654373E+02  0.50873763337E+03  0.52210240478E+03  0.00000000000E+00 0. -1.
</event>
<event>
 8    1  0.6787197E-009  0.1081787E+03  0.7561462E-02  0.1263980E+00
          1   -1    0    0  501    0  0.00000000000E+00  0.00000000000E+00  0.32272187646E+03  0.32272187646E+03  0.00000000000E+00 0. -1.
         -1   -1    0    0    0  501 -0.00000000000E+00 -0.00000000000E+00 -0.38561402714E+02  0.38561402714E+02  0.00000000000E+00 0.  1.
         25    2    1    2    0    0 -0.81912512695E+01 -0.10767199651E+02  0.20537830097E+03  0.24085446827E+03  0.12509036410E+03 0.  0.
         23    2    1    2    0    0  0.81912512695E+01  0.10767199651E+02  0.78782172770E+02  0.12042881090E+03  0.90074627743E+02 0.  0.
          5    1    3    3  502    0 -0.46385526271E+01 -0.68005121143E+02  0.11404528259E+03  0.13292859570E+03  0.41800000000E+01 0. -1.
         -5    1    3    3    0  502 -0.35526986424E+01  0.57237921492E+02  0.91333018379E+02  0.10792587257E+03  0.41800000000E+01 0. -1.
        -11    1    4    4    0    0  0.10175811218E+02  0.50130410052E+02  0.38073940168E+02  0.63766998250E+02  0.00000000000E+00 0. -1.
         11    1    4    4    0    0 -0.19845599482E+01 -0.39363210401E+02  0.40708232602E+02  0.56661812651E+02  0.00000000000E+00 0.  1.
</event>
<event>
 8    1  0.6787197E-009  0.1049437E+03  0.7561462E-02  0.1270231E+00
          2   -1    0    0  501    0  0.00000000000E+00  0.00000000000E+00  0.30365550542E+03  0.30365550542E+03  0.00000000000E+00 0.  1.
         -2   -1    0    0    0  501 -0.00000000000E+00 -0.00000000000E+00 -0.59352087875E+02  0.59352087875E+02  0.00000000000E+00 0. -1.
         25    2    1    2    0    0  0.52611321605E+02 -0.53022391518E+02  0.12273158963E+03  0.19050159856E+03  0.12509392789E+03 0.  0.
         23    2    1    2    0    0 -0.52611321605E+02  0.53022391518E+02  0.12157182791E+03  0.17250599474E+03  0.96949903122E+02 0.  0.
          5    1    3    3  502    0  0.10844612243E+02  0.31186308447E+02 -0.30509134446E+01  0.33421129875E+02  0.41800000000E+01 0.  1.
         -5    1    3    3    0  502  0.41766709361E+02 -0.84208699965E+02  0.12578250308E+03  0.15708046868E+03  0.41800000000E+01 0.  1.
        -11    1    4    4    0    0 -0.19744401736E+02  0.44314818346E+02  0.23945498534E+01  0.48573433006E+02  0.00000000000E+00 0. -1.
         11    1    4    4    0    0 -0.32866919868E+02  0.87075731719E+01  0.11917727806E+03  0.12393256173E+03  0.00000000000E+00 0.  1.
</event>
<event>
 8    1  0.6787197E-009  0.1180918E+03  0.7561462E-02  0.1246278E+00
         -2   -1    0    0    0  501 -0.00000000000E+00  0.00000000000E+00  0.21572180280E+02  0.21572180280E+02  0.00000000000E+00 0.  1.
          2   -1    0    0  501    0  0.00000000000E+00 -0.00000000000E+00 -0.10484158634E+04  0.10484158634E+04  0.00000000000E+00 0. -1.
         25    2    1    2    0    0 -0.13884703692E+02 -0.99262186267E+02 -0.64097402257E+03  0.66071256911E+03  0.12509050622E+03 0.  0.
         23    2    1    2    0    0  0.13884703692E+02  0.99262186267E+02 -0.38586966055E+03  0.40927547457E+03  0.92548649560E+02 0.  0.
          5    1    3    3  502    0 -0.24770068559E+02 -0.75472558289E+01 -0.20238722846E+02  0.33129981428E+02  0.41800000000E+01 0. -1.
         -5    1    3    3    0  502  0.10885364867E+02 -0.91714930438E+02 -0.62073529973E+03  0.62758258768E+03  0.41800000000E+01 0. -1.
        -11    1    4    4    0    0 -0.48982081176E+01  0.98584196810E+02 -0.37454349305E+03  0.38733146591E+03  0.00000000000E+00 0. -1.
         11    1    4    4    0    0  0.18782911809E+02  0.67798945683E+00 -0.11326167504E+02  0.21944008660E+02  0.00000000000E+00 0.  1.
</event>
<event>
 8    1  0.6787197E-009  0.8397558E+02  0.7561462E-02  0.1318133E+00
          1   -1    0    0  501    0  0.00000000000E+00  0.00000000000E+00  0.54129698019E+03  0.54129698019E+03  0.00000000000E+00 0. -1.
         -1   -1    0    0    0  501 -0.00000000000E+00 -0.00000000000E+00 -0.30828801807E+02  0.30828801807E+02  0.00000000000E+00 0.  1.
         25    2    1    2    0    0 -0.17045737574E+02  0.89050542962E+01  0.43408001383E+03  0.45215523275E+03  0.12509611877E+03 0.  0.
         23    2    1    2    0    0  0.17045737574E+02 -0.89050542962E+01  0.76388164550E+02  0.11997054925E+03  0.90487147387E+02 0.  0.
          5    1    3    3  502    0  0.27085390513E+02  0.15094508711E+02  0.23468458351E+02  0.39111424288E+02  0.41800000000E+01 0.  1.
         -5    1    3    3    0  502 -0.44131128087E+02 -0.61894544151E+01  0.41061155548E+03  0.41304380846E+03  0.41800000000E+01 0.  1.
        -11    1    4    4    0    0 -0.35391761430E+02 -0.16269953433E+02  0.39214761775E+02  0.55272829699E+02  0.00000000000E+00 0.  1.
         11    1    4    4    0    0  0.52437499004E+02  0.73648991371E+01  0.37173402775E+02  0.64697719550E+02  0.00000000000E+00 0. -1.
</event>
<event>
 8    1  0.6787197E-009  0.9645266E+02  0.7561462E-02  0.1287937E+00
         -2   -1    0    0    0  501 -0.00000000000E+00  0.00000000000E+00  0.16939448485E+02  0.16939448485E+02  0.00000000000E+00 0.  1.
          2   -1    0    0  501    0  0.00000000000E+00 -0.00000000000E+00 -0.75896355970E+03  0.75896355970E+03  0.00000000000E+00 0. -1.
         25    2    1    2    0    0  0.35947649095E+02 -0.60014617096E+01 -0.44761527395E+03  0.46619433653E+03  0.12509786139E+03 0.  0.
         23    2    1    2    0    0 -0.35947649095E+02  0.60014617096E+01 -0.29440883727E+03  0.30970867165E+03  0.88964300807E+02 0.  0.
          5    1    3    3  502    0  0.68859389442E+02 -0.74971842838E+01 -0.41077482964E+03  0.41659483477E+03  0.41800000000E+01 0. -1.
         -5    1    3    3    0  502 -0.32911740347E+02  0.14957225741E+01 -0.36840444306E+02  0.49599501765E+02  0.41800000000E+01 0. -1.
        -11    1    4    4    0    0 -0.10791478743E+01  0.40932908047E+02 -0.82179452330E+02  0.91815738883E+02  0.00000000000E+00 0. -1.
         11    1    4    4    0    0 -0.34868501220E+02 -0.34931446337E+02 -0.21222938494E+03  0.21789293277E+03  0.00000000000E+00 0.  1.
</event>
<event>
 8    1  0.6787197E-009  0.1069643E+03  0.7561462E-02  0.1266297E+00
          2   -1    0    0  501    0  0.00000000000E+00  0.00000000000E+00  0.65234605005E+03  0.65234605005E+03  0.00000000000E+00 0. -1.
         -2   -1    0    0    0  501 -0.00000000000E+00 -0.00000000000E+00 -0.24312727722E+02  0.24312727722E+02  0.00000000000E+00 0.  1.
         25    2    1    2    0    0 -0.61807695934E+02 -0.13666968867E+02  0.34235866313E+03  0.36995450569E+03  0.12509957932E+03 0.  0.
         23    2    1    2    0    0  0.61807695934E+02  0.13666968867E+02  0.28567465920E+03  0.30670427209E+03  0.91926722402E+02 0.  0.
          5    1    3    3  502    0 -0.88828906919E+02  0.22850486115E+02  0.19194052840E+03  0.21277067059E+03  0.41800000000E+01 0.  1.
         -5    1    3    3    0  502  0.27021210985E+02 -0.36517454982E+02  0.15041813472E+03  0.15718383509E+03  0.41800000000E+01 0.  1.
        -11    1    4    4    0    0 -0.37486338293E+01  0.10175193047E+02 -0.25151588944E+01  0.11131614142E+02  0.00000000000E+00 0.  1.
         11    1    4    4    0    0  0.65556329763E+02  0.34917758200E+01  0.28818981810E+03  0.29557265795E+03  0.00000000000E+00 0. -1.
</event>
<event>
 8    1  0.6787197E-009  0.1709175E+03  0.7561462E-02  0.1176894E+00
         -2   -1    0    0    0  501 -0.00000000000E+00  0.00000000000E+00  0.72827850989E+02  0.72827850989E+02  0.00000000000E+00 0. -1.
          2   -1    0    0  501    0  0.00000000000E+00 -0.00000000000E+00 -0.49144360101E+03  0.49144360101E+03  0.00000000000E+00 0.  1.
         25    2    1    2    0    0 -0.11587737398E+03 -0.88053679826E+02 -0.14261634237E+03  0.23909836187E+03  0.12509032419E+03 0.  0.
         23    2    1    2    0    0  0.11587737398E+03  0.88053679826E+02 -0.27599940765E+03  0.32517309013E+03  0.91546978045E+02 0.  0.
          5    1    3    3  502    0 -0.12649322132E+03 -0.28588269149E+02 -0.82406603371E+02  0.15370798564E+03  0.41800000000E+01 0.  1.
         -5    1    3    3    0  502  0.10615847333E+02 -0.59465410677E+02 -0.60209739003E+02  0.85390376228E+02  0.41800000000E+01 0.  1.
        -11    1    4    4    0    0  0.51950657349E+02  0.65818763274E+02 -0.72958297419E+02  0.11114807043E+03  0.00000000000E+00 0. -1.
         11    1    4    4    0    0  0.63926716633E+02  0.22234916552E+02 -0.20304111023E+03  0.21402501970E+03  0.00000000000E+00 0.  1.
</event>
<event>
 8    1  0.6787197E-009  0.7781064E+02  0.7561462E-02  0.1335382E+00
         -2   -1    0    0    0  501 -0.00000000000E+00  0.00000000000E+00  0.14592158039E+03  0.14592158039E+03  0.00000000000E+00 0.  1.
          2   -1    0    0  501    0  0.00000000000E+00 -0.00000000000E+00 -0.96959120788E+02  0.96959120788E+02  0.00000000000E+00 0. -1.
         25    2    1    2    0    0  0.70698847887E+01 -0.42392407309E+02  0.50806137184E+02  0.14169183229E+03  0.12509281472E+03 0.  0.
         23    2    1    2    0    0 -0.70698847887E+01  0.42392407309E+02 -0.18436775820E+01  0.10118886888E+03  0.91589784204E+02 0.  0.
          5    1    3    3  502    0  0.56780275749E+00 -0.47344600916E+02 -0.32692714135E+02  0.57689856937E+02  0.41800000000E+01 0. -1.
         -5    1    3    3    0  502  0.65020820312E+01  0.49521936075E+01  0.83498851320E+02  0.84001975358E+02  0.41800000000E+01 0. -1.
        -11    1    4    4    0    0  0.32252495699E+02  0.49371036876E+02 -0.11542514906E+02  0.60091200782E+02  0.00000000000E+00 0. -1.
         11    1    4    4    0    0 -0.39322380488E+02 -0.69786295678E+01  0.96988373243E+01  0.41097668101E+02  0.00000000000E+00 0.  1.
</event>
<event>
 8    1  0.6787197E-009  0.1175882E+03  0.7561462E-02  0.1247130E+00
          1   -1    0    0  501    0  0.00000000000E+00  0.00000000000E+00  0.31751945215E+03  0.31751945215E+03  0.00000000000E+00 0. -1.
         -1   -1    0    0    0  501 -0.00000000000E+00 -0.00000000000E+00 -0.67657132808E+02  0.67657132808E+02  0.00000000000E+00 0.  1.
         25    2    1    2    0    0 -0.38680623902E+02 -0.79363270947E+02  0.88277303342E+02  0.17673662124E+03  0.12509289173E+03 0.  0.
         23    2    1    2    0    0  0.38680623902E+02  0.79363270947E+02  0.16158501600E+03  0.20843996372E+03  0.97687162092E+02 0.  0.
          5    1    3    3  502    0 -0.90400957811E+01 -0.72816694950E+02  0.11473345447E+03  0.13625429303E+03  0.41800000000E+01 0.  1.
         -5    1    3    3    0  502 -0.29640528121E+02 -0.65465759971E+01 -0.26456151129E+02  0.40482328208E+02  0.41800000000E+01 0.  1.
        -11    1    4    4    0    0  0.90995230027E+00  0.91395181107E+02  0.10302494363E+03  0.13772452996E+03  0.00000000000E+00 0. -1.
         11    1    4    4    0    0  0.37770671602E+02 -0.12031910160E+02  0.58560072370E+02  0.70715433756E+02  0.00000000000E+00 0.  1.
</event>
<event>
 8    1  0.6787197E-009  0.1546154E+03  0.7561462E-02  0.1194914E+00
          1   -1    0    0  501    0  0.00000000000E+00  0.00000000000E+00  0.15633762527E+03  0.15633762527E+03  0.00000000000E+00 0. -1.
         -1   -1    0    0    0  501 -0.00000000000E+00 -0.00000000000E+00 -0.21040834663E+03  0.21040834663E+03  0.00000000000E+00 0.  1.
         25    2    1    2    0    0 -0.10475540287E+03  0.92926273042E+02  0.83175747009E+01  0.18794675651E+03  0.12508323062E+03 0.  0.
         23    2    1    2    0    0  0.10475540287E+03 -0.92926273042E+02 -0.62388296063E+02  0.17879921540E+03  0.92021048076E+02 0.  0.
          5    1    3    3  502    0 -0.10602140952E+03  0.71408200837E+02 -0.40717526813E+02  0.13422019153E+03  0.41800000000E+01 0. -1.
         -5    1    3    3    0  502  0.12660066530E+01  0.21518072205E+02  0.49035101514E+02  0.53726564982E+02  0.41800000000E+01 0. -1.
        -11    1    4    4    0    0  0.42236358281E+02 -0.86837254651E+02 -0.64200388791E+02  0.11595821953E+03  0.00000000000E+00 0.  1.
         11    1    4    4    0    0  0.62519044588E+02 -0.60890183909E+01  0.18120927275E+01  0.62840995864E+02  0.00000000000E+00 0. -1.
</event>
<event>
 8    1  0.6787197E-009  0.1043930E+03  0.7561462E-02  0.1271320E+00
         -2   -1    0    0    0  501 -0.00000000000E+00  0.00000000000E+00  0.12091443992E+03  0.12091443992E+03  0.00000000000E+00 0.  1.
          2   -1    0    0  501    0  0.00000000000E+00 -0.00000000000E+00 -0.12268775705E+03  0.12268775705E+03  0.00000000000E+00 0. -1.
         25    2    1    2    0    0  0.77617363525E+01  0.74969246206E+01 -0.56261140427E+02  0.13758216638E+03  0.12508832141E+03 0.  0.
         23    2    1    2    0    0 -0.77617363525E+01 -0.74969246206E+01  0.54487823297E+02  0.10602003058E+03  0.90304349657E+02 0.  0.
          5    1    3    3  502    0 -0.55830513614E+02  0.21364905679E+02 -0.32479016301E+02  0.68160577645E+02  0.41800000000E+01 0.  1.
         -5    1    3    3    0  502  0.63592249967E+02 -0.13867981058E+02 -0.23782124126E+02  0.69421588734E+02  0.41800000000E+01 0.  1.
        -11    1    4    4    0    0 -0.92045591475E+01 -0.45089796317E+02  0.88290736578E+01  0.46859003219E+02  0.00000000000E+00 0. -1.
         11    1    4    4    0    0  0.14428227950E+01  0.37592871697E+02  0.45658749639E+02  0.59161027363E+02  0.00000000000E+00 0.  1.
</event>
<event>
 8    1  0.6787197E-009  0.2235172E+03  0.7561462E-02  0.1131288E+00
         -1   -1    0    0    0  501 -0.00000000000E+00  0.00000000000E+00  0.33632472997E+02  0.33632472997E+02  0.00000000000E+00 0.  1.
          1   -1    0    0  501    0  0.00000000000E+00 -0.00000000000E+00 -0.18874683657E+04  0.18874683657E+04  0.00000000000E+00 0. -1.
         25    2    1    2    0    0 -0.87418019561E+02  0.18002894858E+03 -0.13885594995E+04  0.14084747907E+04  0.12510563517E+03 0.  0.
         23    2    1    2    0    0  0.87418019561E+02 -0.18002894858E+03 -0.46527639315E+03  0.51262604793E+03  0.79063332368E+02 0.  0.
          5    1    3    3  502    0 -0.75288537312E+02  0.28385082732E+02 -0.59767894918E+03  0.60308513119E+03  0.41800000000E+01 0. -1.
         -5    1    3    3    0  502 -0.12129482249E+02  0.15164386584E+03 -0.79088055034E+03  0.80538965954E+03  0.41800000000E+01 0. -1.
        -11    1    4    4    0    0 -0.14308565001E+02 -0.18527275721E+02 -0.67088516086E+02  0.71055358479E+02  0.00000000000E+00 0. -1.
         11    1    4    4    0    0  0.10172658456E+03 -0.16150167286E+03 -0.39818787707E+03  0.44157068945E+03  0.00000000000E+00 0.  1.
</event>
<event>
 8    1  0.6787197E-009  0.6468883E+02  0.7561462E-02  0.1379146E+00
          2   -1    0    0  501    0  0.00000000000E+00  0.00000000000E+00  0.70316138413E+02  0.70316138413E+02  0.00000000000E+00 0. -1.
         -2   -1    0    0    0  501 -0.00000000000E+00 -0.00000000000E+00 -0.16727821454E+03  0.16727821454E+03  0.00000000000E+00 0.  1.
         25    2    1    2    0    0 -0.26578616341E+01 -0.34523091849E+01 -0.67033074270E+02  0.14198378063E+03  0.12508788210E+03 0.  0.
         23    2    1    2    0    0  0.26578616341E+01  0.34523091849E+01 -0.29929001854E+02  0.95610572325E+02  0.90700902537E+02 0.  0.
          5    1    3    3  502    0 -0.16537802981E+02 -0.36624376419E+02 -0.90316688348E+02  0.98941500239E+02  0.41800000000E+01 0. -1.
         -5    1    3    3    0  502  0.13879941347E+02  0.33172067234E+02  0.23283614077E+02  0.43042280387E+02  0.41800000000E+01 0. -1.
        -11    1    4    4    0    0 -0.16922213252E+02  0.20661455260E+02 -0.53927332449E+02  0.60178187243E+02  0.00000000000E+00 0.  1.
         11    1    4    4    0    0  0.19580074886E+02 -0.17209146075E+02  0.23998330595E+02  0.35432385081E+02  0.00000000000E+00 0. -1.
</event>
<event>
 8    1  0.6787197E-009  0.1299244E+03  0.7561462E-02  0.1227568E+00
          2   -1    0    0  501    0  0.00000000000E+00  0.00000000000E+00  0.74164227931E+02  0.74164227931E+02  0.00000000000E+00 0.  1.
         -2   -1    0    0    0  501 -0.00000000000E+00 -0.00000000000E+00 -0.30002035299E+03  0.30002035299E+03  0.00000000000E+00 0. -1.
         25    2    1    2    0    0 -0.61054366768E+02 -0.62707925090E+02 -0.18344546639E+03  0.23866449468E+03  0.12509429368E+03 0.  0.
         23    2    1    2    0    0  0.61054366768E+02  0.62707925090E+02 -0.42410658662E+02  0.13552008624E+03  0.94377487967E+02 0.  0.
          5    1    3    3  502    0 -0.57230293366E+02 -0.97920135640E+02 -0.15929698801E+03  0.19559310374E+03  0.41800000000E+01 0.  1.
         -5    1    3    3    0  502 -0.38240734024E+01  0.35212210550E+02 -0.24148478386E+02  0.43071390941E+02  0.41800000000E+01 0.  1.
        -11    1    4    4    0    0  0.41260786480E+02  0.76255550691E+02 -0.60289511304E+02  0.10560391416E+03  0.00000000000E+00 0. -1.
         11    1    4    4    0    0  0.19793580288E+02 -0.13547625602E+02  0.17878852642E+02  0.29916172079E+02  0.00000000000E+00 0.  1.
</event>
<event>
 8    1  0.6787197E-009  0.1349724E+03  0.7561462E-02  0.1220259E+00
         -2   -1    0    0    0  501 -0.00000000000E+00  0.00000000000E+00  0.45869324060E+02  0.45869324060E+02  0.00000000000E+00 0.  1.
          2   -1    0    0  501    0  0.00000000000E+00 -0.00000000000E+00 -0.58022445864E+03  0.58022445864E+03  0.00000000000E+00 0. -1.
         25    2    1    2    0    0  0.17913162600E+02 -0.10820703824E+03 -0.38746989925E+03  0.42167515937E+03  0.12508945874E+03 0.  0.
         23    2    1    2    0    0 -0.17913162600E+02  0.10820703824E+03 -0.14688523534E+03  0.20441862334E+03  0.90454721746E+02 0.  0.
          5    1    3    3  502    0 -0.18981512172E+02  0.13877492576E+02 -0.15612879491E+02  0.28532735771E+02  0.41800000000E+01 0.  1.
         -5    1    3    3    0  502  0.36894674772E+02 -0.12208453082E+03 -0.37185701975E+03  0.39314242360E+03  0.41800000000E+01 0.  1.
        -11    1    4    4    0    0 -0.32537200462E+02  0.85128760401E+02 -0.15141311503E+03  0.17672438050E+03  0.00000000000E+00 0. -1.
         11    1    4    4    0    0  0.14624037862E+02  0.23078277843E+02  0.45278796911E+01  0.27694242832E+02  0.00000000000E+00 0.  1.
</event>
<event>
 8    1  0.6787197E-009  0.5686807E+02  0.7561462E-02  0.1411466E+00
         -2   -1    0    0    0  501 -0.00000000000E+00  0.00000000000E+00  0.28140104043E+03  0.28140104043E+03  0.00000000000E+00 0.  1.
          2   -1    0    0  501    0  0.00000000000E+00 -0.00000000000E+00 -0.43278942149E+02  0.43278942149E+02  0.00000000000E+00 0. -1.
         25    2    1    2    0    0  0.41153535741E+01 -0.11408315734E+02  0.16205769653E+03  0.20507825581E+03  0.12508920096E+03 0.  0.
         23    2    1    2    0    0 -0.41153535741E+01  0.11408315734E+02  0.76064401753E+02  0.11960172677E+03  0.91496961864E+02 0.  0.
          5    1    3    3  502    0 -0.26416597505E+02  0.16286580850E+02  0.16059519828E+03  0.16361961817E+03  0.41800000000E+01 0. -1.
         -5    1    3    3    0  502  0.30531951079E+02 -0.27694896584E+02  0.14624982488E+01  0.41458637636E+02  0.41800000000E+01 0. -1.
        -11    1    4    4    0    0  0.30881836201E+01 -0.14125373049E+02 -0.17296750441E+02  0.22544192548E+02  0.00000000000E+00 0. -1.
         11    1    4    4    0    0 -0.72035371942E+01  0.25533688783E+02  0.93361152194E+02  0.97057534226E+02  0.00000000000E+00 0.  1.
</event>
<event>
 8    1  0.6787197E-009  0.1656147E+03  0.7561462E-02  0.1182500E+00
          2   -1    0    0  501    0  0.00000000000E+00  0.00000000000E+00  0.29600799022E+02  0.29600799022E+02  0.00000000000E+00 0.  1.
         -2   -1    0    0    0  501 -0.00000000000E+00 -0.00000000000E+00 -0.10253340134E+04  0.10253340134E+04  0.00000000000E+00 0. -1.
         25    2    1    2    0    0 -0.59173557750E+02 -0.11262710035E+03 -0.66604596812E+03  0.68952958473E+03  0.12508973937E+03 0.  0.
         23    2    1    2    0    0  0.59173557750E+02  0.11262710035E+03 -0.32968724626E+03  0.36540522769E+03  0.92956583477E+02 0.  0.
          5    1    3    3  502    0  0.36530937782E+02 -0.29790854115E+02 -0.12009837249E+03  0.12908561453E+03  0.41800000000E+01 0.  1.
         -5    1    3    3    0  502 -0.95704495532E+02 -0.82836246231E+02 -0.54594759563E+03  0.56044397020E+03  0.41800000000E+01 0.  1.
        -11    1    4    4    0    0 -0.76468016166E+01  0.84365450973E+02 -0.18885591504E+03  0.20698444275E+03  0.00000000000E+00 0.  1.
         11    1    4    4    0    0  0.66820359367E+02  0.28261649373E+02 -0.14083133121E+03  0.15842078495E+03  0.00000000000E+00 0. -1.
</event>
<event>
 8    1  0.6787197E-009  0.7706493E+02  0.7561462E-02  0.1337593E+00
          3   -1    0    0  501    0  0.00000000000E+00  0.00000000000E+00  0.67566716440E+02  0.67566716440E+02  0.00000000000E+00 0. -1.
         -3   -1    0    0    0  501 -0.00000000000E+00 -0.00000000000E+00 -0.18632283979E+03  0.18632283979E+03  0.00000000000E+00 0.  1.
         25    2    1    2    0    0  0.94564009636E+01  0.28124633861E+02 -0.54899397386E+02  0.13979246263E+03  0.12509024833E+03 0.  0.
         23    2    1    2    0    0 -0.94564009636E+01 -0.28124633861E+02 -0.63856725964E+02  0.11409709360E+03  0.89777763214E+02 0.  0.
          5    1    3    3  502    0  0.20614682364E+02 -0.17069374880E+02  0.31509566620E+02  0.41553024876E+02  0.41800000000E+01 0. -1.
         -5    1    3    3    0  502 -0.11158281400E+02  0.45194008741E+02 -0.86408964007E+02  0.98239437756E+02  0.41800000000E+01 0. -1.
        -11    1    4    4    0    0  0.22803762046E+02  0.14367115456E+02 -0.53278855817E+02  0.59708140544E+02  0.00000000000E+00 0.  1.
         11    1    4    4    0    0 -0.32260163010E+02 -0.42491749318E+02 -0.10577870147E+02  0.54388953054E+02  0.00000000000E+00 0. -1.
</event>
<event>
 8    1  0.6787197E-009  0.1074393E+03  0.7561462E-02  0.1265387E+00
         -1   -1    0    0    0  501 -0.00000000000E+00  0.00000000000E+00  0.13839280677E+03  0.13839280677E+03  0.00000000000E+00 0.  1.
          1   -1    0    0  501    0  0.00000000000E+00 -0.00000000000E+00 -0.14334969430E+03  0.14334969430E+03  0.00000000000E+00 0. -1.
         25    2    1    2    0    0 -0.68561717924E+02  0.98613595455E+01  0.54123681337E+02  0.15288785997E+03  0.12508944507E+03 0.  0.
         23    2    1    2    0    0  0.68561717924E+02 -0.98613595455E+01 -0.59080568867E+02  0.12885464110E+03  0.91186892365E+02 0.  0.
          5    1    3    3  502    0 -0.10668944722E+02 -0.49421593149E+02  0.47761235094E+02  0.69677315021E+02  0.41800000000E+01 0. -1.
         -5    1    3    3    0  502 -0.57892773202E+02  0.59282952694E+02  0.63624462435E+01  0.83210544953E+02  0.41800000000E+01 0. -1.
        -11    1    4    4    0    0  0.13979955029E+02 -0.21236243004E+02 -0.67811157600E+02  0.72420786067E+02  0.00000000000E+00 0. -1.
         11    1    4    4    0    0  0.54581762896E+02  0.11374883459E+02  0.87305887332E+01  0.56433855035E+02  0.00000000000E+00 0.  1.
</event>
<event>
 8    1  0.6787197E-009  0.1435250E+03  0.7561462E-02  0.1208663E+00
         -2   -1    0    0    0  501 -0.00000000000E+00  0.00000000000E+00  0.78050418722E+02  0.78050418722E+02  0.00000000000E+00 0.  1.
          2   -1    0    0  501    0  0.00000000000E+00 -0.00000000000E+00 -0.27497149848E+03  0.27497149848E+03  0.00000000000E+00 0. -1.
         25    2    1    2    0    0  0.41851315403E+01 -0.93037689077E+02 -0.12550672837E+03  0.20018424749E+03  0.12509303402E+03 0.  0.
         23    2    1    2    0    0 -0.41851315403E+01  0.93037689077E+02 -0.71414351387E+02  0.15283766972E+03  0.97907184545E+02 0.  0.
          5    1    3    3  502    0  0.53195056515E+02 -0.90735400452E+02 -0.97796719384E+02  0.14368123627E+03  0.41800000000E+01 0.  1.
         -5    1    3    3    0  502 -0.49009924975E+02 -0.23022886242E+01 -0.27710008990E+02  0.56503011222E+02  0.41800000000E+01 0.  1.
        -11    1    4    4    0    0 -0.42225029750E+02  0.13417432548E+02 -0.10262362944E+02  0.45478530394E+02  0.00000000000E+00 0.  1.
         11    1    4    4    0    0  0.38039898210E+02  0.79620256529E+02 -0.61151988443E+02  0.10735913932E+03  0.00000000000E+00 0. -1.
</event>
<event>
 8    1  0.6787197E-009  0.1199357E+03  0.7561462E-02  0.1243203E+00
         -2   -1    0    0    0  501 -0.00000000000E+00  0.00000000000E+00  0.49115923836E+03  0.49115923836E+03  0.00000000000E+00 0. -1.
          2   -1    0    0  501    0  0.00000000000E+00 -0.00000000000E+00 -0.37288434796E+02  0.37288434796E+02  0.00000000000E+00 0.  1.
         25    2    1    2    0    0 -0.28540413512E+02  0.75217141722E+02  0.26106500827E+03  0.30045756172E+03  0.12509050419E+03 0.  0.
         23    2    1    2    0    0  0.28540413512E+02 -0.75217141722E+02  0.19280579528E+03  0.22799011143E+03  0.91286595955E+02 0.  0.
          5    1    3    3  502    0  0.29120964800E+02 -0.21218886620E+02  0.65615399132E+02  0.74974160506E+02  0.41800000000E+01 0.  1.
         -5    1    3    3    0  502 -0.57661378312E+02  0.96436028342E+02  0.19544960914E+03  0.22548340122E+03  0.41800000000E+01 0.  1.
        -11    1    4    4    0    0  0.25363051386E+02 -0.12344299221E+02  0.14813906080E+03  0.15080068778E+03  0.00000000000E+00 0. -1.
         11    1    4    4    0    0  0.31773621259E+01 -0.62872842501E+02  0.44666734485E+02  0.77189423653E+02  0.00000000000E+00 0.  1.
</event>
<event>
 8    1  0.6787197E-009  0.9863186E+02  0.7561462E-02  0.1283200E+00
          1   -1    0    0  501    0  0.00000000000E+00  0.00000000000E+00  0.28138007688E+02  0.28138007688E+02  0.00000000000E+00 0. -1.
         -1   -1    0    0    0  501 -0.00000000000E+00 -0.00000000000E+00 -0.55249031506E+03  0.55249031506E+03  0.00000000000E+00 0.  1.
         25    2    1    2    0    0 -0.21482544929E+02 -0.51465623143E+02 -0.20664583994E+03  0.24791174761E+03  0.12509005291E+03 0.  0.
         23    2    1    2    0    0  0.21482544929E+02  0.51465623143E+02 -0.31770646743E+03  0.33271657513E+03  0.81564145444E+02 0.  0.
          5    1    3    3  502    0  0.57881202573E+01  0.20400709191E+02  0.54394705590E+01  0.22287922998E+02  0.41800000000E+01 0.  1.
         -5    1    3    3    0  502 -0.27270665187E+02 -0.71866332334E+02 -0.21208531050E+03  0.22562382461E+03  0.41800000000E+01 0.  1.
        -11    1    4    4    0    0  0.51804769967E+02  0.42620118402E+02 -0.20764611175E+03  0.21821346523E+03  0.00000000000E+00 0. -1.
         11    1    4    4    0    0 -0.30322225038E+02  0.88455047410E+01 -0.11006035568E+03  0.11450310990E+03  0.00000000000E+00 0.  1.
</event>
<event>
 8    1  0.6787197E-009  0.1262328E+03  0.7561462E-02  0.1233155E+00
         -2   -1    0    0    0  501 -0.00000000000E+00  0.00000000000E+00  0.24263206568E+03  0.24263206568E+03  0.00000000000E+00 0.  1.
          2   -1    0    0  501    0  0.00000000000E+00 -0.00000000000E+00 -0.77205672364E+02  0.77205672364E+02  0.00000000000E+00 0. -1.
         25    2    1    2    0    0  0.79447987914E+02 -0.21039833813E+02  0.71624006578E+02  0.16593308169E+03  0.12509649031E+03 0.  0.
         23    2    1    2    0    0 -0.79447987914E+02  0.21039833813E+02  0.93802386740E+02  0.15390465636E+03  0.90183690880E+02 0.  0.
          5    1    3    3  502    0 -0.32357751132E+02 -0.40532397885E+01  0.32407636308E+02  0.46164706239E+02  0.41800000000E+01 0.  1.
         -5    1    3    3    0  502  0.11180573905E+03 -0.16986594025E+02  0.39216370270E+02  0.11976837545E+03  0.41800000000E+01 0.  1.
        -11    1    4    4    0    0 -0.21928346319E+02  0.40202814112E+02  0.79289753256E+02  0.91564095617E+02  0.00000000000E+00 0.  1.
         11    1    4    4    0    0 -0.57519641595E+02 -0.19162980299E+02  0.14512633484E+02  0.62340560743E+02  0.00000000000E+00 0. -1.
</event>
<event>
 8    1  0.6787197E-009  0.1487238E+03  0.7561462E-02  0.1202050E+00
          4   -1    0    0  501    0  0.00000000000E+00  0.00000000000E+00  0.32384926919E+03  0.32384926919E+03  0.00000000000E+00 0. -1.
         -4   -1    0    0    0  501 -0.00000000000E+00 -0.00000000000E+00 -0.83307776651E+02  0.83307776651E+02  0.00000000000E+00 0.  1.
         25    2    1    2    0    0  0.38720600547E+02 -0.10459334187E+03  0.19242699382E+03  0.25517505735E+03  0.12508840822E+03 0.  0.
         23    2    1    2    0    0 -0.38720600547E+02  0.10459334187E+03  0.48114498714E+02  0.15198198849E+03  0.91348058375E+02 0.  0.
          5    1    3    3  502    0 -0.68950771127E+01  0.22504691091E+02  0.65802983637E+02  0.70010772492E+02  0.41800000000E+01 0.  1.
         -5    1    3    3    0  502  0.45615677660E+02 -0.12709803296E+03  0.12662401019E+03  0.18516428486E+03  0.41800000000E+01 0.  1.
        -11    1    4    4    0    0 -0.55929848157E+02  0.33282909790E+02  0.15668505105E+01  0.65102649865E+02  0.00000000000E+00 0.  1.
         11    1    4    4    0    0  0.17209247610E+02  0.71310432079E+02  0.46547648204E+02  0.86879338625E+02  0.00000000000E+00 0. -1.
</event>
<event>
 8    1  0.6787197E-009  0.1615696E+03  0.7561462E-02  0.1186936E+00
         -2   -1    0    0    0  501 -0.00000000000E+00  0.00000000000E+00  0.51194097888E+03  0.51194097888E+03  0.00000000000E+00 0. -1.
          2   -1    0    0  501    0  0.00000000000E+00 -0.00000000000E+00 -0.60966735997E+02  0.60966735997E+02  0.00000000000E+00 0.  1.
         25    2    1    2    0    0 -0.51849649288E+02 -0.11172122927E+03  0.13543439264E+03  0.22172196172E+03  0.12509250337E+03 0.  0.
         23    2    1    2    0    0  0.51849649288E+02  0.11172122927E+03  0.31553985024E+03  0.35118575316E+03  0.92714707189E+02 0.  0.
          5    1    3    3  502    0  0.37363171849E+02 -0.23134144290E+02  0.12609140261E+02  0.45909237206E+02  0.41800000000E+01 0. -1.
         -5    1    3    3    0  502 -0.89212821137E+02 -0.88587084975E+02  0.12282525238E+03  0.17581272452E+03  0.41800000000E+01 0. -1.
        -11    1    4    4    0    0  0.54709686704E+01  0.10637526006E+03  0.23665736984E+03  0.25952329019E+03  0.00000000000E+00 0.  1.
         11    1    4    4    0    0  0.46378680618E+02  0.53459692026E+01  0.78882480401E+02  0.91662462964E+02  0.00000000000E+00 0. -1.
</event>
<event>
 8    1  0.6787197E-009  0.1330787E+03  0.7561462E-02  0.1222958E+00
         -1   -1    0    0    0  501 -0.00000000000E+00  0.00000000000E+00  0.17308645528E+03  0.17308645528E+03  0.00000000000E+00 0.  1.
          1   -1    0    0  501    0  0.00000000000E+00 -0.00000000000E+00 -0.15611600305E+03  0.15611600305E+03  0.00000000000E+00 0. -1.
         25    2    1    2    0    0  0.48412437777E+02 -0.10547217647E+03 -0.36515578835E+02  0.17449346389E+03  0.12508571982E+03 0.  0.
         23    2    1    2    0    0 -0.48412437777E+02  0.10547217647E+03  0.53486031064E+02  0.15470899444E+03  0.87212231364E+02 0.  0.
          5    1    3    3  502    0  0.69767330016E+02 -0.39240123169E+02 -0.60869393218E+02  0.10064702199E+03  0.41800000000E+01 0.  1.
         -5    1    3    3    0  502 -0.21354892238E+02 -0.66232053305E+02  0.24353814383E+02  0.73846441908E+02  0.41800000000E+01 0.  1.
        -11    1    4    4    0    0 -0.39289854844E+02  0.77929495174E+02  0.77752065393E+02  0.11688491171E+03  0.00000000000E+00 0.  1.
         11    1    4    4    0    0 -0.91225829336E+01  0.27542681300E+02 -0.24266034328E+02  0.37824082733E+02  0.00000000000E+00 0. -1.
</event>
<event>
 8    1  0.6787197E-009  0.1144087E+03  0.7561462E-02  0.1252617E+00
         -1   -1    0    0    0  501 -0.00000000000E+00  0.00000000000E+00  0.53393252247E+03  0.53393252247E+03  0.00000000000E+00 0.  1.
          1   -1    0    0  501    0  0.00000000000E+00 -0.00000000000E+00 -0.31162289912E+02  0.31162289912E+02  0.00000000000E+00 0. -1.
         25    2    1    2    0    0  0.90691093593E+01  0.38885136837E+02  0.15354039692E+03  0.20203196351E+03  0.12509179901E+03 0.  0.
         23    2    1    2    0    0 -0.90691093593E+01 -0.38885136837E+02  0.34922983564E+03  0.36306284888E+03  0.90878223597E+02 0.  0.
          5    1    3    3  502    0 -0.18301751197E+02  0.78857797996E+02  0.80158816343E+02  0.11400181858E+03  0.41800000000E+01 0. -1.
         -5    1    3    3    0  502  0.27370860556E+02 -0.39972661159E+02  0.73381580578E+02  0.88030144927E+02  0.41800000000E+01 0. -1.
        -11    1    4    4    0    0  0.40793766054E+02 -0.12216928396E+02  0.14079366330E+03  0.14709262494E+03  0.00000000000E+00 0. -1.
         11    1    4    4    0    0 -0.49862875413E+02 -0.26668208441E+02  0.20843617234E+03  0.21597022394E+03  0.00000000000E+00 0.  1.
</event>
<event>
 8    1  0.6787197E-009  0.9342489E+02  0.7561462E-02  0.1294764E+00
         -1   -1    0    0    0  501 -0.00000000000E+00  0.00000000000E+00  0.18179373900E+03  0.18179373900E+03  0.00000000000E+00 0.  1.
          1   -1    0    0  501    0  0.00000000000E+00 -0.00000000000E+00 -0.10189218484E+03  0.10189218484E+03  0.00000000000E+00 0. -1.
         25    2    1    2    0    0  0.60095053631E+02 -0.49094429531E+02  0.14656657771E+02  0.14793193609E+03  0.12508941448E+03 0.  0.
         23    2    1    2    0    0 -0.60095053631E+02  0.49094429531E+02  0.65244896388E+02  0.13575398776E+03  0.90280508444E+02 0.  0.
          5    1    3    3  502    0  0.31679565059E+02 -0.14996819379E+02  0.69082195453E+02  0.77577841955E+02  0.41800000000E+01 0. -1.
         -5    1    3    3    0  502  0.28415488573E+02 -0.34097610152E+02 -0.54425537682E+02  0.70354094130E+02  0.41800000000E+01 0. -1.
        -11    1    4    4    0    0 -0.20103721253E+02  0.61816399505E+02  0.90680896213E+01  0.65632744156E+02  0.00000000000E+00 0. -1.
         11    1    4    4    0    0 -0.39991332378E+02 -0.12721969975E+02  0.56176806767E+02  0.70121243599E+02  0.00000000000E+00 0.  1.
</event>
<event>
 8    1  0.6787197E-009  0.1589350E+03  0.7561462E-02  0.1189904E+00
         -1   -1    0    0    0  501 -0.00000000000E+00  0.00000000000E+00  0.98994991280E+02  0.98994991280E+02  0.00000000000E+00 0.  1.
          1   -1    0    0  501    0  0.00000000000E+00 -0.00000000000E+00 -0.32751477876E+03  0.32751477876E+03  0.00000000000E+00 0. -1.
         25    2    1    2    0    0 -0.10745370727E+03 -0.65277704483E+02 -0.41459018164E+02  0.18213743131E+03  0.12509083015E+03 0.  0.
         23    2    1    2    0    0  0.10745370727E+03  0.65277704483E+02 -0.18706076932E+03  0.24437233873E+03  0.94438501749E+02 0.  0.
          5    1    3    3  502    0 -0.40780804499E+02 -0.94635242158E+02 -0.34880266560E+02  0.10887152276E+03  0.41800000000E+01 0. -1.
         -5    1    3    3    0  502 -0.66672902768E+02  0.29357537675E+02 -0.65787516047E+01  0.73265908543E+02  0.41800000000E+01 0. -1.
        -11    1    4    4    0    0  0.98197224726E+02  0.78437064239E+02 -0.11438897781E+03  0.16994089042E+03  0.00000000000E+00 0.  1.
         11    1    4    4    0    0  0.92564825416E+01 -0.13159359756E+02 -0.72671791504E+02  0.74431448317E+02  0.00000000000E+00 0. -1.
</event>
<event>
 8    1  0.6787197E-009  0.1137515E+03  0.7561462E-02  0.1253776E+00
          1   -1    0    0  501    0  0.00000000000E+00  0.00000000000E+00  0.50525243634E+03  0.50525243634E+03  0.00000000000E+00 0. -1.
         -1   -1    0    0    0  501 -0.00000000000E+00 -0.00000000000E+00 -0.33225719228E+02  0.33225719228E+02  0.00000000000E+00 0.  1.
         25    2    1    2    0    0  0.67929451752E+02  0.13268155312E+01  0.25320537385E+03  0.29047934437E+03  0.12509643201E+03 0.  0.
         23    2    1    2    0    0 -0.67929451752E+02 -0.13268155312E+01  0.21882134326E+03  0.24799881120E+03  0.94891829130E+02 0.  0.
          5    1    3    3  502    0  0.95807549908E+02  0.11893339407E+02  0.23775171451E+03  0.25663960781E+03  0.41800000000E+01 0.  1.
         -5    1    3    3    0  502 -0.27878098156E+02 -0.10566523876E+02  0.15453659342E+02  0.33839736563E+02  0.41800000000E+01 0.  1.
        -11    1    4    4    0    0 -0.58483226915E+02  0.31624433730E+02  0.75347911492E+02  0.10048731465E+03  0.00000000000E+00 0. -1.
         11    1    4    4    0    0 -0.94462248366E+01 -0.32951249261E+02  0.14347343177E+03  0.14751149655E+03  0.00000000000E+00 0.  1.
</event>
<event>
 8    1  0.6787197E-009  0.6348498E+02  0.7561462E-02  0.1383763E+00
          2   -1    0    0  501    0  0.00000000000E+00  0.00000000000E+00  0.95344428911E+02  0.95344428911E+02  0.00000000000E+00 0. -1.
         -2   -1    0    0    0  501 -0.00000000000E+00 -0.00000000000E+00 -0.14776763640E+03  0.14776763640E+03  0.00000000000E+00 0.  1.
         25    2    1    2    0    0  0.15032672600E+02 -0.14074028267E+02  0.13724178733E+02  0.12751555436E+03  0.12509118277E+03 0.  0.
         23    2    1    2    0    0 -0.15032672600E+02  0.14074028267E+02 -0.66147386225E+02  0.11559651095E+03  0.92536571810E+02 0.  0.
          5    1    3    3  502    0 -0.11045326494E+02 -0.31878400588E+02 -0.47552709259E+02  0.58454804929E+02  0.41800000000E+01 0. -1.
         -5    1    3    3    0  502  0.26077999095E+02  0.17804372321E+02  0.61276887992E+02  0.69060749435E+02  0.41800000000E+01 0. -1.
        -11    1    4    4    0    0 -0.33106344395E+02  0.23633630612E+02  0.55384887760E+01  0.41051837876E+02  0.00000000000E+00 0. -1.
         11    1    4    4    0    0  0.18073671794E+02 -0.95596023450E+01 -0.71685875001E+02  0.74544673075E+02  0.00000000000E+00 0.  1.
</event>
<event>
 8    1  0.6787197E-009  0.1275363E+03  0.7561462E-02  0.1231158E+00
          1   -1    0    0  501    0  0.00000000000E+00  0.00000000000E+00  0.90944850938E+03  0.90944850938E+03  0.00000000000E+00 0. -1.
         -1   -1    0    0    0  501 -0.00000000000E+00 -0.00000000000E+00 -0.23522522666E+02  0.23522522666E+02  0.00000000000E+00 0.  1.
         25    2    1    2    0    0 -0.73566925303E+02 -0.18653462412E+02  0.67084933739E+03  0.68661993679E+03  0.12509220580E+03 0.  0.
         23    2    1    2    0    0  0.73566925303E+02  0.18653462412E+02  0.21507664932E+03  0.24635109526E+03  0.93117414562E+02 0.  0.
          5    1    3    3  502    0  0.30171328275E+02  0.13679991092E+01  0.67379796629E+02  0.73957351664E+02  0.41800000000E+01 0.  1.
         -5    1    3    3    0  502 -0.10373825358E+03 -0.20021461522E+02  0.60346954077E+03  0.61266258512E+03  0.41800000000E+01 0.  1.
        -11    1    4    4    0    0  0.48188418387E+02 -0.34957407085E+02  0.89787318615E+02  0.10773071317E+03  0.00000000000E+00 0. -1.
         11    1    4    4    0    0  0.25378506916E+02  0.53610869497E+02  0.12528933070E+03  0.13862038209E+03  0.00000000000E+00 0.  1.
</event>
<event>
 8    1  0.6787197E-009  0.1078323E+03  0.7561462E-02  0.1264638E+00
          2   -1    0    0  501    0  0.00000000000E+00  0.00000000000E+00  0.40927005168E+03  0.40927005168E+03  0.00000000000E+00 0. -1.
         -2   -1    0    0    0  501 -0.00000000000E+00 -0.00000000000E+00 -0.46996020946E+02  0.46996020946E+02  0.00000000000E+00 0.  1.
         25    2    1    2    0    0  0.38768044438E+02 -0.68847263117E+02  0.14623923217E+03  0.20802985038E+03  0.12509036219E+03 0.  0.
         23    2    1    2    0    0 -0.38768044438E+02  0.68847263117E+02  0.21603479857E+03  0.24823622225E+03  0.93312812299E+02 0.  0.
          5    1    3    3  502    0  0.43619176960E+02 -0.26592915852E+02  0.15598937186E+03  0.16419492168E+03  0.41800000000E+01 0.  1.
         -5    1    3    3    0  502 -0.48511325223E+01 -0.42254347265E+02 -0.97501396917E+01  0.43834928693E+02  0.41800000000E+01 0.  1.
        -11    1    4    4    0    0 -0.50316800130E+02 -0.15418944560E+01  0.77464099749E+02  0.92384222483E+02  0.00000000000E+00 0.  1.
         11    1    4    4    0    0  0.11548755693E+02  0.70389157573E+02  0.13857069882E+03  0.15585199977E+03  0.00000000000E+00 0. -1.
</event>
<event>
 8    1  0.6787197E-009  0.3681973E+03  0.7561462E-02  0.1055384E+00
         -1   -1    0    0    0  501 -0.00000000000E+00  0.00000000000E+00  0.30414954938E+03  0.30414954938E+03  0.00000000000E+00 0.  1.
          1   -1    0    0  501    0  0.00000000000E+00 -0.00000000000E+00 -0.48198868753E+03  0.48198868753E+03  0.00000000000E+00 0. -1.
         25    2    1    2    0    0  0.34055429712E+03 -0.11581310320E+03 -0.15151198511E+02  0.38113755133E+03  0.12508545104E+03 0.  0.
         23    2    1    2    0    0 -0.34055429712E+03  0.11581310320E+03 -0.16268793964E+03  0.40500068558E+03  0.90378567480E+02 0.  0.
          5    1    3    3  502    0  0.24833159433E+03 -0.29637125722E+02  0.17362689684E+02  0.25073068292E+03  0.41800000000E+01 0.  1.
         -5    1    3    3    0  502  0.92222702783E+02 -0.86175977480E+02 -0.32513888194E+02  0.13040686841E+03  0.41800000000E+01 0.  1.
        -11    1    4    4    0    0 -0.83402445350E+02  0.22088775900E+02  0.62593183805E+00  0.86280204577E+02  0.00000000000E+00 0.  1.
         11    1    4    4    0    0 -0.25715185177E+03  0.93724327301E+02 -0.16331387148E+03  0.31872048100E+03  0.00000000000E+00 0. -1.
</event>
<event>
 8    1  0.6787197E-009  0.1076027E+03  0.7561462E-02  0.1265075E+00
          1   -1    0    0  501    0  0.00000000000E+00  0.00000000000E+00  0.14525946864E+03  0.14525946864E+03  0.00000000000E+00 0. -1.
         -1   -1    0    0    0  501 -0.00000000000E+00 -0.00000000000E+00 -0.12509996662E+03  0.12509996662E+03  0.00000000000E+00 0.  1.
         25    2    1    2    0    0  0.19975662141E+02 -0.73481495843E+02 -0.12870684792E+02  0.14700900337E+03  0.12508970875E+03 0.  0.
         23    2    1    2    0    0 -0.19975662141E+02  0.73481495843E+02  0.33030186807E+02  0.12335043190E+03  0.91245704003E+02 0.  0.
          5    1    3    3  502    0 -0.14449080442E+02  0.63584930355E+00  0.44562291482E+02  0.47036692614E+02  0.41800000000E+01 0.  1.
         -5    1    3    3    0  502  0.34424742582E+02 -0.74117345147E+02 -0.57432976274E+02  0.99972310752E+02  0.41800000000E+01 0.  1.
        -11    1    4    4    0    0  0.16795423930E+02  0.79330180000E+02  0.17205960019E+02  0.82893961083E+02  0.00000000000E+00 0.  1.
         11    1    4    4    0    0 -0.36771086071E+02 -0.58486841567E+01  0.15824226788E+02  0.40456470813E+02  0.00000000000E+00 0. -1.
</event>
<event>
 8    1  0.6787197E-009  0.1495772E+03  0.7561462E-02  0.1200993E+00
         -1   -1    0    0    0  501 -0.00000000000E+00  0.00000000000E+00  0.11286009664E+03  0.11286009664E+03  0.00000000000E+00 0.  1.
          1   -1    0    0  501    0  0.00000000000E+00 -0.00000000000E+00 -0.27222318242E+03  0.27222318242E+03  0.00000000000E+00 0. -1.
         25    2    1    2    0    0  0.11529208322E+03  0.66738549355E+02 -0.48873558885E+02  0.18916284004E+03  0.12509059465E+03 0.  0.
         23    2    1    2    0    0 -0.11529208322E+03 -0.66738549355E+02 -0.11048952690E+03  0.19592043901E+03  0.91818214127E+02 0.  0.
          5    1    3    3  502    0  0.91905007995E+01  0.24758667084E+02 -0.68294245486E+02  0.73341892989E+02  0.41800000000E+01 0. -1.
         -5    1    3    3    0  502  0.10610158242E+03  0.41979882271E+02  0.19420686600E+02  0.11582094705E+03  0.41800000000E+01 0. -1.
        -11    1    4    4    0    0 -0.10369751343E+03 -0.14477380172E+02 -0.91714199781E+02  0.13919146263E+03  0.00000000000E+00 0. -1.
         11    1    4    4    0    0 -0.11594569795E+02 -0.52261169183E+02 -0.18775327115E+02  0.56728976382E+02  0.00000000000E+00 0.  1.
</event>
<event>
 8    1  0.6787197E-009  0.3689098E+03  0.7561462E-02  0.1055111E+00
          2   -1    0    0  501    0  0.00000000000E+00  0.00000000000E+00  0.14938470612E+04  0.14938470612E+04  0.00000000000E+00 0.  1.
         -2   -1    0    0    0  501 -0.00000000000E+00 -0.00000000000E+00 -0.93299994689E+02  0.93299994689E+02  0.00000000000E+00 0. -1.
         25    2    1    2    0    0 -0.62831513137E+02  0.34892313076E+03  0.62090309743E+03  0.72585227258E+03  0.12508283249E+03 0.  0.
         23    2    1    2    0    0  0.62831513137E+02 -0.34892313076E+03  0.77964396913E+03  0.86129478336E+03  0.91043039356E+02 0.  0.
          5    1    3    3  502    0  0.86026429846E+01  0.24889133447E+03  0.36444882650E+03  0.44143099277E+03  0.41800000000E+01 0.  1.
         -5    1    3    3    0  502 -0.71434156121E+02  0.10003179630E+03  0.25645427093E+03  0.28442127981E+03  0.41800000000E+01 0.  1.
        -11    1    4    4    0    0 -0.19397446714E+02 -0.13821363266E+03  0.28116549610E+03  0.31390015194E+03  0.00000000000E+00 0. -1.
         11    1    4    4    0    0  0.82228959851E+02 -0.21070949810E+03  0.49847847303E+03  0.54739463142E+03  0.00000000000E+00 0.  1.
</event>
<event>
 8    1  0.6787197E-009  0.1266269E+03  0.7561462E-02  0.1232548E+00
         -2   -1    0    0    0  501 -0.00000000000E+00  0.00000000000E+00  0.44415897911E+02  0.44415897911E+02  0.00000000000E+00 0.  1.
          2   -1    0    0  501    0  0.00000000000E+00 -0.00000000000E+00 -0.39752273482E+03  0.39752273482E+03  0.00000000000E+00 0. -1.
         25    2    1    2    0    0  0.73385930241E+02 -0.46752006365E+01 -0.25210400791E+03  0.29088034449E+03  0.12509033434E+03 0.  0.
         23    2    1    2    0    0 -0.73385930241E+02  0.46752006365E+01 -0.10100282899E+03  0.15105828824E+03  0.84909850571E+02 0.  0.
          5    1    3    3  502    0  0.93488972100E+02 -0.41095776035E+02 -0.16198539418E+03  0.19153535194E+03  0.41800000000E+01 0. -1.
         -5    1    3    3    0  502 -0.20103041859E+02  0.36420575398E+02 -0.90118613730E+02  0.99344992551E+02  0.41800000000E+01 0. -1.
        -11    1    4    4    0    0 -0.16904647687E+02  0.39441868508E+02 -0.57471989727E+02  0.71724875100E+02  0.00000000000E+00 0. -1.
         11    1    4    4    0    0 -0.56481282554E+02 -0.34766667872E+02 -0.43530839265E+02  0.79333413143E+02  0.00000000000E+00 0.  1.
</event>
<event>
 8    1  0.6787197E-009  0.6058079E+02  0.7561462E-02  0.1395410E+00
          2   -1    0    0  501    0  0.00000000000E+00  0.00000000000E+00  0.14165813752E+03  0.14165813752E+03  0.00000000000E+00 0. -1.
         -2   -1    0    0    0  501 -0.00000000000E+00 -0.00000000000E+00 -0.11075073623E+03  0.11075073623E+03  0.00000000000E+00 0.  1.
         25    2    1    2    0    0  0.45043428834E+02 -0.90103969199E+01  0.55723024087E+02  0.14443850006E+03  0.12508927673E+03 0.  0.
         23    2    1    2    0    0 -0.45043428834E+02  0.90103969199E+01 -0.24815622795E+02  0.10797037368E+03  0.94507611993E+02 0.  0.
          5    1    3    3  502    0  0.23400609827E+02 -0.21639633226E+01  0.95506528626E+02  0.98444099304E+02  0.41800000000E+01 0.  1.
         -5    1    3    3    0  502  0.21642819007E+02 -0.68464335972E+01 -0.39783504539E+02  0.45994400757E+02  0.41800000000E+01 0.  1.
        -11    1    4    4    0    0 -0.53630106457E+02 -0.88857350147E+01  0.20814483142E+02  0.58209855813E+02  0.00000000000E+00 0. -1.
         11    1    4    4    0    0  0.85866776224E+01  0.17896131935E+02 -0.45630105937E+02  0.49760517869E+02  0.00000000000E+00 0.  1.
</event>
<event>
 8    1  0.6787197E-009  0.1256707E+03  0.7561462E-02  0.1234025E+00
          2   -1    0    0  501    0  0.00000000000E+00  0.00000000000E+00  0.32208118244E+03  0.32208118244E+03  0.00000000000E+00 0. -1.
         -2   -1    0    0    0  501 -0.00000000000E+00 -0.00000000000E+00 -0.78492974155E+02  0.78492974155E+02  0.00000000000E+00 0.  1.
         25    2    1    2    0    0 -0.66745379723E+01 -0.10428786565E+03  0.19457769436E+03  0.25382827666E+03  0.12509119278E+03 0.  0.
         23    2    1    2    0    0  0.66745379723E+01  0.10428786565E+03  0.49010513927E+02  0.14674587993E+03  0.90619062141E+02 0.  0.
          5    1    3    3  502    0 -0.30156059521E+01 -0.12021757019E+03  0.96315107745E+02  0.15412796774E+03  0.41800000000E+01 0.  1.
         -5    1    3    3    0  502 -0.36589320202E+01  0.15929704536E+02  0.98262586617E+02  0.99700308920E+02  0.41800000000E+01 0.  1.
        -11    1    4    4    0    0  0.25994544216E+02  0.47344376371E+02 -0.17791801637E+02  0.56866110369E+02  0.00000000000E+00 0.  1.
         11    1    4    4    0    0 -0.19320006244E+02  0.56943489279E+02  0.66802315564E+02  0.89879769566E+02  0.00000000000E+00 0. -1.
</event>
<event>
 8    1  0.6787197E-009  0.1865725E+03  0.7561462E-02  0.1161590E+00
          3   -1    0    0  501    0  0.00000000000E+00  0.00000000000E+00  0.56377738993E+02  0.56377738993E+02  0.00000000000E+00 0. -1.
         -3   -1    0    0    0  501 -0.00000000000E+00 -0.00000000000E+00 -0.81001541282E+03  0.81001541282E+03  0.00000000000E+00 0.  1.
         25    2    1    2    0    0 -0.15564557565E+03  0.67681231745E+01 -0.58631510178E+03  0.61942207663E+03  0.12508780009E+03 0.  0.
         23    2    1    2    0    0  0.15564557565E+03 -0.67681231745E+01 -0.16732257204E+03  0.24697107518E+03  0.93415823877E+02 0.  0.
          5    1    3    3  502    0 -0.11883507501E+03 -0.49421627173E+02 -0.32505019092E+03  0.34962747503E+03  0.41800000000E+01 0. -1.
         -5    1    3    3    0  502 -0.36810500639E+02  0.56189750348E+02 -0.26126491086E+03  0.26979460160E+03  0.41800000000E+01 0. -1.
        -11    1    4    4    0    0  0.14582701877E+03  0.21264108654E+02 -0.15748301747E+03  0.21568166939E+03  0.00000000000E+00 0. -1.
         11    1    4    4    0    0  0.98185568762E+01 -0.28032231828E+02 -0.98395545754E+01  0.31289405789E+02  0.00000000000E+00 0.  1.
</event>
<event>
 8    1  0.6787197E-009  0.9826592E+02  0.7561462E-02  0.1283985E+00
         -1   -1    0    0    0  501 -0.00000000000E+00  0.00000000000E+00  0.17006431340E+03  0.17006431340E+03  0.00000000000E+00 0.  1.
          1   -1    0    0  501    0  0.00000000000E+00 -0.00000000000E+00 -0.81315833496E+02  0.81315833496E+02  0.00000000000E+00 0. -1.
         25    2    1    2    0    0 -0.23350520801E+02 -0.22546109734E+02  0.16361393841E+02  0.13026296826E+03  0.12508865579E+03 0.  0.
         23    2    1    2    0    0  0.23350520801E+02  0.22546109734E+02  0.72387086066E+02  0.12111717864E+03  0.91519980584E+02 0.  0.
          5    1    3    3  502    0  0.38617264692E+02 -0.34379956433E+02  0.37042227097E+02  0.63740674023E+02  0.41800000000E+01 0.  1.
         -5    1    3    3    0  502 -0.61967785492E+02  0.11833846700E+02 -0.20680833257E+02  0.66522294238E+02  0.41800000000E+01 0.  1.
        -11    1    4    4    0    0 -0.27405996834E+02  0.97517202644E+01 -0.31036877695E+01  0.29254360160E+02  0.00000000000E+00 0. -1.
         11    1    4    4    0    0  0.50756517635E+02  0.12794389469E+02  0.75490773835E+02  0.91862818477E+02  0.00000000000E+00 0.  1.
</event>
<event>
 8    1  0.6787197E-009  0.1034195E+03  0.7561462E-02  0.1273265E+00
         -2   -1    0    0    0  501 -0.00000000000E+00  0.00000000000E+00  0.11590702198E+02  0.11590702198E+02  0.00000000000E+00 0.  1.
          2   -1    0    0  501    0  0.00000000000E+00 -0.00000000000E+00 -0.11657638781E+04  0.11657638781E+04  0.00000000000E+00 0. -1.
         25    2    1    2    0    0 -0.60608815263E+01 -0.27499893935E+02 -0.82534911671E+03  0.83524999186E+03  0.12509358900E+03 0.  0.
         23    2    1    2    0    0  0.60608815263E+01  0.27499893935E+02 -0.32882405921E+03  0.34210458845E+03  0.90096110192E+02 0.  0.
          5    1    3    3  502    0 -0.29880701115E+02  0.37083821001E+02 -0.18050313295E+03  0.18672685796E+03  0.41800000000E+01 0. -1.
         -5    1    3    3    0  502  0.23819819589E+02 -0.64583714936E+02 -0.64484598376E+03  0.64852313391E+03  0.41800000000E+01 0. -1.
        -11    1    4    4    0    0 -0.36331451940E+02 -0.49703800903E+01 -0.18698694432E+03  0.19054867206E+03  0.00000000000E+00 0.  1.
         11    1    4    4    0    0  0.42392333467E+02  0.32470274025E+02 -0.14183711490E+03  0.15155591639E+03  0.00000000000E+00 0. -1.
</event>
<event>
 8    1  0.6787197E-009  0.6825615E+02  0.7561462E-02  0.1366126E+00
          4   -1    0    0  501    0  0.00000000000E+00  0.00000000000E+00  0.46633756199E+03  0.46633756199E+03  0.00000000000E+00 0.  1.
         -4   -1    0    0    0  501 -0.00000000000E+00 -0.00000000000E+00 -0.35449496573E+02  0.35449496573E+02  0.00000000000E+00 0. -1.
         25    2    1    2    0    0  0.16263225045E+02  0.16348904935E+02  0.11170306222E+03  0.16928565268E+03  0.12509308100E+03 0.  0.
         23    2    1    2    0    0 -0.16263225045E+02 -0.16348904935E+02  0.31918500320E+03  0.33250140588E+03  0.90257074310E+02 0.  0.
          5    1    3    3  502    0  0.28301184526E+02  0.68366260732E+00 -0.20721044514E+02  0.35330702312E+02  0.41800000000E+01 0.  1.
         -5    1    3    3    0  502 -0.12037959481E+02  0.15665242328E+02  0.13242410673E+03  0.13395495037E+03  0.41800000000E+01 0.  1.
        -11    1    4    4    0    0 -0.14077184955E+02  0.34263520911E+02  0.19307934828E+03  0.19660058681E+03  0.00000000000E+00 0.  1.
         11    1    4    4    0    0 -0.21860400894E+01 -0.50612425846E+02  0.12610565492E+03  0.13590081907E+03  0.00000000000E+00 0. -1.
</event>
<event>
 8    1  0.6787197E-009  0.1091727E+03  0.7561462E-02  0.1262110E+00
          2   -1    0    0  501    0  0.00000000000E+00  0.00000000000E+00  0.80337117456E+02  0.80337117456E+02  0.00000000000E+00 0. -1.
         -2   -1    0    0    0  501 -0.00000000000E+00 -0.00000000000E+00 -0.17962700549E+03  0.17962700549E+03  0.00000000000E+00 0.  1.
         25    2    1    2    0    0  0.45785830373E+02  0.15873320953E+02 -0.38680941988E+02  0.13961352959E+03  0.12508963902E+03 0.  0.
         23    2    1    2    0    0 -0.45785830373E+02 -0.15873320953E+02 -0.60608946042E+02  0.12035059335E+03  0.91991936593E+02 0.  0.
          5    1    3    3  502    0 -0.21148394959E+02 -0.34419478150E+02  0.11121125277E+02  0.42108276061E+02  0.41800000000E+01 0.  1.
         -5    1    3    3    0  502  0.66934225331E+02  0.50292799103E+02 -0.49802067266E+02  0.97505253532E+02  0.41800000000E+01 0.  1.
        -11    1    4    4    0    0  0.12693866983E+01 -0.40687801010E+02 -0.52664772031E+02  0.66563403659E+02  0.00000000000E+00 0.  1.
         11    1    4    4    0    0 -0.47055217071E+02  0.24814480057E+02 -0.79441740115E+01  0.53787189690E+02  0.00000000000E+00 0. -1.
</event>
<event>
 8    1  0.6787197E-009  0.3394390E+03  0.7561462E-02  0.1067035E+00
          1   -1    0    0  501    0  0.00000000000E+00  0.00000000000E+00  0.56737308218E+02  0.56737308218E+02  0.00000000000E+00 0. -1.
         -1   -1    0    0    0  501 -0.00000000000E+00 -0.00000000000E+00 -0.20666847076E+04  0.20666847076E+04  0.00000000000E+00 0.  1.
         25    2    1    2    0    0  0.22858684105E+03 -0.22845135881E+03 -0.11271885791E+04  0.11792554696E+04  0.12508957790E+03 0.  0.
         23    2    1    2    0    0 -0.22858684105E+03  0.22845135881E+03 -0.88275882027E+03  0.94416654620E+03  0.88007755071E+02 0.  0.
          5    1    3    3  502    0  0.29251603054E+01 -0.67247824786E+02 -0.27087055198E+03  0.27914002728E+03  0.41800000000E+01 0.  1.
         -5    1    3    3    0  502  0.22566168075E+03 -0.16120353402E+03 -0.85631802711E+03  0.90011544231E+03  0.41800000000E+01 0.  1.
        -11    1    4    4    0    0 -0.16953081070E+03  0.11105880752E+03 -0.50191886707E+03  0.54129225343E+03  0.00000000000E+00 0. -1.
         11    1    4    4    0    0 -0.59056030353E+02  0.11739255129E+03 -0.38083995319E+03  0.40287429276E+03  0.00000000000E+00 0.  1.
</event>
<event>
 8    1  0.6787197E-009  0.1038727E+03  0.7561462E-02  0.1272357E+00
          4   -1    0    0  501    0  0.00000000000E+00  0.00000000000E+00  0.30099404618E+03  0.30099404618E+03  0.00000000000E+00 0.  1.
         -4   -1    0    0    0  501 -0.00000000000E+00 -0.00000000000E+00 -0.49971764930E+02  0.49971764930E+02  0.00000000000E+00 0. -1.
         25    2    1    2    0    0 -0.32759553374E+02  0.19865449349E+02  0.19545501257E+03  0.23519782713E+03  0.12509009368E+03 0.  0.
         23    2    1    2    0    0  0.32759553374E+02 -0.19865449349E+02  0.55567268681E+02  0.11576798397E+03  0.94056793215E+02 0.  0.
          5    1    3    3  502    0  0.12936952069E+02 -0.42343620535E+02  0.33294954023E+02  0.55555137407E+02  0.41800000000E+01 0.  1.
         -5    1    3    3    0  502 -0.45696505443E+02  0.62209069884E+02  0.16216005854E+03  0.17964268973E+03  0.41800000000E+01 0.  1.
        -11    1    4    4    0    0  0.58198202045E+02 -0.14337910525E+02  0.64684300944E+02  0.88185402352E+02  0.00000000000E+00 0.  1.
         11    1    4    4    0    0 -0.25438648671E+02 -0.55275388239E+01 -0.91170322625E+01  0.27582581622E+02  0.00000000000E+00 0. -1.
</event>
<event>
 8    1  0.6787197E-009  0.1402848E+03  0.7561462E-02  0.1212946E+00
          2   -1    0    0  501    0  0.00000000000E+00  0.00000000000E+00  0.22648412757E+03  0.22648412757E+03  0.00000000000E+00 0. -1.
         -2   -1    0    0    0  501 -0.00000000000E+00 -0.00000000000E+00 -0.11935302378E+03  0.11935302378E+03  0.00000000000E+00 0.  1.
         25    2    1    2    0    0 -0.87869388005E+02 -0.36717093056E+02  0.13973894556E+03  0.21034282627E+03  0.12509179584E+03 0.  0.
         23    2    1    2    0    0  0.87869388005E+02  0.36717093056E+02 -0.32607841773E+02  0.13549432508E+03  0.90698767973E+02 0.  0.
          5    1    3    3  502    0 -0.11863322265E+03 -0.28560897559E+02  0.92267208881E+02  0.15303684726E+03  0.41800000000E+01 0. -1.
         -5    1    3    3    0  502  0.30763834641E+02 -0.81561954966E+01  0.47471736683E+02  0.57305979012E+02  0.41800000000E+01 0. -1.
        -11    1    4    4    0    0  0.27462738853E+02 -0.27044115469E+02  0.69507237087E+01  0.39165019684E+02  0.00000000000E+00 0. -1.
         11    1    4    4    0    0  0.60406649152E+02  0.63761208525E+02 -0.39558565482E+02  0.96329305392E+02  0.00000000000E+00 0.  1.
</event>
<event>
 8    1  0.6787197E-009  0.6215481E+02  0.7561462E-02  0.1389005E+00
         -2   -1    0    0    0  501 -0.00000000000E+00  0.00000000000E+00  0.19728255235E+02  0.19728255235E+02  0.00000000000E+00 0. -1.
          2   -1    0    0  501    0  0.00000000000E+00 -0.00000000000E+00 -0.15944808808E+04  0.15944808808E+04  0.00000000000E+00 0.  1.
         25    2    1    2    0    0  0.36345615080E+02  0.16785797228E+02 -0.14446603826E+04  0.14506183024E+04  0.12508825499E+03 0.  0.
         23    2    1    2    0    0 -0.36345615080E+02 -0.16785797228E+02 -0.13009224296E+03  0.16359083361E+03  0.90748016171E+02 0.  0.
          5    1    3    3  502    0  0.33415015632E+01  0.35152386242E+01 -0.96070802150E+00  0.64744030756E+01  0.41800000000E+01 0.  1.
         -5    1    3    3    0  502  0.33004113517E+02  0.13270558604E+02 -0.14436996746E+04  0.14441438993E+04  0.41800000000E+01 0.  1.
        -11    1    4    4    0    0 -0.55636916723E+02 -0.25157658564E+02 -0.12877747143E+03  0.14252021413E+03  0.00000000000E+00 0.  1.
         11    1    4    4    0    0  0.19291301643E+02  0.83718613358E+01 -0.13147715310E+01  0.21070619485E+02  0.00000000000E+00 0. -1.
</event>
<event>
 8    1  0.6787197E-009  0.1689043E+03  0.7561462E-02  0.1178995E+00
          2   -1    0    0  501    0  0.00000000000E+00  0.00000000000E+00  0.88883100348E+03  0.88883100348E+03  0.00000000000E+00 0. -1.
         -2   -1    0    0    0  501 -0.00000000000E+00 -0.00000000000E+00 -0.46908708823E+02  0.46908708823E+02  0.00000000000E+00 0.  1.
         25    2    1    2    0    0  0.48576541034E+02 -0.15222049603E+03  0.29314508266E+03  0.35652678763E+03  0.12508617453E+03 0.  0.
         23    2    1    2    0    0 -0.48576541034E+02  0.15222049603E+03  0.54877721200E+03  0.57921292468E+03  0.93810574867E+02 0.  0.
          5    1    3    3  502    0  0.20813035821E+02 -0.98920140669E+02  0.27589867504E+03  0.29386379154E+03  0.41800000000E+01 0. -1.
         -5    1    3    3    0  502  0.27763505213E+02 -0.53300355357E+02  0.17246407626E+02  0.62662996090E+02  0.41800000000E+01 0. -1.
        -11    1    4    4    0    0  0.12013576744E+02  0.85206469570E+02  0.17971082036E+03  0.19924971126E+03  0.00000000000E+00 0. -1.
         11    1    4    4    0    0 -0.60590117779E+02  0.67014026456E+02  0.36906639164E+03  0.37996321342E+03  0.00000000000E+00 0.  1.
</event>
<event>
 8    1  0.6787197E-009  0.1048366E+03  0.7561462E-02  0.1270442E+00
         -2   -1    0    0    0  501 -0.00000000000E+00  0.00000000000E+00  0.58340350876E+02  0.58340350876E+02  0.00000000000E+00 0.  1.
          2   -1    0    0  501    0  0.00000000000E+00 -0.00000000000E+00 -0.21541423708E+03  0.21541423708E+03  0.00000000000E+00 0. -1.
         25    2    1    2    0    0 -0.68492396598E+01 -0.20004083489E+02 -0.11658720641E+03  0.17229845234E+03  0.12508838691E+03 0.  0.
         23    2    1    2    0    0  0.68492396598E+01  0.20004083489E+02 -0.40486679789E+02  0.10145613561E+03  0.90593050354E+02 0.  0.
          5    1    3    3  502    0 -0.50014530576E+02 -0.44717414645E+02 -0.32860939105E+02  0.74822551147E+02  0.41800000000E+01 0. -1.
         -5    1    3    3    0  502  0.43165290917E+02  0.24713331156E+02 -0.83726267306E+02  0.97475901195E+02  0.41800000000E+01 0. -1.
        -11    1    4    4    0    0 -0.15390615903E+02 -0.32257733426E+02 -0.10623067585E+02  0.37286485334E+02  0.00000000000E+00 0. -1.
         11    1    4    4    0    0  0.22239855563E+02  0.52261816915E+02 -0.29863612204E+02  0.64169650276E+02  0.00000000000E+00 0.  1.
</event>
<event>
 8    1  0.6787197E-009  0.1055817E+03  0.7561462E-02  0.1268978E+00
          1   -1    0    0  501    0  0.00000000000E+00  0.00000000000E+00  0.11343749058E+04  0.11343749058E+04  0.00000000000E+00 0. -1.
         -1   -1    0    0    0  501 -0.00000000000E+00 -0.00000000000E+00 -0.24013236854E+02  0.24013236854E+02  0.00000000000E+00 0.  1.
         25    2    1    2    0    0 -0.85009032083E+02  0.30224328344E+02  0.90490659950E+03  0.91795551648E+03  0.12508529433E+03 0.  0.
         23    2    1    2    0    0  0.85009032083E+02 -0.30224328344E+02  0.20545506942E+03  0.24043262615E+03  0.86348228741E+02 0.  0.
          5    1    3    3  502    0 -0.84613012040E+02  0.28949039557E+02  0.30096821120E+03  0.31400118670E+03  0.41800000000E+01 0.  1.
         -5    1    3    3    0  502 -0.39602004210E+00  0.12752887865E+01  0.60393838830E+03  0.60395432977E+03  0.41800000000E+01 0.  1.
        -11    1    4    4    0    0  0.48043635980E+01 -0.36485832488E+02  0.30240228569E+02  0.47631599867E+02  0.00000000000E+00 0. -1.
         11    1    4    4    0    0  0.80204668485E+02  0.62615041444E+01  0.17521484085E+03  0.19280102628E+03  0.00000000000E+00 0.  1.
</event>
<event>
 8    1  0.6787197E-009  0.1426429E+03  0.7561462E-02  0.1209816E+00
          1   -1    0    0  501    0  0.00000000000E+00  0.00000000000E+00  0.19591777123E+03  0.19591777123E+03  0.00000000000E+00 0. -1.
         -1   -1    0    0    0  501 -0.00000000000E+00 -0.00000000000E+00 -0.14042020915E+03  0.14042020915E+03  0.00000000000E+00 0.  1.
         25    2    1    2    0    0  0.35384276129E+02  0.89776951309E+02 -0.50794472706E+02  0.16595111598E+03  0.12509095272E+03 0.  0.
         23    2    1    2    0    0 -0.35384276129E+02 -0.89776951309E+02  0.10629203479E+03  0.17038686439E+03  0.91770032775E+02 0.  0.
          5    1    3    3  502    0  0.81487247653E+02  0.63900233715E+02 -0.43583435688E+02  0.11242953200E+03  0.41800000000E+01 0.  1.
         -5    1    3    3    0  502 -0.46102971524E+02  0.25876717594E+02 -0.72110370174E+01  0.53521583979E+02  0.41800000000E+01 0.  1.
        -11    1    4    4    0    0 -0.58808956170E+02 -0.33557574620E+02  0.33709415965E+02  0.75636822150E+02  0.00000000000E+00 0.  1.
         11    1    4    4    0    0  0.23424680041E+02 -0.56219376688E+02  0.72582618822E+02  0.94750042244E+02  0.00000000000E+00 0. -1.
</event>
<event>
 8    1  0.6787197E-009  0.1548709E+03  0.7561462E-02  0.1194612E+00
         -1   -1    0    0    0  501 -0.00000000000E+00  0.00000000000E+00  0.12456223829E+03  0.12456223829E+03  0.00000000000E+00 0.  1.
          1   -1    0    0  501    0  0.00000000000E+00 -0.00000000000E+00 -0.23587422121E+03  0.23587422121E+03  0.00000000000E+00 0. -1.
         25    2    1    2    0    0  0.11175170798E+03 -0.64427528210E+02 -0.26698021865E+02  0.18165653295E+03  0.12508781301E+03 0.  0.
         23    2    1    2    0    0 -0.11175170798E+03  0.64427528210E+02 -0.84613961047E+02  0.17877992655E+03  0.90351475386E+02 0.  0.
          5    1    3    3  502    0 -0.15778663834E+02 -0.25058362261E+02 -0.37176026778E+02  0.47711813197E+02  0.41800000000E+01 0. -1.
         -5    1    3    3    0  502  0.12753037182E+03 -0.39369165950E+02  0.10478004913E+02  0.13394471975E+03  0.41800000000E+01 0. -1.
        -11    1    4    4    0    0  0.52665850498E+01  0.20733359788E+02 -0.41410774739E+02  0.46609670570E+02  0.00000000000E+00 0. -1.
         11    1    4    4    0    0 -0.11701829303E+03  0.43694168422E+02 -0.43203186308E+02  0.13217025598E+03  0.00000000000E+00 0.  1.
</event>
<event>
 8    1  0.6787197E-009  0.2161051E+03  0.7561462E-02  0.1136821E+00
         -2   -1    0    0    0  501 -0.00000000000E+00  0.00000000000E+00  0.10081323496E+03  0.10081323496E+03  0.00000000000E+00 0.  1.
          2   -1    0    0  501    0  0.00000000000E+00 -0.00000000000E+00 -0.48547359160E+03  0.48547359160E+03  0.00000000000E+00 0. -1.
         25    2    1    2    0    0 -0.12219683895E+03  0.14646858452E+03 -0.16487548339E+03  0.28145020518E+03  0.12508069104E+03 0.  0.
         23    2    1    2    0    0  0.12219683895E+03 -0.14646858452E+03 -0.21978487325E+03  0.30483662137E+03  0.90746137757E+02 0.  0.
          5    1    3    3  502    0  0.21755255866E+02  0.22892033839E+02 -0.51023422217E+02  0.60151462042E+02  0.41800000000E+01 0. -1.
         -5    1    3    3    0  502 -0.14395209482E+03  0.12357655068E+03 -0.11385206118E+03  0.22129874314E+03  0.41800000000E+01 0. -1.
        -11    1    4    4    0    0  0.11055657036E+03 -0.64908742096E+02 -0.12203167919E+03  0.17699613210E+03  0.00000000000E+00 0.  1.
         11    1    4    4    0    0  0.11640268591E+02 -0.81559842427E+02 -0.97753194056E+02  0.12784048927E+03  0.00000000000E+00 0. -1.
</event>
<event>
 8    1  0.6787197E-009  0.1132125E+03  0.7561462E-02  0.1254734E+00
         -2   -1    0    0    0  501 -0.00000000000E+00  0.00000000000E+00  0.93936077129E+01  0.93936077129E+01  0.00000000000E+00 0.  1.
          2   -1    0    0  501    0  0.00000000000E+00 -0.00000000000E+00 -0.16786980760E+04  0.16786980760E+04  0.00000000000E+00 0. -1.
         25    2    1    2    0    0 -0.42713288240E+02  0.10480311584E+02 -0.12363339743E+04  0.12434251438E+04  0.12510048127E+03 0.  0.
         23    2    1    2    0    0  0.42713288240E+02 -0.10480311584E+02 -0.43297049403E+03  0.44466653991E+03  0.91272236154E+02 0.  0.
          5    1    3    3  502    0 -0.85559878266E+02 -0.49455488552E+01 -0.87865096114E+03  0.88283063786E+03  0.41800000000E+01 0.  1.
         -5    1    3    3    0  502  0.42846590027E+02  0.15425860439E+02 -0.35768301316E+03  0.36059450599E+03  0.41800000000E+01 0.  1.
        -11    1    4    4    0    0  0.65563722041E+02  0.72560478458E+01 -0.36313166667E+03  0.36907432749E+03  0.00000000000E+00 0. -1.
         11    1    4    4    0    0 -0.22850433801E+02 -0.17736359430E+02 -0.69838827359E+02  0.75592212413E+02  0.00000000000E+00 0.  1.
</event>
<event>
 8    1  0.6787197E-009  0.1291480E+03  0.7561462E-02  0.1228725E+00
         -2   -1    0    0    0  501 -0.00000000000E+00  0.00000000000E+00  0.35124732736E+03  0.35124732736E+03  0.00000000000E+00 0. -1.
          2   -1    0    0  501    0  0.00000000000E+00 -0.00000000000E+00 -0.56525319904E+02  0.56525319904E+02  0.00000000000E+00 0.  1.
         25    2    1    2    0    0 -0.84140502508E+02  0.16122938145E+02  0.11896533654E+03  0.19271787342E+03  0.12509138317E+03 0.  0.
         23    2    1    2    0    0  0.84140502508E+02 -0.16122938145E+02  0.17575667092E+03  0.21505477384E+03  0.89546496764E+02 0.  0.
          5    1    3    3  502    0 -0.27847494283E+02  0.57764696760E+02  0.10199004489E+03  0.12054743791E+03  0.41800000000E+01 0.  1.
         -5    1    3    3    0  502 -0.56293008224E+02 -0.41641758615E+02  0.16975291642E+02  0.72170435511E+02  0.41800000000E+01 0.  1.
        -11    1    4    4    0    0  0.48789828166E+02  0.36192460441E+02  0.83434499158E+02  0.10320686593E+03  0.00000000000E+00 0.  1.
         11    1    4    4    0    0  0.35350674342E+02 -0.52315398586E+02  0.92322171762E+02  0.11184790791E+03  0.00000000000E+00 0. -1.
</event>
<event>
 8    1  0.6787197E-009  0.1020422E+03  0.7561462E-02  0.1276059E+00
         -2   -1    0    0    0  501 -0.00000000000E+00  0.00000000000E+00  0.68971210070E+02  0.68971210070E+02  0.00000000000E+00 0.  1.
          2   -1    0    0  501    0  0.00000000000E+00 -0.00000000000E+00 -0.23993748233E+03  0.23993748233E+03  0.00000000000E+00 0. -1.
         25    2    1    2    0    0 -0.66934039704E+02 -0.96054529673E+01 -0.79961224585E+02  0.16313091631E+03  0.12508184529E+03 0.  0.
         23    2    1    2    0    0  0.66934039704E+02  0.96054529673E+01 -0.91005047678E+02  0.14577777609E+03  0.91634114287E+02 0.  0.
          5    1    3    3  502    0 -0.31555122535E+02 -0.43971159688E+02  0.14761674875E+02  0.56254493933E+02  0.41800000000E+01 0.  1.
         -5    1    3    3    0  502 -0.35378917169E+02  0.34365706721E+02 -0.94722899460E+02  0.10687642238E+03  0.41800000000E+01 0.  1.
        -11    1    4    4    0    0 -0.80076977728E+01 -0.18582703035E+02  0.49237870007E+01  0.20825075129E+02  0.00000000000E+00 0.  1.
         11    1    4    4    0    0  0.74941737477E+02  0.28188156002E+02 -0.95928834679E+02  0.12495270096E+03  0.00000000000E+00 0. -1.
</event>
<event>
 8    1  0.6787197E-009  0.9445870E+02  0.7561462E-02  0.1292400E+00
          1   -1    0    0  501    0  0.00000000000E+00  0.00000000000E+00  0.78612978013E+02  0.78612978013E+02  0.00000000000E+00 0. -1.
         -1   -1    0    0    0  501 -0.00000000000E+00 -0.00000000000E+00 -0.19954850122E+03  0.19954850122E+03  0.00000000000E+00 0.  1.
         25    2    1    2    0    0  0.19030771791E+02  0.38172109176E+02 -0.15598172871E+02  0.13307711393E+03  0.12508770947E+03 0.  0.
         23    2    1    2    0    0 -0.19030771791E+02 -0.38172109176E+02 -0.10533735034E+03  0.14508436531E+03  0.90189996602E+02 0.  0.
          5    1    3    3  502    0 -0.36468663131E+02  0.36086978242E+02 -0.46512819628E+02  0.69376856220E+02  0.41800000000E+01 0. -1.
         -5    1    3    3    0  502  0.55499434922E+02  0.20851309342E+01  0.30914646757E+02  0.63700257706E+02  0.41800000000E+01 0. -1.
        -11    1    4    4    0    0  0.23492058273E+02  0.15682158935E+01  0.13187479498E+01  0.23581246768E+02  0.00000000000E+00 0. -1.
         11    1    4    4    0    0 -0.42522830064E+02 -0.39740325070E+02 -0.10665609829E+03  0.12150311854E+03  0.00000000000E+00 0.  1.
</event>
<event>
 8    1  0.6787197E-009  0.8222733E+02  0.7561462E-02  0.1322847E+00
          2   -1    0    0  501    0  0.00000000000E+00  0.00000000000E+00  0.61437867455E+03  0.61437867455E+03  0.00000000000E+00 0.  1.
         -2   -1    0    0    0  501 -0.00000000000E+00 -0.00000000000E+00 -0.29310064005E+02  0.29310064005E+02  0.00000000000E+00 0. -1.
         25    2    1    2    0    0 -0.35197539142E+02 -0.11507463237E+02  0.48301695535E+03  0.50032416509E+03  0.12509037751E+03 0.  0.
         23    2    1    2    0    0  0.35197539142E+02  0.11507463237E+02  0.10205165519E+03  0.14336457346E+03  0.93635314517E+02 0.  0.
          5    1    3    3  502    0 -0.52552971633E+02  0.29181267856E+02  0.41317991935E+03  0.41755057104E+03  0.41800000000E+01 0.  1.
         -5    1    3    3    0  502  0.17355432491E+02 -0.40688731093E+02  0.69837036001E+02  0.82773594052E+02  0.41800000000E+01 0.  1.
        -11    1    4    4    0    0  0.20694368595E+02 -0.17650947125E+02  0.10701934176E+03  0.11042170229E+03  0.00000000000E+00 0.  1.
         11    1    4    4    0    0  0.14503170548E+02  0.29158410362E+02 -0.49676865744E+01  0.32942871166E+02  0.00000000000E+00 0. -1.
</event>
<event>
 8    1  0.6787197E-009  0.8700663E+02  0.7561462E-02  0.1310267E+00
          1   -1    0    0  501    0  0.00000000000E+00  0.00000000000E+00  0.12247370305E+03  0.12247370305E+03  0.00000000000E+00 0. -1.
         -1   -1    0    0    0  501 -0.00000000000E+00 -0.00000000000E+00 -0.15447786091E+03  0.15447786091E+03  0.00000000000E+00 0.  1.
         25    2    1    2    0    0 -0.21593192142E+02  0.40429931059E+01  0.64784567762E+02  0.14257893713E+03  0.12509636826E+03 0.  0.
         23    2    1    2    0    0  0.21593192142E+02 -0.40429931059E+01 -0.96788725624E+02  0.13437262683E+03  0.90583296981E+02 0.  0.
          5    1    3    3  502    0 -0.45171625868E+02 -0.49617492890E+02  0.43530649986E+02  0.80092204817E+02  0.41800000000E+01 0. -1.
         -5    1    3    3    0  502  0.23578433726E+02  0.53660485996E+02  0.21253917775E+02  0.62486732312E+02  0.41800000000E+01 0. -1.
        -11    1    4    4    0    0  0.27754318993E+02  0.12448053959E+02  0.52142095288E+01  0.30861695533E+02  0.00000000000E+00 0. -1.
         11    1    4    4    0    0 -0.61611268513E+01 -0.16491047065E+02 -0.10200293515E+03  0.10351093129E+03  0.00000000000E+00 0.  1.
</event>
<event>
 8    1  0.6787197E-009  0.1432788E+03  0.7561462E-02  0.1208984E+00
         -2   -1    0    0    0  501 -0.00000000000E+00  0.00000000000E+00  0.32715851473E+03  0.32715851473E+03  0.00000000000E+00 0.  1.
          2   -1    0    0  501    0  0.00000000000E+00 -0.00000000000E+00 -0.83016468114E+02  0.83016468114E+02  0.00000000000E+00 0. -1.
         25    2    1    2    0    0  0.35794074392E+02  0.11545390723E+03  0.16365252322E+03  0.23883512901E+03  0.12509696253E+03 0.  0.
         23    2    1    2    0    0 -0.35794074392E+02 -0.11545390723E+03  0.80489523400E+02  0.17133985384E+03  0.90928332661E+02 0.  0.
          5    1    3    3  502    0  0.48796631476E+02  0.50809079283E+02  0.15736572581E+03  0.17246483073E+03  0.41800000000E+01 0.  1.
         -5    1    3    3    0  502 -0.13002557084E+02  0.64644827949E+02  0.62867974144E+01  0.66370298274E+02  0.41800000000E+01 0.  1.
        -11    1    4    4    0    0  0.23930293511E+02 -0.72504563354E+02  0.52363864852E+02  0.92582638744E+02  0.00000000000E+00 0. -1.
         11    1    4    4    0    0 -0.59724367903E+02 -0.42949343878E+02  0.28125658548E+02  0.78757215097E+02  0.00000000000E+00 0.  1.
</event>
<event>
 8    1  0.6787197E-009  0.1247044E+03  0.7561462E-02  0.1235532E+00
          3   -1    0    0  501    0  0.00000000000E+00  0.00000000000E+00  0.99715804998E+02  0.99715804998E+02  0.00000000000E+00 0. -1.
         -3   -1    0    0    0  501 -0.00000000000E+00 -0.00000000000E+00 -0.19856319055E+03  0.19856319055E+03  0.00000000000E+00 0.  1.
         25    2    1    2    0    0 -0.71343169149E+02  0.56411313049E+02 -0.53702981812E+02  0.16371783450E+03  0.12508970803E+03 0.  0.
         23    2    1    2    0    0  0.71343169149E+02 -0.56411313049E+02 -0.45144403738E+02  0.13456116104E+03  0.88298385311E+02 0.  0.
          5    1    3    3  502    0 -0.75076686126E+01  0.80200434861E+02 -0.68879269888E+01  0.80953015868E+02  0.41800000000E+01 0.  1.
         -5    1    3    3    0  502 -0.63835500536E+02 -0.23789121811E+02 -0.46815054824E+02  0.82764818633E+02  0.41800000000E+01 0.  1.
        -11    1    4    4    0    0 -0.89911021600E+00 -0.19224761835E+02  0.21946952122E+02  0.29190213672E+02  0.00000000000E+00 0. -1.
         11    1    4    4    0    0  0.72242279365E+02 -0.37186551215E+02 -0.67091355859E+02  0.10537094737E+03  0.00000000000E+00 0.  1.
</event>
<event>
 8    1  0.6787197E-009  0.1571832E+03  0.7561462E-02  0.1191914E+00
          1   -1    0    0  501    0  0.00000000000E+00  0.00000000000E+00  0.90600516997E+03  0.90600516997E+03  0.00000000000E+00 0. -1.
         -1   -1    0    0    0  501 -0.00000000000E+00 -0.00000000000E+00 -0.40082118526E+02  0.40082118526E+02  0.00000000000E+00 0.  1.
         25    2    1    2    0    0 -0.11365522959E+03 -0.10130973222E+03  0.36702260146E+03  0.41657453628E+03  0.12509029233E+03 0.  0.
         23    2    1    2    0    0  0.11365522959E+03  0.10130973222E+03  0.49890044999E+03  0.52951275223E+03  0.91109399710E+02 0.  0.
          5    1    3    3  502    0 -0.10212936243E+03 -0.59661897701E+02  0.35080103788E+03  0.37022802337E+03  0.41800000000E+01 0. -1.
         -5    1    3    3    0  502 -0.11525867155E+02 -0.41647834515E+02  0.16221563574E+02  0.46346512903E+02  0.41800000000E+01 0. -1.
        -11    1    4    4    0    0  0.39004029727E+02  0.41408166008E+02  0.70691009627E+02  0.90736813858E+02  0.00000000000E+00 0.  1.
         11    1    4    4    0    0  0.74651199863E+02  0.59901566209E+02  0.42820944036E+03  0.43877593837E+03  0.00000000000E+00 0. -1.
</event>
<event>
 8    1  0.6787197E-009  0.8276370E+02  0.7561462E-02  0.1321386E+00
          1   -1    0    0  501    0  0.00000000000E+00  0.00000000000E+00  0.10035439204E+03  0.10035439204E+03  0.00000000000E+00 0. -1.
         -1   -1    0    0    0  501 -0.00000000000E+00 -0.00000000000E+00 -0.13767766938E+03  0.13767766938E+03  0.00000000000E+00 0.  1.
         25    2    1    2    0    0 -0.28327753145E+02 -0.35758227972E+02 -0.22785663414E+02  0.13508505046E+03  0.12509065487E+03 0.  0.
         23    2    1    2    0    0  0.28327753145E+02  0.35758227972E+02 -0.14537613926E+02  0.10294701096E+03  0.91135242251E+02 0.  0.
          5    1    3    3  502    0 -0.22973556057E+01  0.11354426114E+02 -0.65247612168E+02  0.66399729885E+02  0.41800000000E+01 0. -1.
         -5    1    3    3    0  502 -0.26030397539E+02 -0.47112654086E+02  0.42461948755E+02  0.68685320580E+02  0.41800000000E+01 0. -1.
        -11    1    4    4    0    0  0.60429657838E+02  0.24457944676E+02 -0.20620326062E+02  0.68374940228E+02  0.00000000000E+00 0.  1.
         11    1    4    4    0    0 -0.32101904694E+02  0.11300283296E+02  0.60827121365E+01  0.34572070729E+02  0.00000000000E+00 0. -1.
</event>
<event>
 8    1  0.6787197E-009  0.2056532E+03  0.7561462E-02  0.1145055E+00
          2   -1    0    0  501    0  0.00000000000E+00  0.00000000000E+00  0.25747561459E+03  0.25747561459E+03  0.00000000000E+00 0. -1.
         -2   -1    0    0    0  501 -0.00000000000E+00 -0.00000000000E+00 -0.18100502243E+03  0.18100502243E+03  0.00000000000E+00 0.  1.
         25    2    1    2    0    0 -0.49340379335E+02 -0.17905428970E+03  0.58688316209E+02  0.23148643899E+03  0.12508693491E+03 0.  0.
         23    2    1    2    0    0  0.49340379335E+02  0.17905428970E+03  0.17782275955E+02  0.20699419803E+03  0.89640822106E+02 0.  0.
          5    1    3    3  502    0 -0.83988875211E+02 -0.78299735356E+02  0.13550052349E+02  0.11569812459E+03  0.41800000000E+01 0. -1.
         -5    1    3    3    0  502  0.34648495876E+02 -0.10075455434E+03  0.45138263860E+02  0.11578831440E+03  0.41800000000E+01 0. -1.
        -11    1    4    4    0    0  0.34482924841E+02  0.55554295314E+02 -0.32264563950E+02  0.72913331567E+02  0.00000000000E+00 0.  1.
         11    1    4    4    0    0  0.14857454493E+02  0.12349999438E+03  0.50046839905E+02  0.13408086646E+03  0.00000000000E+00 0. -1.
</event>
<event>
 8    1  0.6787197E-009  0.2421352E+03  0.7561462E-02  0.1118379E+00
          1   -1    0    0  501    0  0.00000000000E+00  0.00000000000E+00  0.32847749888E+03  0.32847749888E+03  0.00000000000E+00 0. -1.
         -1   -1    0    0    0  501 -0.00000000000E+00 -0.00000000000E+00 -0.18319716382E+03  0.18319716382E+03  0.00000000000E+00 0.  1.
         25    2    1    2    0    0  0.16786537799E+03 -0.14105091298E+03  0.88689599117E+02  0.26755746937E+03  0.12508800599E+03 0.  0.
         23    2    1    2    0    0 -0.16786537799E+03  0.14105091298E+03  0.56590735939E+02  0.24411719334E+03  0.91195106818E+02 0.  0.
          5    1    3    3  502    0  0.62479379058E+02 -0.12554131443E+03  0.22519827856E+02  0.14208768238E+03  0.41800000000E+01 0. -1.
         -5    1    3    3    0  502  0.10538599894E+03 -0.15509598542E+02  0.66169771261E+02  0.12546978699E+03  0.41800000000E+01 0. -1.
        -11    1    4    4    0    0 -0.31418965060E+01  0.48166487982E+02  0.14251170166E+02  0.50328698863E+02  0.00000000000E+00 0.  1.
         11    1    4    4    0    0 -0.16472348149E+03  0.92884424994E+02  0.42339565773E+02  0.19378849447E+03  0.00000000000E+00 0. -1.
</event>
<event>
 8    1  0.6787197E-009  0.1094927E+03  0.7561462E-02  0.1261512E+00
         -1   -1    0    0    0  501 -0.00000000000E+00  0.00000000000E+00  0.10594036031E+03  0.10594036031E+03  0.00000000000E+00 0.  1.
          1   -1    0    0  501    0  0.00000000000E+00 -0.00000000000E+00 -0.17043003658E+03  0.17043003658E+03  0.00000000000E+00 0. -1.
         25    2    1    2    0    0  0.25701909053E+02  0.30783181218E+02 -0.10504556869E+03  0.16819123618E+03  0.12508208526E+03 0.  0.
         23    2    1    2    0    0 -0.25701909053E+02 -0.30783181218E+02  0.40555892418E+02  0.10817916070E+03  0.91922565378E+02 0.  0.
          5    1    3    3  502    0 -0.27692166284E+02 -0.31392982551E+02 -0.63604002739E+02  0.76258225730E+02  0.41800000000E+01 0.  1.
         -5    1    3    3    0  502  0.53394075338E+02  0.62176163769E+02 -0.41441565948E+02  0.91933010450E+02  0.41800000000E+01 0.  1.
        -11    1    4    4    0    0 -0.67875556391E+01 -0.59817536245E+02  0.81772228047E+01  0.60754222296E+02  0.00000000000E+00 0.  1.
         11    1    4    4    0    0 -0.18914353414E+02  0.29034355028E+02  0.32378669613E+02  0.47424938407E+02  0.00000000000E+00 0. -1.
</event>
<event>
 8    1  0.6787197E-009  0.1220807E+03  0.7561462E-02  0.1239703E+00
          2   -1    0    0  501    0  0.00000000000E+00  0.00000000000E+00  0.19946649902E+02  0.19946649902E+02  0.00000000000E+00 0. -1.
         -2   -1    0    0    0  501 -0.00000000000E+00 -0.00000000000E+00 -0.77969666955E+03  0.77969666955E+03  0.00000000000E+00 0.  1.
         25    2    1    2    0    0 -0.42037418824E+02 -0.43848817635E+02 -0.47569354043E+03  0.49560306216E+03  0.12509271533E+03 0.  0.
         23    2    1    2    0    0  0.42037418824E+02  0.43848817635E+02 -0.28405647922E+03  0.30404025729E+03  0.89791599146E+02 0.  0.
          5    1    3    3  502    0  0.21825958258E+02  0.31464418171E+02 -0.17083154730E+03  0.17512073555E+03  0.41800000000E+01 0.  1.
         -5    1    3    3    0  502 -0.63863377082E+02 -0.75313235806E+02 -0.30486199313E+03  0.32048232662E+03  0.41800000000E+01 0.  1.
        -11    1    4    4    0    0  0.38951403731E+02 -0.19377654197E+02 -0.90879561636E+02  0.10075614154E+03  0.00000000000E+00 0. -1.
         11    1    4    4    0    0  0.30860150932E+01  0.63226471832E+02 -0.19317691758E+03  0.20328411575E+03  0.00000000000E+00 0.  1.
</event>
<event>
 8    1  0.6787197E-009  0.1650171E+03  0.7561462E-02  0.1183146E+00
          2   -1    0    0  501    0  0.00000000000E+00  0.00000000000E+00  0.38241007458E+03  0.38241007458E+03  0.00000000000E+00 0. -1.
         -2   -1    0    0    0  501 -0.00000000000E+00 -0.00000000000E+00 -0.15153570539E+03  0.15153570539E+03  0.00000000000E+00 0.  1.
         25    2    1    2    0    0  0.14174121364E+03  0.32475657910E+02 -0.56572444736E+02  0.19997998411E+03  0.12508522111E+03 0.  0.
         23    2    1    2    0    0 -0.14174121364E+03 -0.32475657910E+02  0.28744681392E+03  0.33396579586E+03  0.88103586569E+02 0.  0.
          5    1    3    3  502    0  0.47215464562E+02 -0.20867567862E+02  0.31084553196E+02  0.60402626844E+02  0.41800000000E+01 0. -1.
         -5    1    3    3    0  502  0.94525749082E+02  0.53343225772E+02 -0.87656997933E+02  0.13957735727E+03  0.41800000000E+01 0. -1.
        -11    1    4    4    0    0  0.86991152689E+01 -0.16095003809E+02  0.24427263816E+02  0.30519091920E+02  0.00000000000E+00 0. -1.
         11    1    4    4    0    0 -0.15044032891E+03 -0.16380654101E+02  0.26301955011E+03  0.30344670394E+03  0.00000000000E+00 0.  1.
</event>
<event>
 8    1  0.6787197E-009  0.1341863E+03  0.7561462E-02  0.1221373E+00
          2   -1    0    0  501    0  0.00000000000E+00  0.00000000000E+00  0.53217212554E+03  0.53217212554E+03  0.00000000000E+00 0. -1.
         -2   -1    0    0    0  501 -0.00000000000E+00 -0.00000000000E+00 -0.67911116392E+02  0.67911116392E+02  0.00000000000E+00 0.  1.
         25    2    1    2    0    0  0.64434542582E+02 -0.39074859782E+02  0.45051585520E+03  0.47359412508E+03  0.12509278387E+03 0.  0.
         23    2    1    2    0    0 -0.64434542582E+02  0.39074859782E+02  0.13745153947E+02  0.12648911685E+03  0.10065740152E+03 0.  0.
          5    1    3    3  502    0  0.17439052398E+01 -0.72646030825E+02  0.26680378465E+03  0.27655418801E+03  0.41800000000E+01 0. -1.
         -5    1    3    3    0  502  0.62690637343E+02  0.33571171043E+02  0.18371207055E+03  0.19703993707E+03  0.41800000000E+01 0. -1.
        -11    1    4    4    0    0 -0.37501698533E+02  0.72379041843E+02  0.37537206044E-01  0.81517510389E+02  0.00000000000E+00 0.  1.
         11    1    4    4    0    0 -0.26932844049E+02 -0.33304182061E+02  0.13707616741E+02  0.44971606465E+02  0.00000000000E+00 0. -1.
</event>
<event>
 8    1  0.6787197E-009  0.1657339E+03  0.7561462E-02  0.1182371E+00
          2   -1    0    0  501    0  0.00000000000E+00  0.00000000000E+00  0.13577482005E+03  0.13577482005E+03  0.00000000000E+00 0. -1.
         -2   -1    0    0    0  501 -0.00000000000E+00 -0.00000000000E+00 -0.23922072324E+03  0.23922072324E+03  0.00000000000E+00 0.  1.
         25    2    1    2    0    0  0.13990568912E+03 -0.32930974654E+02 -0.55457578635E+02  0.19845100635E+03  0.12509679434E+03 0.  0.
         23    2    1    2    0    0 -0.13990568912E+03  0.32930974654E+02 -0.47988324557E+02  0.17654453694E+03  0.90592733096E+02 0.  0.
          5    1    3    3  502    0  0.11314811100E+03 -0.75941784336E+02 -0.56586769736E+02  0.14761160029E+03  0.41800000000E+01 0.  1.
         -5    1    3    3    0  502  0.26757578117E+02  0.43010809682E+02  0.11291911013E+01  0.50839406062E+02  0.41800000000E+01 0.  1.
        -11    1    4    4    0    0 -0.78953864244E+02  0.11999023024E+02  0.20554014268E+02  0.82463062853E+02  0.00000000000E+00 0. -1.
         11    1    4    4    0    0 -0.60951824876E+02  0.20931951630E+02 -0.68542338825E+02  0.94081474087E+02  0.00000000000E+00 0.  1.
</event>
<event>
 8    1  0.6787197E-009  0.1233996E+03  0.7561462E-02  0.1237592E+00
         -1   -1    0    0    0  501 -0.00000000000E+00  0.00000000000E+00  0.74409648285E+02  0.74409648285E+02  0.00000000000E+00 0.  1.
          1   -1    0    0  501    0  0.00000000000E+00 -0.00000000000E+00 -0.22070518183E+03  0.22070518183E+03  0.00000000000E+00 0. -1.
         25    2    1    2    0    0 -0.29233869234E+02  0.53380964090E+02 -0.10522572411E+03  0.17441935243E+03  0.12508201729E+03 0.  0.
         23    2    1    2    0    0  0.29233869234E+02 -0.53380964090E+02 -0.41069809439E+02  0.12069547769E+03  0.95794168144E+02 0.  0.
          5    1    3    3  502    0 -0.38395037665E+02 -0.33107170800E+02 -0.28178306451E+02  0.58152841978E+02  0.41800000000E+01 0.  1.
         -5    1    3    3    0  502  0.91611684315E+01  0.86488134890E+02 -0.77047417658E+02  0.11626651045E+03  0.41800000000E+01 0.  1.
        -11    1    4    4    0    0  0.48961145005E+02  0.30710529151E+01 -0.16753046523E+01  0.49085962677E+02  0.00000000000E+00 0.  1.
         11    1    4    4    0    0 -0.19727275772E+02 -0.56452017005E+02 -0.39394504786E+02  0.71609515015E+02  0.00000000000E+00 0. -1.
</event>
<event>
 8    1  0.6787197E-009  0.1435679E+03  0.7561462E-02  0.1208607E+00
         -2   -1    0    0    0  501 -0.00000000000E+00  0.00000000000E+00  0.44790757502E+02  0.44790757502E+02  0.00000000000E+00 0.  1.
          2   -1    0    0  501    0  0.00000000000E+00 -0.00000000000E+00 -0.53443279525E+03  0.53443279525E+03  0.00000000000E+00 0. -1.
         25    2    1    2    0    0 -0.97712924584E+01 -0.10463303483E+03 -0.20453296964E+03  0.26177225672E+03  0.12508968217E+03 0.  0.
         23    2    1    2    0    0  0.97712924584E+01  0.10463303483E+03 -0.28510906811E+03  0.31745129603E+03  0.91894474805E+02 0.  0.
          5    1    3    3  502    0 -0.33330945788E+02 -0.12160004779E+03 -0.12758891076E+03  0.17942665944E+03  0.41800000000E+01 0. -1.
         -5    1    3    3    0  502  0.23559653330E+02  0.16967012966E+02 -0.76944058878E+02  0.82345597276E+02  0.41800000000E+01 0. -1.
        -11    1    4    4    0    0 -0.32847121834E+02  0.67723831779E+02 -0.10842677383E+03  0.13199172734E+03  0.00000000000E+00 0.  1.
         11    1    4    4    0    0  0.42618414292E+02  0.36909203050E+02 -0.17668229428E+03  0.18545956869E+03  0.00000000000E+00 0. -1.
</event>
<event>
 8    1  0.6787197E-009  0.6594080E+02  0.7561462E-02  0.1374467E+00
         -2   -1    0    0    0  501 -0.00000000000E+00  0.00000000000E+00  0.11348955621E+03  0.11348955621E+03  0.00000000000E+00 0.  1.
          2   -1    0    0  501    0  0.00000000000E+00 -0.00000000000E+00 -0.10489405134E+03  0.10489405134E+03  0.00000000000E+00 0. -1.
         25    2    1    2    0    0  0.35908067841E+01  0.29466524424E+00  0.17299440248E+02  0.12633253072E+03  0.12509059503E+03 0.  0.
         23    2    1    2    0    0 -0.35908067841E+01 -0.29466524424E+00 -0.87039353794E+01  0.92051076837E+02  0.91567797477E+02 0.  0.
          5    1    3    3  502    0 -0.80126235423E+01  0.20321919653E+02  0.67405917108E+02  0.70980367818E+02  0.41800000000E+01 0.  1.
         -5    1    3    3    0  502  0.11603430326E+02 -0.20027254408E+02 -0.50106476860E+02  0.55352162901E+02  0.41800000000E+01 0.  1.
        -11    1    4    4    0    0  0.40957652952E+02  0.49864859134E+01 -0.19909309906E+02  0.45812389132E+02  0.00000000000E+00 0. -1.
         11    1    4    4    0    0 -0.44548459736E+02 -0.52811511576E+01  0.11205374526E+02  0.46238687705E+02  0.00000000000E+00 0.  1.
</event>
<event>
 8    1  0.6787197E-009  0.7511455E+02  0.7561462E-02  0.1343517E+00
         -2   -1    0    0    0  501 -0.00000000000E+00  0.00000000000E+00  0.19440445568E+02  0.19440445568E+02  0.00000000000E+00 0.  1.
          2   -1    0    0  501    0  0.00000000000E+00 -0.00000000000E+00 -0.89104785986E+03  0.89104785986E+03  0.00000000000E+00 0. -1.
         25    2    1    2    0    0  0.30765318736E+02 -0.45975965373E+01 -0.71577789475E+03  0.72729288462E+03  0.12509717292E+03 0.  0.
         23    2    1    2    0    0 -0.30765318736E+02  0.45975965373E+01 -0.15582951954E+03  0.18319542081E+03  0.91159641915E+02 0.  0.
          5    1    3    3  502    0  0.95424585816E+00 -0.32767182682E+02 -0.64141870198E+03  0.64226943139E+03  0.41800000000E+01 0.  1.
         -5    1    3    3    0  502  0.29811072878E+02  0.28169586144E+02 -0.74359192772E+02  0.85023453231E+02  0.41800000000E+01 0.  1.
        -11    1    4    4    0    0  0.21643678922E+02 -0.60546766730E+01 -0.11146688728E+03  0.11371004752E+03  0.00000000000E+00 0. -1.
         11    1    4    4    0    0 -0.52408997658E+02  0.10652273210E+02 -0.44362632261E+02  0.69485373289E+02  0.00000000000E+00 0.  1.
</event>
<event>
 8    1  0.6787197E-009  0.9423997E+02  0.7561462E-02  0.1292897E+00
         -1   -1    0    0    0  501 -0.00000000000E+00  0.00000000000E+00  0.74416489733E+03  0.74416489733E+03  0.00000000000E+00 0.  1.
          1   -1    0    0  501    0  0.00000000000E+00 -0.00000000000E+00 -0.21837151073E+02  0.21837151073E+02  0.00000000000E+00 0. -1.
         25    2    1    2    0    0  0.24179977003E+02 -0.62545894065E+02  0.39592845158E+03  0.42059976201E+03  0.12509260920E+03 0.  0.
         23    2    1    2    0    0 -0.24179977003E+02  0.62545894065E+02  0.32639929467E+03  0.34540228639E+03  0.90937229619E+02 0.  0.
          5    1    3    3  502    0  0.24668338316E+02 -0.76335203444E+02  0.12066479277E+03  0.14495880386E+03  0.41800000000E+01 0. -1.
         -5    1    3    3    0  502 -0.48836131294E+00  0.13789309380E+02  0.27526365881E+03  0.27564095815E+03  0.41800000000E+01 0. -1.
        -11    1    4    4    0    0 -0.44368626648E+02  0.24555967409E+02  0.26862563903E+03  0.27337026998E+03  0.00000000000E+00 0.  1.
         11    1    4    4    0    0  0.20188649645E+02  0.37989926656E+02  0.57773655636E+02  0.72032016405E+02  0.00000000000E+00 0. -1.
</event>
<event>
 8    1  0.6787197E-009  0.1010673E+03  0.7561462E-02  0.1278068E+00
         -1   -1    0    0    0  501 -0.00000000000E+00  0.00000000000E+00  0.62966363326E+02  0.62966363326E+02  0.00000000000E+00 0.  1.
          1   -1    0    0  501    0  0.00000000000E+00 -0.00000000000E+00 -0.19857233532E+03  0.19857233532E+03  0.00000000000E+00 0. -1.
         25    2    1    2    0    0 -0.14847213655E+02 -0.18452497313E+02 -0.56098990321E+02  0.13912408191E+03  0.12508988385E+03 0.  0.
         23    2    1    2    0    0  0.14847213655E+02  0.18452497313E+02 -0.79506981669E+02  0.12241461673E+03  0.90016908664E+02 0.  0.
          5    1    3    3  502    0  0.27485649229E+02  0.32842750802E+02 -0.58286501338E+02  0.72449263847E+02  0.41800000000E+01 0.  1.
         -5    1    3    3    0  502 -0.42332862884E+02 -0.51295248115E+02  0.21875110165E+01  0.66674818062E+02  0.41800000000E+01 0.  1.
        -11    1    4    4    0    0  0.43365000305E+02 -0.17338329682E+02 -0.33128974375E+02  0.57259670544E+02  0.00000000000E+00 0.  1.
         11    1    4    4    0    0 -0.28517786651E+02  0.35790826995E+02 -0.46378007294E+02  0.65154946189E+02  0.00000000000E+00 0. -1.
</event>
<event>
 8    1  0.6787197E-009  0.9361649E+02  0.7561462E-02  0.1294323E+00
          2   -1    0    0  501    0  0.00000000000E+00  0.00000000000E+00  0.79237021865E+03  0.79237021865E+03  0.00000000000E+00 0. -1.
         -2   -1    0    0    0  501 -0.00000000000E+00 -0.00000000000E+00 -0.26235107946E+02  0.26235107946E+02  0.00000000000E+00 0.  1.
         25    2    1    2    0    0 -0.38614940080E+02 -0.25737605309E+02  0.65244293661E+03  0.66594423772E+03  0.12508558787E+03 0.  0.
         23    2    1    2    0    0  0.38614940080E+02  0.25737605309E+02  0.11369217409E+03  0.15266108888E+03  0.90697076486E+02 0.  0.
          5    1    3    3  502    0  0.37342974208E+02 -0.37115848605E+02  0.34531157746E+03  0.34932741356E+03  0.41800000000E+01 0.  1.
         -5    1    3    3    0  502 -0.75957914287E+02  0.11378243296E+02  0.30713135915E+03  0.31661682416E+03  0.41800000000E+01 0.  1.
        -11    1    4    4    0    0  0.31804468214E+02  0.97909522889E+00 -0.41180527985E+01  0.32084905870E+02  0.00000000000E+00 0.  1.
         11    1    4    4    0    0  0.68104718655E+01  0.24758510080E+02  0.11781022689E+03  0.12057618301E+03  0.00000000000E+00 0. -1.
</event>
<event>
 8    1  0.6787197E-009  0.1881362E+03  0.7561462E-02  0.1160153E+00
          2   -1    0    0  501    0  0.00000000000E+00  0.00000000000E+00  0.31041218646E+03  0.31041218646E+03  0.00000000000E+00 0. -1.
         -2   -1    0    0    0  501 -0.00000000000E+00 -0.00000000000E+00 -0.14832547576E+03  0.14832547576E+03  0.00000000000E+00 0.  1.
         25    2    1    2    0    0  0.11741148546E+03 -0.13904766274E+03  0.49582561834E+02  0.22633196827E+03  0.12509204607E+03 0.  0.
         23    2    1    2    0    0 -0.11741148546E+03  0.13904766274E+03  0.11250414887E+03  0.23240569395E+03  0.90749730781E+02 0.  0.
          5    1    3    3  502    0  0.98569195561E+02 -0.66161953192E+02 -0.23765532453E+02  0.12114273935E+03  0.41800000000E+01 0. -1.
         -5    1    3    3    0  502  0.18842289899E+02 -0.72885709551E+02  0.73348094287E+02  0.10518922892E+03  0.41800000000E+01 0. -1.
        -11    1    4    4    0    0 -0.42205635524E+02  0.54465615208E+02  0.95788033653E+02  0.11799646732E+03  0.00000000000E+00 0. -1.
         11    1    4    4    0    0 -0.75205849935E+02  0.84582047536E+02  0.16716115216E+02  0.11440922663E+03  0.00000000000E+00 0.  1.
</event>
<event>
 8    1  0.6787197E-009  0.1430871E+03  0.7561462E-02  0.1209234E+00
          1   -1    0    0  501    0  0.00000000000E+00  0.00000000000E+00  0.19365627502E+03  0.19365627502E+03  0.00000000000E+00 0. -1.
         -1   -1    0    0    0  501 -0.00000000000E+00 -0.00000000000E+00 -0.11843011842E+03  0.11843011842E+03  0.00000000000E+00 0.  1.
         25    2    1    2    0    0 -0.68428507627E+02 -0.68865937943E+02  0.13206617625E+01  0.15835052487E+03  0.12509263174E+03 0.  0.
         23    2    1    2    0    0  0.68428507627E+02  0.68865937943E+02  0.73905494842E+02  0.15373586857E+03  0.93529230999E+02 0.  0.
          5    1    3    3  502    0 -0.27924861664E+02 -0.10134010422E+03 -0.77448026546E+01  0.10548492304E+03  0.41800000000E+01 0.  1.
         -5    1    3    3    0  502 -0.40503645963E+02  0.32474166273E+02  0.90654644171E+01  0.52865601827E+02  0.41800000000E+01 0.  1.
        -11    1    4    4    0    0 -0.18565533062E+02  0.10636624016E+01  0.29425543670E+02  0.34809093868E+02  0.00000000000E+00 0. -1.
         11    1    4    4    0    0  0.86994040689E+02  0.67802275542E+02  0.44479951172E+02  0.11892677470E+03  0.00000000000E+00 0.  1.
</event>
<event>
 8    1  0.6787197E-009  0.8320213E+02  0.7561462E-02  0.1320202E+00
          2   -1    0    0  501    0  0.00000000000E+00  0.00000000000E+00  0.33157791910E+03  0.33157791910E+03  0.00000000000E+00 0.  1.
         -2   -1    0    0    0  501 -0.00000000000E+00 -0.00000000000E+00 -0.41680529487E+02  0.41680529487E+02  0.00000000000E+00 0. -1.
         25    2    1    2    0    0 -0.14817610856E+02  0.29497921228E+02  0.20714434649E+03  0.24422530989E+03  0.12509009858E+03 0.  0.
         23    2    1    2    0    0  0.14817610856E+02 -0.29497921228E+02  0.82753043132E+02  0.12903313870E+03  0.93337001168E+02 0.  0.
          5    1    3    3  502    0  0.43465379214E+02  0.26448329444E+02  0.33684945654E+02  0.61162907748E+02  0.41800000000E+01 0. -1.
         -5    1    3    3    0  502 -0.58282990070E+02  0.30495917848E+01  0.17345940083E+03  0.18306240214E+03  0.41800000000E+01 0. -1.
        -11    1    4    4    0    0  0.29394420047E+02 -0.30334623653E+02  0.98731890418E+02  0.10738811623E+03  0.00000000000E+00 0.  1.
         11    1    4    4    0    0 -0.14576809191E+02  0.83670242427E+00 -0.15978847285E+02  0.21645022470E+02  0.00000000000E+00 0. -1.
</event>
<event>
 8    1  0.6787197E-009  0.1354288E+03  0.7561462E-02  0.1219616E+00
          4   -1    0    0  501    0  0.00000000000E+00  0.00000000000E+00  0.13744700608E+04  0.13744700608E+04  0.00000000000E+00 0.  1.
         -4   -1    0    0    0  501 -0.00000000000E+00 -0.00000000000E+00 -0.19407469819E+02  0.19407469819E+02  0.00000000000E+00 0. -1.
         25    2    1    2    0    0 -0.31578409699E+02  0.75904651673E+02  0.11063445117E+04  0.11164249746E+04  0.12509129946E+03 0.  0.
         23    2    1    2    0    0  0.31578409699E+02 -0.75904651673E+02  0.24871807928E+03  0.27745255603E+03  0.91435910804E+02 0.  0.
          5    1    3    3  502    0 -0.36398621642E+02  0.10860423195E+03  0.92164711931E+03  0.92874680284E+03  0.41800000000E+01 0.  1.
         -5    1    3    3    0  502  0.48202119430E+01 -0.32699580274E+02  0.18469739236E+03  0.18767817172E+03  0.41800000000E+01 0.  1.
        -11    1    4    4    0    0 -0.26471297513E+02 -0.55329075196E+02  0.12748495498E+03  0.14147243512E+03  0.00000000000E+00 0. -1.
         11    1    4    4    0    0  0.58049707213E+02 -0.20575576476E+02  0.12123312430E+03  0.13598012091E+03  0.00000000000E+00 0.  1.
</event>
<event>
 8    1  0.6787197E-009  0.1136293E+03  0.7561462E-02  0.1253993E+00
         -1   -1    0    0    0  501 -0.00000000000E+00  0.00000000000E+00  0.61470908377E+02  0.61470908377E+02  0.00000000000E+00 0.  1.
          1   -1    0    0  501    0  0.00000000000E+00 -0.00000000000E+00 -0.42983195770E+03  0.42983195770E+03  0.00000000000E+00 0. -1.
         25    2    1    2    0    0  0.73096626088E+02 -0.37829416115E+02 -0.63814801203E+02  0.16277283669E+03  0.12509390889E+03 0.  0.
         23    2    1    2    0    0 -0.73096626088E+02  0.37829416115E+02 -0.30454624812E+03  0.32853002939E+03  0.91702679885E+02 0.  0.
          5    1    3    3  502    0  0.83501485559E+02  0.19300633851E+02 -0.59453445677E+02  0.10438964106E+03  0.41800000000E+01 0. -1.
         -5    1    3    3    0  502 -0.10404859471E+02 -0.57130049966E+02 -0.43613555265E+01  0.58383195628E+02  0.41800000000E+01 0. -1.
        -11    1    4    4    0    0 -0.55476482870E+02  0.34419257933E+02 -0.30361910589E+03  0.31055899106E+03  0.00000000000E+00 0. -1.
         11    1    4    4    0    0 -0.17620143218E+02  0.34101581824E+01 -0.92714222930E+00  0.17971038327E+02  0.00000000000E+00 0.  1.
</event>
<event>
 8    1  0.6787197E-009  0.1565234E+03  0.7561462E-02  0.1192679E+00
         -2   -1    0    0    0  501 -0.00000000000E+00  0.00000000000E+00  0.41026499217E+02  0.41026499217E+02  0.00000000000E+00 0.  1.
          2   -1    0    0  501    0  0.00000000000E+00 -0.00000000000E+00 -0.70353307112E+03  0.70353307112E+03  0.00000000000E+00 0. -1.
         25    2    1    2    0    0 -0.64881957325E+02 -0.10787697163E+03 -0.26426477381E+03  0.31832593124E+03  0.12509363863E+03 0.  0.
         23    2    1    2    0    0  0.64881957325E+02  0.10787697163E+03 -0.39824179809E+03  0.42623363910E+03  0.85038085337E+02 0.  0.
          5    1    3    3  502    0 -0.91645161215E+02 -0.33270586438E+02 -0.13364854159E+03  0.16548465961E+03  0.41800000000E+01 0.  1.
         -5    1    3    3    0  502  0.26763203890E+02 -0.74606385194E+02 -0.13061623221E+03  0.15284127163E+03  0.41800000000E+01 0.  1.
        -11    1    4    4    0    0  0.44999589613E+02  0.26296375615E+02 -0.69112966943E+02  0.86562489772E+02  0.00000000000E+00 0. -1.
         11    1    4    4    0    0  0.19882367712E+02  0.81580596017E+02 -0.32912883115E+03  0.33967114933E+03  0.00000000000E+00 0.  1.
</event>
<event>
 8    1  0.6787197E-009  0.1297992E+03  0.7561462E-02  0.1227754E+00
          1   -1    0    0  501    0  0.00000000000E+00  0.00000000000E+00  0.87515884848E+03  0.87515884848E+03  0.00000000000E+00 0. -1.
         -1   -1    0    0    0  501 -0.00000000000E+00 -0.00000000000E+00 -0.22726890831E+02  0.22726890831E+02  0.00000000000E+00 0.  1.
         25    2    1    2    0    0  0.69939720311E+02  0.55652377792E+02  0.44772682242E+03  0.47338653605E+03  0.12508698321E+03 0.  0.
         23    2    1    2    0    0 -0.69939720311E+02 -0.55652377792E+02  0.40470513523E+03  0.42449920327E+03  0.91785486092E+02 0.  0.
          5    1    3    3  502    0  0.15052219682E+01  0.72500705419E+02  0.14065955426E+03  0.15830729795E+03  0.41800000000E+01 0. -1.
         -5    1    3    3    0  502  0.68434498343E+02 -0.16848327627E+02  0.30706726816E+03  0.31507923810E+03  0.41800000000E+01 0. -1.
        -11    1    4    4    0    0  0.87679537800E+01 -0.33450856101E+02  0.52079490128E+02  0.62514878864E+02  0.00000000000E+00 0.  1.
         11    1    4    4    0    0 -0.78707674091E+02 -0.22201521691E+02  0.35262564511E+03  0.36198432440E+03  0.00000000000E+00 0. -1.
</event>
<event>
 8    1  0.6787197E-009  0.1061151E+03  0.7561462E-02  0.1267938E+00
          1   -1    0    0  501    0  0.00000000000E+00  0.00000000000E+00  0.15718465302E+03  0.15718465302E+03  0.00000000000E+00 0. -1.
         -1   -1    0    0    0  501 -0.00000000000E+00 -0.00000000000E+00 -0.11539137873E+03  0.11539137873E+03  0.00000000000E+00 0.  1.
         25    2    1    2    0    0  0.98843656166E+01  0.42798697810E+02  0.89846255800E+02  0.16015319769E+03  0.12508903962E+03 0.  0.
         23    2    1    2    0    0 -0.98843656166E+01 -0.42798697810E+02 -0.48052981508E+02  0.11242283406E+03  0.91653561683E+02 0.  0.
          5    1    3    3  502    0  0.14609097495E+02  0.75700412148E+02  0.98881481685E+02  0.12545516310E+03  0.41800000000E+01 0.  1.
         -5    1    3    3    0  502 -0.47247318782E+01 -0.32901714338E+02 -0.90352258848E+01  0.34698034591E+02  0.41800000000E+01 0.  1.
        -11    1    4    4    0    0  0.28201280473E+02  0.15273528553E+02 -0.17707137745E+02  0.36635169194E+02  0.00000000000E+00 0.  1.
         11    1    4    4    0    0 -0.38085646089E+02 -0.58072226362E+02 -0.30345843763E+02  0.75787664870E+02  0.00000000000E+00 0. -1.
</event>
<event>
 8    1  0.6787197E-009  0.1253691E+03  0.7561462E-02  0.1234494E+00
          2   -1    0    0  501    0  0.00000000000E+00  0.00000000000E+00  0.51321982204E+02  0.51321982204E+02  0.00000000000E+00 0. -1.
         -2   -1    0    0    0  501 -0.00000000000E+00 -0.00000000000E+00 -0.47389697297E+03  0.47389697297E+03  0.00000000000E+00 0.  1.
         25    2    1    2    0    0  0.15123302472E+02 -0.91051091589E+02 -0.33133743210E+03  0.36599346073E+03  0.12509078233E+03 0.  0.
         23    2    1    2    0    0 -0.15123302472E+02  0.91051091589E+02 -0.91237558659E+02  0.15922549444E+03  0.92246682398E+02 0.  0.
          5    1    3    3  502    0  0.68198443432E+02 -0.70164756115E+02 -0.19750057772E+03  0.22044970240E+03  0.41800000000E+01 0.  1.
         -5    1    3    3    0  502 -0.53075140959E+02 -0.20886335475E+02 -0.13383685438E+03  0.14554375833E+03  0.41800000000E+01 0.  1.
        -11    1    4    4    0    0 -0.91324041537E+01  0.74217131212E+01  0.18009384065E+02  0.21513264412E+02  0.00000000000E+00 0. -1.
         11    1    4    4    0    0 -0.59908983187E+01  0.83629378468E+02 -0.10924694272E+03  0.13771223003E+03  0.00000000000E+00 0.  1.
</event>
<event>
 8    1  0.6787197E-009  0.1019427E+03  0.7561462E-02  0.1276263E+00
          1   -1    0    0  501    0  0.00000000000E+00  0.00000000000E+00  0.42584956895E+03  0.42584956895E+03  0.00000000000E+00 0. -1.
         -1   -1    0    0    0  501 -0.00000000000E+00 -0.00000000000E+00 -0.39529320112E+02  0.39529320112E+02  0.00000000000E+00 0.  1.
         25    2    1    2    0    0 -0.58428332079E+01  0.12227885906E+02  0.90403080763E+02  0.15493365780E+03  0.12509221164E+03 0.  0.
         23    2    1    2    0    0  0.58428332079E+01 -0.12227885906E+02  0.29591716807E+03  0.31044523126E+03  0.92874169496E+02 0.  0.
          5    1    3    3  502    0  0.50666677734E+02 -0.54357836189E+01  0.79598987837E+02  0.94605133269E+02  0.41800000000E+01 0.  1.
         -5    1    3    3    0  502 -0.56509510942E+02  0.17663669525E+02  0.10804092926E+02  0.60328524530E+02  0.41800000000E+01 0.  1.
        -11    1    4    4    0    0 -0.18510629695E+01 -0.52434677974E+02  0.18118261199E+03  0.18862651133E+03  0.00000000000E+00 0. -1.
         11    1    4    4    0    0  0.76938961774E+01  0.40206792068E+02  0.11473455608E+03  0.12181871993E+03  0.00000000000E+00 0.  1.
</event>
<event>
 8    1  0.6787197E-009  0.9527130E+02  0.7561462E-02  0.1290566E+00
         -2   -1    0    0    0  501 -0.00000000000E+00  0.00000000000E+00  0.20630741136E+02  0.20630741136E+02  0.00000000000E+00 0. -1.
          2   -1    0    0  501    0  0.00000000000E+00 -0.00000000000E+00 -0.91941833240E+03  0.91941833240E+03  0.00000000000E+00 0.  1.
         25    2    1    2    0    0 -0.25129476612E+02 -0.73566543666E+02 -0.58402906517E+03  0.60231322413E+03  0.12509094313E+03 0.  0.
         23    2    1    2    0    0  0.25129476612E+02  0.73566543666E+02 -0.31475852609E+03  0.33773584941E+03  0.94599404255E+02 0.  0.
          5    1    3    3  502    0 -0.41696925293E+01 -0.44745755492E+02 -0.51101754259E+02  0.68179400545E+02  0.41800000000E+01 0.  1.
         -5    1    3    3    0  502 -0.20959784083E+02 -0.28820788174E+02 -0.53292731091E+03  0.53413382358E+03  0.41800000000E+01 0.  1.
        -11    1    4    4    0    0  0.50612016479E+02  0.29382960018E+02 -0.90674994992E+02  0.10792075458E+03  0.00000000000E+00 0. -1.
         11    1    4    4    0    0 -0.25482539866E+02  0.44183583648E+02 -0.22408353110E+03  0.22981509483E+03  0.00000000000E+00 0.  1.
</event>
<event>
 8    1  0.6787197E-009  0.1521975E+03  0.7561462E-02  0.1197798E+00
         -3   -1    0    0    0  501 -0.00000000000E+00  0.00000000000E+00  0.58946774326E+02  0.58946774326E+02  0.00000000000E+00 0.  1.
          3   -1    0    0  501    0  0.00000000000E+00 -0.00000000000E+00 -0.47734871555E+03  0.47734871555E+03  0.00000000000E+00 0. -1.
         25    2    1    2    0    0  0.10322427841E+03 -0.76229622327E+02 -0.22277158936E+03  0.28590452773E+03  0.12509201005E+03 0.  0.
         23    2    1    2    0    0 -0.10322427841E+03  0.76229622327E+02 -0.19563035186E+03  0.25039096214E+03  0.89208701258E+02 0.  0.
          5    1    3    3  502    0 -0.27322931750E+02 -0.83897961307E+01 -0.59150464601E+02  0.65826902867E+02  0.41800000000E+01 0. -1.
         -5    1    3    3    0  502  0.13054721016E+03 -0.67839826196E+02 -0.16362112476E+03  0.22007762487E+03  0.41800000000E+01 0. -1.
        -11    1    4    4    0    0 -0.75299046773E+02  0.56353509698E+02 -0.19455728852E+03  0.21609767008E+03  0.00000000000E+00 0. -1.
         11    1    4    4    0    0 -0.27925231636E+02  0.19876112628E+02 -0.10730633407E+01  0.34293292057E+02  0.00000000000E+00 0.  1.
</event>
<event>
 8    1  0.6787197E-009  0.1695212E+03  0.7561462E-02  0.1178348E+00
          1   -1    0    0  501    0  0.00000000000E+00  0.00000000000E+00  0.41358376127E+03  0.41358376127E+03  0.00000000000E+00 0. -1.
         -1   -1    0    0    0  501 -0.00000000000E+00 -0.00000000000E+00 -0.85552701687E+02  0.85552701687E+02  0.00000000000E+00 0.  1.
         25    2    1    2    0    0  0.14530857696E+03  0.22445523630E+02  0.22541263053E+03  0.29677787945E+03  0.12509145319E+03 0.  0.
         23    2    1    2    0    0 -0.14530857696E+03 -0.22445523630E+02  0.10261842905E+03  0.20235858350E+03  0.93808689716E+02 0.  0.
          5    1    3    3  502    0  0.15426158158E+03  0.46484065730E+02  0.21518381949E+03  0.26884745208E+03  0.41800000000E+01 0. -1.
         -5    1    3    3    0  502 -0.89530046226E+01 -0.24038542100E+02  0.10228811040E+02  0.27930427375E+02  0.41800000000E+01 0. -1.
        -11    1    4    4    0    0 -0.44383489599E+02  0.10702942175E+02  0.82427886565E+02  0.94227403677E+02  0.00000000000E+00 0. -1.
         11    1    4    4    0    0 -0.10092508736E+03 -0.33148465805E+02  0.20190542487E+02  0.10813117982E+03  0.00000000000E+00 0.  1.
</event>
<event>
 8    1  0.6787197E-009  0.1168565E+03  0.7561462E-02  0.1248375E+00
          1   -1    0    0  501    0  0.00000000000E+00  0.00000000000E+00  0.15838579112E+03  0.15838579112E+03  0.00000000000E+00 0. -1.
         -1   -1    0    0    0  501 -0.00000000000E+00 -0.00000000000E+00 -0.12650372330E+03  0.12650372330E+03  0.00000000000E+00 0.  1.
         25    2    1    2    0    0  0.32678611972E+02  0.66368223704E+02  0.69309656469E+02  0.16101813164E+03  0.12510146857E+03 0.  0.
         23    2    1    2    0    0 -0.32678611972E+02 -0.66368223704E+02 -0.37427588653E+02  0.12387138278E+03  0.92036200934E+02 0.  0.
          5    1    3    3  502    0  0.47254441091E+02 -0.35679336356E+01  0.75448153870E+02  0.89194218847E+02  0.41800000000E+01 0. -1.
         -5    1    3    3    0  502 -0.14575829120E+02  0.69936157339E+02 -0.61384974009E+01  0.71823912789E+02  0.41800000000E+01 0. -1.
        -11    1    4    4    0    0  0.25313033534E+02 -0.47098175268E+02 -0.32481123707E+02  0.62562058610E+02  0.00000000000E+00 0. -1.
         11    1    4    4    0    0 -0.57991645506E+02 -0.19270048436E+02 -0.49464649464E+01  0.61309324174E+02  0.00000000000E+00 0.  1.
</event>
<event>
 8    1  0.6787197E-009  0.9288575E+02  0.7561462E-02  0.1296010E+00
          1   -1    0    0  501    0  0.00000000000E+00  0.00000000000E+00  0.49140261374E+02  0.49140261374E+02  0.00000000000E+00 0.  1.
         -1   -1    0    0    0  501 -0.00000000000E+00 -0.00000000000E+00 -0.25901248929E+03  0.25901248929E+03  0.00000000000E+00 0. -1.
         25    2    1    2    0    0  0.15922084806E+01  0.24973498416E+02 -0.12219118399E+03  0.17664866632E+03  0.12509138707E+03 0.  0.
         23    2    1    2    0    0 -0.15922084806E+01 -0.24973498416E+02 -0.87681043931E+02  0.13150408434E+03  0.94758366298E+02 0.  0.
          5    1    3    3  502    0 -0.29989945294E+01 -0.39183369086E+02 -0.10154819667E+03  0.10896714655E+03  0.41800000000E+01 0.  1.
         -5    1    3    3    0  502  0.45912030100E+01  0.64156867501E+02 -0.20642987316E+02  0.67681519767E+02  0.41800000000E+01 0.  1.
        -11    1    4    4    0    0 -0.19165164241E+02 -0.48662125031E+02 -0.17127199417E+02  0.55033143585E+02  0.00000000000E+00 0.  1.
         11    1    4    4    0    0  0.17572955760E+02  0.23688626615E+02 -0.70553844514E+02  0.76470940760E+02  0.00000000000E+00 0. -1.
</event>
<event>
 8    1  0.6787197E-009  0.1025725E+03  0.7561462E-02  0.1274977E+00
         -4   -1    0    0    0  501 -0.00000000000E+00  0.00000000000E+00  0.28561968078E+03  0.28561968078E+03  0.00000000000E+00 0.  1.
          4   -1    0    0  501    0  0.00000000000E+00 -0.00000000000E+00 -0.46154012151E+02  0.46154012151E+02  0.00000000000E+00 0. -1.
         25    2    1    2    0    0 -0.28246341132E+02 -0.20418310633E+02  0.11646697350E+03  0.17442433382E+03  0.12507809206E+03 0.  0.
         23    2    1    2    0    0  0.28246341132E+02  0.20418310633E+02  0.12299869513E+03  0.15734935912E+03  0.91735372759E+02 0.  0.
          5    1    3    3  502    0 -0.64436412470E+02  0.59980534239E+01  0.11171582634E+03  0.12917401500E+03  0.41800000000E+01 0.  1.
         -5    1    3    3    0  502  0.36190071338E+02 -0.26416364057E+02  0.47511471641E+01  0.45250318814E+02  0.41800000000E+01 0.  1.
        -11    1    4    4    0    0  0.54531928048E+02  0.35424175754E+02  0.10022027124E+03  0.11946843170E+03  0.00000000000E+00 0.  1.
         11    1    4    4    0    0 -0.26285586916E+02 -0.15005865121E+02  0.22778423892E+02  0.37880927425E+02  0.00000000000E+00 0. -1.
</event>
<event>
 8    1  0.6787197E-009  0.1416743E+03  0.7561462E-02  0.1211094E+00
         -2   -1    0    0    0  501 -0.00000000000E+00  0.00000000000E+00  0.87476370474E+02  0.87476370474E+02  0.00000000000E+00 0. -1.
          2   -1    0    0  501    0  0.00000000000E+00 -0.00000000000E+00 -0.25095893538E+03  0.25095893538E+03  0.00000000000E+00 0.  1.
         25    2    1    2    0    0  0.19750354700E+02  0.93344887362E+02 -0.53091159348E+02  0.16604129704E+03  0.12509075352E+03 0.  0.
         23    2    1    2    0    0 -0.19750354700E+02 -0.93344887362E+02 -0.11039140556E+03  0.17239400881E+03  0.91815507110E+02 0.  0.
          5    1    3    3  502    0  0.72440696829E+02  0.64612899343E+02 -0.33420496137E+02  0.10274669474E+03  0.41800000000E+01 0. -1.
         -5    1    3    3    0  502 -0.52690342128E+02  0.28731988019E+02 -0.19670663211E+02  0.63294602300E+02  0.41800000000E+01 0. -1.
        -11    1    4    4    0    0  0.15542669680E+02 -0.89141524946E+02 -0.52934514253E+02  0.10483247994E+03  0.00000000000E+00 0. -1.
         11    1    4    4    0    0 -0.35293024381E+02 -0.42033624163E+01 -0.57456891305E+02  0.67561528876E+02  0.00000000000E+00 0.  1.
</event>
<event>
 8    1  0.6787197E-009  0.1269264E+03  0.7561462E-02  0.1232089E+00
          1   -1    0    0  501    0  0.00000000000E+00  0.00000000000E+00  0.33697163261E+03  0.33697163261E+03  0.00000000000E+00 0. -1.
         -1   -1    0    0    0  501 -0.00000000000E+00 -0.00000000000E+00 -0.49223419942E+02  0.49223419942E+02  0.00000000000E+00 0.  1.
         25    2    1    2    0    0 -0.24750883716E+02  0.55147839645E+02  0.12505533457E+03  0.18692262147E+03  0.12508932509E+03 0.  0.
         23    2    1    2    0    0  0.24750883716E+02 -0.55147839645E+02  0.16269287810E+03  0.19927243108E+03  0.97911382093E+02 0.  0.
          5    1    3    3  502    0 -0.33995044735E+02 -0.34472133220E+02  0.47849910818E+02  0.68198807912E+02  0.41800000000E+01 0. -1.
         -5    1    3    3    0  502  0.92441610190E+01  0.89619972865E+02  0.77205423751E+02  0.11872381356E+03  0.41800000000E+01 0. -1.
        -11    1    4    4    0    0  0.56053644020E+02 -0.54325010952E+01  0.79047570390E+02  0.97056898058E+02  0.00000000000E+00 0.  1.
         11    1    4    4    0    0 -0.31302760304E+02 -0.49715338550E+02  0.83645307708E+02  0.10221553302E+03  0.00000000000E+00 0. -1.
</event>
<event>
 8    1  0.6787197E-009  0.9989295E+02  0.7561462E-02  0.1280521E+00
          2   -1    0    0  501    0  0.00000000000E+00  0.00000000000E+00  0.11657480921E+03  0.11657480921E+03  0.00000000000E+00 0. -1.
         -2   -1    0    0    0  501 -0.00000000000E+00 -0.00000000000E+00 -0.18043539247E+03  0.18043539247E+03  0.00000000000E+00 0.  1.
         25    2    1    2    0    0 -0.19907806831E+02 -0.56350178615E+02 -0.11169911483E+03  0.17803471905E+03  0.12509198828E+03 0.  0.
         23    2    1    2    0    0  0.19907806831E+02  0.56350178615E+02  0.47838531571E+02  0.11897548263E+03  0.91076764116E+02 0.  0.
          5    1    3    3  502    0 -0.25214180602E+02 -0.70658315929E+02 -0.10809900527E+02  0.75912310350E+02  0.41800000000E+01 0.  1.
         -5    1    3    3    0  502  0.53063737704E+01  0.14308137314E+02 -0.10088921430E+03  0.10212240870E+03  0.41800000000E+01 0.  1.
        -11    1    4    4    0    0  0.46940070258E+02  0.65236743809E+02  0.32962847643E+02  0.86866289568E+02  0.00000000000E+00 0.  1.
         11    1    4    4    0    0 -0.27032263426E+02 -0.88865651939E+01  0.14875683928E+02  0.32109193064E+02  0.00000000000E+00 0. -1.
</event>
<event>
 8    1  0.6787197E-009  0.1029193E+03  0.7561462E-02  0.1274274E+00
         -1   -1    0    0    0  501 -0.00000000000E+00  0.00000000000E+00  0.56403564636E+02  0.56403564636E+02  0.00000000000E+00 0.  1.
          1   -1    0    0  501    0  0.00000000000E+00 -0.00000000000E+00 -0.42636562834E+03  0.42636562834E+03  0.00000000000E+00 0. -1.
         25    2    1    2    0    0  0.37016881157E+02 -0.79085577363E+02 -0.94672881555E+02  0.17955112663E+03  0.12510345533E+03 0.  0.
         23    2    1    2    0    0 -0.37016881157E+02  0.79085577363E+02 -0.27528918215E+03  0.30321806634E+03  0.92370362732E+02 0.  0.
          5    1    3    3  502    0  0.49287087942E+02 -0.13588367916E+02 -0.10018759293E+03  0.11255615024E+03  0.41800000000E+01 0. -1.
         -5    1    3    3    0  502 -0.12270206786E+02 -0.65497209446E+02  0.55147113758E+01  0.66994976389E+02  0.41800000000E+01 0. -1.
        -11    1    4    4    0    0 -0.36320772198E+01  0.15921511654E+02  0.23816879930E+01  0.16503301366E+02  0.00000000000E+00 0.  1.
         11    1    4    4    0    0 -0.33384803937E+02  0.63164065709E+02 -0.27767087014E+03  0.28671476498E+03  0.00000000000E+00 0. -1.
</event>
<event>
 8    1  0.6787197E-009  0.8984757E+02  0.7561462E-02  0.1303221E+00
         -2   -1    0    0    0  501 -0.00000000000E+00  0.00000000000E+00  0.21180352084E+03  0.21180352084E+03  0.00000000000E+00 0.  1.
          2   -1    0    0  501    0  0.00000000000E+00 -0.00000000000E+00 -0.56859275395E+02  0.56859275395E+02  0.00000000000E+00 0. -1.
         25    2    1    2    0    0  0.15174385282E+02 -0.10693323275E+02  0.10445382809E+03  0.16402118232E+03  0.12509091460E+03 0.  0.
         23    2    1    2    0    0 -0.15174385282E+02  0.10693323275E+02  0.50490417352E+02  0.10464161391E+03  0.89755088917E+02 0.  0.
          5    1    3    3  502    0  0.31308780107E+02 -0.61797624292E+02  0.40036657581E+02  0.80122359115E+02  0.41800000000E+01 0. -1.
         -5    1    3    3    0  502 -0.16134394825E+02  0.51104301017E+02  0.64417170508E+02  0.83898823204E+02  0.41800000000E+01 0. -1.
        -11    1    4    4    0    0 -0.22541215455E+02 -0.16776448852E+02  0.66366599459E+02  0.72069974012E+02  0.00000000000E+00 0.  1.
         11    1    4    4    0    0  0.73668301729E+01  0.27469772127E+02 -0.15876182108E+02  0.32571639900E+02  0.00000000000E+00 0. -1.
</event>
<event>
 8    1  0.6787197E-009  0.8874274E+02  0.7561462E-02  0.1305925E+00
          1   -1    0    0  501    0  0.00000000000E+00  0.00000000000E+00  0.61820144068E+03  0.61820144068E+03  0.00000000000E+00 0. -1.
         -1   -1    0    0    0  501 -0.00000000000E+00 -0.00000000000E+00 -0.33138670510E+02  0.33138670510E+02  0.00000000000E+00 0.  1.
         25    2    1    2    0    0  0.34971722639E+02  0.30409248721E+02  0.50599435864E+03  0.52328324748E+03  0.12508925742E+03 0.  0.
         23    2    1    2    0    0 -0.34971722639E+02 -0.30409248721E+02  0.79068411524E+02  0.12805686371E+03  0.89437144686E+02 0.  0.
          5    1    3    3  502    0  0.12935917910E+02  0.50708386140E+02  0.48151550410E+03  0.48436900343E+03  0.41800000000E+01 0. -1.
         -5    1    3    3    0  502  0.22035804729E+02 -0.20299137420E+02  0.24478854545E+02  0.38914244048E+02  0.41800000000E+01 0. -1.
        -11    1    4    4    0    0  0.23074270711E+02  0.87918142922E+01  0.33649881801E+01  0.24920696476E+02  0.00000000000E+00 0.  1.
         11    1    4    4    0    0 -0.58045993350E+02 -0.39201063013E+02  0.75703423344E+02  0.10313616723E+03  0.00000000000E+00 0. -1.
</event>
<event>
 8    1  0.6787197E-009  0.2016091E+03  0.7561462E-02  0.1148388E+00
         -2   -1    0    0    0  501 -0.00000000000E+00  0.00000000000E+00  0.10350773415E+03  0.10350773415E+03  0.00000000000E+00 0.  1.
          2   -1    0    0  501    0  0.00000000000E+00 -0.00000000000E+00 -0.50779337051E+03  0.50779337051E+03  0.00000000000E+00 0. -1.
         25    2    1    2    0    0  0.77036031463E+02  0.18527314621E+03 -0.20003994623E+03  0.30971750626E+03  0.12509302436E+03 0.  0.
         23    2    1    2    0    0 -0.77036031463E+02 -0.18527314621E+03 -0.20424569013E+03  0.30158359840E+03  0.94740044515E+02 0.  0.
          5    1    3    3  502    0  0.50491073332E+02  0.11867260593E+03 -0.41292981706E+02  0.13548106371E+03  0.41800000000E+01 0.  1.
         -5    1    3    3    0  502  0.26544958131E+02  0.66600540282E+02 -0.15874696452E+03  0.17423644255E+03  0.41800000000E+01 0.  1.
        -11    1    4    4    0    0 -0.19347741540E+02 -0.80171211308E+02 -0.14738406478E+03  0.16888996648E+03  0.00000000000E+00 0. -1.
         11    1    4    4    0    0 -0.57688289923E+02 -0.10510193490E+03 -0.56861625348E+02  0.13269363192E+03  0.00000000000E+00 0.  1.
</event>
<event>
 8    1  0.6787197E-009  0.9047061E+02  0.7561462E-02  0.1301716E+00
          3   -1    0    0  501    0  0.00000000000E+00  0.00000000000E+00  0.91761834578E+02  0.91761834578E+02  0.00000000000E+00 0. -1.
         -3   -1    0    0    0  501 -0.00000000000E+00 -0.00000000000E+00 -0.13532673861E+03  0.13532673861E+03  0.00000000000E+00 0.  1.
         25    2    1    2    0    0  0.88663605333E+01 -0.17941670547E+01 -0.48151486892E+02  0.13434452961E+03  0.12509218825E+03 0.  0.
         23    2    1    2    0    0 -0.88663605333E+01  0.17941670547E+01  0.45865828651E+01  0.92744043574E+02  0.92187794699E+02 0.  0.
          5    1    3    3  502    0 -0.13646360428E+02  0.58128957500E+02 -0.13206530986E+02  0.61295054561E+02  0.41800000000E+01 0. -1.
         -5    1    3    3    0  502  0.22512720961E+02 -0.59923124555E+02 -0.34944955906E+02  0.73049475048E+02  0.41800000000E+01 0. -1.
        -11    1    4    4    0    0  0.99988043501E+01 -0.23409173123E+02 -0.34298555845E+02  0.42712485386E+02  0.00000000000E+00 0.  1.
         11    1    4    4    0    0 -0.18865164883E+02  0.25203340178E+02  0.38885138710E+02  0.50031558188E+02  0.00000000000E+00 0. -1.
</event>
<event>
 8    1  0.6787197E-009  0.8637419E+02  0.7561462E-02  0.1311877E+00
         -1   -1    0    0    0  501 -0.00000000000E+00  0.00000000000E+00  0.36850691246E+03  0.36850691246E+03  0.00000000000E+00 0.  1.
          1   -1    0    0  501    0  0.00000000000E+00 -0.00000000000E+00 -0.42264889547E+02  0.42264889547E+02  0.00000000000E+00 0. -1.
         25    2    1    2    0    0  0.49738193190E+02 -0.29194973177E+02  0.14531838880E+03  0.20022583841E+03  0.12508684152E+03 0.  0.
         23    2    1    2    0    0 -0.49738193190E+02  0.29194973177E+02  0.18092363411E+03  0.21054596360E+03  0.90939579321E+02 0.  0.
          5    1    3    3  502    0  0.78770275681E+01 -0.52242914160E+02  0.65515878061E+01  0.53401922681E+02  0.41800000000E+01 0.  1.
         -5    1    3    3    0  502  0.41861165622E+02  0.23047940983E+02  0.13876680099E+03  0.14682391573E+03  0.41800000000E+01 0.  1.
        -11    1    4    4    0    0 -0.51302548512E+02  0.96856967804E+01  0.18352067028E+03  0.19080251735E+03  0.00000000000E+00 0.  1.
         11    1    4    4    0    0  0.15643553218E+01  0.19509276396E+02 -0.25970361676E+01  0.19743446253E+02  0.00000000000E+00 0. -1.
</event>
<event>
 8    1  0.6787197E-009  0.8325394E+02  0.7561462E-02  0.1320063E+00
         -1   -1    0    0    0  501 -0.00000000000E+00  0.00000000000E+00  0.36824527212E+03  0.36824527212E+03  0.00000000000E+00 0.  1.
          1   -1    0    0  501    0  0.00000000000E+00 -0.00000000000E+00 -0.44084756194E+02  0.44084756194E+02  0.00000000000E+00 0. -1.
         25    2    1    2    0    0  0.57947187418E+02  0.24931194692E+01  0.12870383527E+03  0.18861762057E+03  0.12509131625E+03 0.  0.
         23    2    1    2    0    0 -0.57947187418E+02 -0.24931194692E+01  0.19545668066E+03  0.22371240775E+03  0.92086020608E+02 0.  0.
          5    1    3    3  502    0  0.76845205089E+02  0.15830648605E+02  0.25250936794E+02  0.82528038807E+02  0.41800000000E+01 0. -1.
         -5    1    3    3    0  502 -0.18898017671E+02 -0.13337529136E+02  0.10345289848E+03  0.10608958176E+03  0.41800000000E+01 0. -1.
        -11    1    4    4    0    0 -0.42761376534E+02  0.10961179752E+02  0.19836402960E+03  0.20321656188E+03  0.00000000000E+00 0.  1.
         11    1    4    4    0    0 -0.15185810884E+02 -0.13454299221E+02 -0.29073489422E+01  0.20495845862E+02  0.00000000000E+00 0. -1.
</event>
<event>
 8    1  0.6787197E-009  0.1682056E+03  0.7561462E-02  0.1179732E+00
          1   -1    0    0  501    0  0.00000000000E+00  0.00000000000E+00  0.50280792456E+03  0.50280792456E+03  0.00000000000E+00 0. -1.
         -1   -1    0    0    0  501 -0.00000000000E+00 -0.00000000000E+00 -0.68763213506E+02  0.68763213506E+02  0.00000000000E+00 0.  1.
         25    2    1    2    0    0 -0.58315254179E+02 -0.13006049818E+03  0.29164683461E+03  0.34788411163E+03  0.12509627066E+03 0.  0.
         23    2    1    2    0    0  0.58315254179E+02  0.13006049818E+03  0.14239787645E+03  0.22368702643E+03  0.97171644620E+02 0.  0.
          5    1    3    3  502    0 -0.45268814042E+02 -0.15413365128E+03  0.26162482686E+03  0.30703659458E+03  0.41800000000E+01 0. -1.
         -5    1    3    3    0  502 -0.13046440137E+02  0.24073153098E+02  0.30022007748E+02  0.40847517055E+02  0.41800000000E+01 0. -1.
        -11    1    4    4    0    0  0.50514750979E+02  0.64185745762E+02  0.19415899650E+02  0.83955507173E+02  0.00000000000E+00 0.  1.
         11    1    4    4    0    0  0.78005032001E+01  0.65874752423E+02  0.12298197680E+03  0.13973151926E+03  0.00000000000E+00 0. -1.
</event>
<event>
 8    1  0.6787197E-009  0.1099531E+03  0.7561462E-02  0.1260657E+00
         -4   -1    0    0    0  501 -0.00000000000E+00  0.00000000000E+00  0.45653007115E+03  0.45653007115E+03  0.00000000000E+00 0. -1.
          4   -1    0    0  501    0  0.00000000000E+00 -0.00000000000E+00 -0.69722663537E+02  0.69722663537E+02  0.00000000000E+00 0.  1.
         25    2    1    2    0    0 -0.61981986581E+02 -0.44092901003E+02  0.37703813325E+03  0.40446467950E+03  0.12509185608E+03 0.  0.
         23    2    1    2    0    0  0.61981986581E+02  0.44092901003E+02  0.97692743579E+01  0.12178805518E+03  0.94609413298E+02 0.  0.
          5    1    3    3  502    0  0.19949600200E+02  0.23110681191E+02  0.15954903859E+03  0.16249756382E+03  0.41800000000E+01 0.  1.
         -5    1    3    3    0  502 -0.81931586781E+02 -0.67203582194E+02  0.21748909466E+03  0.24196711568E+03  0.41800000000E+01 0.  1.
        -11    1    4    4    0    0  0.29304088107E+02  0.40750404965E+02  0.49324288524E+02  0.70371944147E+02  0.00000000000E+00 0. -1.
         11    1    4    4    0    0  0.32677898474E+02  0.33424960379E+01 -0.39555014166E+02  0.51416111036E+02  0.00000000000E+00 0.  1.
</event>
<event>
 8    1  0.6787197E-009  0.1040892E+03  0.7561462E-02  0.1271925E+00
         -2   -1    0    0    0  501 -0.00000000000E+00  0.00000000000E+00  0.20208358734E+03  0.20208358734E+03  0.00000000000E+00 0.  1.
          2   -1    0    0  501    0  0.00000000000E+00 -0.00000000000E+00 -0.62501660375E+02  0.62501660375E+02  0.00000000000E+00 0. -1.
         25    2    1    2    0    0  0.24848988439E+02  0.13437492932E+02  0.67304184809E+02  0.14482964291E+03  0.12509090187E+03 0.  0.
         23    2    1    2    0    0 -0.24848988439E+02 -0.13437492932E+02  0.72277742152E+02  0.11975560480E+03  0.91210166252E+02 0.  0.
          5    1    3    3  502    0 -0.35955215676E+02  0.45830317841E+02  0.39025957784E+02  0.70240254475E+02  0.41800000000E+01 0. -1.
         -5    1    3    3    0  502  0.60804204115E+02 -0.32392824910E+02  0.28278227025E+02  0.74589388436E+02  0.41800000000E+01 0. -1.
        -11    1    4    4    0    0  0.19892488718E+02 -0.27424647581E+02  0.63630449049E+02  0.72087838423E+02  0.00000000000E+00 0.  1.
         11    1    4    4    0    0 -0.44741477157E+02  0.13987154649E+02  0.86472931031E+01  0.47667766377E+02  0.00000000000E+00 0. -1.
</event>
<event>
 8    1  0.6787197E-009  0.7719956E+02  0.7561462E-02  0.1337192E+00
          2   -1    0    0  501    0  0.00000000000E+00  0.00000000000E+00  0.76114599742E+02  0.76114599742E+02  0.00000000000E+00 0. -1.
         -2   -1    0    0    0  501 -0.00000000000E+00 -0.00000000000E+00 -0.16257070863E+03  0.16257070863E+03  0.00000000000E+00 0.  1.
         25    2    1    2    0    0 -0.21664867215E+02 -0.35252780640E+01 -0.44337338667E+02  0.13452238900E+03  0.12509468208E+03 0.  0.
         23    2    1    2    0    0  0.21664867215E+02  0.35252780640E+01 -0.42118770216E+02  0.10416291937E+03  0.92704524752E+02 0.  0.
          5    1    3    3  502    0  0.13735367428E+02 -0.21364186796E+02  0.36341442831E+02  0.44533826053E+02  0.41800000000E+01 0.  1.
         -5    1    3    3    0  502 -0.35400234643E+02  0.17838908732E+02 -0.80678781499E+02  0.89988562949E+02  0.41800000000E+01 0.  1.
        -11    1    4    4    0    0 -0.33253694460E+02  0.61469589121E+01 -0.35092358974E+02  0.48734658688E+02  0.00000000000E+00 0.  1.
         11    1    4    4    0    0  0.54918561674E+02 -0.26216808481E+01 -0.70264112423E+01  0.55428260678E+02  0.00000000000E+00 0. -1.
</event>
<event>
 8    1  0.6787197E-009  0.1029260E+03  0.7561462E-02  0.1274261E+00
          2   -1    0    0  501    0  0.00000000000E+00  0.00000000000E+00  0.10153425887E+04  0.10153425887E+04  0.00000000000E+00 0. -1.
         -2   -1    0    0    0  501 -0.00000000000E+00 -0.00000000000E+00 -0.13056995916E+02  0.13056995916E+02  0.00000000000E+00 0.  1.
         25    2    1    2    0    0  0.62162716402E+01  0.16436769225E+02  0.73352351959E+03  0.74432057387E+03  0.12509018141E+03 0.  0.
         23    2    1    2    0    0 -0.62162716402E+01 -0.16436769225E+02  0.26876207315E+03  0.28407901070E+03  0.90327310038E+02 0.  0.
          5    1    3    3  502    0  0.45080097676E+02  0.51726348250E+02  0.51361065360E+03  0.51819031852E+03  0.41800000000E+01 0.  1.
         -5    1    3    3    0  502 -0.38863826036E+02 -0.35289579025E+02  0.21991286599E+03  0.22613025536E+03  0.41800000000E+01 0.  1.
        -11    1    4    4    0    0  0.36644405730E+02 -0.19444334513E+02  0.18880770914E+03  0.19331126621E+03  0.00000000000E+00 0. -1.
         11    1    4    4    0    0 -0.42860677370E+02  0.30075652883E+01  0.79954364015E+02  0.90767744484E+02  0.00000000000E+00 0.  1.
</event>
<event>
 8    1  0.6787197E-009  0.9171147E+02  0.7561462E-02  0.1298759E+00
         -4   -1    0    0    0  501 -0.00000000000E+00  0.00000000000E+00  0.50472801271E+02  0.50472801271E+02  0.00000000000E+00 0.  1.
          4   -1    0    0  501    0  0.00000000000E+00 -0.00000000000E+00 -0.24861593400E+03  0.24861593400E+03  0.00000000000E+00 0. -1.
         25    2    1    2    0    0  0.27916585032E+02  0.95114529556E+01 -0.10697491440E+03  0.16721316846E+03  0.12508720133E+03 0.  0.
         23    2    1    2    0    0 -0.27916585032E+02 -0.95114529556E+01 -0.91168218328E+02  0.13187556682E+03  0.90607492144E+02 0.  0.
          5    1    3    3  502    0  0.62284028063E+01 -0.37526364337E+02  0.97087865962E+01  0.39481058231E+02  0.41800000000E+01 0. -1.
         -5    1    3    3    0  502  0.21688182226E+02  0.47037817292E+02 -0.11668370100E+03  0.12773211022E+03  0.41800000000E+01 0. -1.
        -11    1    4    4    0    0 -0.50664190364E+02  0.21241632668E+02 -0.39843434483E+02  0.67864323581E+02  0.00000000000E+00 0.  1.
         11    1    4    4    0    0  0.22747605332E+02 -0.30753085624E+02 -0.51324783845E+02  0.64011243235E+02  0.00000000000E+00 0. -1.
</event>
<event>
 8    1  0.6787197E-009  0.3222085E+03  0.7561462E-02  0.1074637E+00
          1   -1    0    0  501    0  0.00000000000E+00  0.00000000000E+00  0.31679636494E+03  0.31679636494E+03  0.00000000000E+00 0. -1.
         -1   -1    0    0    0  501 -0.00000000000E+00 -0.00000000000E+00 -0.35651590423E+03  0.35651590423E+03  0.00000000000E+00 0.  1.
         25    2    1    2    0    0 -0.31637159830E+03 -0.52047452955E+01  0.94835362125E+01  0.34037540795E+03  0.12508958106E+03 0.  0.
         23    2    1    2    0    0  0.31637159830E+03  0.52047452955E+01 -0.49203075509E+02  0.33293686122E+03  0.91147865222E+02 0.  0.
          5    1    3    3  502    0 -0.65283969561E+02  0.33767121021E+02 -0.36419589353E+02  0.82134487472E+02  0.41800000000E+01 0.  1.
         -5    1    3    3    0  502 -0.25108762874E+03 -0.38971866316E+02  0.45903125565E+02  0.25824092048E+03  0.41800000000E+01 0.  1.
        -11    1    4    4    0    0  0.14698942050E+03  0.87626377283E+01  0.22516927109E+02  0.14896202726E+03  0.00000000000E+00 0. -1.
         11    1    4    4    0    0  0.16938217780E+03 -0.35578924328E+01 -0.71720002619E+02  0.18397483396E+03  0.00000000000E+00 0.  1.
</event>
<event>
 8    1  0.6787197E-009  0.1193183E+03  0.7561462E-02  0.1244226E+00
         -1   -1    0    0    0  501 -0.00000000000E+00  0.00000000000E+00  0.88262259426E+03  0.88262259426E+03  0.00000000000E+00 0.  1.
          1   -1    0    0  501    0  0.00000000000E+00 -0.00000000000E+00 -0.18889683915E+02  0.18889683915E+02  0.00000000000E+00 0. -1.
         25    2    1    2    0    0 -0.67736747653E+02  0.53867754669E+01  0.52647518532E+03  0.54538136850E+03  0.12508969590E+03 0.  0.
         23    2    1    2    0    0  0.67736747653E+02 -0.53867754669E+01  0.33725772503E+03  0.35613090968E+03  0.92028079427E+02 0.  0.
          5    1    3    3  502    0 -0.92176937124E+02  0.27925035778E+02  0.46939751628E+03  0.47919505011E+03  0.41800000000E+01 0. -1.
         -5    1    3    3    0  502  0.24440189471E+02 -0.22538260311E+02  0.57077669037E+02  0.66186318390E+02  0.41800000000E+01 0. -1.
        -11    1    4    4    0    0 -0.31330026596E+01 -0.32643570695E+02  0.15947985630E+03  0.16281659307E+03  0.00000000000E+00 0.  1.
         11    1    4    4    0    0  0.70869750313E+02  0.27256795228E+02  0.17777786873E+03  0.19331431661E+03  0.00000000000E+00 0. -1.
</event>
<event>
 8    1  0.6787197E-009  0.9713040E+02  0.7561462E-02  0.1286449E+00
         -1   -1    0    0    0  501 -0.00000000000E+00  0.00000000000E+00  0.64058161883E+03  0.64058161883E+03  0.00000000000E+00 0.  1.
          1   -1    0    0  501    0  0.00000000000E+00 -0.00000000000E+00 -0.18663770781E+02  0.18663770781E+02  0.00000000000E+00 0. -1.
         25    2    1    2    0    0  0.14157852906E+02  0.70963572257E+01  0.33959303918E+03  0.36224487462E+03  0.12508842408E+03 0.  0.
         23    2    1    2    0    0 -0.14157852906E+02 -0.70963572257E+01  0.28232480887E+03  0.29700051500E+03  0.90836144358E+02 0.  0.
          5    1    3    3  502    0  0.62249915023E+02 -0.68081182010E+01  0.26487705141E+03  0.27221081381E+03  0.41800000000E+01 0. -1.
         -5    1    3    3    0  502 -0.48092062117E+02  0.13904475427E+02  0.74715987775E+02  0.90034060804E+02  0.41800000000E+01 0. -1.
        -11    1    4    4    0    0  0.32930899160E+02  0.31256011599E+01  0.18999762566E+03  0.19285567469E+03  0.00000000000E+00 0.  1.
         11    1    4    4    0    0 -0.47088752066E+02 -0.10221958386E+02  0.92327183203E+02  0.10414484031E+03  0.00000000000E+00 0. -1.
</event>
<event>
 8    1  0.6787197E-009  0.1188144E+03  0.7561462E-02  0.1245066E+00
          1   -1    0    0  501    0  0.00000000000E+00  0.00000000000E+00  0.99702542648E+03  0.99702542648E+03  0.00000000000E+00 0. -1.
         -1   -1    0    0    0  501 -0.00000000000E+00 -0.00000000000E+00 -0.18728449505E+02  0.18728449505E+02  0.00000000000E+00 0.  1.
         25    2    1    2    0    0  0.64428391692E+02  0.50726557305E+02  0.50000825601E+03  0.52190063858E+03  0.12509124350E+03 0.  0.
         23    2    1    2    0    0 -0.64428391692E+02 -0.50726557305E+02  0.47828872097E+03  0.49385323741E+03  0.91688157472E+02 0.  0.
          5    1    3    3  502    0  0.53855121799E+01 -0.24640410405E+02  0.28925329384E+03  0.29038094628E+03  0.41800000000E+01 0.  1.
         -5    1    3    3    0  502  0.59042879512E+02  0.75366967710E+02  0.21075496217E+03  0.23151969230E+03  0.41800000000E+01 0.  1.
        -11    1    4    4    0    0 -0.98091555266E+01 -0.60029103591E+02  0.32984983831E+03  0.33541113375E+03  0.00000000000E+00 0. -1.
         11    1    4    4    0    0 -0.54619236165E+02  0.93025462867E+01  0.14843888266E+03  0.15844210366E+03  0.00000000000E+00 0.  1.
</event>
<event>
 8    1  0.6787197E-009  0.1116476E+03  0.7561462E-02  0.1257549E+00
         -2   -1    0    0    0  501 -0.00000000000E+00  0.00000000000E+00  0.58856122287E+02  0.58856122287E+02  0.00000000000E+00 0.  1.
          2   -1    0    0  501    0  0.00000000000E+00 -0.00000000000E+00 -0.35981398015E+03  0.35981398015E+03  0.00000000000E+00 0. -1.
         25    2    1    2    0    0 -0.67146259158E+02  0.51182796107E+02 -0.96361581809E+02  0.17904551771E+03  0.12507375514E+03 0.  0.
         23    2    1    2    0    0  0.67146259158E+02 -0.51182796107E+02 -0.20459627606E+03  0.23962458473E+03  0.91825958728E+02 0.  0.
          5    1    3    3  502    0 -0.47654531819E+02 -0.27029369628E+02 -0.21499879196E+01  0.54987599269E+02  0.41800000000E+01 0. -1.
         -5    1    3    3    0  502 -0.19491727339E+02  0.78212165735E+02 -0.94211593889E+02  0.12405791844E+03  0.41800000000E+01 0. -1.
        -11    1    4    4    0    0  0.32526532597E+01 -0.12565625456E+02  0.73482839751E+01  0.14915494417E+02  0.00000000000E+00 0.  1.
         11    1    4    4    0    0  0.63893605898E+02 -0.38617170651E+02 -0.21194456003E+03  0.22470909032E+03  0.00000000000E+00 0. -1.
</event>
<event>
 8    1  0.6787197E-009  0.1071743E+03  0.7561462E-02  0.1265894E+00
         -1   -1    0    0    0  501 -0.00000000000E+00  0.00000000000E+00  0.50967270565E+02  0.50967270565E+02  0.00000000000E+00 0. -1.
          1   -1    0    0  501    0  0.00000000000E+00 -0.00000000000E+00 -0.38484245037E+03  0.38484245037E+03  0.00000000000E+00 0.  1.
         25    2    1    2    0    0 -0.76608251139E+02  0.14912356175E+02 -0.24865511371E+03  0.28908110167E+03  0.12508922920E+03 0.  0.
         23    2    1    2    0    0  0.76608251139E+02 -0.14912356175E+02 -0.85220066095E+02  0.14672861926E+03  0.90419165756E+02 0.  0.
          5    1    3    3  502    0  0.88356382648E+01 -0.25942144884E+01 -0.17372665371E+03  0.17402074894E+03  0.41800000000E+01 0. -1.
         -5    1    3    3    0  502 -0.85443889404E+02  0.17506570663E+02 -0.74928459998E+02  0.11506035273E+03  0.41800000000E+01 0. -1.
        -11    1    4    4    0    0 -0.49394427561E+01  0.25451364558E+02 -0.32479217500E+02  0.41558027167E+02  0.00000000000E+00 0. -1.
         11    1    4    4    0    0  0.81547693895E+02 -0.40363720733E+02 -0.52740848595E+02  0.10517059209E+03  0.00000000000E+00 0.  1.
</event>
<event>
 8    1  0.6787197E-009  0.1008045E+03  0.7561462E-02  0.1278613E+00
         -1   -1    0    0    0  501 -0.00000000000E+00  0.00000000000E+00  0.24754709704E+03  0.24754709704E+03  0.00000000000E+00 0.  1.
          1   -1    0    0  501    0  0.00000000000E+00 -0.00000000000E+00 -0.55037514639E+02  0.55037514639E+02  0.00000000000E+00 0. -1.
         25    2    1    2    0    0 -0.10707106040E+02 -0.36683114347E+02  0.77986340270E+02  0.15227884716E+03  0.12508671003E+03 0.  0.
         23    2    1    2    0    0  0.10707106040E+02  0.36683114347E+02  0.11452324213E+03  0.15030576452E+03  0.89531876224E+02 0.  0.
          5    1    3    3  502    0 -0.34358324890E+02 -0.64339991313E+02  0.87932145907E+02  0.11432262967E+03  0.41800000000E+01 0. -1.
         -5    1    3    3    0  502  0.23651218849E+02  0.27656876966E+02 -0.99458056370E+01  0.37956217493E+02  0.41800000000E+01 0. -1.
        -11    1    4    4    0    0  0.17776733211E+02 -0.24533299294E+02  0.16437498875E+02  0.34468629029E+02  0.00000000000E+00 0.  1.
         11    1    4    4    0    0 -0.70696271703E+01  0.61216413641E+02  0.98085743258E+02  0.11583713549E+03  0.00000000000E+00 0. -1.
</event>
<event>
 8    1  0.6787197E-009  0.2350120E+03  0.7561462E-02  0.1123161E+00
         -1   -1    0    0    0  501 -0.00000000000E+00  0.00000000000E+00  0.11719753055E+03  0.11719753055E+03  0.00000000000E+00 0. -1.
          1   -1    0    0  501    0  0.00000000000E+00 -0.00000000000E+00 -0.59078673243E+03  0.59078673243E+03  0.00000000000E+00 0.  1.
         25    2    1    2    0    0  0.30154733349E+02 -0.21589115399E+03 -0.37358254989E+03  0.45025538231E+03  0.12509072469E+03 0.  0.
         23    2    1    2    0    0 -0.30154733349E+02  0.21589115399E+03 -0.10000665198E+03  0.25772888067E+03  0.94363908234E+02 0.  0.
          5    1    3    3  502    0  0.50949791433E+02 -0.40772569370E+02 -0.52297319396E+02  0.83730315156E+02  0.41800000000E+01 0. -1.
         -5    1    3    3    0  502 -0.20795058084E+02 -0.17511858462E+03 -0.32128523050E+03  0.36652506716E+03  0.41800000000E+01 0. -1.
        -11    1    4    4    0    0  0.16678589491E+02  0.12382152650E+03 -0.18826873362E+02  0.12635029455E+03  0.00000000000E+00 0.  1.
         11    1    4    4    0    0 -0.46833322840E+02  0.92069627487E+02 -0.81179778622E+02  0.13137858612E+03  0.00000000000E+00 0. -1.
</event>
<event>
 8    1  0.6787197E-009  0.2290417E+03  0.7561462E-02  0.1127316E+00
          2   -1    0    0  501    0  0.00000000000E+00  0.00000000000E+00  0.50544861847E+03  0.50544861847E+03  0.00000000000E+00 0. -1.
         -2   -1    0    0    0  501 -0.00000000000E+00 -0.00000000000E+00 -0.11958200236E+03  0.11958200236E+03  0.00000000000E+00 0.  1.
         25    2    1    2    0    0 -0.18542638755E+03  0.11933662005E+03  0.18674796988E+03  0.31487558913E+03  0.12509060033E+03 0.  0.
         23    2    1    2    0    0  0.18542638755E+03 -0.11933662005E+03  0.19911864623E+03  0.31015503169E+03  0.89015360035E+02 0.  0.
          5    1    3    3  502    0 -0.17332764175E+03  0.81161639473E+02  0.19555647231E+03  0.27365944051E+03  0.41800000000E+01 0.  1.
         -5    1    3    3    0  502 -0.12098745797E+02  0.38174980582E+02 -0.88085024275E+01  0.41216148623E+02  0.41800000000E+01 0.  1.
        -11    1    4    4    0    0  0.18481754101E+02 -0.34459633080E+02  0.33742834045E+01  0.39248278117E+02  0.00000000000E+00 0.  1.
         11    1    4    4    0    0  0.16694463345E+03 -0.84876986975E+02  0.19574436282E+03  0.27090675358E+03  0.00000000000E+00 0. -1.
</event>
<event>
 8    1  0.6787197E-009  0.1298639E+03  0.7561462E-02  0.1227658E+00
          1   -1    0    0  501    0  0.00000000000E+00  0.00000000000E+00  0.31270076219E+02  0.31270076219E+02  0.00000000000E+00 0. -1.
         -1   -1    0    0    0  501 -0.00000000000E+00 -0.00000000000E+00 -0.83140512536E+03  0.83140512536E+03  0.00000000000E+00 0.  1.
         25    2    1    2    0    0 -0.52645840433E+02  0.72177154643E+02 -0.64825616171E+03  0.66623270204E+03  0.12509530731E+03 0.  0.
         23    2    1    2    0    0  0.52645840433E+02 -0.72177154643E+02 -0.15187888743E+03  0.19644249954E+03  0.86840848736E+02 0.  0.
          5    1    3    3  502    0 -0.60580333247E+02  0.10322175342E+03 -0.54653787906E+03  0.55950498908E+03  0.41800000000E+01 0.  1.
         -5    1    3    3    0  502  0.79344928139E+01 -0.31044598779E+02 -0.10171828264E+03  0.10672771296E+03  0.41800000000E+01 0.  1.
        -11    1    4    4    0    0  0.24235367948E+02 -0.75271035218E+02 -0.14773250081E+03  0.16756483402E+03  0.00000000000E+00 0.  1.
         11    1    4    4    0    0  0.28410472485E+02  0.30938805755E+01 -0.41463866178E+01  0.28877665519E+02  0.00000000000E+00 0. -1.
</event>
<event>
 8    1  0.6787197E-009  0.1904846E+03  0.7561462E-02  0.1158025E+00
         -1   -1    0    0    0  501 -0.00000000000E+00  0.00000000000E+00  0.38823335984E+03  0.38823335984E+03  0.00000000000E+00 0.  1.
          1   -1    0    0  501    0  0.00000000000E+00 -0.00000000000E+00 -0.10703083235E+03  0.10703083235E+03  0.00000000000E+00 0. -1.
         25    2    1    2    0    0  0.90730611232E+02 -0.13593623723E+03  0.20947949342E+03  0.29366683449E+03  0.12509135505E+03 0.  0.
         23    2    1    2    0    0 -0.90730611232E+02  0.13593623723E+03  0.71723034072E+02  0.20159735770E+03  0.93736847647E+02 0.  0.
          5    1    3    3  502    0 -0.26130557218E+02 -0.12827750704E+02  0.62586304054E+02  0.69151103128E+02  0.41800000000E+01 0.  1.
         -5    1    3    3    0  502  0.11686116845E+03 -0.12310848653E+03  0.14689318936E+03  0.22451573136E+03  0.41800000000E+01 0.  1.
        -11    1    4    4    0    0 -0.34586661517E+02  0.11779255415E+03  0.22612883396E+02  0.12483054700E+03  0.00000000000E+00 0.  1.
         11    1    4    4    0    0 -0.56143949714E+02  0.18143683078E+02  0.49110150676E+02  0.76766810697E+02  0.00000000000E+00 0. -1.
</event>
<event>
 8    1  0.6787197E-009  0.1243744E+03  0.7561462E-02  0.1236050E+00
          1   -1    0    0  501    0  0.00000000000E+00  0.00000000000E+00  0.67860226441E+02  0.67860226441E+02  0.00000000000E+00 0. -1.
         -1   -1    0    0    0  501 -0.00000000000E+00 -0.00000000000E+00 -0.29120359473E+03  0.29120359473E+03  0.00000000000E+00 0.  1.
         25    2    1    2    0    0 -0.20780798471E+01 -0.88488193129E+02 -0.10943324887E+03  0.18830304747E+03  0.12509165835E+03 0.  0.
         23    2    1    2    0    0  0.20780798471E+01  0.88488193129E+02 -0.11391011941E+03  0.17076077369E+03  0.91374218403E+02 0.  0.
          5    1    3    3  502    0 -0.44755173709E+02 -0.83725138242E+02 -0.10972767316E+03  0.14515701500E+03  0.41800000000E+01 0.  1.
         -5    1    3    3    0  502  0.42677093862E+02 -0.47630548867E+01  0.29442428761E+00  0.43146032471E+02  0.41800000000E+01 0.  1.
        -11    1    4    4    0    0  0.32623795404E+01 -0.10799047614E+02  0.77778315650E+01  0.13702452828E+02  0.00000000000E+00 0. -1.
         11    1    4    4    0    0 -0.11842996932E+01  0.99287240743E+02 -0.12168795098E+03  0.15705832087E+03  0.00000000000E+00 0.  1.
</event>
<event>
 8    1  0.6787197E-009  0.1013660E+03  0.7561462E-02  0.1277449E+00
          2   -1    0    0  501    0  0.00000000000E+00  0.00000000000E+00  0.47179929686E+03  0.47179929686E+03  0.00000000000E+00 0.  1.
         -2   -1    0    0    0  501 -0.00000000000E+00 -0.00000000000E+00 -0.27778419370E+02  0.27778419370E+02  0.00000000000E+00 0. -1.
         25    2    1    2    0    0 -0.10575223093E+02 -0.23935606236E+02  0.20043320168E+03  0.23771028611E+03  0.12509181908E+03 0.  0.
         23    2    1    2    0    0  0.10575223093E+02  0.23935606236E+02  0.24358767581E+03  0.26186743012E+03  0.92492413523E+02 0.  0.
          5    1    3    3  502    0 -0.56710898710E+02  0.14787537085E+02  0.56013265906E+02  0.81177309902E+02  0.41800000000E+01 0. -1.
         -5    1    3    3    0  502  0.46135675617E+02 -0.38723143321E+02  0.14441993577E+03  0.15653297621E+03  0.41800000000E+01 0. -1.
        -11    1    4    4    0    0 -0.23115932510E+02 -0.18362935871E+02  0.15721689499E+03  0.15996467054E+03  0.00000000000E+00 0.  1.
         11    1    4    4    0    0  0.33691155603E+02  0.42298542107E+02  0.86370780820E+02  0.10190275958E+03  0.00000000000E+00 0. -1.
</event>
<event>
 8    1  0.6787197E-009  0.1374144E+03  0.7561462E-02  0.1216851E+00
          2   -1    0    0  501    0  0.00000000000E+00  0.00000000000E+00  0.17671996714E+03  0.17671996714E+03  0.00000000000E+00 0. -1.
         -2   -1    0    0    0  501 -0.00000000000E+00 -0.00000000000E+00 -0.14821476744E+03  0.14821476744E+03  0.00000000000E+00 0.  1.
         25    2    1    2    0    0  0.91813747673E+02  0.35269618083E+02  0.83468302453E+02  0.17969652898E+03  0.12510065864E+03 0.  0.
         23    2    1    2    0    0 -0.91813747673E+02 -0.35269618083E+02 -0.54963102752E+02  0.14523820559E+03  0.91648695993E+02 0.  0.
          5    1    3    3  502    0  0.46600250881E+01 -0.40078104764E+02  0.65047867202E+01  0.41082295037E+02  0.41800000000E+01 0.  1.
         -5    1    3    3    0  502  0.87153722584E+02  0.75347722847E+02  0.76963515733E+02  0.13861423395E+03  0.41800000000E+01 0.  1.
        -11    1    4    4    0    0 -0.30123710826E+02 -0.47348481347E+02 -0.60026004747E+02  0.82173218786E+02  0.00000000000E+00 0.  1.
         11    1    4    4    0    0 -0.61690036847E+02  0.12078863264E+02  0.50629019949E+01  0.63064986803E+02  0.00000000000E+00 0. -1.
</event>
<event>
 8    1  0.6787197E-009  0.1551792E+03  0.7561462E-02  0.1194249E+00
          1   -1    0    0  501    0  0.00000000000E+00  0.00000000000E+00  0.25364008210E+03  0.25364008210E+03  0.00000000000E+00 0. -1.
         -1   -1    0    0    0  501 -0.00000000000E+00 -0.00000000000E+00 -0.12435843995E+03  0.12435843995E+03  0.00000000000E+00 0.  1.
         25    2    1    2    0    0  0.13317515780E+03 -0.18609161873E+02  0.11066441833E+03  0.21442447970E+03  0.12509724397E+03 0.  0.
         23    2    1    2    0    0 -0.13317515780E+03  0.18609161873E+02  0.18617223814E+02  0.16357404236E+03  0.91257562693E+02 0.  0.
          5    1    3    3  502    0  0.63601501958E+02  0.44371510253E+02  0.12692066605E+02  0.78692712040E+02  0.41800000000E+01 0. -1.
         -5    1    3    3    0  502  0.69573655845E+02 -0.62980672126E+02  0.97972351730E+02  0.13573176766E+03  0.41800000000E+01 0. -1.
        -11    1    4    4    0    0 -0.11303573828E+03  0.26597851761E+01  0.49478735238E+02  0.12341919554E+03  0.00000000000E+00 0. -1.
         11    1    4    4    0    0 -0.20139419518E+02  0.15949376697E+02 -0.30861511423E+02  0.40154846817E+02  0.00000000000E+00 0.  1.
</event>
<event>
 8    1  0.6787197E-009  0.8599967E+02  0.7561462E-02  0.1312839E+00
         -1   -1    0    0    0  501 -0.00000000000E+00  0.00000000000E+00  0.60845573084E+02  0.60845573084E+02  0.00000000000E+00 0.  1.
          1   -1    0    0  501    0  0.00000000000E+00 -0.00000000000E+00 -0.19609251761E+03  0.19609251761E+03  0.00000000000E+00 0. -1.
         25    2    1    2    0    0 -0.13202812445E+02  0.59295067106E+01 -0.70349519417E+02  0.14423915129E+03  0.12508558901E+03 0.  0.
         23    2    1    2    0    0  0.13202812445E+02 -0.59295067106E+01 -0.64897425114E+02  0.11269893940E+03  0.90993966009E+02 0.  0.
          5    1    3    3  502    0 -0.28761866019E+02 -0.54539043731E+02 -0.23707280243E+02  0.66191085234E+02  0.41800000000E+01 0.  1.
         -5    1    3    3    0  502  0.15559053574E+02  0.60468550442E+02 -0.46642239173E+02  0.78048066060E+02  0.41800000000E+01 0.  1.
        -11    1    4    4    0    0  0.30155964302E+02 -0.20208507273E+01 -0.82553022675E+02  0.87911703279E+02  0.00000000000E+00 0. -1.
         11    1    4    4    0    0 -0.16953151858E+02 -0.39086559833E+01  0.17655597561E+02  0.24787236125E+02  0.00000000000E+00 0.  1.
</event>
<event>
 8    1  0.6787197E-009  0.1067085E+03  0.7561462E-02  0.1266789E+00
         -2   -1    0    0    0  501 -0.00000000000E+00  0.00000000000E+00  0.27376348003E+02  0.27376348003E+02  0.00000000000E+00 0.  1.
          2   -1    0    0  501    0  0.00000000000E+00 -0.00000000000E+00 -0.43718186625E+03  0.43718186625E+03  0.00000000000E+00 0. -1.
         25    2    1    2    0    0  0.14208271468E+02 -0.10491134240E+02 -0.24505162622E+03  0.27570248784E+03  0.12509845488E+03 0.  0.
         23    2    1    2    0    0 -0.14208271468E+02  0.10491134240E+02 -0.16475389203E+03  0.18885572641E+03  0.90612921730E+02 0.  0.
          5    1    3    3  502    0  0.68999128129E+02 -0.10876696433E+02 -0.15733728781E+03  0.17219662233E+03  0.41800000000E+01 0. -1.
         -5    1    3    3    0  502 -0.54790856661E+02  0.38556219237E+00 -0.87714338412E+02  0.10350586551E+03  0.41800000000E+01 0. -1.
        -11    1    4    4    0    0  0.37538430795E+01 -0.37272010426E+02 -0.97391276572E+02  0.10434728004E+03  0.00000000000E+00 0. -1.
         11    1    4    4    0    0 -0.17962114547E+02  0.47763144666E+02 -0.67362615454E+02  0.84508446372E+02  0.00000000000E+00 0.  1.
</event>
<event>
 8    1  0.6787197E-009  0.1244047E+03  0.7561462E-02  0.1236003E+00
          1   -1    0    0  501    0  0.00000000000E+00  0.00000000000E+00  0.10593838800E+03  0.10593838800E+03  0.00000000000E+00 0. -1.
         -1   -1    0    0    0  501 -0.00000000000E+00 -0.00000000000E+00 -0.15882546744E+03  0.15882546744E+03  0.00000000000E+00 0.  1.
         25    2    1    2    0    0 -0.58187816813E+02  0.32448038676E+02 -0.58291758694E+02  0.15324448049E+03  0.12508894607E+03 0.  0.
         23    2    1    2    0    0  0.58187816813E+02 -0.32448038676E+02  0.54046792504E+01  0.11151937495E+03  0.89267369137E+02 0.  0.
          5    1    3    3  502    0 -0.75192756535E+02  0.67678294243E+02 -0.50468417656E+02  0.11313193947E+03  0.41800000000E+01 0. -1.
         -5    1    3    3    0  502  0.17004939721E+02 -0.35230255566E+02 -0.78233410374E+01  0.40112541021E+02  0.41800000000E+01 0. -1.
        -11    1    4    4    0    0  0.36996756845E+02 -0.61791699048E+02 -0.89636973291E+01  0.72576318163E+02  0.00000000000E+00 0.  1.
         11    1    4    4    0    0  0.21191059969E+02  0.29343660372E+02  0.14368376580E+02  0.38943056790E+02  0.00000000000E+00 0. -1.
</event>
<event>
 8    1  0.6787197E-009  0.1008502E+03  0.7561462E-02  0.1278518E+00
         -1   -1    0    0    0  501 -0.00000000000E+00  0.00000000000E+00  0.21850456105E+02  0.21850456105E+02  0.00000000000E+00 0.  1.
          1   -1    0    0  501    0  0.00000000000E+00 -0.00000000000E+00 -0.57873724495E+03  0.57873724495E+03  0.00000000000E+00 0. -1.
         25    2    1    2    0    0 -0.12782820420E+02  0.25794476196E+01 -0.24798694362E+03  0.27805704510E+03  0.12509253405E+03 0.  0.
         23    2    1    2    0    0  0.12782820420E+02 -0.25794476196E+01 -0.30889984522E+03  0.32253065596E+03  0.91852357642E+02 0.  0.
          5    1    3    3  502    0 -0.41965298204E+02  0.45914327244E+02 -0.18964830710E+03  0.19963257371E+03  0.41800000000E+01 0.  1.
         -5    1    3    3    0  502  0.29182477784E+02 -0.43334879625E+02 -0.58338636525E+02  0.78424471393E+02  0.41800000000E+01 0.  1.
        -11    1    4    4    0    0 -0.24528921602E+02  0.29057505347E+02 -0.19332312805E+03  0.19702750684E+03  0.00000000000E+00 0. -1.
         11    1    4    4    0    0  0.37311742023E+02 -0.31636952967E+02 -0.11557671717E+03  0.12550314912E+03  0.00000000000E+00 0.  1.
</event>
<event>
 8    1  0.6787197E-009  0.1019298E+03  0.7561462E-02  0.1276289E+00
          1   -1    0    0  501    0  0.00000000000E+00  0.00000000000E+00  0.65147497085E+03  0.65147497085E+03  0.00000000000E+00 0. -1.
         -1   -1    0    0    0  501 -0.00000000000E+00 -0.00000000000E+00 -0.59001262893E+02  0.59001262893E+02  0.00000000000E+00 0.  1.
         25    2    1    2    0    0  0.36651964827E+02  0.55681680824E+02  0.57448967897E+03  0.59171884338E+03  0.12509589227E+03 0.  0.
         23    2    1    2    0    0 -0.36651964827E+02 -0.55681680824E+02  0.17984028988E+02  0.11875739036E+03  0.96623373789E+02 0.  0.
          5    1    3    3  502    0  0.24271987854E+02 -0.25455161117E+02  0.52699861404E+02  0.63496790580E+02  0.41800000000E+01 0.  1.
         -5    1    3    3    0  502  0.12379976973E+02  0.81136841941E+02  0.52178981757E+03  0.52822205280E+03  0.41800000000E+01 0.  1.
        -11    1    4    4    0    0 -0.25750909512E+01 -0.51908417938E+02  0.49802921001E+02  0.71982260916E+02  0.00000000000E+00 0. -1.
         11    1    4    4    0    0 -0.34076873875E+02 -0.37732628852E+01 -0.31818892013E+02  0.46775129448E+02  0.00000000000E+00 0.  1.
</event>
<event>
 8    1  0.6787197E-009  0.6505060E+02  0.7561462E-02  0.1377781E+00
         -2   -1    0    0    0  501 -0.00000000000E+00  0.00000000000E+00  0.27631858109E+02  0.27631858109E+02  0.00000000000E+00 0.  1.
          2   -1    0    0  501    0  0.00000000000E+00 -0.00000000000E+00 -0.51376132501E+03  0.51376132501E+03  0.00000000000E+00 0. -1.
         25    2    1    2    0    0  0.47981173648E+01 -0.35778004923E+02 -0.35453982170E+03  0.37768924042E+03  0.12509032574E+03 0.  0.
         23    2    1    2    0    0 -0.47981173648E+01  0.35778004923E+02 -0.13158964520E+03  0.16370394270E+03  0.90443676197E+02 0.  0.
          5    1    3    3  502    0  0.14835675060E+02 -0.25282548521E+02 -0.78003762855E+01  0.30620626780E+02  0.41800000000E+01 0. -1.
         -5    1    3    3    0  502 -0.10037557695E+02 -0.10495456403E+02 -0.34673944541E+03  0.34706861364E+03  0.41800000000E+01 0. -1.
        -11    1    4    4    0    0  0.25145621659E+01 -0.24515036650E+02 -0.80979582483E+02  0.84646339696E+02  0.00000000000E+00 0. -1.
         11    1    4    4    0    0 -0.73126795307E+01  0.60293041573E+02 -0.50610062721E+02  0.79057603004E+02  0.00000000000E+00 0.  1.
</event>
<event>
 8    1  0.6787197E-009  0.1707320E+03  0.7561462E-02  0.1177087E+00
         -2   -1    0    0    0  501 -0.00000000000E+00  0.00000000000E+00  0.25708855731E+02  0.25708855731E+02  0.00000000000E+00 0.  1.
          2   -1    0    0  501    0  0.00000000000E+00 -0.00000000000E+00 -0.12014972610E+04  0.12014972610E+04  0.00000000000E+00 0. -1.
         25    2    1    2    0    0 -0.99408144291E+02  0.94429289943E+02 -0.56840542601E+03  0.59793872363E+03  0.12508844452E+03 0.  0.
         23    2    1    2    0    0  0.99408144291E+02 -0.94429289943E+02 -0.60738297931E+03  0.62926739315E+03  0.90909287619E+02 0.  0.
          5    1    3    3  502    0 -0.11917998472E+03  0.10756604420E+03 -0.47234179389E+03  0.49889734944E+03  0.41800000000E+01 0. -1.
         -5    1    3    3    0  502  0.19771840427E+02 -0.13136754255E+02 -0.96063632116E+02  0.99041374191E+02  0.41800000000E+01 0. -1.
        -11    1    4    4    0    0  0.87643735419E+02 -0.10781326441E+03 -0.58132762683E+03  0.59770137532E+03  0.00000000000E+00 0. -1.
         11    1    4    4    0    0  0.11764408872E+02  0.13383974472E+02 -0.26055352472E+02  0.31566017824E+02  0.00000000000E+00 0.  1.
</event>
<event>
 8    1  0.6787197E-009  0.1114038E+03  0.7561462E-02  0.1257992E+00
          1   -1    0    0  501    0  0.00000000000E+00  0.00000000000E+00  0.17345970882E+02  0.17345970882E+02  0.00000000000E+00 0. -1.
         -1   -1    0    0    0  501 -0.00000000000E+00 -0.00000000000E+00 -0.91060385563E+03  0.91060385563E+03  0.00000000000E+00 0.  1.
         25    2    1    2    0    0  0.45639491481E+02 -0.10429239055E+02 -0.65430781703E+03  0.66780048749E+03  0.12508812673E+03 0.  0.
         23    2    1    2    0    0 -0.45639491481E+02  0.10429239055E+02 -0.23895006771E+03  0.26014933902E+03  0.91590455421E+02 0.  0.
          5    1    3    3  502    0  0.43427123402E+02  0.52749268551E+02 -0.39336101302E+03  0.39927278813E+03  0.41800000000E+01 0.  1.
         -5    1    3    3    0  502  0.22123680790E+01 -0.63178507606E+02 -0.26094680402E+03  0.26852769936E+03  0.41800000000E+01 0.  1.
        -11    1    4    4    0    0 -0.25364282686E+02  0.44575527535E+02 -0.19162626741E+03  0.19837074092E+03  0.00000000000E+00 0.  1.
         11    1    4    4    0    0 -0.20275208795E+02 -0.34146288480E+02 -0.47323800304E+02  0.61778598105E+02  0.00000000000E+00 0. -1.
</event>
<event>
 8    1  0.6787197E-009  0.1615486E+03  0.7561462E-02  0.1186959E+00
         -2   -1    0    0    0  501 -0.00000000000E+00  0.00000000000E+00  0.56755835799E+02  0.56755835799E+02  0.00000000000E+00 0.  1.
          2   -1    0    0  501    0  0.00000000000E+00 -0.00000000000E+00 -0.53170477106E+03  0.53170477106E+03  0.00000000000E+00 0. -1.
         25    2    1    2    0    0 -0.41595495938E+02  0.12998017167E+03 -0.26700475245E+03  0.32490539249E+03  0.12508775291E+03 0.  0.
         23    2    1    2    0    0  0.41595495938E+02 -0.12998017167E+03 -0.20794418281E+03  0.26355521436E+03  0.87152381181E+02 0.  0.
          5    1    3    3  502    0  0.32379653524E+02  0.20850304156E+02 -0.17140058995E+02  0.42360726718E+02  0.41800000000E+01 0. -1.
         -5    1    3    3    0  502 -0.73975149462E+02  0.10912986751E+03 -0.24986469345E+03  0.28254466577E+03  0.41800000000E+01 0. -1.
        -11    1    4    4    0    0  0.32259377490E+02 -0.12490371728E+02 -0.15542880955E+02  0.37924371720E+02  0.00000000000E+00 0.  1.
         11    1    4    4    0    0  0.93361184479E+01 -0.11748979994E+03 -0.19240130185E+03  0.22563084264E+03  0.00000000000E+00 0. -1.
</event>
<event>
 8    1  0.6787197E-009  0.1204134E+03  0.7561462E-02  0.1242417E+00
          1   -1    0    0  501    0  0.00000000000E+00  0.00000000000E+00  0.40662684367E+03  0.40662684367E+03  0.00000000000E+00 0. -1.
         -1   -1    0    0    0  501 -0.00000000000E+00 -0.00000000000E+00 -0.53805138894E+02  0.53805138894E+02  0.00000000000E+00 0.  1.
         25    2    1    2    0    0 -0.95329723709E+02 -0.30881700589E+02  0.18651789706E+03  0.24592360611E+03  0.12509219986E+03 0.  0.
         23    2    1    2    0    0  0.95329723709E+02  0.30881700589E+02  0.16630380771E+03  0.21450837645E+03  0.91189097232E+02 0.  0.
          5    1    3    3  502    0 -0.11481423248E+03 -0.34324565526E+02  0.19070702922E+03  0.22527123024E+03  0.41800000000E+01 0. -1.
         -5    1    3    3    0  502  0.19484508768E+02  0.34428649364E+01 -0.41891321619E+01  0.20652375872E+02  0.41800000000E+01 0. -1.
        -11    1    4    4    0    0  0.40827351511E+02  0.80980487122E+01  0.40307080473E+01  0.41817432151E+02  0.00000000000E+00 0.  1.
         11    1    4    4    0    0  0.54502372198E+02  0.22783651877E+02  0.16227309966E+03  0.17269094430E+03  0.00000000000E+00 0. -1.
</event>
<event>
 8    1  0.6787197E-009  0.1188051E+03  0.7561462E-02  0.1245081E+00
          2   -1    0    0  501    0  0.00000000000E+00  0.00000000000E+00  0.23365136520E+02  0.23365136520E+02  0.00000000000E+00 0. -1.
         -2   -1    0    0    0  501 -0.00000000000E+00 -0.00000000000E+00 -0.75250629013E+03  0.75250629013E+03  0.00000000000E+00 0.  1.
         25    2    1    2    0    0 -0.69086366747E+02 -0.30712353268E+02 -0.41046275929E+03  0.43570925792E+03  0.12508679370E+03 0.  0.
         23    2    1    2    0    0  0.69086366747E+02  0.30712353268E+02 -0.31867839432E+03  0.34016216873E+03  0.91859715419E+02 0.  0.
          5    1    3    3  502    0 -0.31901326633E+02 -0.75701526781E+02 -0.29516514353E+03  0.30641205941E+03  0.41800000000E+01 0.  1.
         -5    1    3    3    0  502 -0.37185040114E+02  0.44989173513E+02 -0.11529761576E+03  0.12929719851E+03  0.41800000000E+01 0.  1.
        -11    1    4    4    0    0  0.78952139440E+02  0.18412708398E+02 -0.31311795919E+03  0.32344292313E+03  0.00000000000E+00 0.  1.
         11    1    4    4    0    0 -0.98657726927E+01  0.12299644869E+02 -0.55604351254E+01  0.16719245603E+02  0.00000000000E+00 0. -1.
</event>
<event>
 8    1  0.6787197E-009  0.1275865E+03  0.7561462E-02  0.1231082E+00
         -2   -1    0    0    0  501 -0.00000000000E+00  0.00000000000E+00  0.15431816818E+03  0.15431816818E+03  0.00000000000E+00 0.  1.
          2   -1    0    0  501    0  0.00000000000E+00 -0.00000000000E+00 -0.14903371557E+03  0.14903371557E+03  0.00000000000E+00 0. -1.
         25    2    1    2    0    0  0.50856240187E+02 -0.90067534982E+02 -0.17969567453E+02  0.16330661213E+03  0.12509047201E+03 0.  0.
         23    2    1    2    0    0 -0.50856240187E+02  0.90067534982E+02  0.23254020063E+02  0.14004527161E+03  0.91506342005E+02 0.  0.
          5    1    3    3  502    0 -0.22527314212E+02  0.11953891666E+02 -0.26831595966E+02  0.37252950939E+02  0.41800000000E+01 0.  1.
         -5    1    3    3    0  502  0.73383554399E+02 -0.10202142665E+03  0.88620285136E+01  0.12605366120E+03  0.41800000000E+01 0.  1.
        -11    1    4    4    0    0 -0.33918373736E+02  0.54480071525E+02  0.58748658794E+02  0.87005397421E+02  0.00000000000E+00 0.  1.
         11    1    4    4    0    0 -0.16937866451E+02  0.35587463458E+02 -0.35494638731E+02  0.53039874188E+02  0.00000000000E+00 0. -1.
</event>
<event>
 8    1  0.6787197E-009  0.1824662E+03  0.7561462E-02  0.1165437E+00
          1   -1    0    0  501    0  0.00000000000E+00  0.00000000000E+00  0.13744553983E+03  0.13744553983E+03  0.00000000000E+00 0. -1.
         -1   -1    0    0    0  501 -0.00000000000E+00 -0.00000000000E+00 -0.31545901390E+03  0.31545901390E+03  0.00000000000E+00 0.  1.
         25    2    1    2    0    0  0.16907103352E+03  0.48595307523E+02 -0.95465500057E+02  0.23602539966E+03  0.12509120389E+03 0.  0.
         23    2    1    2    0    0 -0.16907103352E+03 -0.48595307523E+02 -0.82547974013E+02  0.21687915408E+03  0.96311376117E+02 0.  0.
          5    1    3    3  502    0  0.23316417903E+02  0.32475409317E+01  0.30019221814E+02  0.38377440564E+02  0.41800000000E+01 0. -1.
         -5    1    3    3    0  502  0.14575461562E+03  0.45347766591E+02 -0.12548472187E+03  0.19764795909E+03  0.41800000000E+01 0. -1.
        -11    1    4    4    0    0 -0.37509723009E+02  0.17150796867E+02 -0.52504933067E+02  0.66767485723E+02  0.00000000000E+00 0.  1.
         11    1    4    4    0    0 -0.13156131052E+03 -0.65746104390E+02 -0.30043040946E+02  0.15011166836E+03  0.00000000000E+00 0. -1.
</event>
<event>
 8    1  0.6787197E-009  0.1428322E+03  0.7561462E-02  0.1209568E+00
          1   -1    0    0  501    0  0.00000000000E+00  0.00000000000E+00  0.20015598006E+03  0.20015598006E+03  0.00000000000E+00 0. -1.
         -1   -1    0    0    0  501 -0.00000000000E+00 -0.00000000000E+00 -0.11128431825E+03  0.11128431825E+03  0.00000000000E+00 0.  1.
         25    2    1    2    0    0 -0.49315449076E+02  0.87407848671E+02  0.42828023634E+02  0.16599565756E+03  0.12509265844E+03 0.  0.
         23    2    1    2    0    0  0.49315449076E+02 -0.87407848671E+02  0.46043638180E+02  0.14544464074E+03  0.94667742010E+02 0.  0.
          5    1    3    3  502    0 -0.50199149009E+02  0.11258041196E+03  0.90696109260E+01  0.12366905013E+03  0.41800000000E+01 0. -1.
         -5    1    3    3    0  502  0.88369993268E+00 -0.25172563289E+02  0.33758412708E+02  0.42326607432E+02  0.41800000000E+01 0. -1.
        -11    1    4    4    0    0 -0.27943271307E+02 -0.24572922668E+02  0.21125996788E+02  0.42789749708E+02  0.00000000000E+00 0.  1.
         11    1    4    4    0    0  0.77258720383E+02 -0.62834926003E+02  0.24917641393E+02  0.10265489104E+03  0.00000000000E+00 0. -1.
</event>
<event>
 8    1  0.6787197E-009  0.1880305E+03  0.7561462E-02  0.1160250E+00
          1   -1    0    0  501    0  0.00000000000E+00  0.00000000000E+00  0.35875271932E+04  0.35875271932E+04  0.00000000000E+00 0. -1.
         -1   -1    0    0    0  501 -0.00000000000E+00 -0.00000000000E+00 -0.14788310906E+02  0.14788310906E+02  0.00000000000E+00 0.  1.
         25    2    1    2    0    0 -0.12449244541E+03 -0.10389948001E+03  0.28178747930E+04  0.28253067834E+04  0.12508637142E+03 0.  0.
         23    2    1    2    0    0  0.12449244541E+03  0.10389948001E+03  0.75486408928E+03  0.77700872071E+03  0.87345794735E+02 0.  0.
          5    1    3    3  502    0 -0.25656972151E+02 -0.10064470030E+03  0.16331184545E+04  0.16364232322E+04  0.41800000000E+01 0. -1.
         -5    1    3    3    0  502 -0.98835473258E+02 -0.32547797112E+01  0.11847563385E+04  0.11888835512E+04  0.41800000000E+01 0. -1.
        -11    1    4    4    0    0  0.64526739034E+02  0.91398507391E+02  0.60236689801E+03  0.61266897018E+03  0.00000000000E+00 0. -1.
         11    1    4    4    0    0  0.59965706375E+02  0.12500972621E+02  0.15249719127E+03  0.16433975052E+03  0.00000000000E+00 0.  1.
</event>
<event>
 8    1  0.6787197E-009  0.1181624E+03  0.7561462E-02  0.1246160E+00
          2   -1    0    0  501    0  0.00000000000E+00  0.00000000000E+00  0.11752100188E+04  0.11752100188E+04  0.00000000000E+00 0. -1.
         -2   -1    0    0    0  501 -0.00000000000E+00 -0.00000000000E+00 -0.13202579007E+02  0.13202579007E+02  0.00000000000E+00 0.  1.
         25    2    1    2    0    0 -0.14927891748E+02  0.59451399463E+02  0.67413710267E+03  0.68837880900E+03  0.12508893093E+03 0.  0.
         23    2    1    2    0    0  0.14927891748E+02 -0.59451399463E+02  0.48787033715E+03  0.50003378883E+03  0.90879113389E+02 0.  0.
          5    1    3    3  502    0  0.43049494719E+01  0.96538256655E+02  0.43986529490E+03  0.45037441939E+03  0.41800000000E+01 0.  1.
         -5    1    3    3    0  502 -0.19232841219E+02 -0.37086857192E+02  0.23427180777E+03  0.23800438961E+03  0.41800000000E+01 0.  1.
        -11    1    4    4    0    0  0.24721662999E+02 -0.75149678720E+02  0.45882720785E+03  0.46559751019E+03  0.00000000000E+00 0. -1.
         11    1    4    4    0    0 -0.97937712513E+01  0.15698279256E+02  0.29043129301E+02  0.34436278640E+02  0.00000000000E+00 0.  1.
</event>
<event>
 8    1  0.6787197E-009  0.9023486E+02  0.7561462E-02  0.1302284E+00
         -2   -1    0    0    0  501 -0.00000000000E+00  0.00000000000E+00  0.18180743538E+03  0.18180743538E+03  0.00000000000E+00 0. -1.
          2   -1    0    0  501    0  0.00000000000E+00 -0.00000000000E+00 -0.90793560234E+02  0.90793560234E+02  0.00000000000E+00 0.  1.
         25    2    1    2    0    0 -0.30219175112E+02 -0.35612017588E+02  0.30876270305E+00  0.13352829410E+03  0.12509314789E+03 0.  0.
         23    2    1    2    0    0  0.30219175112E+02  0.35612017588E+02  0.90705112438E+02  0.13907270151E+03  0.94511293197E+02 0.  0.
          5    1    3    3  502    0  0.18955555244E+02  0.39291911561E+02 -0.24857989999E+00  0.43825809527E+02  0.41800000000E+01 0. -1.
         -5    1    3    3    0  502 -0.49174730357E+02 -0.74903929149E+02  0.55734260303E+00  0.89702484572E+02  0.41800000000E+01 0. -1.
        -11    1    4    4    0    0  0.10012525648E+02  0.85249382024E+01 -0.19658414711E+02  0.23651184118E+02  0.00000000000E+00 0.  1.
         11    1    4    4    0    0  0.20206649464E+02  0.27087079386E+02  0.11036352715E+03  0.11542151739E+03  0.00000000000E+00 0. -1.
</event>
<event>
 8    1  0.6787197E-009  0.8874409E+02  0.7561462E-02  0.1305922E+00
          2   -1    0    0  501    0  0.00000000000E+00  0.00000000000E+00  0.47137956444E+02  0.47137956444E+02  0.00000000000E+00 0. -1.
         -2   -1    0    0    0  501 -0.00000000000E+00 -0.00000000000E+00 -0.33751160478E+03  0.33751160478E+03  0.00000000000E+00 0.  1.
         25    2    1    2    0    0  0.24677752976E+02  0.26156026411E+02 -0.24280305825E+03  0.27548913382E+03  0.12509120091E+03 0.  0.
         23    2    1    2    0    0 -0.24677752976E+02 -0.26156026411E+02 -0.47570590080E+02  0.10916042740E+03  0.91432536115E+02 0.  0.
          5    1    3    3  502    0  0.66096844804E+02  0.21752683382E+02 -0.21295970883E+03  0.22407874088E+03  0.41800000000E+01 0.  1.
         -5    1    3    3    0  502 -0.41419091828E+02  0.44033430293E+01 -0.29843349418E+02  0.51410392939E+02  0.41800000000E+01 0.  1.
        -11    1    4    4    0    0 -0.26476972357E+02  0.11033350834E+02  0.17923108471E+02  0.33823109158E+02  0.00000000000E+00 0. -1.
         11    1    4    4    0    0  0.17992193804E+01 -0.37189377246E+02 -0.65493698551E+02  0.75337318244E+02  0.00000000000E+00 0.  1.
</event>
<event>
 8    1  0.6787197E-009  0.2753155E+03  0.7561462E-02  0.1098275E+00
          1   -1    0    0  501    0  0.00000000000E+00  0.00000000000E+00  0.42945247748E+03  0.42945247748E+03  0.00000000000E+00 0. -1.
         -1   -1    0    0    0  501 -0.00000000000E+00 -0.00000000000E+00 -0.20579834897E+03  0.20579834897E+03  0.00000000000E+00 0.  1.
         25    2    1    2    0    0  0.79715663498E+02  0.25478632258E+03  0.38449855176E+02  0.29731308280E+03  0.12508405437E+03 0.  0.
         23    2    1    2    0    0 -0.79715663498E+02 -0.25478632258E+03  0.18520427334E+03  0.33793774365E+03  0.92901230002E+02 0.  0.
          5    1    3    3  502    0  0.91911444765E+02  0.23974438797E+03  0.31244880354E+01  0.25681183786E+03  0.41800000000E+01 0. -1.
         -5    1    3    3    0  502 -0.12195781267E+02  0.15041934617E+02  0.35325367141E+02  0.40501244936E+02  0.41800000000E+01 0. -1.
        -11    1    4    4    0    0  0.22180017520E+01 -0.89695873692E+02  0.10163373218E+03  0.13557169618E+03  0.00000000000E+00 0. -1.
         11    1    4    4    0    0 -0.81933665250E+02 -0.16509044889E+03  0.83570541159E+02  0.20236604746E+03  0.00000000000E+00 0.  1.
</event>
<event>
 8    1  0.6787197E-009  0.1330121E+03  0.7561462E-02  0.1223054E+00
         -2   -1    0    0    0  501 -0.00000000000E+00  0.00000000000E+00  0.29748885713E+02  0.29748885713E+02  0.00000000000E+00 0.  1.
          2   -1    0    0  501    0  0.00000000000E+00 -0.00000000000E+00 -0.65040971569E+03  0.65040971569E+03  0.00000000000E+00 0. -1.
         25    2    1    2    0    0  0.49547256597E+02 -0.59859942346E+02 -0.43699864637E+03  0.46114366346E+03  0.12509003992E+03 0.  0.
         23    2    1    2    0    0 -0.49547256597E+02  0.59859942346E+02 -0.18366218360E+03  0.21901493793E+03  0.90540609782E+02 0.  0.
          5    1    3    3  502    0  0.86877462826E+02 -0.15092088517E+02 -0.24322963026E+03  0.25875391808E+03  0.41800000000E+01 0. -1.
         -5    1    3    3    0  502 -0.37330206229E+02 -0.44767853829E+02 -0.19376901611E+03  0.20238974539E+03  0.41800000000E+01 0. -1.
        -11    1    4    4    0    0  0.78281758535E+01  0.61413661956E+02 -0.94153314666E+02  0.11268435949E+03  0.00000000000E+00 0. -1.
         11    1    4    4    0    0 -0.57375432451E+02 -0.15537196104E+01 -0.89508868934E+02  0.10633057844E+03  0.00000000000E+00 0.  1.
</event>
<event>
 8    1  0.6787197E-009  0.1239282E+03  0.7561462E-02  0.1236754E+00
          1   -1    0    0  501    0  0.00000000000E+00  0.00000000000E+00  0.28157605754E+03  0.28157605754E+03  0.00000000000E+00 0. -1.
         -1   -1    0    0    0  501 -0.00000000000E+00 -0.00000000000E+00 -0.11860249412E+03  0.11860249412E+03  0.00000000000E+00 0.  1.
         25    2    1    2    0    0 -0.82355895170E+02 -0.78476102525E+02  0.18861174556E+03  0.25330384710E+03  0.12508979278E+03 0.  0.
         23    2    1    2    0    0  0.82355895170E+02  0.78476102525E+02 -0.25638182134E+02  0.14687470455E+03  0.89296530269E+02 0.  0.
          5    1    3    3  502    0 -0.43102986980E+02 -0.75604189476E+02  0.33704361445E+02  0.93420112039E+02  0.41800000000E+01 0.  1.
         -5    1    3    3    0  502 -0.39252908191E+02 -0.28719130489E+01  0.15490738411E+03  0.15988373506E+03  0.41800000000E+01 0.  1.
        -11    1    4    4    0    0 -0.66088546560E-01  0.20213713741E+02  0.26451740760E+02  0.33291037535E+02  0.00000000000E+00 0. -1.
         11    1    4    4    0    0  0.82421983717E+02  0.58262388784E+02 -0.52089922894E+02  0.11358366702E+03  0.00000000000E+00 0.  1.
</event>
<event>
 8    1  0.6787197E-009  0.1002656E+03  0.7561462E-02  0.1279738E+00
          1   -1    0    0  501    0  0.00000000000E+00  0.00000000000E+00  0.61077389703E+03  0.61077389703E+03  0.00000000000E+00 0. -1.
         -1   -1    0    0    0  501 -0.00000000000E+00 -0.00000000000E+00 -0.21779891862E+02  0.21779891862E+02  0.00000000000E+00 0.  1.
         25    2    1    2    0    0  0.78119467909E+01  0.34910951084E+02  0.28797439984E+03  0.31600238943E+03  0.12509378140E+03 0.  0.
         23    2    1    2    0    0 -0.78119467909E+01 -0.34910951084E+02  0.30101960532E+03  0.31655139946E+03  0.91171183447E+02 0.  0.
          5    1    3    3  502    0  0.51955900301E+02  0.27121316485E+02  0.61346955287E+02  0.84946469656E+02  0.41800000000E+01 0. -1.
         -5    1    3    3    0  502 -0.44143953510E+02  0.77896345995E+01  0.22662744455E+03  0.23105591978E+03  0.41800000000E+01 0. -1.
        -11    1    4    4    0    0  0.38468201673E+02  0.51354861026E+00  0.14447848248E+03  0.14951286958E+03  0.00000000000E+00 0. -1.
         11    1    4    4    0    0 -0.46280148464E+02 -0.35424499694E+02  0.15654112285E+03  0.16703852987E+03  0.00000000000E+00 0.  1.
</event>
<event>
 8    1  0.6787197E-009  0.8812244E+02  0.7561462E-02  0.1307463E+00
          2   -1    0    0  501    0  0.00000000000E+00  0.00000000000E+00  0.53138060251E+03  0.53138060251E+03  0.00000000000E+00 0. -1.
         -2   -1    0    0    0  501 -0.00000000000E+00 -0.00000000000E+00 -0.28311893445E+02  0.28311893445E+02  0.00000000000E+00 0.  1.
         25    2    1    2    0    0 -0.22616956990E+02  0.21863253391E+02  0.39563049620E+03  0.41612443651E+03  0.12508608456E+03 0.  0.
         23    2    1    2    0    0  0.22616956990E+02 -0.21863253391E+02  0.10743821286E+03  0.14356805944E+03  0.89884868106E+02 0.  0.
          5    1    3    3  502    0  0.20007536541E+02 -0.16551839409E+02  0.13268549367E+02  0.29458304577E+02  0.41800000000E+01 0.  1.
         -5    1    3    3    0  502 -0.42624493531E+02  0.38415092801E+02  0.38236194683E+03  0.38666613194E+03  0.41800000000E+01 0.  1.
        -11    1    4    4    0    0  0.31748551193E+02  0.27626703985E+02  0.31936243171E+02  0.52831135742E+02  0.00000000000E+00 0.  1.
         11    1    4    4    0    0 -0.91315942028E+01 -0.49489957377E+02  0.75501969694E+02  0.90736923695E+02  0.00000000000E+00 0. -1.
</event>
<event>
 8    1  0.6787197E-009  0.3765173E+03  0.7561462E-02  0.1052229E+00
          2   -1    0    0  501    0  0.00000000000E+00  0.00000000000E+00  0.29238360375E+04  0.29238360375E+04  0.00000000000E+00 0. -1.
         -2   -1    0    0    0  501 -0.00000000000E+00 -0.00000000000E+00 -0.50847008703E+02  0.50847008703E+02  0.00000000000E+00 0.  1.
         25    2    1    2    0    0  0.26232040302E+03 -0.25482018318E+03  0.12353340724E+04  0.12943889051E+04  0.12508815997E+03 0.  0.
         23    2    1    2    0    0 -0.26232040302E+03  0.25482018318E+03  0.16376549564E+04  0.16802941411E+04  0.87916577664E+02 0.  0.
          5    1    3    3  502    0  0.13796656702E+03 -0.61032070493E+02  0.38804684003E+03  0.41636223376E+03  0.41800000000E+01 0.  1.
         -5    1    3    3    0  502  0.12435383599E+03 -0.19378811269E+03  0.84728723236E+03  0.87802667138E+03  0.41800000000E+01 0.  1.
        -11    1    4    4    0    0 -0.10240312422E+03  0.56160591619E+02  0.40337962630E+03  0.41994706192E+03  0.00000000000E+00 0. -1.
         11    1    4    4    0    0 -0.15991727880E+03  0.19865959156E+03  0.12342753301E+04  0.12603470791E+04  0.00000000000E+00 0.  1.
</event>
<event>
 8    1  0.6787197E-009  0.1408459E+03  0.7561462E-02  0.1212195E+00
         -2   -1    0    0    0  501 -0.00000000000E+00  0.00000000000E+00  0.47431881900E+03  0.47431881900E+03  0.00000000000E+00 0.  1.
          2   -1    0    0  501    0  0.00000000000E+00 -0.00000000000E+00 -0.49359269739E+02  0.49359269739E+02  0.00000000000E+00 0. -1.
         25    2    1    2    0    0  0.18789451401E+02  0.99592242044E+02  0.16496139174E+03  0.23050308223E+03  0.12509097486E+03 0.  0.
         23    2    1    2    0    0 -0.18789451401E+02 -0.99592242044E+02  0.25999815752E+03  0.29317500651E+03  0.89893739332E+02 0.  0.
          5    1    3    3  502    0 -0.40055172103E+02  0.68793522116E+02  0.13661023557E+03  0.15816698252E+03  0.41800000000E+01 0.  1.
         -5    1    3    3    0  502  0.58844623505E+02  0.30798719928E+02  0.28351156176E+02  0.72336099709E+02  0.41800000000E+01 0.  1.
        -11    1    4    4    0    0  0.35349580813E+02 -0.25159497979E+02  0.86783458678E+02  0.97025573445E+02  0.00000000000E+00 0.  1.
         11    1    4    4    0    0 -0.54139032215E+02 -0.74432744064E+02  0.17321469884E+03  0.19614943307E+03  0.00000000000E+00 0. -1.
</event>
<event>
 8    1  0.6787197E-009  0.1679967E+03  0.7561462E-02  0.1179953E+00
          1   -1    0    0  501    0  0.00000000000E+00  0.00000000000E+00  0.52854882688E+02  0.52854882688E+02  0.00000000000E+00 0. -1.
         -1   -1    0    0    0  501 -0.00000000000E+00 -0.00000000000E+00 -0.72914226925E+03  0.72914226925E+03  0.00000000000E+00 0.  1.
         25    2    1    2    0    0 -0.99121098291E+02 -0.12475006055E+03 -0.42115330415E+03  0.46733836910E+03  0.12508987132E+03 0.  0.
         23    2    1    2    0    0  0.99121098291E+02  0.12475006055E+03 -0.25513408241E+03  0.31465878283E+03  0.92353559069E+02 0.  0.
          5    1    3    3  502    0 -0.68112961535E+02 -0.88388971391E+02 -0.39930912737E+03  0.41462903588E+03  0.41800000000E+01 0.  1.
         -5    1    3    3    0  502 -0.31008136755E+02 -0.36361089160E+02 -0.21844176780E+02  0.52709333226E+02  0.41800000000E+01 0.  1.
        -11    1    4    4    0    0  0.30074522655E+02  0.97660394705E+02 -0.10135212174E+03  0.14392457118E+03  0.00000000000E+00 0.  1.
         11    1    4    4    0    0  0.69046575635E+02  0.27089665846E+02 -0.15378196067E+03  0.17073421166E+03  0.00000000000E+00 0. -1.
</event>
<event>
 8    1  0.6787197E-009  0.9849330E+02  0.7561462E-02  0.1283497E+00
          1   -1    0    0  501    0  0.00000000000E+00  0.00000000000E+00  0.35319413388E+03  0.35319413388E+03  0.00000000000E+00 0. -1.
         -1   -1    0    0    0  501 -0.00000000000E+00 -0.00000000000E+00 -0.41318223597E+02  0.41318223597E+02  0.00000000000E+00 0.  1.
         25    2    1    2    0    0  0.36648176125E+02  0.27349941758E+02  0.21748314964E+03  0.25503284289E+03  0.12510684412E+03 0.  0.
         23    2    1    2    0    0 -0.36648176125E+02 -0.27349941758E+02  0.94392760638E+02  0.13947951459E+03  0.91942555987E+02 0.  0.
          5    1    3    3  502    0  0.36623278915E+02 -0.24116386005E+02  0.19286019930E+03  0.19782667541E+03  0.41800000000E+01 0.  1.
         -5    1    3    3    0  502  0.24897210451E-01  0.51466327763E+02  0.24622950347E+02  0.57206167474E+02  0.41800000000E+01 0.  1.
        -11    1    4    4    0    0  0.21233747873E+02 -0.36961932410E+02  0.28644565440E+02  0.51357254847E+02  0.00000000000E+00 0.  1.
         11    1    4    4    0    0 -0.57881923998E+02  0.96119906519E+01  0.65748195199E+02  0.88122259741E+02  0.00000000000E+00 0. -1.
</event>
<event>
 8    1  0.6787197E-009  0.4172119E+03  0.7561462E-02  0.1037978E+00
          4   -1    0    0  501    0  0.00000000000E+00  0.00000000000E+00  0.15583156288E+03  0.15583156288E+03  0.00000000000E+00 0.  1.
         -4   -1    0    0    0  501 -0.00000000000E+00 -0.00000000000E+00 -0.13235811429E+04  0.13235811429E+04  0.00000000000E+00 0. -1.
         25    2    1    2    0    0 -0.40818061937E+03  0.47542530906E+02 -0.32919516379E+03  0.54119182001E+03  0.12508964749E+03 0.  0.
         23    2    1    2    0    0  0.40818061937E+03 -0.47542530906E+02 -0.83855441618E+03  0.93822088573E+03  0.90626768904E+02 0.  0.
          5    1    3    3  502    0 -0.71859300553E+02  0.48732040067E+02 -0.32881792953E+02  0.92936836146E+02  0.41800000000E+01 0. -1.
         -5    1    3    3    0  502 -0.33632131882E+03 -0.11895091611E+01 -0.29631337084E+03  0.44825498387E+03  0.41800000000E+01 0. -1.
        -11    1    4    4    0    0  0.26587849223E+03 -0.24673250251E+02 -0.44330041095E+03  0.51750883689E+03  0.00000000000E+00 0.  1.
         11    1    4    4    0    0  0.14230212714E+03 -0.22869280655E+02 -0.39525400523E+03  0.42071204884E+03  0.00000000000E+00 0. -1.
</event>
<event>
 8    1  0.6787197E-009  0.8605393E+02  0.7561462E-02  0.1312699E+00
          1   -1    0    0  501    0  0.00000000000E+00  0.00000000000E+00  0.41877376511E+03  0.41877376511E+03  0.00000000000E+00 0.  1.
         -1   -1    0    0    0  501 -0.00000000000E+00 -0.00000000000E+00 -0.34189343463E+02  0.34189343463E+02  0.00000000000E+00 0. -1.
         25    2    1    2    0    0 -0.10752951659E+02  0.47164482467E+02  0.18784872653E+03  0.23081263370E+03  0.12508882222E+03 0.  0.
         23    2    1    2    0    0  0.10752951659E+02 -0.47164482467E+02  0.19673569512E+03  0.22215047487E+03  0.91136081627E+02 0.  0.
          5    1    3    3  502    0 -0.54222742963E+02  0.34896571243E+02  0.17035032066E+03  0.18219379980E+03  0.41800000000E+01 0. -1.
         -5    1    3    3    0  502  0.43469791304E+02  0.12267911224E+02  0.17498405869E+02  0.48618833900E+02  0.41800000000E+01 0. -1.
        -11    1    4    4    0    0  0.14212506574E+02  0.61481043391E+00 -0.47890695081E+01  0.15010280535E+02  0.00000000000E+00 0. -1.
         11    1    4    4    0    0 -0.34595549151E+01 -0.47779292901E+02  0.20152476463E+03  0.20714019434E+03  0.00000000000E+00 0.  1.
</event>
<event>
 8    1  0.6787197E-009  0.1676369E+03  0.7561462E-02  0.1180335E+00
          1   -1    0    0  501    0  0.00000000000E+00  0.00000000000E+00  0.69937268983E+03  0.69937268983E+03  0.00000000000E+00 0. -1.
         -1   -1    0    0    0  501 -0.00000000000E+00 -0.00000000000E+00 -0.45251863445E+02  0.45251863445E+02  0.00000000000E+00 0.  1.
         25    2    1    2    0    0 -0.37114618608E+02  0.12512352798E+03  0.23801667480E+03  0.29888018599E+03  0.12507612053E+03 0.  0.
         23    2    1    2    0    0  0.37114618608E+02 -0.12512352798E+03  0.41610415159E+03  0.44574436729E+03  0.92260413123E+02 0.  0.
          5    1    3    3  502    0 -0.59388075783E+02  0.13744861677E+03  0.22415168706E+03  0.26959324362E+03  0.41800000000E+01 0.  1.
         -5    1    3    3    0  502  0.22273457175E+02 -0.12325088785E+02  0.13864987738E+02  0.29286942365E+02  0.41800000000E+01 0.  1.
        -11    1    4    4    0    0 -0.20351676758E+02 -0.90145215167E+02  0.23151457448E+03  0.24927765395E+03  0.00000000000E+00 0. -1.
         11    1    4    4    0    0  0.57466295366E+02 -0.34978312815E+02  0.18458957711E+03  0.19646671333E+03  0.00000000000E+00 0.  1.
</event>
<event>
 8    1  0.6787197E-009  0.1592575E+03  0.7561462E-02  0.1189538E+00
          1   -1    0    0  501    0  0.00000000000E+00  0.00000000000E+00  0.13830495898E+03  0.13830495898E+03  0.00000000000E+00 0. -1.
         -1   -1    0    0    0  501 -0.00000000000E+00 -0.00000000000E+00 -0.22087806463E+03  0.22087806463E+03  0.00000000000E+00 0.  1.
         25    2    1    2    0    0  0.29712918798E+02 -0.13109881719E+03 -0.35909598297E+02  0.18710012689E+03  0.12508877176E+03 0.  0.
         23    2    1    2    0    0 -0.29712918798E+02  0.13109881719E+03 -0.46663507354E+02  0.17208289672E+03  0.96774392352E+02 0.  0.
          5    1    3    3  502    0 -0.39086333385E+02 -0.99585410922E+02 -0.12565065971E+02  0.10779772172E+03  0.41800000000E+01 0.  1.
         -5    1    3    3    0  502  0.68799252183E+02 -0.31513406265E+02 -0.23344532326E+02  0.79302405164E+02  0.41800000000E+01 0.  1.
        -11    1    4    4    0    0 -0.10689571864E+02  0.86761283917E+02 -0.75814638074E+02  0.11571364085E+03  0.00000000000E+00 0.  1.
         11    1    4    4    0    0 -0.19023346934E+02  0.44337533271E+02  0.29151130720E+02  0.56369255870E+02  0.00000000000E+00 0. -1.
</event>
<event>
 8    1  0.6787197E-009  0.1370048E+03  0.7561462E-02  0.1217417E+00
         -3   -1    0    0    0  501 -0.00000000000E+00  0.00000000000E+00  0.60966927780E+02  0.60966927780E+02  0.00000000000E+00 0.  1.
          3   -1    0    0  501    0  0.00000000000E+00 -0.00000000000E+00 -0.39083553447E+03  0.39083553447E+03  0.00000000000E+00 0. -1.
         25    2    1    2    0    0  0.93087677859E+02 -0.60560376833E+02 -0.18717281463E+03  0.25103445786E+03  0.12510700015E+03 0.  0.
         23    2    1    2    0    0 -0.93087677859E+02  0.60560376833E+02 -0.14269579206E+03  0.20076800439E+03  0.87251518630E+02 0.  0.
          5    1    3    3  502    0  0.97492551834E+02 -0.77692587683E+02 -0.19480816473E+03  0.23131932321E+03  0.41800000000E+01 0.  1.
         -5    1    3    3    0  502 -0.44048739743E+01  0.17132210849E+02  0.76353500989E+01  0.19715134654E+02  0.41800000000E+01 0.  1.
        -11    1    4    4    0    0  0.83249698078E+01 -0.55826539704E+01 -0.42333098719E+02  0.43503590596E+02  0.00000000000E+00 0. -1.
         11    1    4    4    0    0 -0.10141264767E+03  0.66143030804E+02 -0.10036269334E+03  0.15726441379E+03  0.00000000000E+00 0.  1.
</event>
<event>
 8    1  0.6787197E-009  0.7801677E+02  0.7561462E-02  0.1334776E+00
         -2   -1    0    0    0  501 -0.00000000000E+00  0.00000000000E+00  0.41018052309E+02  0.41018052309E+02  0.00000000000E+00 0.  1.
          2   -1    0    0  501    0  0.00000000000E+00 -0.00000000000E+00 -0.39670830410E+03  0.39670830410E+03  0.00000000000E+00 0. -1.
         25    2    1    2    0    0  0.38563308349E+02  0.54198965922E+02 -0.18716028239E+03  0.23473658039E+03  0.12509050409E+03 0.  0.
         23    2    1    2    0    0 -0.38563308349E+02 -0.54198965922E+02 -0.16852996940E+03  0.20298977602E+03  0.91530551852E+02 0.  0.
          5    1    3    3  502    0  0.14352425531E+02  0.29046742054E+02  0.10235605258E+02  0.34233687467E+02  0.41800000000E+01 0.  1.
         -5    1    3    3    0  502  0.24210882818E+02  0.25152223867E+02 -0.19739588765E+03  0.20050289293E+03  0.41800000000E+01 0.  1.
        -11    1    4    4    0    0 -0.17690697167E+02 -0.63085906467E+02 -0.16797102107E+03  0.18029713331E+03  0.00000000000E+00 0. -1.
         11    1    4    4    0    0 -0.20872611182E+02  0.88869405451E+01 -0.55894833533E+00  0.22692642707E+02  0.00000000000E+00 0.  1.
</event>
<event>
 8    1  0.6787197E-009  0.1218257E+03  0.7561462E-02  0.1240115E+00
          1   -1    0    0  501    0  0.00000000000E+00  0.00000000000E+00  0.17455151130E+03  0.17455151130E+03  0.00000000000E+00 0. -1.
         -1   -1    0    0    0  501 -0.00000000000E+00 -0.00000000000E+00 -0.13154231218E+03  0.13154231218E+03  0.00000000000E+00 0.  1.
         25    2    1    2    0    0 -0.76503986972E+02 -0.70951969366E+02  0.33159784319E+02  0.16624072377E+03  0.12509742190E+03 0.  0.
         23    2    1    2    0    0  0.76503986972E+02  0.70951969366E+02  0.98494148006E+01  0.13985309971E+03  0.92600413321E+02 0.  0.
          5    1    3    3  502    0 -0.62640787422E+02 -0.33575010389E+02 -0.40844209535E+02  0.82078446769E+02  0.41800000000E+01 0. -1.
         -5    1    3    3    0  502 -0.13863199550E+02 -0.37376958977E+02  0.74003993854E+02  0.84162277004E+02  0.41800000000E+01 0. -1.
        -11    1    4    4    0    0 -0.60128996097E+01 -0.13206204574E+02  0.16288529655E+02  0.21814559343E+02  0.00000000000E+00 0. -1.
         11    1    4    4    0    0  0.82516886582E+02  0.84158173941E+02 -0.64391148548E+01  0.11803854037E+03  0.00000000000E+00 0.  1.
</event>
<event>
 8    1  0.6787197E-009  0.1184259E+03  0.7561462E-02  0.1245717E+00
          2   -1    0    0  501    0  0.00000000000E+00  0.00000000000E+00  0.78256075378E+03  0.78256075378E+03  0.00000000000E+00 0. -1.
         -2   -1    0    0    0  501 -0.00000000000E+00 -0.00000000000E+00 -0.45566532572E+02  0.45566532572E+02  0.00000000000E+00 0.  1.
         25    2    1    2    0    0  0.20878558312E+02 -0.74436665926E+02  0.95268762909E+02  0.17521638496E+03  0.12509161819E+03 0.  0.
         23    2    1    2    0    0 -0.20878558312E+02  0.74436665926E+02  0.64172545830E+03  0.65291090139E+03  0.92219032154E+02 0.  0.
          5    1    3    3  502    0 -0.31129491785E+02 -0.53840698101E+02 -0.26279842340E+01  0.62387857247E+02  0.41800000000E+01 0.  1.
         -5    1    3    3    0  502  0.52008050097E+02 -0.20595967825E+02  0.97896747143E+02  0.11282852772E+03  0.41800000000E+01 0.  1.
        -11    1    4    4    0    0 -0.32252601137E+02  0.92006395493E+02  0.56648481465E+03  0.57481340652E+03  0.00000000000E+00 0.  1.
         11    1    4    4    0    0  0.11374042825E+02 -0.17569729567E+02  0.75240643647E+02  0.78097494861E+02  0.00000000000E+00 0. -1.
</event>
<event>
 8    1  0.6787197E-009  0.7875203E+02  0.7561462E-02  0.1332631E+00
         -3   -1    0    0    0  501 -0.00000000000E+00  0.00000000000E+00  0.46412475361E+03  0.46412475361E+03  0.00000000000E+00 0.  1.
          3   -1    0    0  501    0  0.00000000000E+00 -0.00000000000E+00 -0.37545589770E+02  0.37545589770E+02  0.00000000000E+00 0. -1.
         25    2    1    2    0    0 -0.21145227531E+02 -0.77452015551E+01  0.36664238385E+03  0.38804613789E+03  0.12508420644E+03 0.  0.
         23    2    1    2    0    0  0.21145227531E+02  0.77452015551E+01  0.59936779984E+02  0.11362420548E+03  0.93866573830E+02 0.  0.
          5    1    3    3  502    0  0.36994041717E+02  0.28127920786E+02  0.73814032471E+02  0.87325384854E+02  0.41800000000E+01 0.  1.
         -5    1    3    3    0  502 -0.58139269247E+02 -0.35873122341E+02  0.29282835138E+03  0.30072075304E+03  0.41800000000E+01 0.  1.
        -11    1    4    4    0    0  0.14040904036E+02 -0.13815953055E+02  0.80572455158E+02  0.82945452407E+02  0.00000000000E+00 0.  1.
         11    1    4    4    0    0  0.71043234952E+01  0.21561154610E+02 -0.20635675174E+02  0.30678753076E+02  0.00000000000E+00 0. -1.
</event>
<event>
 8    1  0.6787197E-009  0.1598976E+03  0.7561462E-02  0.1188812E+00
          1   -1    0    0  501    0  0.00000000000E+00  0.00000000000E+00  0.10664654119E+04  0.10664654119E+04  0.00000000000E+00 0. -1.
         -1   -1    0    0    0  501 -0.00000000000E+00 -0.00000000000E+00 -0.32410448305E+02  0.32410448305E+02  0.00000000000E+00 0.  1.
         25    2    1    2    0    0  0.13938290800E+03 -0.42213368500E+02  0.44066833633E+03  0.48067297467E+03  0.12509341475E+03 0.  0.
         23    2    1    2    0    0 -0.13938290800E+03  0.42213368500E+02  0.59338662727E+03  0.61820288554E+03  0.94114583059E+02 0.  0.
          5    1    3    3  502    0  0.10259109109E+03  0.68334238359E+01  0.13978025674E+03  0.17357309765E+03  0.41800000000E+01 0. -1.
         -5    1    3    3    0  502  0.36791816912E+02 -0.49046792336E+02  0.30088807959E+03  0.30709987703E+03  0.41800000000E+01 0. -1.
        -11    1    4    4    0    0 -0.69456533592E+02 -0.71775218136E+01  0.13605262847E+03  0.15292496393E+03  0.00000000000E+00 0.  1.
         11    1    4    4    0    0 -0.69926374408E+02  0.49390890314E+02  0.45733399880E+03  0.46527792161E+03  0.00000000000E+00 0. -1.
</event>
<event>
 8    1  0.6787197E-009  0.1001364E+03  0.7561462E-02  0.1280009E+00
         -1   -1    0    0    0  501 -0.00000000000E+00  0.00000000000E+00  0.66476424628E+02  0.66476424628E+02  0.00000000000E+00 0.  1.
          1   -1    0    0  501    0  0.00000000000E+00 -0.00000000000E+00 -0.26020216151E+03  0.26020216151E+03  0.00000000000E+00 0. -1.
         25    2    1    2    0    0 -0.24116576306E+01 -0.27586476316E+02 -0.19199214498E+03  0.23081829911E+03  0.12509705713E+03 0.  0.
         23    2    1    2    0    0  0.24116576306E+01  0.27586476316E+02 -0.17335919001E+01  0.95860287026E+02  0.91757067955E+02 0.  0.
          5    1    3    3  502    0  0.10122738609E+02 -0.76103943074E+02 -0.12952347668E+03  0.15062563991E+03  0.41800000000E+01 0. -1.
         -5    1    3    3    0  502 -0.12534396239E+02  0.48517466758E+02 -0.62468668302E+02  0.80192659197E+02  0.41800000000E+01 0. -1.
        -11    1    4    4    0    0  0.33233750631E+02  0.24426997489E+01 -0.31751024029E+02  0.46027996806E+02  0.00000000000E+00 0. -1.
         11    1    4    4    0    0 -0.30822093000E+02  0.25143776567E+02  0.30017432129E+02  0.49832290220E+02  0.00000000000E+00 0.  1.
</event>
<event>
 8    1  0.6787197E-009  0.1188012E+03  0.7561462E-02  0.1245088E+00
          1   -1    0    0  501    0  0.00000000000E+00  0.00000000000E+00  0.82855849716E+03  0.82855849716E+03  0.00000000000E+00 0. -1.
         -1   -1    0    0    0  501 -0.00000000000E+00 -0.00000000000E+00 -0.19379614043E+02  0.19379614043E+02  0.00000000000E+00 0.  1.
         25    2    1    2    0    0  0.19828937396E+02  0.59792837389E+02  0.51643747002E+03  0.53509242956E+03  0.12509147683E+03 0.  0.
         23    2    1    2    0    0 -0.19828937396E+02 -0.59792837389E+02  0.29274141310E+03  0.31284568164E+03  0.90589819605E+02 0.  0.
          5    1    3    3  502    0  0.68351196247E+02  0.15882776071E+02  0.20177145111E+03  0.21366642106E+03  0.41800000000E+01 0. -1.
         -5    1    3    3    0  502 -0.48522258850E+02  0.43910061319E+02  0.31466601890E+03  0.32142600850E+03  0.41800000000E+01 0. -1.
        -11    1    4    4    0    0  0.30367826536E+02 -0.12747288718E+02  0.15979252104E+03  0.16315130413E+03  0.00000000000E+00 0. -1.
         11    1    4    4    0    0 -0.50196763932E+02 -0.47045548671E+02  0.13294889206E+03  0.14969437751E+03  0.00000000000E+00 0.  1.
</event>
<event>
 8    1  0.6787197E-009  0.1066967E+03  0.7561462E-02  0.1266812E+00
          2   -1    0    0  501    0  0.00000000000E+00  0.00000000000E+00  0.29988384636E+02  0.29988384636E+02  0.00000000000E+00 0. -1.
         -2   -1    0    0    0  501 -0.00000000000E+00 -0.00000000000E+00 -0.56029486974E+03  0.56029486974E+03  0.00000000000E+00 0.  1.
         25    2    1    2    0    0  0.44601853429E+02 -0.24130569986E+02 -0.40964602034E+03  0.43131104963E+03  0.12509096615E+03 0.  0.
         23    2    1    2    0    0 -0.44601853429E+02  0.24130569986E+02 -0.12066046476E+03  0.15897220475E+03  0.90230839453E+02 0.  0.
          5    1    3    3  502    0  0.75199138192E+02 -0.53468415930E+02 -0.28368301257E+03  0.29834092228E+03  0.41800000000E+01 0. -1.
         -5    1    3    3    0  502 -0.30597284764E+02  0.29337845945E+02 -0.12596300777E+03  0.13297012734E+03  0.41800000000E+01 0. -1.
        -11    1    4    4    0    0 -0.53575604506E+02  0.95861250000E+00 -0.12284946945E+03  0.13402707368E+03  0.00000000000E+00 0.  1.
         11    1    4    4    0    0  0.89737510768E+01  0.23171957486E+02  0.21890046909E+01  0.24945131061E+02  0.00000000000E+00 0. -1.
</event>
<event>
 8    1  0.6787197E-009  0.1259666E+03  0.7561462E-02  0.1233566E+00
         -2   -1    0    0    0  501 -0.00000000000E+00  0.00000000000E+00  0.37790438090E+02  0.37790438090E+02  0.00000000000E+00 0. -1.
          2   -1    0    0  501    0  0.00000000000E+00 -0.00000000000E+00 -0.54286113458E+03  0.54286113458E+03  0.00000000000E+00 0.  1.
         25    2    1    2    0    0 -0.83494743001E+02 -0.35678013299E+02 -0.21423223700E+03  0.26417216142E+03  0.12508871555E+03 0.  0.
         23    2    1    2    0    0  0.83494743001E+02  0.35678013299E+02 -0.29083845949E+03  0.31647941125E+03  0.85603244595E+02 0.  0.
          5    1    3    3  502    0  0.33259502663E+02 -0.65093613670E+01 -0.48309489688E+02  0.59159492026E+02  0.41800000000E+01 0. -1.
         -5    1    3    3    0  502 -0.11675424566E+03 -0.29168651932E+02 -0.16592274731E+03  0.20501266939E+03  0.41800000000E+01 0. -1.
        -11    1    4    4    0    0  0.27676968599E+02  0.30695765531E+02 -0.23032199073E+03  0.23400099151E+03  0.00000000000E+00 0.  1.
         11    1    4    4    0    0  0.55817774402E+02  0.49822477679E+01 -0.60516468754E+02  0.82478419738E+02  0.00000000000E+00 0. -1.
</event>
<event>
 8    1  0.6787197E-009  0.1528405E+03  0.7561462E-02  0.1197025E+00
          2   -1    0    0  501    0  0.00000000000E+00  0.00000000000E+00  0.33790649017E+03  0.33790649017E+03  0.00000000000E+00 0. -1.
         -2   -1    0    0    0  501 -0.00000000000E+00 -0.00000000000E+00 -0.86503350090E+02  0.86503350090E+02  0.00000000000E+00 0.  1.
         25    2    1    2    0    0  0.12235911746E+03  0.43545739176E+02  0.10416266864E+03  0.20824369847E+03  0.12509033291E+03 0.  0.
         23    2    1    2    0    0 -0.12235911746E+03 -0.43545739176E+02  0.14724047144E+03  0.21616614179E+03  0.90443680822E+02 0.  0.
          5    1    3    3  502    0  0.13509019038E+03  0.33573207344E+02  0.44367040266E+02  0.14615890821E+03  0.41800000000E+01 0. -1.
         -5    1    3    3    0  502 -0.12731072915E+02  0.99725318320E+01  0.59795628374E+02  0.62084790258E+02  0.41800000000E+01 0. -1.
        -11    1    4    4    0    0 -0.11565911852E+03 -0.61185446248E+02  0.98128265659E+02  0.16355380476E+03  0.00000000000E+00 0.  1.
         11    1    4    4    0    0 -0.66999989402E+01  0.17639707072E+02  0.49112205780E+02  0.52612337032E+02  0.00000000000E+00 0. -1.
</event>
<event>
 8    1  0.6787197E-009  0.1410182E+03  0.7561462E-02  0.1211965E+00
          2   -1    0    0  501    0  0.00000000000E+00  0.00000000000E+00  0.17647581992E+03  0.17647581992E+03  0.00000000000E+00 0.  1.
         -2   -1    0    0    0  501 -0.00000000000E+00 -0.00000000000E+00 -0.14048650430E+03  0.14048650430E+03  0.00000000000E+00 0. -1.
         25    2    1    2    0    0  0.20493885254E+02 -0.94952487088E+02 -0.41437311974E+02  0.16371099863E+03  0.12509302983E+03 0.  0.
         23    2    1    2    0    0 -0.20493885254E+02  0.94952487088E+02  0.77426627593E+02  0.15325132560E+03  0.89750275769E+02 0.  0.
          5    1    3    3  502    0  0.55218585410E+02 -0.98713738541E+00 -0.29464710109E+02  0.62735222616E+02  0.41800000000E+01 0. -1.
         -5    1    3    3    0  502 -0.34724700157E+02 -0.93965349702E+02 -0.11972601865E+02  0.10097577601E+03  0.41800000000E+01 0. -1.
        -11    1    4    4    0    0  0.28653479907E+02  0.14506004413E+02  0.41246858925E+02  0.52275706078E+02  0.00000000000E+00 0. -1.
         11    1    4    4    0    0 -0.49147365160E+02  0.80446482675E+02  0.36179768668E+02  0.10097561952E+03  0.00000000000E+00 0.  1.
</event>
<event>
 8    1  0.6787197E-009  0.3496563E+03  0.7561462E-02  0.1062756E+00
         -1   -1    0    0    0  501 -0.00000000000E+00  0.00000000000E+00  0.13413192441E+03  0.13413192441E+03  0.00000000000E+00 0.  1.
          1   -1    0    0  501    0  0.00000000000E+00 -0.00000000000E+00 -0.11930852566E+04  0.11930852566E+04  0.00000000000E+00 0. -1.
         25    2    1    2    0    0  0.28636053762E+03 -0.19215462218E+03 -0.25195442940E+03  0.44503125474E+03  0.12508407919E+03 0.  0.
         23    2    1    2    0    0 -0.28636053762E+03  0.19215462218E+03 -0.80699890276E+03  0.88218592624E+03  0.89883385898E+02 0.  0.
          5    1    3    3  502    0  0.79308357526E+02 -0.62951829772E+02 -0.14880916349E+03  0.18003996219E+03  0.41800000000E+01 0.  1.
         -5    1    3    3    0  502  0.20705218010E+03 -0.12920279241E+03 -0.10314526591E+03  0.26499129255E+03  0.41800000000E+01 0.  1.
        -11    1    4    4    0    0 -0.80526723395E+02  0.99901489296E+02 -0.34434128972E+03  0.36747215480E+03  0.00000000000E+00 0. -1.
         11    1    4    4    0    0 -0.20583381423E+03  0.92253132886E+02 -0.46265761304E+03  0.51471377144E+03  0.00000000000E+00 0.  1.
</event>
<event>
 8    1  0.6787197E-009  0.1972947E+03  0.7561462E-02  0.1152042E+00
         -2   -1    0    0    0  501 -0.00000000000E+00  0.00000000000E+00  0.33601943274E+02  0.33601943274E+02  0.00000000000E+00 0.  1.
          2   -1    0    0  501    0  0.00000000000E+00 -0.00000000000E+00 -0.13957440678E+04  0.13957440678E+04  0.00000000000E+00 0. -1.
         25    2    1    2    0    0 -0.17245881908E+03  0.37163464755E+01 -0.94980797101E+03  0.97341613222E+03  0.12509168303E+03 0.  0.
         23    2    1    2    0    0  0.17245881908E+03 -0.37163464755E+01 -0.41233415350E+03  0.45592987884E+03  0.89981913560E+02 0.  0.
          5    1    3    3  502    0 -0.47073114836E+01 -0.38279451492E+02 -0.21952242492E+03  0.22292384940E+03  0.41800000000E+01 0.  1.
         -5    1    3    3    0  502 -0.16775150759E+03  0.41995797968E+02 -0.73028554609E+03  0.75049228282E+03  0.41800000000E+01 0.  1.
        -11    1    4    4    0    0  0.27357809207E+02  0.22431957494E+02 -0.30829985040E+02  0.46926862448E+02  0.00000000000E+00 0.  1.
         11    1    4    4    0    0  0.14510100987E+03 -0.26148303969E+02 -0.38150416846E+03  0.40900301639E+03  0.00000000000E+00 0. -1.
</event>
<event>
 8    1  0.6787197E-009  0.1929723E+03  0.7561462E-02  0.1155808E+00
         -2   -1    0    0    0  501 -0.00000000000E+00  0.00000000000E+00  0.59360115212E+02  0.59360115212E+02  0.00000000000E+00 0.  1.
          2   -1    0    0  501    0  0.00000000000E+00 -0.00000000000E+00 -0.65036900369E+03  0.65036900369E+03  0.00000000000E+00 0. -1.
         25    2    1    2    0    0 -0.14643662694E+03 -0.71878396377E+02 -0.30170110889E+03  0.36507673623E+03  0.12508906688E+03 0.  0.
         23    2    1    2    0    0  0.14643662694E+03  0.71878396377E+02 -0.28930777959E+03  0.34465238267E+03  0.92065650360E+02 0.  0.
          5    1    3    3  502    0  0.30946105089E+01  0.23027932341E+02 -0.14724888399E+02  0.27823677336E+02  0.41800000000E+01 0. -1.
         -5    1    3    3    0  502 -0.14953123745E+03 -0.94906328718E+02 -0.28697622049E+03  0.33725305889E+03  0.41800000000E+01 0. -1.
        -11    1    4    4    0    0  0.58958645660E+02  0.77667996005E+02 -0.12627324429E+03  0.15954112863E+03  0.00000000000E+00 0. -1.
         11    1    4    4    0    0  0.87477981284E+02 -0.57895996282E+01 -0.16303453530E+03  0.18511125404E+03  0.00000000000E+00 0.  1.
</event>
<event>
 8    1  0.6787197E-009  0.1017386E+03  0.7561462E-02  0.1276682E+00
          1   -1    0    0  501    0  0.00000000000E+00  0.00000000000E+00  0.31261962660E+02  0.31261962660E+02  0.00000000000E+00 0. -1.
         -1   -1    0    0    0  501 -0.00000000000E+00 -0.00000000000E+00 -0.57660539914E+03  0.57660539914E+03  0.00000000000E+00 0.  1.
         25    2    1    2    0    0 -0.29989073492E+01  0.50458722951E+02 -0.16262165742E+03  0.21130052150E+03  0.12508809199E+03 0.  0.
         23    2    1    2    0    0  0.29989073492E+01 -0.50458722951E+02 -0.38272177906E+03  0.39656684030E+03  0.90742616739E+02 0.  0.
          5    1    3    3  502    0 -0.43797163849E+02  0.54629319019E+02 -0.15394808299E+03  0.16917458058E+03  0.41800000000E+01 0. -1.
         -5    1    3    3    0  502  0.40798256500E+02 -0.41705960678E+01 -0.86735744295E+01  0.42125940920E+02  0.41800000000E+01 0. -1.
        -11    1    4    4    0    0 -0.36830296547E+02 -0.19562704938E+02 -0.85817318540E+02  0.95413742876E+02  0.00000000000E+00 0.  1.
         11    1    4    4    0    0  0.39829203897E+02 -0.30896018013E+02 -0.29690446052E+03  0.30115309742E+03  0.00000000000E+00 0. -1.
</event>
<event>
 8    1  0.6787197E-009  0.1831526E+03  0.7561462E-02  0.1164786E+00
         -2   -1    0    0    0  501 -0.00000000000E+00  0.00000000000E+00  0.11324671123E+03  0.11324671123E+03  0.00000000000E+00 0.  1.
          2   -1    0    0  501    0  0.00000000000E+00 -0.00000000000E+00 -0.50943339712E+03  0.50943339712E+03  0.00000000000E+00 0. -1.
         25    2    1    2    0    0  0.16636394387E+03  0.12026040025E+02 -0.30796492698E+02  0.21075934858E+03  0.12509792802E+03 0.  0.
         23    2    1    2    0    0 -0.16636394387E+03 -0.12026040025E+02 -0.36539019319E+03  0.41192075976E+03  0.91362637793E+02 0.  0.
          5    1    3    3  502    0  0.11251214408E+03  0.36375444916E+02  0.33852379207E+02  0.12306750804E+03  0.41800000000E+01 0. -1.
         -5    1    3    3    0  502  0.53851799793E+02 -0.24349404891E+02 -0.64648871905E+02  0.87691840545E+02  0.41800000000E+01 0. -1.
        -11    1    4    4    0    0 -0.90998000899E+02  0.37642211841E+02 -0.16521909384E+03  0.19234063858E+03  0.00000000000E+00 0.  1.
         11    1    4    4    0    0 -0.75365942970E+02 -0.49668251866E+02 -0.20017109935E+03  0.21958012118E+03  0.00000000000E+00 0. -1.
</event>
<event>
 8    1  0.6787197E-009  0.1167208E+03  0.7561462E-02  0.1248607E+00
         -2   -1    0    0    0  501 -0.00000000000E+00  0.00000000000E+00  0.27554321754E+02  0.27554321754E+02  0.00000000000E+00 0.  1.
          2   -1    0    0  501    0  0.00000000000E+00 -0.00000000000E+00 -0.73636491716E+03  0.73636491716E+03  0.00000000000E+00 0. -1.
         25    2    1    2    0    0 -0.39790567946E+02  0.34271779940E+02 -0.18413439935E+03  0.22871694510E+03  0.12509244483E+03 0.  0.
         23    2    1    2    0    0  0.39790567946E+02 -0.34271779940E+02 -0.52467619605E+03  0.53520229381E+03  0.91643550771E+02 0.  0.
          5    1    3    3  502    0  0.41365162077E+02  0.15905411365E+02 -0.30544800877E+02  0.53986257557E+02  0.41800000000E+01 0.  1.
         -5    1    3    3    0  502 -0.81155730023E+02  0.18366368575E+02 -0.15358959847E+03  0.17473068754E+03  0.41800000000E+01 0.  1.
        -11    1    4    4    0    0  0.64401965147E+01  0.31349680208E+02 -0.15571346055E+03  0.15896842572E+03  0.00000000000E+00 0. -1.
         11    1    4    4    0    0  0.33350371431E+02 -0.65621460148E+02 -0.36896273550E+03  0.37623386809E+03  0.00000000000E+00 0.  1.
</event>
<event>
 8    1  0.6787197E-009  0.2095837E+03  0.7561462E-02  0.1141896E+00
         -3   -1    0    0    0  501 -0.00000000000E+00  0.00000000000E+00  0.18179968964E+03  0.18179968964E+03  0.00000000000E+00 0.  1.
          3   -1    0    0  501    0  0.00000000000E+00 -0.00000000000E+00 -0.28802598720E+03  0.28802598720E+03  0.00000000000E+00 0. -1.
         25    2    1    2    0    0  0.17648899380E+03  0.55562110867E+02 -0.13612026933E+03  0.26155553671E+03  0.12508820075E+03 0.  0.
         23    2    1    2    0    0 -0.17648899380E+03 -0.55562110867E+02  0.29893971767E+02  0.20827014013E+03  0.90814583766E+02 0.  0.
          5    1    3    3  502    0  0.14918464752E+03  0.90143032128E+02 -0.85100121535E+02  0.19401373246E+03  0.41800000000E+01 0. -1.
         -5    1    3    3    0  502  0.27304346279E+02 -0.34580921261E+02 -0.51020147791E+02  0.67541804252E+02  0.41800000000E+01 0. -1.
        -11    1    4    4    0    0 -0.79209360704E+02  0.14690025679E+02  0.35742589670E+02  0.88133151503E+02  0.00000000000E+00 0.  1.
         11    1    4    4    0    0 -0.97279633097E+02 -0.70252136546E+02 -0.58486179032E+01  0.12013698863E+03  0.00000000000E+00 0. -1.
</event>
<event>
 8    1  0.6787197E-009  0.1819938E+03  0.7561462E-02  0.1165887E+00
          2   -1    0    0  501    0  0.00000000000E+00  0.00000000000E+00  0.12009151832E+04  0.12009151832E+04  0.00000000000E+00 0. -1.
         -2   -1    0    0    0  501 -0.00000000000E+00 -0.00000000000E+00 -0.29754253188E+02  0.29754253188E+02  0.00000000000E+00 0.  1.
         25    2    1    2    0    0  0.73666036010E+02 -0.13479759960E+03  0.55642440489E+03  0.59063837765E+03  0.12509395300E+03 0.  0.
         23    2    1    2    0    0 -0.73666036010E+02  0.13479759960E+03  0.61473652509E+03  0.64003105870E+03  0.90231275659E+02 0.  0.
          5    1    3    3  502    0  0.96382310371E+02 -0.70283586507E+02  0.25542380265E+03  0.28193638227E+03  0.41800000000E+01 0.  1.
         -5    1    3    3    0  502 -0.22716274361E+02 -0.64514013094E+02  0.30100060223E+03  0.30870199538E+03  0.41800000000E+01 0.  1.
        -11    1    4    4    0    0  0.15418895349E+02  0.52873570546E+02  0.14992024054E+03  0.15971673462E+03  0.00000000000E+00 0.  1.
         11    1    4    4    0    0 -0.89084931359E+02  0.81924029055E+02  0.46481628455E+03  0.48031432408E+03  0.00000000000E+00 0. -1.
</event>
<event>
 8    1  0.6787197E-009  0.1188047E+03  0.7561462E-02  0.1245082E+00
         -1   -1    0    0    0  501 -0.00000000000E+00  0.00000000000E+00  0.46848127760E+02  0.46848127760E+02  0.00000000000E+00 0.  1.
          1   -1    0    0  501    0  0.00000000000E+00 -0.00000000000E+00 -0.46062255951E+03  0.46062255951E+03  0.00000000000E+00 0. -1.
         25    2    1    2    0    0  0.14598920757E+02 -0.73554555076E+02 -0.33322073096E+03  0.36373663461E+03  0.12507950573E+03 0.  0.
         23    2    1    2    0    0 -0.14598920757E+02  0.73554555076E+02 -0.80553700786E+02  0.14373405266E+03  0.92450949827E+02 0.  0.
          5    1    3    3  502    0 -0.28601021895E+01 -0.99239085631E+02 -0.16491366772E+03  0.19253718213E+03  0.41800000000E+01 0. -1.
         -5    1    3    3    0  502  0.17459022946E+02  0.25684530555E+02 -0.16830706325E+03  0.17119945248E+03  0.41800000000E+01 0. -1.
        -11    1    4    4    0    0  0.31008581339E+02  0.21701943607E+02 -0.28671089735E+00  0.37849553183E+02  0.00000000000E+00 0.  1.
         11    1    4    4    0    0 -0.45607502096E+02  0.51852611469E+02 -0.80266989889E+02  0.10588449948E+03  0.00000000000E+00 0. -1.
</event>
<event>
 8    1  0.6787197E-009  0.1149429E+03  0.7561462E-02  0.1251681E+00
         -1   -1    0    0    0  501 -0.00000000000E+00  0.00000000000E+00  0.64127262478E+02  0.64127262478E+02  0.00000000000E+00 0.  1.
          1   -1    0    0  501    0  0.00000000000E+00 -0.00000000000E+00 -0.31054955521E+03  0.31054955521E+03  0.00000000000E+00 0. -1.
         25    2    1    2    0    0  0.26231874822E+02 -0.63685109768E+02 -0.21348724892E+03  0.25684321889E+03  0.12509088365E+03 0.  0.
         23    2    1    2    0    0 -0.26231874822E+02  0.63685109768E+02 -0.32935043812E+02  0.11783359881E+03  0.89755977148E+02 0.  0.
          5    1    3    3  502    0 -0.44495337437E+02 -0.27518863917E+02 -0.40003784835E+02  0.65991651942E+02  0.41800000000E+01 0. -1.
         -5    1    3    3    0  502  0.70727212259E+02 -0.36166245851E+02 -0.17348346409E+03  0.19085156694E+03  0.41800000000E+01 0. -1.
        -11    1    4    4    0    0  0.19448079060E+02  0.44012854432E+02  0.13304597955E+02  0.49923656327E+02  0.00000000000E+00 0.  1.
         11    1    4    4    0    0 -0.45679953882E+02  0.19672255336E+02 -0.46239641767E+02  0.67909942478E+02  0.00000000000E+00 0. -1.
</event>
<event>
 8    1  0.6787197E-009  0.1297112E+03  0.7561462E-02  0.1227885E+00
          1   -1    0    0  501    0  0.00000000000E+00  0.00000000000E+00  0.24505003925E+03  0.24505003925E+03  0.00000000000E+00 0. -1.
         -1   -1    0    0    0  501 -0.00000000000E+00 -0.00000000000E+00 -0.10152835993E+03  0.10152835993E+03  0.00000000000E+00 0.  1.
         25    2    1    2    0    0 -0.84494747132E+02 -0.23814175872E+02 -0.30431024729E+01  0.15285553034E+03  0.12509626460E+03 0.  0.
         23    2    1    2    0    0  0.84494747132E+02  0.23814175872E+02  0.14656478180E+03  0.19372286885E+03  0.91328185056E+02 0.  0.
          5    1    3    3  502    0 -0.12236494393E+02 -0.66905777064E+02  0.44398090160E+01  0.68288352621E+02  0.41800000000E+01 0.  1.
         -5    1    3    3    0  502 -0.72258252739E+02  0.43091601192E+02 -0.74829114888E+01  0.84567177715E+02  0.41800000000E+01 0.  1.
        -11    1    4    4    0    0  0.77342868044E+02 -0.48552273873E+01  0.48775910212E+02  0.91567362566E+02  0.00000000000E+00 0.  1.
         11    1    4    4    0    0  0.71518790884E+01  0.28669403260E+02  0.97788871583E+02  0.10215550628E+03  0.00000000000E+00 0. -1.
</event>
<event>
 8    1  0.6787197E-009  0.1127476E+03  0.7561462E-02  0.1255565E+00
          2   -1    0    0  501    0  0.00000000000E+00  0.00000000000E+00  0.59935663508E+03  0.59935663508E+03  0.00000000000E+00 0. -1.
         -2   -1    0    0    0  501 -0.00000000000E+00 -0.00000000000E+00 -0.34774172699E+02  0.34774172699E+02  0.00000000000E+00 0.  1.
         25    2    1    2    0    0  0.23609660106E+02  0.30536130316E+02  0.49570182024E+03  0.51269616240E+03  0.12508872467E+03 0.  0.
         23    2    1    2    0    0 -0.23609660106E+02 -0.30536130316E+02  0.68880642136E+02  0.12143464538E+03  0.92260278195E+02 0.  0.
          5    1    3    3  502    0  0.64353744258E+02  0.51767493748E+02  0.35966163418E+03  0.36904639452E+03  0.41800000000E+01 0.  1.
         -5    1    3    3    0  502 -0.40744084152E+02 -0.21231363431E+02  0.13604018606E+03  0.14364976787E+03  0.41800000000E+01 0.  1.
        -11    1    4    4    0    0 -0.30766352005E+02  0.25630723646E+02  0.44277778174E+02  0.59699447655E+02  0.00000000000E+00 0. -1.
         11    1    4    4    0    0  0.71566918986E+01 -0.56166853963E+02  0.24602863962E+02  0.61735197725E+02  0.00000000000E+00 0.  1.
</event>
<event>
 8    1  0.6787197E-009  0.9595819E+02  0.7561462E-02  0.1289032E+00
          2   -1    0    0  501    0  0.00000000000E+00  0.00000000000E+00  0.15966889036E+03  0.15966889036E+03  0.00000000000E+00 0. -1.
         -2   -1    0    0    0  501 -0.00000000000E+00 -0.00000000000E+00 -0.93813378748E+02  0.93813378748E+02  0.00000000000E+00 0.  1.
         25    2    1    2    0    0 -0.32946327695E+02  0.42357252116E+02  0.19496342739E+02  0.13749598440E+03  0.12508173740E+03 0.  0.
         23    2    1    2    0    0  0.32946327695E+02 -0.42357252116E+02  0.46359168868E+02  0.11598628470E+03  0.91782614830E+02 0.  0.
          5    1    3    3  502    0 -0.44556324957E+02 -0.61718105653E+01  0.58579574222E+02  0.73975646367E+02  0.41800000000E+01 0.  1.
         -5    1    3    3    0  502  0.11609997262E+02  0.48529062681E+02 -0.39083231483E+02  0.63520338037E+02  0.41800000000E+01 0.  1.
        -11    1    4    4    0    0  0.26184491461E+02  0.20619672950E+02 -0.59304099855E+01  0.33852153081E+02  0.00000000000E+00 0. -1.
         11    1    4    4    0    0  0.67618362340E+01 -0.62976925067E+02  0.52289578853E+02  0.82134131619E+02  0.00000000000E+00 0.  1.
</event>
<event>
 8    1  0.6787197E-009  0.9587145E+02  0.7561462E-02  0.1289225E+00
          1   -1    0    0  501    0  0.00000000000E+00  0.00000000000E+00  0.39524237952E+03  0.39524237952E+03  0.00000000000E+00 0. -1.
         -1   -1    0    0    0  501 -0.00000000000E+00 -0.00000000000E+00 -0.35537221863E+02  0.35537221863E+02  0.00000000000E+00 0.  1.
         25    2    1    2    0    0  0.22152801104E+01  0.29654187492E+02  0.13729047805E+03  0.18809509152E+03  0.12508720873E+03 0.  0.
         23    2    1    2    0    0 -0.22152801104E+01 -0.29654187492E+02  0.22241467961E+03  0.24268450987E+03  0.92429450518E+02 0.  0.
          5    1    3    3  502    0 -0.42019801362E+02  0.46511126166E+02  0.27723298803E+02  0.68665874058E+02  0.41800000000E+01 0.  1.
         -5    1    3    3    0  502  0.44235081472E+02 -0.16856938674E+02  0.10956717925E+03  0.11942921746E+03  0.41800000000E+01 0.  1.
        -11    1    4    4    0    0  0.16693284421E+02 -0.50540536966E+02  0.19916978011E+03  0.20615919317E+03  0.00000000000E+00 0. -1.
         11    1    4    4    0    0 -0.18908564531E+02  0.20886349474E+02  0.23244899502E+02  0.36525316697E+02  0.00000000000E+00 0.  1.
</event>
<event>
 8    1  0.6787197E-009  0.1708133E+03  0.7561462E-02  0.1177002E+00
         -1   -1    0    0    0  501 -0.00000000000E+00  0.00000000000E+00  0.42669445317E+03  0.42669445317E+03  0.00000000000E+00 0.  1.
          1   -1    0    0  501    0  0.00000000000E+00 -0.00000000000E+00 -0.97387808536E+02  0.97387808536E+02  0.00000000000E+00 0. -1.
         25    2    1    2    0    0  0.44861550034E+02  0.15309333345E+03  0.25620342808E+03  0.32671301948E+03  0.12510424902E+03 0.  0.
         23    2    1    2    0    0 -0.44861550034E+02 -0.15309333345E+03  0.73103216554E+02  0.19736924222E+03  0.90334988167E+02 0.  0.
          5    1    3    3  502    0  0.29325617710E+02  0.13644724295E+03  0.26689646261E+03  0.30121260949E+03  0.41800000000E+01 0. -1.
         -5    1    3    3    0  502  0.15535932324E+02  0.16646090495E+02 -0.10693034536E+02  0.25500409988E+02  0.41800000000E+01 0. -1.
        -11    1    4    4    0    0  0.21184443356E+02 -0.15572031722E+02  0.27714647935E+02  0.38201708371E+02  0.00000000000E+00 0.  1.
         11    1    4    4    0    0 -0.66045993390E+02 -0.13752130172E+03  0.45388568619E+02  0.15916753385E+03  0.00000000000E+00 0. -1.
</event>
<event>
 8    1  0.6787197E-009  0.1529907E+03  0.7561462E-02  0.1196845E+00
          1   -1    0    0  501    0  0.00000000000E+00  0.00000000000E+00  0.20061029630E+04  0.20061029630E+04  0.00000000000E+00 0. -1.
         -1   -1    0    0    0  501 -0.00000000000E+00 -0.00000000000E+00 -0.18655744510E+02  0.18655744510E+02  0.00000000000E+00 0.  1.
         25    2    1    2    0    0 -0.10766007487E+03 -0.72199062312E+02  0.15358798610E+04  0.15464081173E+04  0.12509085399E+03 0.  0.
         23    2    1    2    0    0  0.10766007487E+03  0.72199062312E+02  0.45156735751E+03  0.47835059015E+03  0.90015623139E+02 0.  0.
          5    1    3    3  502    0 -0.12615920747E+02 -0.57564758646E+02  0.10144216318E+04  0.10161405328E+04  0.41800000000E+01 0. -1.
         -5    1    3    3    0  502 -0.95044154122E+02 -0.14634303667E+02  0.52145822918E+03  0.53026758458E+03  0.41800000000E+01 0. -1.
        -11    1    4    4    0    0  0.85111675624E+02  0.88529347764E+02  0.29855205516E+03  0.32282312864E+03  0.00000000000E+00 0.  1.
         11    1    4    4    0    0  0.22548399245E+02 -0.16330285451E+02  0.15301530235E+03  0.15552746151E+03  0.00000000000E+00 0. -1.
</event>
<event>
 8    1  0.6787197E-009  0.8988222E+02  0.7561462E-02  0.1303137E+00
         -2   -1    0    0    0  501 -0.00000000000E+00  0.00000000000E+00  0.33471292832E+02  0.33471292832E+02  0.00000000000E+00 0. -1.
          2   -1    0    0  501    0  0.00000000000E+00 -0.00000000000E+00 -0.42412412343E+03  0.42412412343E+03  0.00000000000E+00 0.  1.
         25    2    1    2    0    0  0.31407324003E+02  0.38485888848E+02 -0.23320353590E+03  0.26926265660E+03  0.12510357884E+03 0.  0.
         23    2    1    2    0    0 -0.31407324003E+02 -0.38485888848E+02 -0.15744929470E+03  0.18833275967E+03  0.90616578628E+02 0.  0.
          5    1    3    3  502    0  0.46921091208E+02  0.37794971416E+02 -0.33795817757E+02  0.69207502211E+02  0.41800000000E+01 0. -1.
         -5    1    3    3    0  502 -0.15513767204E+02  0.69091743171E+00 -0.19940771815E+03  0.20005515439E+03  0.41800000000E+01 0. -1.
        -11    1    4    4    0    0 -0.18064922933E+02  0.29179880054E+02 -0.55132230469E+02  0.64941278684E+02  0.00000000000E+00 0.  1.
         11    1    4    4    0    0 -0.13342401070E+02 -0.67665768902E+02 -0.10231706423E+03  0.12339148098E+03  0.00000000000E+00 0. -1.
</event>
<event>
 8    1  0.6787197E-009  0.1181684E+03  0.7561462E-02  0.1246150E+00
         -2   -1    0    0    0  501 -0.00000000000E+00  0.00000000000E+00  0.39059194154E+02  0.39059194154E+02  0.00000000000E+00 0.  1.
          2   -1    0    0  501    0  0.00000000000E+00 -0.00000000000E+00 -0.73030213577E+03  0.73030213577E+03  0.00000000000E+00 0. -1.
         25    2    1    2    0    0  0.75217613767E+02 -0.50204987896E+02 -0.15855228150E+03  0.22128209860E+03  0.12509480790E+03 0.  0.
         23    2    1    2    0    0 -0.75217613767E+02  0.50204987896E+02 -0.53269066012E+03  0.54807923132E+03  0.91941689131E+02 0.  0.
          5    1    3    3  502    0 -0.32411946961E+01 -0.33882869413E+02 -0.13256918238E+03  0.13693288392E+03  0.41800000000E+01 0. -1.
         -5    1    3    3    0  502  0.78458808463E+02 -0.16322118483E+02 -0.25983099121E+02  0.84349214681E+02  0.41800000000E+01 0. -1.
        -11    1    4    4    0    0 -0.75263685687E+00 -0.19667733630E+02 -0.36282278476E+02  0.41276990440E+02  0.00000000000E+00 0.  1.
         11    1    4    4    0    0 -0.74464976910E+02  0.69872721526E+02 -0.49640838164E+03  0.50680224088E+03  0.00000000000E+00 0. -1.
</event>
<event>
 8    1  0.6787197E-009  0.1039427E+03  0.7561462E-02  0.1272217E+00
         -1   -1    0    0    0  501 -0.00000000000E+00  0.00000000000E+00  0.54153936333E+03  0.54153936333E+03  0.00000000000E+00 0.  1.
          1   -1    0    0  501    0  0.00000000000E+00 -0.00000000000E+00 -0.27954832924E+02  0.27954832924E+02  0.00000000000E+00 0. -1.
         25    2    1    2    0    0 -0.46279527644E+02  0.32697741232E+02  0.31861869918E+03  0.34695303222E+03  0.12509034391E+03 0.  0.
         23    2    1    2    0    0  0.46279527644E+02 -0.32697741232E+02  0.19496583122E+03  0.22254116403E+03  0.91115077688E+02 0.  0.
          5    1    3    3  502    0  0.19246884795E+02 -0.19597438911E+02  0.14257651673E+02  0.31229076474E+02  0.41800000000E+01 0. -1.
         -5    1    3    3    0  502 -0.65526412440E+02  0.52295180143E+02  0.30436104751E+03  0.31572395575E+03  0.41800000000E+01 0. -1.
        -11    1    4    4    0    0 -0.66082891056E+01 -0.41952058156E+02  0.39251438121E+02  0.57830096516E+02  0.00000000000E+00 0. -1.
         11    1    4    4    0    0  0.52887816750E+02  0.92543169236E+01  0.15571439310E+03  0.16471106751E+03  0.00000000000E+00 0.  1.
</event>
<event>
 8    1  0.6787197E-009  0.7388599E+02  0.7561462E-02  0.1347356E+00
         -1   -1    0    0    0  501 -0.00000000000E+00  0.00000000000E+00  0.38896651091E+03  0.38896651091E+03  0.00000000000E+00 0. -1.
          1   -1    0    0  501    0  0.00000000000E+00 -0.00000000000E+00 -0.50444692158E+02  0.50444692158E+02  0.00000000000E+00 0.  1.
         25    2    1    2    0    0  0.13776717768E+02 -0.48534358942E+02  0.70364455900E+02  0.15212312627E+03  0.12507960242E+03 0.  0.
         23    2    1    2    0    0 -0.13776717768E+02  0.48534358942E+02  0.26815736285E+03  0.28728807680E+03  0.89892635218E+02 0.  0.
          5    1    3    3  502    0  0.83968464028E+01 -0.12750953740E+02 -0.36197525372E+02  0.39507304310E+02  0.41800000000E+01 0. -1.
         -5    1    3    3    0  502  0.53798713656E+01 -0.35783405202E+02  0.10656198127E+03  0.11261582196E+03  0.41800000000E+01 0. -1.
        -11    1    4    4    0    0 -0.25007517675E+02  0.68326982872E+02  0.14710602539E+03  0.16411622478E+03  0.00000000000E+00 0.  1.
         11    1    4    4    0    0  0.11230799907E+02 -0.19792623930E+02  0.12105133746E+03  0.12317185202E+03  0.00000000000E+00 0. -1.
</event>
<event>
 8    1  0.6787197E-009  0.1180686E+03  0.7561462E-02  0.1246318E+00
          1   -1    0    0  501    0  0.00000000000E+00  0.00000000000E+00  0.13711825824E+03  0.13711825824E+03  0.00000000000E+00 0.  1.
         -1   -1    0    0    0  501 -0.00000000000E+00 -0.00000000000E+00 -0.16719057861E+03  0.16719057861E+03  0.00000000000E+00 0. -1.
         25    2    1    2    0    0 -0.52686260683E+02 -0.54507772075E+02  0.55838218507E+02  0.15656402485E+03  0.12508975957E+03 0.  0.
         23    2    1    2    0    0  0.52686260683E+02  0.54507772075E+02 -0.85910538879E+02  0.14774481200E+03  0.93278987460E+02 0.  0.
          5    1    3    3  502    0 -0.82578953496E+02  0.34461935905E+00  0.40660569633E+02  0.92142046026E+02  0.41800000000E+01 0. -1.
         -5    1    3    3    0  502  0.29892692812E+02 -0.54852391435E+02  0.15177648873E+02  0.64421978819E+02  0.41800000000E+01 0. -1.
        -11    1    4    4    0    0  0.62673134466E+02  0.46408999738E+02 -0.10120342163E+03  0.12776482141E+03  0.00000000000E+00 0. -1.
         11    1    4    4    0    0 -0.99868737826E+01  0.80987723376E+01  0.15292882749E+02  0.19979990593E+02  0.00000000000E+00 0.  1.
</event>
<event>
 8    1  0.6787197E-009  0.7200999E+02  0.7561462E-02  0.1353388E+00
          1   -1    0    0  501    0  0.00000000000E+00  0.00000000000E+00  0.86015330220E+03  0.86015330220E+03  0.00000000000E+00 0. -1.
         -1   -1    0    0    0  501 -0.00000000000E+00 -0.00000000000E+00 -0.19890721162E+02  0.19890721162E+02  0.00000000000E+00 0.  1.
         25    2    1    2    0    0  0.27596837125E+02  0.23565859949E+02  0.69665219692E+03  0.70872383837E+03  0.12509300709E+03 0.  0.
         23    2    1    2    0    0 -0.27596837125E+02 -0.23565859949E+02  0.14361038412E+03  0.17132018500E+03  0.86079778031E+02 0.  0.
          5    1    3    3  502    0  0.16079706230E+02 -0.16090260901E+02  0.19362137257E+02  0.30163192926E+02  0.41800000000E+01 0. -1.
         -5    1    3    3    0  502  0.11517130895E+02  0.39656120850E+02  0.67729005966E+03  0.67856064544E+03  0.41800000000E+01 0. -1.
        -11    1    4    4    0    0 -0.51696433052E+02 -0.15432720632E+02  0.47435594197E+02  0.71838886776E+02  0.00000000000E+00 0.  1.
         11    1    4    4    0    0  0.24099595927E+02 -0.81331393174E+01  0.96174789922E+02  0.99481298220E+02  0.00000000000E+00 0. -1.
</event>
<event>
 8    1  0.6787197E-009  0.1078467E+03  0.7561462E-02  0.1264610E+00
          2   -1    0    0  501    0  0.00000000000E+00  0.00000000000E+00  0.31868006061E+02  0.31868006061E+02  0.00000000000E+00 0. -1.
         -2   -1    0    0    0  501 -0.00000000000E+00 -0.00000000000E+00 -0.41047308377E+03  0.41047308377E+03  0.00000000000E+00 0.  1.
         25    2    1    2    0    0  0.14619967004E+02  0.29470622541E+02 -0.18286939586E+03  0.22398797521E+03  0.12508851293E+03 0.  0.
         23    2    1    2    0    0 -0.14619967004E+02 -0.29470622541E+02 -0.19573568184E+03  0.21835311461E+03  0.91012990765E+02 0.  0.
          5    1    3    3  502    0  0.61392729889E+02  0.36376603612E+02 -0.15027353170E+03  0.16640892796E+03  0.41800000000E+01 0.  1.
         -5    1    3    3    0  502 -0.46772762885E+02 -0.69059810708E+01 -0.32595864162E+02  0.57579047256E+02  0.41800000000E+01 0.  1.
        -11    1    4    4    0    0  0.22113516783E+02 -0.49995430662E+02 -0.10790745582E+03  0.12096515917E+03  0.00000000000E+00 0.  1.
         11    1    4    4    0    0 -0.36733483788E+02  0.20524808121E+02 -0.87828226023E+02  0.97387955446E+02  0.00000000000E+00 0. -1.
</event>
<event>
 8    1  0.6787197E-009  0.6343470E+02  0.7561462E-02  0.1383958E+00
         -2   -1    0    0    0  501 -0.00000000000E+00  0.00000000000E+00  0.30917350532E+02  0.30917350532E+02  0.00000000000E+00 0.  1.
          2   -1    0    0  501    0  0.00000000000E+00 -0.00000000000E+00 -0.43208211871E+03  0.43208211871E+03  0.00000000000E+00 0. -1.
         25    2    1    2    0    0  0.39187197264E+02  0.74835141260E+01 -0.27341352703E+03  0.30330403229E+03  0.12508692909E+03 0.  0.
         23    2    1    2    0    0 -0.39187197264E+02 -0.74835141260E+01 -0.12775124115E+03  0.15969543695E+03  0.87124127284E+02 0.  0.
          5    1    3    3  502    0  0.24400763833E+02  0.11939136826E+02  0.18771975126E+01  0.27548802774E+02  0.41800000000E+01 0. -1.
         -5    1    3    3    0  502  0.14786433431E+02 -0.44556227001E+01 -0.27529072454E+03  0.27575522952E+03  0.41800000000E+01 0. -1.
        -11    1    4    4    0    0 -0.55253537154E+02 -0.24092439580E+02 -0.12169754751E+03  0.13580755532E+03  0.00000000000E+00 0. -1.
         11    1    4    4    0    0  0.16066339890E+02  0.16608925454E+02 -0.60536936451E+01  0.23887881634E+02  0.00000000000E+00 0.  1.
</event>
<event>
 8    1  0.6787197E-009  0.1228051E+03  0.7561462E-02  0.1238540E+00
          2   -1    0    0  501    0  0.00000000000E+00  0.00000000000E+00  0.11029559036E+04  0.11029559036E+04  0.00000000000E+00 0. -1.
         -2   -1    0    0    0  501 -0.00000000000E+00 -0.00000000000E+00 -0.16403508777E+02  0.16403508777E+02  0.00000000000E+00 0.  1.
         25    2    1    2    0    0 -0.75962147813E+02 -0.72446559181E+01  0.58498417480E+03  0.60305641915E+03  0.12509127459E+03 0.  0.
         23    2    1    2    0    0  0.75962147813E+02  0.72446559181E+01  0.50156822008E+03  0.51630299327E+03  0.95788144022E+02 0.  0.
          5    1    3    3  502    0 -0.95165592671E+02 -0.23272200347E+02  0.55584044801E+03  0.56442374275E+03  0.41800000000E+01 0. -1.
         -5    1    3    3    0  502  0.19203444858E+02  0.16027544429E+02  0.29143726786E+02  0.38632676400E+02  0.41800000000E+01 0. -1.
        -11    1    4    4    0    0 -0.87678210567E+01 -0.28806033709E+02  0.13909370018E+03  0.14231556378E+03  0.00000000000E+00 0. -1.
         11    1    4    4    0    0  0.84729968869E+02  0.36050689627E+02  0.36247451990E+03  0.37398742950E+03  0.00000000000E+00 0.  1.
</event>
<event>
 8    1  0.6787197E-009  0.1002605E+03  0.7561462E-02  0.1279749E+00
          2   -1    0    0  501    0  0.00000000000E+00  0.00000000000E+00  0.57444586864E+03  0.57444586864E+03  0.00000000000E+00 0. -1.
         -2   -1    0    0    0  501 -0.00000000000E+00 -0.00000000000E+00 -0.39526189275E+02  0.39526189275E+02  0.00000000000E+00 0.  1.
         25    2    1    2    0    0  0.18292422539E+02 -0.24095154321E+02  0.49311637474E+03  0.50963322925E+03  0.12508828935E+03 0.  0.
         23    2    1    2    0    0 -0.18292422539E+02  0.24095154321E+02  0.41803304626E+02  0.10433882867E+03  0.90685642229E+02 0.  0.
          5    1    3    3  502    0  0.68060935134E+02 -0.51304090863E+01  0.19198524541E+03  0.20379994810E+03  0.41800000000E+01 0. -1.
         -5    1    3    3    0  502 -0.49768512596E+02 -0.18964745234E+02  0.30113112933E+03  0.30583328115E+03  0.41800000000E+01 0. -1.
        -11    1    4    4    0    0  0.26310401632E+02  0.21603935506E+02 -0.10432302272E+02  0.35606181964E+02  0.00000000000E+00 0.  1.
         11    1    4    4    0    0 -0.44602824171E+02  0.24912188150E+01  0.52235606897E+02  0.68732646705E+02  0.00000000000E+00 0. -1.
</event>
<event>
 8    1  0.6787197E-009  0.9944777E+02  0.7561462E-02  0.1281462E+00
         -2   -1    0    0    0  501 -0.00000000000E+00  0.00000000000E+00  0.46150035405E+02  0.46150035405E+02  0.00000000000E+00 0.  1.
          2   -1    0    0  501    0  0.00000000000E+00 -0.00000000000E+00 -0.34022899879E+03  0.34022899879E+03  0.00000000000E+00 0. -1.
         25    2    1    2    0    0 -0.31900463104E+02 -0.38010796730E+02 -0.22219479217E+03  0.25976905770E+03  0.12508787894E+03 0.  0.
         23    2    1    2    0    0  0.31900463104E+02  0.38010796730E+02 -0.71884171215E+02  0.12660997649E+03  0.91653106122E+02 0.  0.
          5    1    3    3  502    0 -0.69793939658E+02 -0.51553062417E+01 -0.18302982516E+03  0.19599785839E+03  0.41800000000E+01 0.  1.
         -5    1    3    3    0  502  0.37893476554E+02 -0.32855490488E+02 -0.39164967003E+02  0.63771199306E+02  0.41800000000E+01 0.  1.
        -11    1    4    4    0    0 -0.16634276293E+02 -0.28268892573E+00 -0.61763153567E+02  0.63964569875E+02  0.00000000000E+00 0. -1.
         11    1    4    4    0    0  0.48534739397E+02  0.38293485656E+02 -0.10121017648E+02  0.62645406617E+02  0.00000000000E+00 0.  1.
</event>
<event>
 8    1  0.6787197E-009  0.1390148E+03  0.7561462E-02  0.1214661E+00
         -1   -1    0    0    0  501 -0.00000000000E+00  0.00000000000E+00  0.20342962074E+02  0.20342962074E+02  0.00000000000E+00 0.  1.
          1   -1    0    0  501    0  0.00000000000E+00 -0.00000000000E+00 -0.12062497247E+04  0.12062497247E+04  0.00000000000E+00 0. -1.
         25    2    1    2    0    0 -0.66506153588E+02 -0.76452714966E+02 -0.83071617757E+03  0.84617167107E+03  0.12509613567E+03 0.  0.
         23    2    1    2    0    0  0.66506153588E+02  0.76452714966E+02 -0.35519058504E+03  0.38042101568E+03  0.91058834731E+02 0.  0.
          5    1    3    3  502    0 -0.29308664980E+01  0.30273276235E+02 -0.89830754260E+02  0.94932070679E+02  0.41800000000E+01 0.  1.
         -5    1    3    3    0  502 -0.63575287090E+02 -0.10672599120E+03 -0.74088542331E+03  0.75123960039E+03  0.41800000000E+01 0.  1.
        -11    1    4    4    0    0  0.24385621956E+02  0.77143355798E+02 -0.14494308167E+03  0.16599473735E+03  0.00000000000E+00 0.  1.
         11    1    4    4    0    0  0.42120531632E+02 -0.69064083184E+00 -0.21024750336E+03  0.21442627833E+03  0.00000000000E+00 0. -1.
</event>
<event>
 8    1  0.6787197E-009  0.8882326E+02  0.7561462E-02  0.1305727E+00
         -2   -1    0    0    0  501 -0.00000000000E+00  0.00000000000E+00  0.99377569249E+02  0.99377569249E+02  0.00000000000E+00 0. -1.
          2   -1    0    0  501    0  0.00000000000E+00 -0.00000000000E+00 -0.14456294423E+03  0.14456294423E+03  0.00000000000E+00 0.  1.
         25    2    1    2    0    0  0.38051426882E+02 -0.22987678499E+02 -0.17574615759E+02  0.13390293257E+03  0.12507911009E+03 0.  0.
         23    2    1    2    0    0 -0.38051426882E+02  0.22987678499E+02 -0.27610759225E+02  0.11003758091E+03  0.96796543006E+02 0.  0.
          5    1    3    3  502    0  0.33990550862E+02  0.48457592895E+02  0.27287970707E+01  0.59400459514E+02  0.41800000000E+01 0.  1.
         -5    1    3    3    0  502  0.40608760195E+01 -0.71445271393E+02 -0.20303412829E+02  0.74502473053E+02  0.41800000000E+01 0.  1.
        -11    1    4    4    0    0 -0.18626306080E+02  0.19359751040E+02  0.35149071791E+02  0.44240213452E+02  0.00000000000E+00 0. -1.
         11    1    4    4    0    0 -0.19425120802E+02  0.36279274588E+01 -0.62759831016E+02  0.65797367462E+02  0.00000000000E+00 0.  1.
</event>
<event>
 8    1  0.6787197E-009  0.1152205E+03  0.7561462E-02  0.1251197E+00
          2   -1    0    0  501    0  0.00000000000E+00  0.00000000000E+00  0.10503193386E+04  0.10503193386E+04  0.00000000000E+00 0. -1.
         -2   -1    0    0    0  501 -0.00000000000E+00 -0.00000000000E+00 -0.18603647077E+02  0.18603647077E+02  0.00000000000E+00 0.  1.
         25    2    1    2    0    0  0.40619373111E+02  0.11173707805E+02  0.85834665517E+03  0.86843617298E+03  0.12509045076E+03 0.  0.
         23    2    1    2    0    0 -0.40619373111E+02 -0.11173707805E+02  0.17336903636E+03  0.20048681271E+03  0.91451375517E+02 0.  0.
          5    1    3    3  502    0 -0.22133251712E+01 -0.52937711807E+02  0.28501737623E+03  0.28993046975E+03  0.41800000000E+01 0. -1.
         -5    1    3    3    0  502  0.42832698282E+02  0.64111419612E+02  0.57332927894E+03  0.57850570322E+03  0.41800000000E+01 0. -1.
        -11    1    4    4    0    0 -0.69611469000E+02 -0.13796239682E+02  0.13253953527E+03  0.15034234684E+03  0.00000000000E+00 0. -1.
         11    1    4    4    0    0  0.28992095889E+02  0.26225318773E+01  0.40829501092E+02  0.50144465865E+02  0.00000000000E+00 0.  1.
</event>
<event>
 8    1  0.6787197E-009  0.9558842E+02  0.7561462E-02  0.1289856E+00
          2   -1    0    0  501    0  0.00000000000E+00  0.00000000000E+00  0.18434962932E+04  0.18434962932E+04  0.00000000000E+00 0. -1.
         -2   -1    0    0    0  501 -0.00000000000E+00 -0.00000000000E+00 -0.94678731924E+01  0.94678731924E+01  0.00000000000E+00 0.  1.
         25    2    1    2    0    0  0.37749332975E+02 -0.20696762134E+02  0.14439966230E+04  0.14500437288E+04  0.12508876850E+03 0.  0.
         23    2    1    2    0    0 -0.37749332975E+02  0.20696762134E+02  0.39003179703E+03  0.40292043764E+03  0.91469712338E+02 0.  0.
          5    1    3    3  502    0  0.10337195013E+02 -0.50974600372E+02  0.25226379972E+03  0.25760389076E+03  0.41800000000E+01 0. -1.
         -5    1    3    3    0  502  0.27412137963E+02  0.30277838238E+02  0.11917328233E+04  0.11924398380E+04  0.41800000000E+01 0. -1.
        -11    1    4    4    0    0 -0.37551991579E+02 -0.29493593059E+02  0.14053834313E+03  0.14842860234E+03  0.00000000000E+00 0.  1.
         11    1    4    4    0    0 -0.19734139594E+00  0.50190355192E+02  0.24949345389E+03  0.25449183530E+03  0.00000000000E+00 0. -1.
</event>
<event>
 8    1  0.6787197E-009  0.1013734E+03  0.7561462E-02  0.1277434E+00
          1   -1    0    0  501    0  0.00000000000E+00  0.00000000000E+00  0.21205201700E+02  0.21205201700E+02  0.00000000000E+00 0. -1.
         -1   -1    0    0    0  501 -0.00000000000E+00 -0.00000000000E+00 -0.64220088547E+03  0.64220088547E+03  0.00000000000E+00 0.  1.
         25    2    1    2    0    0 -0.30622040078E+01 -0.42147537894E+02 -0.33482065817E+03  0.35991396236E+03  0.12508954842E+03 0.  0.
         23    2    1    2    0    0  0.30622040078E+01  0.42147537894E+02 -0.28617502561E+03  0.30349212481E+03  0.91790699404E+02 0.  0.
          5    1    3    3  502    0  0.44626943879E+02 -0.79222525759E+01 -0.26371803297E+03  0.26761726312E+03  0.41800000000E+01 0.  1.
         -5    1    3    3    0  502 -0.47689147887E+02 -0.34225285318E+02 -0.71102625191E+02  0.92296699238E+02  0.41800000000E+01 0.  1.
        -11    1    4    4    0    0  0.39906574614E+02  0.46505490950E+02 -0.14277874527E+03  0.15537395370E+03  0.00000000000E+00 0.  1.
         11    1    4    4    0    0 -0.36844370607E+02 -0.43579530554E+01 -0.14339628034E+03  0.14811817112E+03  0.00000000000E+00 0. -1.
</event>
<event>
 8    1  0.6787197E-009  0.1504726E+03  0.7561462E-02  0.1199893E+00
         -2   -1    0    0    0  501 -0.00000000000E+00  0.00000000000E+00  0.82398145842E+02  0.82398145842E+02  0.00000000000E+00 0.  1.
          2   -1    0    0  501    0  0.00000000000E+00 -0.00000000000E+00 -0.41102955633E+03  0.41102955633E+03  0.00000000000E+00 0. -1.
         25    2    1    2    0    0  0.64464203191E+02  0.11502765662E+03 -0.26433259178E+03  0.32079025868E+03  0.12509066994E+03 0.  0.
         23    2    1    2    0    0 -0.64464203191E+02 -0.11502765662E+03 -0.64298818704E+02  0.17263744349E+03  0.91007436651E+02 0.  0.
          5    1    3    3  502    0  0.50514889318E+02  0.13010715559E+03 -0.15152239514E+03  0.20604886461E+03  0.41800000000E+01 0. -1.
         -5    1    3    3    0  502  0.13949313873E+02 -0.15079498965E+02 -0.11281019665E+03  0.11474139407E+03  0.41800000000E+01 0. -1.
        -11    1    4    4    0    0 -0.49527684015E+02 -0.39472985926E+02 -0.71223935919E+02  0.95309795664E+02  0.00000000000E+00 0. -1.
         11    1    4    4    0    0 -0.14936519177E+02 -0.75554670699E+02  0.69251172150E+01  0.77327647824E+02  0.00000000000E+00 0.  1.
</event>
<event>
 8    1  0.6787197E-009  0.1096596E+03  0.7561462E-02  0.1261202E+00
         -2   -1    0    0    0  501 -0.00000000000E+00  0.00000000000E+00  0.56403577923E+03  0.56403577923E+03  0.00000000000E+00 0.  1.
          2   -1    0    0  501    0  0.00000000000E+00 -0.00000000000E+00 -0.22117030816E+02  0.22117030816E+02  0.00000000000E+00 0. -1.
         25    2    1    2    0    0 -0.22710710486E+02 -0.11067946227E+02  0.32250128749E+03  0.34683218891E+03  0.12508881256E+03 0.  0.
         23    2    1    2    0    0  0.22710710486E+02  0.11067946227E+02  0.21941746093E+03  0.23932062114E+03  0.92152383249E+02 0.  0.
          5    1    3    3  502    0 -0.72806233230E+02  0.90160710255E+01  0.18587057277E+03  0.19986840510E+03  0.41800000000E+01 0.  1.
         -5    1    3    3    0  502  0.50095522745E+02 -0.20084017252E+02  0.13663071472E+03  0.14696378382E+03  0.41800000000E+01 0.  1.
        -11    1    4    4    0    0  0.35772520212E+02 -0.31198465143E+02  0.14686226491E+03  0.15434228935E+03  0.00000000000E+00 0.  1.
         11    1    4    4    0    0 -0.13061809727E+02  0.42266411370E+02  0.72555196019E+02  0.84978331784E+02  0.00000000000E+00 0. -1.
</event>
<event>
 8    1  0.6787197E-009  0.9652372E+02  0.7561462E-02  0.1287781E+00
          2   -1    0    0  501    0  0.00000000000E+00  0.00000000000E+00  0.36147207222E+03  0.36147207222E+03  0.00000000000E+00 0. -1.
         -2   -1    0    0    0  501 -0.00000000000E+00 -0.00000000000E+00 -0.33133271384E+02  0.33133271384E+02  0.00000000000E+00 0.  1.
         25    2    1    2    0    0 -0.15130493363E+02 -0.14509006815E+02  0.17864047561E+03  0.21908943403E+03  0.12509323510E+03 0.  0.
         23    2    1    2    0    0  0.15130493363E+02  0.14509006815E+02  0.14969832522E+03  0.17551590957E+03  0.89200912721E+02 0.  0.
          5    1    3    3  502    0 -0.11717339065E+02  0.54568705422E+02  0.62913384679E+02  0.84205736254E+02  0.41800000000E+01 0.  1.
         -5    1    3    3    0  502 -0.34131542980E+01 -0.69077712237E+02  0.11572709093E+03  0.13488369778E+03  0.41800000000E+01 0.  1.
        -11    1    4    4    0    0  0.29360470748E+02  0.33186306608E+02  0.14493518146E+03  0.15155716748E+03  0.00000000000E+00 0. -1.
         11    1    4    4    0    0 -0.14229977385E+02 -0.18677299793E+02  0.47631437531E+01  0.23958742086E+02  0.00000000000E+00 0.  1.
</event>
<event>
 8    1  0.6787197E-009  0.1849345E+03  0.7561462E-02  0.1163111E+00
          1   -1    0    0  501    0  0.00000000000E+00  0.00000000000E+00  0.63338259584E+03  0.63338259584E+03  0.00000000000E+00 0. -1.
         -1   -1    0    0    0  501 -0.00000000000E+00 -0.00000000000E+00 -0.75619086893E+02  0.75619086893E+02  0.00000000000E+00 0.  1.
         25    2    1    2    0    0 -0.98415902263E+02  0.13094365540E+03  0.13844676522E+03  0.24829242124E+03  0.12509871678E+03 0.  0.
         23    2    1    2    0    0  0.98415902263E+02 -0.13094365540E+03  0.41931674373E+03  0.46070926149E+03  0.97951831774E+02 0.  0.
          5    1    3    3  502    0 -0.89399368072E+02  0.14001417318E+03  0.73042238402E+02  0.18151819934E+03  0.41800000000E+01 0.  1.
         -5    1    3    3    0  502 -0.90165341914E+01 -0.90705177783E+01  0.65404526822E+02  0.66774221901E+02  0.41800000000E+01 0.  1.
        -11    1    4    4    0    0  0.24390256197E+02  0.13540233722E+02  0.49306998659E+02  0.56651589945E+02  0.00000000000E+00 0. -1.
         11    1    4    4    0    0  0.74025646066E+02 -0.14448388912E+03  0.37000974507E+03  0.40405767155E+03  0.00000000000E+00 0.  1.
</event>
<event>
 8    1  0.6787197E-009  0.1975784E+03  0.7561462E-02  0.1151798E+00
          2   -1    0    0  501    0  0.00000000000E+00  0.00000000000E+00  0.35566288780E+03  0.35566288780E+03  0.00000000000E+00 0. -1.
         -2   -1    0    0    0  501 -0.00000000000E+00 -0.00000000000E+00 -0.11757612129E+03  0.11757612129E+03  0.00000000000E+00 0.  1.
         25    2    1    2    0    0  0.23255426477E+02 -0.17084247632E+03  0.14277787429E+03  0.25643831587E+03  0.12508845623E+03 0.  0.
         23    2    1    2    0    0 -0.23255426477E+02  0.17084247632E+03  0.95308892221E+02  0.21680069322E+03  0.90502978220E+02 0.  0.
          5    1    3    3  502    0 -0.30817061006E+02  0.26134231013E+01  0.18654732325E+02  0.36359217091E+02  0.41800000000E+01 0. -1.
         -5    1    3    3    0  502  0.54072487483E+02 -0.17345589942E+03  0.12412314197E+03  0.22007909878E+03  0.41800000000E+01 0. -1.
        -11    1    4    4    0    0 -0.40778686035E+02  0.14743957850E+03  0.10551379169E+03  0.18583457908E+03  0.00000000000E+00 0.  1.
         11    1    4    4    0    0  0.17523259558E+02  0.23402897817E+02 -0.10204899468E+02  0.30966114140E+02  0.00000000000E+00 0. -1.
</event>
<event>
 8    1  0.6787197E-009  0.1180649E+03  0.7561462E-02  0.1246324E+00
          3   -1    0    0  501    0  0.00000000000E+00  0.00000000000E+00  0.22894258449E+03  0.22894258449E+03  0.00000000000E+00 0. -1.
         -3   -1    0    0    0  501 -0.00000000000E+00 -0.00000000000E+00 -0.10506358312E+03  0.10506358312E+03  0.00000000000E+00 0.  1.
         25    2    1    2    0    0  0.97286256765E+02 -0.28870246883E+02  0.20028712287E+02  0.16232035740E+03  0.12509453306E+03 0.  0.
         23    2    1    2    0    0 -0.97286256765E+02  0.28870246883E+02  0.10385028908E+03  0.17168581021E+03  0.91613470482E+02 0.  0.
          5    1    3    3  502    0  0.11193028774E+02 -0.25988460228E+02 -0.45680967788E+02  0.53897190801E+02  0.41800000000E+01 0. -1.
         -5    1    3    3    0  502  0.86093227992E+02 -0.28817866552E+01  0.65709680075E+02  0.10842316660E+03  0.41800000000E+01 0. -1.
        -11    1    4    4    0    0 -0.63340926371E+02  0.50521109808E+02  0.10347584407E+03  0.13142186194E+03  0.00000000000E+00 0. -1.
         11    1    4    4    0    0 -0.33945330395E+02 -0.21650862925E+02  0.37444501061E+00  0.40263948267E+02  0.00000000000E+00 0.  1.
</event>
<event>
 8    1  0.6787197E-009  0.1016616E+03  0.7561462E-02  0.1276840E+00
          3   -1    0    0  501    0  0.00000000000E+00  0.00000000000E+00  0.77212087612E+02  0.77212087612E+02  0.00000000000E+00 0. -1.
         -3   -1    0    0    0  501 -0.00000000000E+00 -0.00000000000E+00 -0.23398724439E+03  0.23398724439E+03  0.00000000000E+00 0.  1.
         25    2    1    2    0    0 -0.47560563066E+02  0.11661553097E+02 -0.13088247854E+02  0.13495107005E+03  0.12506994082E+03 0.  0.
         23    2    1    2    0    0  0.47560563066E+02 -0.11661553097E+02 -0.14368690892E+03  0.17624826195E+03  0.89551789852E+02 0.  0.
          5    1    3    3  502    0 -0.49971648015E+02 -0.34667617846E+02 -0.47297174536E+02  0.77158955745E+02  0.41800000000E+01 0.  1.
         -5    1    3    3    0  502  0.24110849499E+01  0.46329170943E+02  0.34208926682E+02  0.57792114304E+02  0.41800000000E+01 0.  1.
        -11    1    4    4    0    0  0.71185569469E+02 -0.11788534619E+02 -0.77113282458E+02  0.10560688037E+03  0.00000000000E+00 0. -1.
         11    1    4    4    0    0 -0.23625006403E+02  0.12698152218E+00 -0.66573626466E+02  0.70641381588E+02  0.00000000000E+00 0.  1.
</event>
<event>
 8    1  0.6787197E-009  0.1360577E+03  0.7561462E-02  0.1218734E+00
         -1   -1    0    0    0  501 -0.00000000000E+00  0.00000000000E+00  0.23106274373E+03  0.23106274373E+03  0.00000000000E+00 0.  1.
          1   -1    0    0  501    0  0.00000000000E+00 -0.00000000000E+00 -0.93487676842E+02  0.93487676842E+02  0.00000000000E+00 0. -1.
         25    2    1    2    0    0  0.93677813091E+02 -0.17120013274E+02  0.52733934877E+02  0.16582490043E+03  0.12509357376E+03 0.  0.
         23    2    1    2    0    0 -0.93677813091E+02  0.17120013274E+02  0.84841132006E+02  0.15872552013E+03  0.94483572867E+02 0.  0.
          5    1    3    3  502    0  0.24143001248E+02  0.44456667922E+02 -0.12462926216E+02  0.52269271679E+02  0.41800000000E+01 0.  1.
         -5    1    3    3    0  502  0.69534811842E+02 -0.61576681196E+02  0.65196861093E+02  0.11355562875E+03  0.41800000000E+01 0.  1.
        -11    1    4    4    0    0 -0.77343442862E+02  0.49699024120E+02  0.38251752604E+02  0.99575085888E+02  0.00000000000E+00 0. -1.
         11    1    4    4    0    0 -0.16334370229E+02 -0.32579010846E+02  0.46589379402E+02  0.59150434246E+02  0.00000000000E+00 0.  1.
</event>
<event>
 8    1  0.6787197E-009  0.1101326E+03  0.7561462E-02  0.1260325E+00
          2   -1    0    0  501    0  0.00000000000E+00  0.00000000000E+00  0.33633237688E+03  0.33633237688E+03  0.00000000000E+00 0.  1.
         -2   -1    0    0    0  501 -0.00000000000E+00 -0.00000000000E+00 -0.41076381617E+02  0.41076381617E+02  0.00000000000E+00 0. -1.
         25    2    1    2    0    0 -0.13197762700E+02 -0.33317591064E+02  0.22325274993E+03  0.25840362216E+03  0.12508556584E+03 0.  0.
         23    2    1    2    0    0  0.13197762700E+02  0.33317591064E+02  0.72003245338E+02  0.11900513634E+03  0.87712669102E+02 0.  0.
          5    1    3    3  502    0  0.52595342223E+02 -0.34046550178E+02  0.12782962590E+03  0.14241953258E+03  0.41800000000E+01 0. -1.
         -5    1    3    3    0  502 -0.65793104923E+02  0.72895911363E+00  0.95423124029E+02  0.11598408958E+03  0.41800000000E+01 0. -1.
        -11    1    4    4    0    0 -0.30985979376E+02 -0.69574055757E+01  0.40378494258E+02  0.51370801130E+02  0.00000000000E+00 0.  1.
         11    1    4    4    0    0  0.44183742076E+02  0.40274996640E+02  0.31624751080E+02  0.67634335208E+02  0.00000000000E+00 0. -1.
</event>
<event>
 8    1  0.6787197E-009  0.8030159E+02  0.7561462E-02  0.1328198E+00
          2   -1    0    0  501    0  0.00000000000E+00  0.00000000000E+00  0.40630001539E+02  0.40630001539E+02  0.00000000000E+00 0. -1.
         -2   -1    0    0    0  501 -0.00000000000E+00 -0.00000000000E+00 -0.46270294267E+03  0.46270294267E+03  0.00000000000E+00 0.  1.
         25    2    1    2    0    0  0.59221204714E+02 -0.36421031678E+02 -0.31949273132E+03  0.35008063754E+03  0.12508878758E+03 0.  0.
         23    2    1    2    0    0 -0.59221204714E+02  0.36421031678E+02 -0.10258020982E+03  0.15325230668E+03  0.90166110144E+02 0.  0.
          5    1    3    3  502    0  0.23248722146E+02  0.25095566174E+01  0.23546536216E+01  0.23870855651E+02  0.41800000000E+01 0. -1.
         -5    1    3    3    0  502  0.35972482569E+02 -0.38930588295E+02 -0.32184738494E+03  0.32620978189E+03  0.41800000000E+01 0. -1.
        -11    1    4    4    0    0 -0.17847392352E+02  0.38308137498E+02 -0.10353110965E+03  0.11182456563E+03  0.00000000000E+00 0.  1.
         11    1    4    4    0    0 -0.41373812362E+02 -0.18871058205E+01  0.95089983265E+00  0.41427741047E+02  0.00000000000E+00 0. -1.
</event>
<event>
 8    1  0.6787197E-009  0.1563320E+03  0.7561462E-02  0.1192901E+00
          1   -1    0    0  501    0  0.00000000000E+00  0.00000000000E+00  0.60061534062E+03  0.60061534062E+03  0.00000000000E+00 0. -1.
         -1   -1    0    0    0  501 -0.00000000000E+00 -0.00000000000E+00 -0.53882519644E+02  0.53882519644E+02  0.00000000000E+00 0.  1.
         25    2    1    2    0    0 -0.37935315647E+02  0.14009749876E+03  0.30791340456E+03  0.36266229642E+03  0.12508748620E+03 0.  0.
         23    2    1    2    0    0  0.37935315647E+02 -0.14009749876E+03  0.23881941642E+03  0.29183556384E+03  0.84064768681E+02 0.  0.
          5    1    3    3  502    0 -0.19569741800E+02  0.62314229942E+02  0.27394706324E+02  0.70950548849E+02  0.41800000000E+01 0. -1.
         -5    1    3    3    0  502 -0.18365573847E+02  0.77783268823E+02  0.28051869823E+03  0.29171174757E+03  0.41800000000E+01 0. -1.
        -11    1    4    4    0    0  0.53037952491E+02 -0.41252954623E+02  0.84602199888E+02  0.10803871017E+03  0.00000000000E+00 0.  1.
         11    1    4    4    0    0 -0.15102636844E+02 -0.98844544142E+02  0.15421721653E+03  0.18379685367E+03  0.00000000000E+00 0. -1.
</event>
<event>
 8    1  0.6787197E-009  0.1409277E+03  0.7561462E-02  0.1212086E+00
         -2   -1    0    0    0  501 -0.00000000000E+00  0.00000000000E+00  0.20495454673E+03  0.20495454673E+03  0.00000000000E+00 0.  1.
          2   -1    0    0  501    0  0.00000000000E+00 -0.00000000000E+00 -0.14085144188E+03  0.14085144188E+03  0.00000000000E+00 0. -1.
         25    2    1    2    0    0  0.45429720873E+02  0.10911081475E+03  0.86994472209E+02  0.19283916837E+03  0.12509946934E+03 0.  0.
         23    2    1    2    0    0 -0.45429720873E+02 -0.10911081475E+03 -0.22891367358E+02  0.15296682023E+03  0.94370567218E+02 0.  0.
          5    1    3    3  502    0  0.24286571819E+02 -0.20059449458E+02  0.45440604086E+02  0.55448534543E+02  0.41800000000E+01 0.  1.
         -5    1    3    3    0  502  0.21143149054E+02  0.12917026421E+03  0.41553868123E+02  0.13739063383E+03  0.41800000000E+01 0.  1.
        -11    1    4    4    0    0 -0.65044325935E+01 -0.33020915191E+02 -0.52631349127E+02  0.62471972870E+02  0.00000000000E+00 0. -1.
         11    1    4    4    0    0 -0.38925288279E+02 -0.76089899562E+02  0.29739981769E+02  0.90494847359E+02  0.00000000000E+00 0.  1.
</event>
<event>
 8    1  0.6787197E-009  0.1143316E+03  0.7561462E-02  0.1252752E+00
          1   -1    0    0  501    0  0.00000000000E+00  0.00000000000E+00  0.71605634464E+03  0.71605634464E+03  0.00000000000E+00 0. -1.
         -1   -1    0    0    0  501 -0.00000000000E+00 -0.00000000000E+00 -0.21709278520E+02  0.21709278520E+02  0.00000000000E+00 0.  1.
         25    2    1    2    0    0 -0.30858062493E+02 -0.46548902183E+02  0.46341819669E+03  0.48324031136E+03  0.12508298521E+03 0.  0.
         23    2    1    2    0    0  0.30858062493E+02  0.46548902183E+02  0.23092886943E+03  0.25452531180E+03  0.91301540476E+02 0.  0.
          5    1    3    3  502    0 -0.74778536514E+02 -0.14972827973E+02  0.33916877117E+03  0.34766211016E+03  0.41800000000E+01 0.  1.
         -5    1    3    3    0  502  0.43920474021E+02 -0.31576074210E+02  0.12424942552E+03  0.13557820121E+03  0.41800000000E+01 0.  1.
        -11    1    4    4    0    0 -0.45078262305E+01  0.60018487716E+02  0.18748897532E+03  0.19691281125E+03  0.00000000000E+00 0.  1.
         11    1    4    4    0    0  0.35365888724E+02 -0.13469585533E+02  0.43439894109E+02  0.57612500552E+02  0.00000000000E+00 0. -1.
</event>
<event>
 8    1  0.6787197E-009  0.1655187E+03  0.7561462E-02  0.1182603E+00
          2   -1    0    0  501    0  0.00000000000E+00  0.00000000000E+00  0.84409117111E+03  0.84409117111E+03  0.00000000000E+00 0. -1.
         -2   -1    0    0    0  501 -0.00000000000E+00 -0.00000000000E+00 -0.38653066352E+02  0.38653066352E+02  0.00000000000E+00 0.  1.
         25    2    1    2    0    0  0.12738846148E+03 -0.45240221398E+02  0.54795491529E+03  0.57808039317E+03  0.12509138275E+03 0.  0.
         23    2    1    2    0    0 -0.12738846148E+03  0.45240221398E+02  0.25748318947E+03  0.30466384428E+03  0.90818320868E+02 0.  0.
          5    1    3    3  502    0  0.11282197645E+03 -0.81625925479E+02  0.35956338761E+03  0.38560976672E+03  0.41800000000E+01 0. -1.
         -5    1    3    3    0  502  0.14566485023E+02  0.36385704082E+02  0.18839152767E+03  0.19247062645E+03  0.41800000000E+01 0. -1.
        -11    1    4    4    0    0 -0.29100541045E+02  0.45508594631E+02  0.44103438181E+02  0.69735119802E+02  0.00000000000E+00 0.  1.
         11    1    4    4    0    0 -0.98287920430E+02 -0.26837323371E+00  0.21337975129E+03  0.23492872448E+03  0.00000000000E+00 0. -1.
</event>
<event>
 8    1  0.6787197E-009  0.1083557E+03  0.7561462E-02  0.1263646E+00
          1   -1    0    0  501    0  0.00000000000E+00  0.00000000000E+00  0.23472751260E+03  0.23472751260E+03  0.00000000000E+00 0. -1.
         -1   -1    0    0    0  501 -0.00000000000E+00 -0.00000000000E+00 -0.74166907239E+02  0.74166907239E+02  0.00000000000E+00 0.  1.
         25    2    1    2    0    0 -0.44759722076E+02  0.25771755499E+02  0.15157227980E+03  0.20320060955E+03  0.12509482649E+03 0.  0.
         23    2    1    2    0    0  0.44759722076E+02 -0.25771755499E+02  0.89883255609E+01  0.10569381029E+03  0.91775679976E+02 0.  0.
          5    1    3    3  502    0  0.15732291745E+02  0.56357344137E+02  0.10682198772E+03  0.12186904735E+03  0.41800000000E+01 0.  1.
         -5    1    3    3    0  502 -0.60492013821E+02 -0.30585588638E+02  0.44750292077E+02  0.81331562197E+02  0.41800000000E+01 0.  1.
        -11    1    4    4    0    0  0.55758265169E+02  0.64118471550E+01  0.32020940458E+02  0.64617617926E+02  0.00000000000E+00 0.  1.
         11    1    4    4    0    0 -0.10998543094E+02 -0.32183602654E+02 -0.23032614897E+02  0.41076192362E+02  0.00000000000E+00 0. -1.
</event>
<event>
 8    1  0.6787197E-009  0.1081980E+03  0.7561462E-02  0.1263944E+00
          2   -1    0    0  501    0  0.00000000000E+00  0.00000000000E+00  0.18155310136E+03  0.18155310136E+03  0.00000000000E+00 0. -1.
         -2   -1    0    0    0  501 -0.00000000000E+00 -0.00000000000E+00 -0.82927034320E+02  0.82927034320E+02  0.00000000000E+00 0.  1.
         25    2    1    2    0    0  0.25099245440E+02  0.26824120501E+02  0.10799068657E+02  0.13081805208E+03  0.12508891759E+03 0.  0.
         23    2    1    2    0    0 -0.25099245440E+02 -0.26824120501E+02  0.87826998387E+02  0.13366208360E+03  0.93821454823E+02 0.  0.
          5    1    3    3  502    0  0.45981272849E+02 -0.32429764307E+02  0.31397483224E+02  0.64569663300E+02  0.41800000000E+01 0. -1.
         -5    1    3    3    0  502 -0.20882027410E+02  0.59253884808E+02 -0.20598414567E+02  0.66248388782E+02  0.41800000000E+01 0. -1.
        -11    1    4    4    0    0  0.81379171562E+01 -0.53670627909E+02  0.30825467886E+02  0.62425727598E+02  0.00000000000E+00 0.  1.
         11    1    4    4    0    0 -0.33237162596E+02  0.26846507408E+02  0.57001530502E+02  0.71236356005E+02  0.00000000000E+00 0. -1.
</event>
<event>
 8    1  0.6787197E-009  0.9146464E+02  0.7561462E-02  0.1299343E+00
         -1   -1    0    0    0  501 -0.00000000000E+00  0.00000000000E+00  0.43803061240E+02  0.43803061240E+02  0.00000000000E+00 0. -1.
          1   -1    0    0  501    0  0.00000000000E+00 -0.00000000000E+00 -0.31199343945E+03  0.31199343945E+03  0.00000000000E+00 0.  1.
         25    2    1    2    0    0 -0.18499097456E+02  0.24886475048E+02 -0.11753743199E+03  0.17442412056E+03  0.12508865922E+03 0.  0.
         23    2    1    2    0    0  0.18499097456E+02 -0.24886475048E+02 -0.15065294623E+03  0.18137238014E+03  0.96114914680E+02 0.  0.
          5    1    3    3  502    0 -0.48853109807E+02  0.21619109349E+02 -0.69917606306E+00  0.53590796543E+02  0.41800000000E+01 0. -1.
         -5    1    3    3    0  502  0.30354012351E+02  0.32673656989E+01 -0.11683825593E+03  0.12083332401E+03  0.41800000000E+01 0. -1.
        -11    1    4    4    0    0 -0.38343359146E+02 -0.12727278490E+02 -0.82028616362E+02  0.91437906312E+02  0.00000000000E+00 0.  1.
         11    1    4    4    0    0  0.56842456602E+02 -0.12159196558E+02 -0.68624329863E+02  0.89934473827E+02  0.00000000000E+00 0. -1.
</event>
<event>
 8    1  0.6787197E-009  0.1484860E+03  0.7561462E-02  0.1202346E+00
          2   -1    0    0  501    0  0.00000000000E+00  0.00000000000E+00  0.10717907321E+04  0.10717907321E+04  0.00000000000E+00 0.  1.
         -2   -1    0    0    0  501 -0.00000000000E+00 -0.00000000000E+00 -0.30632651668E+02  0.30632651668E+02  0.00000000000E+00 0. -1.
         25    2    1    2    0    0 -0.54735040272E+02  0.11191020054E+03  0.77877966716E+03  0.79853950801E+03  0.12509099988E+03 0.  0.
         23    2    1    2    0    0  0.54735040272E+02 -0.11191020054E+03  0.26237841323E+03  0.30388387572E+03  0.89348534262E+02 0.  0.
          5    1    3    3  502    0  0.21981541034E+01  0.76204568254E+02  0.17388745431E+03  0.18991126157E+03  0.41800000000E+01 0.  1.
         -5    1    3    3    0  502 -0.56933194375E+02  0.35705632282E+02  0.60489221285E+03  0.60862824644E+03  0.41800000000E+01 0.  1.
        -11    1    4    4    0    0 -0.43065819717E+01 -0.90320346600E+02  0.15243771570E+03  0.17723873399E+03  0.00000000000E+00 0.  1.
         11    1    4    4    0    0  0.59041622243E+02 -0.21589853935E+02  0.10994069753E+03  0.12664514173E+03  0.00000000000E+00 0. -1.
</event>
<event>
 8    1  0.6787197E-009  0.7593549E+02  0.7561462E-02  0.1340998E+00
          1   -1    0    0  501    0  0.00000000000E+00  0.00000000000E+00  0.70939779237E+03  0.70939779237E+03  0.00000000000E+00 0. -1.
         -1   -1    0    0    0  501 -0.00000000000E+00 -0.00000000000E+00 -0.15987595973E+02  0.15987595973E+02  0.00000000000E+00 0.  1.
         25    2    1    2    0    0 -0.56310627513E+01 -0.22084785972E+02  0.39438949118E+03  0.41438066903E+03  0.12509524961E+03 0.  0.
         23    2    1    2    0    0  0.56310627513E+01  0.22084785972E+02  0.29902070521E+03  0.31100471931E+03  0.82408170985E+02 0.  0.
          5    1    3    3  502    0  0.61518223443E+01 -0.42815135135E+02  0.39682633410E+02  0.58848657666E+02  0.41800000000E+01 0. -1.
         -5    1    3    3    0  502 -0.11782885096E+02  0.20730349163E+02  0.35470685777E+03  0.35553201137E+03  0.41800000000E+01 0. -1.
        -11    1    4    4    0    0 -0.55457093333E+01  0.51987686689E+02  0.15837786944E+03  0.16678436374E+03  0.00000000000E+00 0.  1.
         11    1    4    4    0    0  0.11176772085E+02 -0.29902900718E+02  0.14064283578E+03  0.14422035557E+03  0.00000000000E+00 0. -1.
</event>
<event>
 8    1  0.6787197E-009  0.1258180E+03  0.7561462E-02  0.1233796E+00
         -2   -1    0    0    0  501 -0.00000000000E+00  0.00000000000E+00  0.38866051783E+02  0.38866051783E+02  0.00000000000E+00 0.  1.
          2   -1    0    0  501    0  0.00000000000E+00 -0.00000000000E+00 -0.59765851680E+03  0.59765851680E+03  0.00000000000E+00 0. -1.
         25    2    1    2    0    0  0.67865996004E+02  0.75325932616E+02 -0.37504994034E+03  0.40815489998E+03  0.12509266601E+03 0.  0.
         23    2    1    2    0    0 -0.67865996004E+02 -0.75325932616E+02 -0.18374252467E+03  0.22836966860E+03  0.90064424858E+02 0.  0.
          5    1    3    3  502    0  0.90447720287E+02  0.30011766563E+02 -0.31687389842E+03  0.33091998450E+03  0.41800000000E+01 0.  1.
         -5    1    3    3    0  502 -0.22581724283E+02  0.45314166053E+02 -0.58176041920E+02  0.77234915486E+02  0.41800000000E+01 0.  1.
        -11    1    4    4    0    0 -0.62843254783E+02 -0.51947197706E+02 -0.18722219179E+03  0.20420561971E+03  0.00000000000E+00 0.  1.
         11    1    4    4    0    0 -0.50227412216E+01 -0.23378734910E+02  0.34796671223E+01  0.24164048888E+02  0.00000000000E+00 0. -1.
</event>
<event>
 8    1  0.6787197E-009  0.8604630E+02  0.7561462E-02  0.1312719E+00
          2   -1    0    0  501    0  0.00000000000E+00  0.00000000000E+00  0.24409704627E+03  0.24409704627E+03  0.00000000000E+00 0. -1.
         -2   -1    0    0    0  501 -0.00000000000E+00 -0.00000000000E+00 -0.58879526567E+02  0.58879526567E+02  0.00000000000E+00 0.  1.
         25    2    1    2    0    0  0.41373677652E+02 -0.19587282760E+02  0.67637259172E+02  0.14939305971E+03  0.12509214449E+03 0.  0.
         23    2    1    2    0    0 -0.41373677652E+02  0.19587282760E+02  0.11758026053E+03  0.15358351313E+03  0.87563319892E+02 0.  0.
          5    1    3    3  502    0  0.56815760039E+02 -0.15469582999E+02  0.98242558949E+02  0.11461418488E+03  0.41800000000E+01 0. -1.
         -5    1    3    3    0  502 -0.15442082387E+02 -0.41176997610E+01 -0.30605299777E+02  0.34778874827E+02  0.41800000000E+01 0. -1.
        -11    1    4    4    0    0 -0.23885260759E+02  0.53386121906E+02  0.54670250674E+02  0.80058853367E+02  0.00000000000E+00 0.  1.
         11    1    4    4    0    0 -0.17488416894E+02 -0.33798839146E+02  0.62910009860E+02  0.73524659766E+02  0.00000000000E+00 0. -1.
</event>
<event>
 8    1  0.6787197E-009  0.1116761E+03  0.7561462E-02  0.1257497E+00
          1   -1    0    0  501    0  0.00000000000E+00  0.00000000000E+00  0.19134115293E+02  0.19134115293E+02  0.00000000000E+00 0. -1.
         -1   -1    0    0    0  501 -0.00000000000E+00 -0.00000000000E+00 -0.84794608193E+03  0.84794608193E+03  0.00000000000E+00 0.  1.
         25    2    1    2    0    0  0.62050666080E+02 -0.24678874717E+02 -0.45745903376E+03  0.47893255967E+03  0.12509315377E+03 0.  0.
         23    2    1    2    0    0 -0.62050666080E+02  0.24678874717E+02 -0.37135293287E+03  0.38814763755E+03  0.91083784327E+02 0.  0.
          5    1    3    3  502    0 -0.41284513416E+01  0.29429262115E+02 -0.28325297464E+03  0.28483827977E+03  0.41800000000E+01 0. -1.
         -5    1    3    3    0  502  0.66179117422E+02 -0.54108136832E+02 -0.17420605912E+03  0.19409427990E+03  0.41800000000E+01 0. -1.
        -11    1    4    4    0    0 -0.72604134867E+02 -0.83503166443E+01 -0.30057947553E+03  0.30933656314E+03  0.00000000000E+00 0.  1.
         11    1    4    4    0    0  0.10553468787E+02  0.33029191361E+02 -0.70773457341E+02  0.78811074408E+02  0.00000000000E+00 0. -1.
</event>
<event>
 8    1  0.6787197E-009  0.9010745E+02  0.7561462E-02  0.1302592E+00
         -1   -1    0    0    0  501 -0.00000000000E+00  0.00000000000E+00  0.27342148913E+02  0.27342148913E+02  0.00000000000E+00 0.  1.
          1   -1    0    0  501    0  0.00000000000E+00 -0.00000000000E+00 -0.50587153737E+03  0.50587153737E+03  0.00000000000E+00 0. -1.
         25    2    1    2    0    0 -0.27335345776E+02  0.16886087907E+02 -0.31291310314E+03  0.33851795530E+03  0.12508970721E+03 0.  0.
         23    2    1    2    0    0  0.27335345776E+02 -0.16886087907E+02 -0.16561628532E+03  0.19469573099E+03  0.97186998143E+02 0.  0.
          5    1    3    3  502    0  0.27001909649E+02  0.67878174935E+01 -0.26120359716E+03  0.26271651863E+03  0.41800000000E+01 0.  1.
         -5    1    3    3    0  502 -0.54337255425E+02  0.10098270414E+02 -0.51709505978E+02  0.75801436668E+02  0.41800000000E+01 0.  1.
        -11    1    4    4    0    0  0.46822537805E+02  0.23057315861E+02 -0.56717653251E+02  0.77077117561E+02  0.00000000000E+00 0.  1.
         11    1    4    4    0    0 -0.19487192029E+02 -0.39943403768E+02 -0.10889863207E+03  0.11761861343E+03  0.00000000000E+00 0. -1.
</event>
<event>
 8    1  0.6787197E-009  0.7112612E+02  0.7561462E-02  0.1356305E+00
         -1   -1    0    0    0  501 -0.00000000000E+00  0.00000000000E+00  0.84106733990E+03  0.84106733990E+03  0.00000000000E+00 0.  1.
          1   -1    0    0  501    0  0.00000000000E+00 -0.00000000000E+00 -0.18566549583E+02  0.18566549583E+02  0.00000000000E+00 0. -1.
         25    2    1    2    0    0  0.28407380759E+02 -0.82622357341E+01  0.64500681990E+03  0.65768962909E+03  0.12508639682E+03 0.  0.
         23    2    1    2    0    0 -0.28407380759E+02  0.82622357341E+01  0.17749397041E+03  0.20194426039E+03  0.91663138455E+02 0.  0.
          5    1    3    3  502    0 -0.29053962508E+02  0.58083232816E+01  0.50175735837E+03  0.50264877244E+03  0.41800000000E+01 0.  1.
         -5    1    3    3    0  502  0.57461343267E+02 -0.14070559016E+02  0.14324946153E+03  0.15504085665E+03  0.41800000000E+01 0.  1.
        -11    1    4    4    0    0 -0.39864613632E+02  0.18807996993E+01  0.18330557239E+03  0.18759972734E+03  0.00000000000E+00 0.  1.
         11    1    4    4    0    0  0.11457232873E+02  0.63814360348E+01 -0.58116019785E+01  0.14344533054E+02  0.00000000000E+00 0. -1.
</event>
<event>
 8    1  0.6787197E-009  0.1152091E+03  0.7561462E-02  0.1251216E+00
         -1   -1    0    0    0  501 -0.00000000000E+00  0.00000000000E+00  0.51802660884E+03  0.51802660884E+03  0.00000000000E+00 0.  1.
          1   -1    0    0  501    0  0.00000000000E+00 -0.00000000000E+00 -0.69167639131E+02  0.69167639131E+02  0.00000000000E+00 0. -1.
         25    2    1    2    0    0 -0.40203939678E+02 -0.16999696132E+02  0.46631679730E+03  0.48477280702E+03  0.12509185644E+03 0.  0.
         23    2    1    2    0    0  0.40203939678E+02  0.16999696132E+02 -0.17457827594E+02  0.10242144095E+03  0.90994666807E+02 0.  0.
          5    1    3    3  502    0 -0.59475809995E+02 -0.59913787419E+02  0.27395518204E+03  0.28669835727E+03  0.41800000000E+01 0.  1.
         -5    1    3    3    0  502  0.19271870317E+02  0.42914091288E+02  0.19236161526E+03  0.19807444975E+03  0.41800000000E+01 0.  1.
        -11    1    4    4    0    0 -0.27940094954E+02 -0.17306993732E+01 -0.14881039765E+02  0.31703147648E+02  0.00000000000E+00 0. -1.
         11    1    4    4    0    0  0.68144034631E+02  0.18730395505E+02 -0.25767878294E+01  0.70718293299E+02  0.00000000000E+00 0.  1.
</event>
<event>
 8    1  0.6787197E-009  0.9737650E+02  0.7561462E-02  0.1285912E+00
          1   -1    0    0  501    0  0.00000000000E+00  0.00000000000E+00  0.18966490473E+03  0.18966490473E+03  0.00000000000E+00 0. -1.
         -1   -1    0    0    0  501 -0.00000000000E+00 -0.00000000000E+00 -0.12088730229E+03  0.12088730229E+03  0.00000000000E+00 0.  1.
         25    2    1    2    0    0  0.21097098320E+01  0.47940830677E+02 -0.59480365741E+02  0.14659120043E+03  0.12509313336E+03 0.  0.
         23    2    1    2    0    0 -0.21097098320E+01 -0.47940830677E+02  0.12825796819E+03  0.16396100659E+03  0.90168348976E+02 0.  0.
          5    1    3    3  502    0  0.54169626846E+02  0.52044720101E+02 -0.56553514603E+02  0.94121059158E+02  0.41800000000E+01 0. -1.
         -5    1    3    3    0  502 -0.52059917014E+02 -0.41038894249E+01 -0.29268511374E+01  0.52470141276E+02  0.41800000000E+01 0. -1.
        -11    1    4    4    0    0 -0.20766080377E+02 -0.43119119718E+02  0.16605550224E+02  0.50657999148E+02  0.00000000000E+00 0.  1.
         11    1    4    4    0    0  0.18656370545E+02 -0.48217109586E+01  0.11165241796E+03  0.11330300744E+03  0.00000000000E+00 0. -1.
</event>
<event>
 8    1  0.6787197E-009  0.8976305E+02  0.7561462E-02  0.1303427E+00
          2   -1    0    0  501    0  0.00000000000E+00  0.00000000000E+00  0.18911096963E+03  0.18911096963E+03  0.00000000000E+00 0. -1.
         -2   -1    0    0    0  501 -0.00000000000E+00 -0.00000000000E+00 -0.66126774950E+02  0.66126774950E+02  0.00000000000E+00 0.  1.
         25    2    1    2    0    0  0.10809017939E+02  0.11804874355E+02  0.46356490169E+02  0.13435936288E+03  0.12508926527E+03 0.  0.
         23    2    1    2    0    0 -0.10809017939E+02 -0.11804874355E+02  0.76627704515E+02  0.12087838170E+03  0.92106395738E+02 0.  0.
          5    1    3    3  502    0 -0.19471226646E+02  0.62355759778E+02  0.13762148378E+02  0.66889749383E+02  0.41800000000E+01 0.  1.
         -5    1    3    3    0  502  0.30280244585E+02 -0.50550885423E+02  0.32594341792E+02  0.67469613501E+02  0.41800000000E+01 0.  1.
        -11    1    4    4    0    0  0.62475711495E+01  0.18879765298E+02  0.82868588944E+02  0.85221363029E+02  0.00000000000E+00 0. -1.
         11    1    4    4    0    0 -0.17056589089E+02 -0.30684639654E+02 -0.62408844293E+01  0.35657018670E+02  0.00000000000E+00 0.  1.
</event>
<event>
 8    1  0.6787197E-009  0.1441413E+03  0.7561462E-02  0.1207863E+00
         -2   -1    0    0    0  501 -0.00000000000E+00  0.00000000000E+00  0.61502645244E+02  0.61502645244E+02  0.00000000000E+00 0.  1.
          2   -1    0    0  501    0  0.00000000000E+00 -0.00000000000E+00 -0.49634628325E+03  0.49634628325E+03  0.00000000000E+00 0. -1.
         25    2    1    2    0    0  0.94649588278E+02 -0.91358410386E+02 -0.29013321335E+03  0.34223750515E+03  0.12507727505E+03 0.  0.
         23    2    1    2    0    0 -0.94649588278E+02  0.91358410386E+02 -0.14471042466E+03  0.21561142335E+03  0.90786976834E+02 0.  0.
          5    1    3    3  502    0  0.31663527658E+02  0.10883872414E+02 -0.67201807252E+01  0.34404518475E+02  0.41800000000E+01 0.  1.
         -5    1    3    3    0  502  0.62986060620E+02 -0.10224228280E+03 -0.28341303263E+03  0.30783298668E+03  0.41800000000E+01 0.  1.
        -11    1    4    4    0    0 -0.52463562999E+02  0.68868473552E+02 -0.14373543784E+03  0.16779501835E+03  0.00000000000E+00 0. -1.
         11    1    4    4    0    0 -0.42186025280E+02  0.22489936834E+02 -0.97498682165E+00  0.47816404999E+02  0.00000000000E+00 0.  1.
</event>
<event>
 8    1  0.6787197E-009  0.1178049E+03  0.7561462E-02  0.1246763E+00
         -2   -1    0    0    0  501 -0.00000000000E+00  0.00000000000E+00  0.30222495308E+02  0.30222495308E+02  0.00000000000E+00 0.  1.
          2   -1    0    0  501    0  0.00000000000E+00 -0.00000000000E+00 -0.65057802151E+03  0.65057802151E+03  0.00000000000E+00 0. -1.
         25    2    1    2    0    0  0.69216147283E+02 -0.41569289916E+02 -0.42845072264E+03  0.45358191592E+03  0.12509057444E+03 0.  0.
         23    2    1    2    0    0 -0.69216147283E+02  0.41569289916E+02 -0.19190480356E+03  0.22721860089E+03  0.91005263873E+02 0.  0.
          5    1    3    3  502    0 -0.25114307087E+02 -0.43353384563E+02 -0.10157022784E+03  0.11333237824E+03  0.41800000000E+01 0.  1.
         -5    1    3    3    0  502  0.94330454370E+02  0.17840946468E+01 -0.32688049480E+03  0.34024953769E+03  0.41800000000E+01 0.  1.
        -11    1    4    4    0    0 -0.36336976633E+02 -0.19042468100E+01 -0.10602523499E+02  0.37900072972E+02  0.00000000000E+00 0.  1.
         11    1    4    4    0    0 -0.32879170650E+02  0.43473536726E+02 -0.18130228006E+03  0.18931852792E+03  0.00000000000E+00 0. -1.
</event>
<event>
 8    1  0.6787197E-009  0.2476393E+03  0.7561462E-02  0.1114806E+00
         -2   -1    0    0    0  501 -0.00000000000E+00  0.00000000000E+00  0.31680521044E+02  0.31680521044E+02  0.00000000000E+00 0. -1.
          2   -1    0    0  501    0  0.00000000000E+00 -0.00000000000E+00 -0.23361815091E+04  0.23361815091E+04  0.00000000000E+00 0.  1.
         25    2    1    2    0    0 -0.19239061602E+03  0.12183369613E+03 -0.16210128627E+04  0.16417027498E+04  0.12509044305E+03 0.  0.
         23    2    1    2    0    0  0.19239061602E+03 -0.12183369613E+03 -0.68348812536E+03  0.72615928037E+03  0.91069667388E+02 0.  0.
          5    1    3    3  502    0 -0.40342257834E+02  0.97568225156E+02 -0.68482719646E+03  0.69293060095E+03  0.41800000000E+01 0.  1.
         -5    1    3    3    0  502 -0.15204835819E+03  0.24265470970E+02 -0.93618566627E+03  0.94877214886E+03  0.41800000000E+01 0.  1.
        -11    1    4    4    0    0  0.11704538126E+03 -0.38436264255E+02 -0.25535125247E+03  0.28351583699E+03  0.00000000000E+00 0. -1.
         11    1    4    4    0    0  0.75345234757E+02 -0.83397431871E+02 -0.42813687289E+03  0.44264344338E+03  0.00000000000E+00 0.  1.
</event>
<event>
 8    1  0.6787197E-009  0.1072180E+03  0.7561462E-02  0.1265810E+00
          3   -1    0    0  501    0  0.00000000000E+00  0.00000000000E+00  0.86410070240E+02  0.86410070240E+02  0.00000000000E+00 0. -1.
         -3   -1    0    0    0  501 -0.00000000000E+00 -0.00000000000E+00 -0.26506152233E+03  0.26506152233E+03  0.00000000000E+00 0.  1.
         25    2    1    2    0    0  0.10377884762E+03  0.99470787382E+01 -0.82608041887E+02  0.18259691274E+03  0.12509416601E+03 0.  0.
         23    2    1    2    0    0 -0.10377884762E+03 -0.99470787382E+01 -0.96043410207E+02  0.16887467983E+03  0.91789581408E+02 0.  0.
          5    1    3    3  502    0  0.24688641676E+02  0.11881733353E+02 -0.98041155099E+02  0.10188348791E+03  0.41800000000E+01 0. -1.
         -5    1    3    3    0  502  0.79090205945E+02 -0.19346546148E+01  0.15433113212E+02  0.80713424834E+02  0.41800000000E+01 0. -1.
        -11    1    4    4    0    0 -0.69230714944E+02 -0.18981830531E+02 -0.60323907257E+01  0.72038819534E+02  0.00000000000E+00 0. -1.
         11    1    4    4    0    0 -0.34548132677E+02  0.90347517929E+01 -0.90011019482E+02  0.96835860297E+02  0.00000000000E+00 0.  1.
</event>
<event>
 8    1  0.6787197E-009  0.1683968E+03  0.7561462E-02  0.1179530E+00
          1   -1    0    0  501    0  0.00000000000E+00  0.00000000000E+00  0.56039681120E+03  0.56039681120E+03  0.00000000000E+00 0. -1.
         -1   -1    0    0    0  501 -0.00000000000E+00 -0.00000000000E+00 -0.55841786285E+02  0.55841786285E+02  0.00000000000E+00 0.  1.
         25    2    1    2    0    0 -0.34413125520E+02  0.12702018174E+03  0.18570796618E+03  0.25971777043E+03  0.12508989487E+03 0.  0.
         23    2    1    2    0    0  0.34413125520E+02 -0.12702018174E+03  0.31884705874E+03  0.35652082706E+03  0.90140243403E+02 0.  0.
          5    1    3    3  502    0 -0.46435504725E+02  0.14693114968E+03  0.13988175887E+03  0.20815714667E+03  0.41800000000E+01 0.  1.
         -5    1    3    3    0  502  0.12022379206E+02 -0.19910967945E+02  0.45826207309E+02  0.51560623760E+02  0.41800000000E+01 0.  1.
        -11    1    4    4    0    0 -0.27109676414E+02 -0.70243554994E+02  0.13695125508E+03  0.15628415736E+03  0.00000000000E+00 0.  1.
         11    1    4    4    0    0  0.61522801933E+02 -0.56776626743E+02  0.18189580366E+03  0.20023666969E+03  0.00000000000E+00 0. -1.
</event>
<event>
 8    1  0.6787197E-009  0.1148152E+03  0.7561462E-02  0.1251904E+00
          1   -1    0    0  501    0  0.00000000000E+00  0.00000000000E+00  0.15702069428E+04  0.15702069428E+04  0.00000000000E+00 0. -1.
         -1   -1    0    0    0  501 -0.00000000000E+00 -0.00000000000E+00 -0.10292999649E+02  0.10292999649E+02  0.00000000000E+00 0.  1.
         25    2    1    2    0    0 -0.56101014426E+02  0.14051012109E+02  0.10676573062E+04  0.10765149234E+04  0.12508997634E+03 0.  0.
         23    2    1    2    0    0  0.56101014426E+02 -0.14051012109E+02  0.49225663693E+03  0.50398501898E+03  0.91321125623E+02 0.  0.
          5    1    3    3  502    0 -0.16581308667E+02 -0.47337725990E+02  0.69058905672E+03  0.69242076641E+03  0.41800000000E+01 0.  1.
         -5    1    3    3    0  502 -0.39519705759E+02  0.61388738099E+02  0.37706824946E+03  0.38409415703E+03  0.41800000000E+01 0.  1.
        -11    1    4    4    0    0 -0.48696692716E+01  0.30354374623E+02  0.10309122893E+03  0.10757742895E+03  0.00000000000E+00 0.  1.
         11    1    4    4    0    0  0.60970683697E+02 -0.44405386732E+02  0.38916540801E+03  0.39640759003E+03  0.00000000000E+00 0. -1.
</event>
<event>
 8    1  0.6787197E-009  0.1124148E+03  0.7561462E-02  0.1256162E+00
         -2   -1    0    0    0  501 -0.00000000000E+00  0.00000000000E+00  0.13175470151E+03  0.13175470151E+03  0.00000000000E+00 0.  1.
          2   -1    0    0  501    0  0.00000000000E+00 -0.00000000000E+00 -0.14045552866E+03  0.14045552866E+03  0.00000000000E+00 0. -1.
         25    2    1    2    0    0  0.82653576632E+02 -0.39427466436E+01 -0.14436076123E+01  0.14998164570E+03  0.12508097802E+03 0.  0.
         23    2    1    2    0    0 -0.82653576632E+02  0.39427466436E+01 -0.72572195434E+01  0.12222858447E+03  0.89666050686E+02 0.  0.
          5    1    3    3  502    0  0.10753978154E+03 -0.23349998909E+02  0.19551797968E+02  0.11184709324E+03  0.41800000000E+01 0.  1.
         -5    1    3    3    0  502 -0.24886204910E+02  0.19407252266E+02 -0.20995405581E+02  0.38134552453E+02  0.41800000000E+01 0.  1.
        -11    1    4    4    0    0 -0.25176449576E+02 -0.87423443783E+00 -0.46208672429E+02  0.52629452845E+02  0.00000000000E+00 0. -1.
         11    1    4    4    0    0 -0.57477127056E+02  0.48169810814E+01  0.38951452886E+02  0.69599131627E+02  0.00000000000E+00 0.  1.
</event>
<event>
 8    1  0.6787197E-009  0.1577918E+03  0.7561462E-02  0.1191213E+00
         -2   -1    0    0    0  501 -0.00000000000E+00  0.00000000000E+00  0.46364515126E+02  0.46364515126E+02  0.00000000000E+00 0.  1.
          2   -1    0    0  501    0  0.00000000000E+00 -0.00000000000E+00 -0.58487627707E+03  0.58487627707E+03  0.00000000000E+00 0. -1.
         25    2    1    2    0    0 -0.11488703082E+03  0.46921007646E+02 -0.30018512152E+03  0.34807926595E+03  0.12508979731E+03 0.  0.
         23    2    1    2    0    0  0.11488703082E+03 -0.46921007646E+02 -0.23832664042E+03  0.28316152624E+03  0.89332253993E+02 0.  0.
          5    1    3    3  502    0 -0.31124715886E+02 -0.33898504680E+02 -0.33515553279E+02  0.57084334717E+02  0.41800000000E+01 0. -1.
         -5    1    3    3    0  502 -0.83762314929E+02  0.80819512326E+02 -0.26666956825E+03  0.29099493123E+03  0.41800000000E+01 0. -1.
        -11    1    4    4    0    0  0.79678789276E+02  0.15561211559E+02 -0.12764393116E+03  0.15127403587E+03  0.00000000000E+00 0. -1.
         11    1    4    4    0    0  0.35208241540E+02 -0.62482219205E+02 -0.11068270926E+03  0.13188749038E+03  0.00000000000E+00 0.  1.
</event>
<event>
 8    1  0.6787197E-009  0.1618213E+03  0.7561462E-02  0.1186656E+00
          1   -1    0    0  501    0  0.00000000000E+00  0.00000000000E+00  0.10286558810E+03  0.10286558810E+03  0.00000000000E+00 0. -1.
         -1   -1    0    0    0  501 -0.00000000000E+00 -0.00000000000E+00 -0.40878340312E+03  0.40878340312E+03  0.00000000000E+00 0.  1.
         25    2    1    2    0    0  0.11373144671E+03 -0.87877037433E+02 -0.38040860475E+02  0.19429753525E+03  0.12508880630E+03 0.  0.
         23    2    1    2    0    0 -0.11373144671E+03  0.87877037433E+02 -0.26787695455E+03  0.31735145596E+03  0.91086048026E+02 0.  0.
          5    1    3    3  502    0  0.93135936051E+02 -0.97157090513E+02 -0.72463831347E+02  0.15291266159E+03  0.41800000000E+01 0.  1.
         -5    1    3    3    0  502  0.20595510659E+02  0.92800530800E+01  0.34422970872E+02  0.41384873663E+02  0.41800000000E+01 0.  1.
        -11    1    4    4    0    0 -0.25488708576E+02  0.71972357387E+02 -0.89026972986E+02  0.11728382843E+03  0.00000000000E+00 0. -1.
         11    1    4    4    0    0 -0.88242738134E+02  0.15904680046E+02 -0.17884998156E+03  0.20006762753E+03  0.00000000000E+00 0.  1.
</event>
<event>
 8    1  0.6787197E-009  0.9538539E+02  0.7561462E-02  0.1290310E+00
         -3   -1    0    0    0  501 -0.00000000000E+00  0.00000000000E+00  0.10229404750E+03  0.10229404750E+03  0.00000000000E+00 0.  1.
          3   -1    0    0  501    0  0.00000000000E+00 -0.00000000000E+00 -0.14095031470E+03  0.14095031470E+03  0.00000000000E+00 0. -1.
         25    2    1    2    0    0 -0.37340488115E+00 -0.39458665286E+02  0.91700539136E+01  0.13146742097E+03  0.12506984925E+03 0.  0.
         23    2    1    2    0    0  0.37340488115E+00  0.39458665286E+02 -0.47826321116E+02  0.11177694123E+03  0.93003235975E+02 0.  0.
          5    1    3    3  502    0  0.60608938352E+02 -0.12872403708E+02  0.16909667923E+02  0.64362655746E+02  0.41800000000E+01 0. -1.
         -5    1    3    3    0  502 -0.60982343233E+02 -0.26586261578E+02 -0.77396140092E+01  0.67104765225E+02  0.41800000000E+01 0. -1.
        -11    1    4    4    0    0  0.65561100289E+01 -0.10115327654E+02 -0.59304584162E+02  0.60517238328E+02  0.00000000000E+00 0. -1.
         11    1    4    4    0    0 -0.61827051477E+01  0.49573992940E+02  0.11478263046E+02  0.51259702902E+02  0.00000000000E+00 0.  1.
</event>
<event>
 8    1  0.6787197E-009  0.1595727E+03  0.7561462E-02  0.1189180E+00
         -2   -1    0    0    0  501 -0.00000000000E+00  0.00000000000E+00  0.16443933178E+03  0.16443933178E+03  0.00000000000E+00 0.  1.
          2   -1    0    0  501    0  0.00000000000E+00 -0.00000000000E+00 -0.17349994069E+03  0.17349994069E+03  0.00000000000E+00 0. -1.
         25    2    1    2    0    0  0.11897638979E+03  0.32151805491E+02  0.29733919816E+02  0.17811133916E+03  0.12510165157E+03 0.  0.
         23    2    1    2    0    0 -0.11897638979E+03 -0.32151805491E+02 -0.38794528724E+02  0.15982793331E+03  0.94078865232E+02 0.  0.
          5    1    3    3  502    0  0.49790286041E+02 -0.41861155081E+02  0.39538428402E+02  0.76237711201E+02  0.41800000000E+01 0. -1.
         -5    1    3    3    0  502  0.69186103745E+02  0.74012960571E+02 -0.98045085865E+01  0.10187362795E+03  0.41800000000E+01 0. -1.
        -11    1    4    4    0    0 -0.76230089021E+02 -0.63774519672E+02 -0.11478207932E+02  0.10004981304E+03  0.00000000000E+00 0.  1.
         11    1    4    4    0    0 -0.42746300764E+02  0.31622714181E+02 -0.27316320793E+02  0.59778120269E+02  0.00000000000E+00 0. -1.
</event>
<event>
 8    1  0.6787197E-009  0.1445265E+03  0.7561462E-02  0.1207365E+00
         -1   -1    0    0    0  501 -0.00000000000E+00  0.00000000000E+00  0.21594055903E+02  0.21594055903E+02  0.00000000000E+00 0.  1.
          1   -1    0    0  501    0  0.00000000000E+00 -0.00000000000E+00 -0.15136125959E+04  0.15136125959E+04  0.00000000000E+00 0. -1.
         25    2    1    2    0    0  0.13744863044E+03 -0.15720612210E+02 -0.95744276492E+03  0.97543974563E+03  0.12508711206E+03 0.  0.
         23    2    1    2    0    0 -0.13744863044E+03  0.15720612210E+02 -0.53457577511E+03  0.55976690620E+03  0.91806678886E+02 0.  0.
          5    1    3    3  502    0  0.77860946250E+01 -0.18955041166E+02 -0.19604387039E+02  0.28665680636E+02  0.41800000000E+01 0.  1.
         -5    1    3    3    0  502  0.12966253582E+03  0.32344289566E+01 -0.93783837788E+03  0.94677406499E+03  0.41800000000E+01 0.  1.
        -11    1    4    4    0    0 -0.39414088431E+02  0.33285165280E+01 -0.43278553377E+02  0.58630901166E+02  0.00000000000E+00 0.  1.
         11    1    4    4    0    0 -0.98034542010E+02  0.12392095682E+02 -0.49129722173E+03  0.50113600503E+03  0.00000000000E+00 0. -1.
</event>
<event>
 8    1  0.6787197E-009  0.1728124E+03  0.7561462E-02  0.1174946E+00
         -1   -1    0    0    0  501 -0.00000000000E+00  0.00000000000E+00  0.25987731348E+02  0.25987731348E+02  0.00000000000E+00 0.  1.
          1   -1    0    0  501    0  0.00000000000E+00 -0.00000000000E+00 -0.14038812961E+04  0.14038812961E+04  0.00000000000E+00 0. -1.
         25    2    1    2    0    0 -0.71387329988E+01  0.14051902741E+03 -0.45417794230E+03  0.49165201802E+03  0.12509014743E+03 0.  0.
         23    2    1    2    0    0  0.71387329988E+01 -0.14051902741E+03 -0.92371562246E+03  0.93821700943E+03  0.84876657788E+02 0.  0.
          5    1    3    3  502    0 -0.56532271057E+02  0.39570904585E+02 -0.23979848130E+03  0.24956469741E+03  0.41800000000E+01 0.  1.
         -5    1    3    3    0  502  0.49393538058E+02  0.10094812282E+03 -0.21437946100E+03  0.24208732061E+03  0.41800000000E+01 0.  1.
        -11    1    4    4    0    0  0.14493119799E+02  0.71623555081E+01 -0.75737170737E+02  0.77443326951E+02  0.00000000000E+00 0.  1.
         11    1    4    4    0    0 -0.73543867997E+01 -0.14768138291E+03 -0.84797845172E+03  0.86077368248E+03  0.00000000000E+00 0. -1.
</event>
<event>
 8    1  0.6787197E-009  0.1366038E+03  0.7561462E-02  0.1217973E+00
         -2   -1    0    0    0  501 -0.00000000000E+00  0.00000000000E+00  0.36708991193E+03  0.36708991193E+03  0.00000000000E+00 0.  1.
          2   -1    0    0  501    0  0.00000000000E+00 -0.00000000000E+00 -0.52881442231E+02  0.52881442231E+02  0.00000000000E+00 0. -1.
         25    2    1    2    0    0  0.40943242492E+02 -0.73084430352E+02  0.15929610377E+03  0.21918065394E+03  0.12508887769E+03 0.  0.
         23    2    1    2    0    0 -0.40943242492E+02  0.73084430352E+02  0.15491236593E+03  0.20079070022E+03  0.96443668068E+02 0.  0.
          5    1    3    3  502    0  0.44420271513E+02 -0.10499800306E+03  0.10039086691E+03  0.15196558731E+03  0.41800000000E+01 0. -1.
         -5    1    3    3    0  502 -0.34770290205E+01  0.31913572703E+02  0.58905236856E+02  0.67215066634E+02  0.41800000000E+01 0. -1.
        -11    1    4    4    0    0 -0.26450949715E+02 -0.19611373510E+02  0.29822269158E+02  0.44425515749E+02  0.00000000000E+00 0. -1.
         11    1    4    4    0    0 -0.14492292776E+02  0.92695803863E+02  0.12509009677E+03  0.15636518447E+03  0.00000000000E+00 0.  1.
</event>
<event>
 8    1  0.6787197E-009  0.9955372E+02  0.7561462E-02  0.1281237E+00
          2   -1    0    0  501    0  0.00000000000E+00  0.00000000000E+00  0.15813034477E+02  0.15813034477E+02  0.00000000000E+00 0. -1.
         -2   -1    0    0    0  501 -0.00000000000E+00 -0.00000000000E+00 -0.90082087508E+03  0.90082087508E+03  0.00000000000E+00 0.  1.
         25    2    1    2    0    0 -0.44360139231E+02 -0.21049014967E+02 -0.44295151357E+03  0.46288626603E+03  0.12508704541E+03 0.  0.
         23    2    1    2    0    0  0.44360139231E+02  0.21049014967E+02 -0.44205632704E+03  0.45374764352E+03  0.89790003586E+02 0.  0.
          5    1    3    3  502    0  0.27162032539E+02 -0.10027286961E+02 -0.31068476860E+03  0.31205900136E+03  0.41800000000E+01 0.  1.
         -5    1    3    3    0  502 -0.71522171770E+02 -0.11021728007E+02 -0.13226674497E+03  0.15082726467E+03  0.41800000000E+01 0.  1.
        -11    1    4    4    0    0  0.23880239539E+02  0.53730491837E+02 -0.33107495874E+03  0.33625564664E+03  0.00000000000E+00 0. -1.
         11    1    4    4    0    0  0.20479899692E+02 -0.32681476870E+02 -0.11098136830E+03  0.11749199688E+03  0.00000000000E+00 0.  1.
</event>
<event>
 8    1  0.6787197E-009  0.3781296E+03  0.7561462E-02  0.1051627E+00
         -1   -1    0    0    0  501 -0.00000000000E+00  0.00000000000E+00  0.99838505429E+03  0.99838505429E+03  0.00000000000E+00 0.  1.
          1   -1    0    0  501    0  0.00000000000E+00 -0.00000000000E+00 -0.15649282611E+03  0.15649282611E+03  0.00000000000E+00 0. -1.
         25    2    1    2    0    0 -0.57893515562E+01  0.37409762238E+03  0.52200493319E+03  0.65430831728E+03  0.12509067164E+03 0.  0.
         23    2    1    2    0    0  0.57893515562E+01 -0.37409762238E+03  0.31988729499E+03  0.50056956312E+03  0.90881562311E+02 0.  0.
          5    1    3    3  502    0 -0.28574686257E+02  0.32488981200E+03  0.49694291517E+03  0.59442378484E+03  0.41800000000E+01 0.  1.
         -5    1    3    3    0  502  0.22785334701E+02  0.49207810374E+02  0.25062018016E+02  0.59884532446E+02  0.41800000000E+01 0.  1.
        -11    1    4    4    0    0 -0.68572284963E+01 -0.32259340173E+03  0.23016458469E+03  0.39634487567E+03  0.00000000000E+00 0. -1.
         11    1    4    4    0    0  0.12646580052E+02 -0.51504220647E+02  0.89722710297E+02  0.10422468745E+03  0.00000000000E+00 0.  1.
</event>
<event>
 8    1  0.6787197E-009  0.1110484E+03  0.7561462E-02  0.1258641E+00
          2   -1    0    0  501    0  0.00000000000E+00  0.00000000000E+00  0.37942235853E+03  0.37942235853E+03  0.00000000000E+00 0.  1.
         -2   -1    0    0    0  501 -0.00000000000E+00 -0.00000000000E+00 -0.34986558862E+02  0.34986558862E+02  0.00000000000E+00 0. -1.
         25    2    1    2    0    0 -0.26593753930E+02  0.33417664376E+02  0.21746479433E+03  0.25448586349E+03  0.12509256533E+03 0.  0.
         23    2    1    2    0    0  0.26593753930E+02 -0.33417664376E+02  0.12697100534E+03  0.15992305390E+03  0.87348605791E+02 0.  0.
          5    1    3    3  502    0 -0.58678183301E+02  0.60723261486E+02  0.10826049786E+03  0.13736175406E+03  0.41800000000E+01 0.  1.
         -5    1    3    3    0  502  0.32084429370E+02 -0.27305597111E+02  0.10920429647E+03  0.11712410943E+03  0.41800000000E+01 0.  1.
        -11    1    4    4    0    0 -0.14771274857E+02 -0.48872378042E+02  0.51735507019E+02  0.72686054941E+02  0.00000000000E+00 0. -1.
         11    1    4    4    0    0  0.41365028788E+02  0.15454713667E+02  0.75235498317E+02  0.87236998964E+02  0.00000000000E+00 0.  1.
</event>
<event>
 8    1  0.6787197E-009  0.8218035E+02  0.7561462E-02  0.1322975E+00
          1   -1    0    0  501    0  0.00000000000E+00  0.00000000000E+00  0.56935060195E+02  0.56935060195E+02  0.00000000000E+00 0. -1.
         -1   -1    0    0    0  501 -0.00000000000E+00 -0.00000000000E+00 -0.21510970059E+03  0.21510970059E+03  0.00000000000E+00 0.  1.
         25    2    1    2    0    0 -0.18927293763E+02  0.59011971430E+01 -0.77499890228E+02  0.14848108885E+03  0.12508930483E+03 0.  0.
         23    2    1    2    0    0  0.18927293763E+02 -0.59011971430E+01 -0.80674750167E+02  0.12356367194E+03  0.91468569091E+02 0.  0.
          5    1    3    3  502    0  0.49050814903E+01  0.63021677278E+02 -0.49620949764E+02  0.80470508180E+02  0.41800000000E+01 0.  1.
         -5    1    3    3    0  502 -0.23832375254E+02 -0.57120480135E+02 -0.27878940464E+02  0.68010580665E+02  0.41800000000E+01 0.  1.
        -11    1    4    4    0    0  0.10804386551E+02 -0.19984706465E+02 -0.97532448571E+02  0.10014340610E+03  0.00000000000E+00 0.  1.
         11    1    4    4    0    0  0.81229072128E+01  0.14083509322E+02  0.16857698404E+02  0.23420265838E+02  0.00000000000E+00 0. -1.
</event>
<event>
 8    1  0.6787197E-009  0.1033320E+03  0.7561462E-02  0.1273441E+00
          1   -1    0    0  501    0  0.00000000000E+00  0.00000000000E+00  0.13090407874E+04  0.13090407874E+04  0.00000000000E+00 0. -1.
         -1   -1    0    0    0  501 -0.00000000000E+00 -0.00000000000E+00 -0.24222316449E+02  0.24222316449E+02  0.00000000000E+00 0.  1.
         25    2    1    2    0    0 -0.91883247111E+02 -0.11623593725E+02  0.10578990534E+04  0.10692880383E+04  0.12509541387E+03 0.  0.
         23    2    1    2    0    0  0.91883247111E+02  0.11623593725E+02  0.22691941751E+03  0.26397506554E+03  0.98044755862E+02 0.  0.
          5    1    3    3  502    0 -0.84971231201E+02 -0.30750293517E+02  0.36378607358E+03  0.37486460277E+03  0.41800000000E+01 0. -1.
         -5    1    3    3    0  502 -0.69120159096E+01  0.19126699793E+02  0.69411297984E+03  0.69442343551E+03  0.41800000000E+01 0. -1.
        -11    1    4    4    0    0  0.70141410254E+02 -0.12894275177E+01  0.22811578354E+03  0.23865936134E+03  0.00000000000E+00 0. -1.
         11    1    4    4    0    0  0.21741836856E+02  0.12913021242E+02 -0.11963660260E+01  0.25315704200E+02  0.00000000000E+00 0.  1.
</event>
<event>
 8    1  0.6787197E-009  0.2938782E+03  0.7561462E-02  0.1088342E+00
         -1   -1    0    0    0  501 -0.00000000000E+00  0.00000000000E+00  0.74292945432E+02  0.74292945432E+02  0.00000000000E+00 0.  1.
          1   -1    0    0  501    0  0.00000000000E+00 -0.00000000000E+00 -0.12769636387E+04  0.12769636387E+04  0.00000000000E+00 0. -1.
         25    2    1    2    0    0  0.81913260186E+01 -0.27286520978E+03 -0.81324570622E+03  0.86691263535E+03  0.12508564317E+03 0.  0.
         23    2    1    2    0    0 -0.81913260186E+01  0.27286520978E+03 -0.38942498707E+03  0.48434394880E+03  0.91731781018E+02 0.  0.
          5    1    3    3  502    0  0.63056770511E+02 -0.97781764349E+02 -0.29606837199E+03  0.31813736505E+03  0.41800000000E+01 0.  1.
         -5    1    3    3    0  502 -0.54865444492E+02 -0.17508344543E+03 -0.51717733422E+03  0.54877527031E+03  0.41800000000E+01 0.  1.
        -11    1    4    4    0    0  0.41664523612E+02  0.12452683800E+03 -0.16908219520E+03  0.21408328904E+03  0.00000000000E+00 0. -1.
         11    1    4    4    0    0 -0.49855849630E+02  0.14833837178E+03 -0.22034279187E+03  0.27026065976E+03  0.00000000000E+00 0.  1.
</event>
<event>
 8    1  0.6787197E-009  0.9096444E+02  0.7561462E-02  0.1300533E+00
         -1   -1    0    0    0  501 -0.00000000000E+00  0.00000000000E+00  0.11803521202E+03  0.11803521202E+03  0.00000000000E+00 0.  1.
          1   -1    0    0  501    0  0.00000000000E+00 -0.00000000000E+00 -0.15865764697E+03  0.15865764697E+03  0.00000000000E+00 0. -1.
         25    2    1    2    0    0  0.24659645230E+02 -0.31088483057E+01 -0.10167543330E+03  0.16310457634E+03  0.12508975197E+03 0.  0.
         23    2    1    2    0    0 -0.24659645230E+02  0.31088483057E+01  0.61052998346E+02  0.11358828264E+03  0.92504412358E+02 0.  0.
          5    1    3    3  502    0 -0.45562649793E+02 -0.91328686947E+00 -0.88448255183E+01  0.46610004157E+02  0.41800000000E+01 0. -1.
         -5    1    3    3    0  502  0.70222295022E+02 -0.21955614363E+01 -0.92830607777E+02  0.11649457218E+03  0.41800000000E+01 0. -1.
        -11    1    4    4    0    0 -0.26618029018E+02  0.29262693513E+02 -0.74347770321E+01  0.40250473413E+02  0.00000000000E+00 0. -1.
         11    1    4    4    0    0  0.19583837887E+01 -0.26153845208E+02  0.68487775378E+02  0.73337809228E+02  0.00000000000E+00 0.  1.
</event>
<event>
 8    1  0.6787197E-009  0.1293126E+03  0.7561462E-02  0.1228479E+00
         -2   -1    0    0    0  501 -0.00000000000E+00  0.00000000000E+00  0.19324416024E+02  0.19324416024E+02  0.00000000000E+00 0.  1.
          2   -1    0    0  501    0  0.00000000000E+00 -0.00000000000E+00 -0.96049063425E+03  0.96049063425E+03  0.00000000000E+00 0. -1.
         25    2    1    2    0    0  0.41963453558E+02 -0.67615514022E+02 -0.43734406207E+03  0.46179034710E+03  0.12509079452E+03 0.  0.
         23    2    1    2    0    0 -0.41963453558E+02  0.67615514022E+02 -0.50382215615E+03  0.51802470317E+03  0.90443567474E+02 0.  0.
          5    1    3    3  502    0 -0.46305644890E+00 -0.96394948688E+02 -0.27019206019E+03  0.28690315847E+03  0.41800000000E+01 0.  1.
         -5    1    3    3    0  502  0.42426510006E+02  0.28779434667E+02 -0.16715200189E+03  0.17488718863E+03  0.41800000000E+01 0.  1.
        -11    1    4    4    0    0  0.22794026194E+02  0.15302905032E+02 -0.54155338829E+02  0.60716943733E+02  0.00000000000E+00 0.  1.
         11    1    4    4    0    0 -0.64757479752E+02  0.52312608990E+02 -0.44966681732E+03  0.45730775944E+03  0.00000000000E+00 0. -1.
</event>
<event>
 8    1  0.6787197E-009  0.2281809E+03  0.7561462E-02  0.1127927E+00
         -1   -1    0    0    0  501 -0.00000000000E+00  0.00000000000E+00  0.24977706851E+03  0.24977706851E+03  0.00000000000E+00 0.  1.
          1   -1    0    0  501    0  0.00000000000E+00 -0.00000000000E+00 -0.32581612630E+03  0.32581612630E+03  0.00000000000E+00 0. -1.
         25    2    1    2    0    0  0.90690152536E+01 -0.22773281488E+03  0.94566905526E+02  0.27664879463E+03  0.12508866431E+03 0.  0.
         23    2    1    2    0    0 -0.90690152536E+01  0.22773281488E+03 -0.17060596331E+03  0.29894440018E+03  0.91196916992E+02 0.  0.
          5    1    3    3  502    0 -0.12456216762E+01 -0.26344840618E+02  0.68194912374E+02  0.73236744017E+02  0.41800000000E+01 0.  1.
         -5    1    3    3    0  502  0.10314636930E+02 -0.20138797427E+03  0.26371993152E+02  0.20341205062E+03  0.41800000000E+01 0.  1.
        -11    1    4    4    0    0 -0.50228865498E+01  0.70760963262E+02 -0.10945595565E+03  0.13043369786E+03  0.00000000000E+00 0. -1.
         11    1    4    4    0    0 -0.40461287039E+01  0.15697185162E+03 -0.61150007669E+02  0.16851070232E+03  0.00000000000E+00 0.  1.
</event>
<event>
 8    1  0.6787197E-009  0.9877610E+02  0.7561462E-02  0.1282891E+00
         -2   -1    0    0    0  501 -0.00000000000E+00  0.00000000000E+00  0.12564048651E+03  0.12564048651E+03  0.00000000000E+00 0.  1.
          2   -1    0    0  501    0  0.00000000000E+00 -0.00000000000E+00 -0.14643586596E+03  0.14643586596E+03  0.00000000000E+00 0. -1.
         25    2    1    2    0    0 -0.65029502247E+02 -0.18263439402E+02  0.34230022453E+02  0.14622318474E+03  0.12508851241E+03 0.  0.
         23    2    1    2    0    0  0.65029502247E+02  0.18263439402E+02 -0.55025401906E+02  0.12585316773E+03  0.90823100539E+02 0.  0.
          5    1    3    3  502    0 -0.82113160766E+02  0.12297092179E+02  0.60021596642E+02  0.10253708651E+03  0.41800000000E+01 0. -1.
         -5    1    3    3    0  502  0.17083658519E+02 -0.30560531581E+02 -0.25791574189E+02  0.43686098225E+02  0.41800000000E+01 0. -1.
        -11    1    4    4    0    0  0.48225433577E+02 -0.70876153331E+01  0.13755892174E+02  0.50647322775E+02  0.00000000000E+00 0.  1.
         11    1    4    4    0    0  0.16804068671E+02  0.25351054736E+02 -0.68781294080E+02  0.75205844955E+02  0.00000000000E+00 0. -1.
</event>
<event>
 8    1  0.6787197E-009  0.9793790E+02  0.7561462E-02  0.1284693E+00
         -1   -1    0    0    0  501 -0.00000000000E+00  0.00000000000E+00  0.14238428375E+02  0.14238428375E+02  0.00000000000E+00 0.  1.
          1   -1    0    0  501    0  0.00000000000E+00 -0.00000000000E+00 -0.10575269831E+04  0.10575269831E+04  0.00000000000E+00 0. -1.
         25    2    1    2    0    0 -0.74010779668E+01 -0.54530595290E+02 -0.51655761408E+03  0.53432882168E+03  0.12508860553E+03 0.  0.
         23    2    1    2    0    0  0.74010779668E+01  0.54530595290E+02 -0.52673094062E+03  0.53743658978E+03  0.91456232396E+02 0.  0.
          5    1    3    3  502    0 -0.37202171480E+02 -0.17219804726E+02 -0.45224256526E+03  0.45411599121E+03  0.41800000000E+01 0. -1.
         -5    1    3    3    0  502  0.29801093513E+02 -0.37310790564E+02 -0.64315048820E+02  0.80212830468E+02  0.41800000000E+01 0. -1.
        -11    1    4    4    0    0  0.20119746518E+02 -0.21617709093E+02 -0.14463026227E+03  0.14761450576E+03  0.00000000000E+00 0. -1.
         11    1    4    4    0    0 -0.12718668551E+02  0.76148304382E+02 -0.38210067835E+03  0.38982208402E+03  0.00000000000E+00 0.  1.
</event>
<event>
 8    1  0.6787197E-009  0.8669688E+02  0.7561462E-02  0.1311054E+00
         -1   -1    0    0    0  501 -0.00000000000E+00  0.00000000000E+00  0.37712585472E+02  0.37712585472E+02  0.00000000000E+00 0.  1.
          1   -1    0    0  501    0  0.00000000000E+00 -0.00000000000E+00 -0.42723257463E+03  0.42723257463E+03  0.00000000000E+00 0. -1.
         25    2    1    2    0    0  0.31893039629E+01 -0.16488847288E+02 -0.35492364141E+03  0.37669585543E+03  0.12508765936E+03 0.  0.
         23    2    1    2    0    0 -0.31893039629E+01  0.16488847288E+02 -0.34596347749E+02  0.88249304668E+02  0.79429080016E+02 0.  0.
          5    1    3    3  502    0 -0.26800178097E+02  0.46078312095E+02 -0.11347722391E+03  0.12544326661E+03  0.41800000000E+01 0.  1.
         -5    1    3    3    0  502  0.29989482060E+02 -0.62567159382E+02 -0.24144641750E+03  0.25125258882E+03  0.41800000000E+01 0.  1.
        -11    1    4    4    0    0  0.69850358337E+01  0.31509098982E+02 -0.53225499724E+02  0.62246026902E+02  0.00000000000E+00 0. -1.
         11    1    4    4    0    0 -0.10174339797E+02 -0.15020251695E+02  0.18629151975E+02  0.26003277766E+02  0.00000000000E+00 0.  1.
</event>
<event>
 8    1  0.6787197E-009  0.1650896E+03  0.7561462E-02  0.1183068E+00
         -2   -1    0    0    0  501 -0.00000000000E+00  0.00000000000E+00  0.92909711684E+02  0.92909711684E+02  0.00000000000E+00 0. -1.
          2   -1    0    0  501    0  0.00000000000E+00 -0.00000000000E+00 -0.36774298652E+03  0.36774298652E+03  0.00000000000E+00 0.  1.
         25    2    1    2    0    0 -0.45447412446E+02  0.12497377161E+03 -0.22947165661E+03  0.29323794459E+03  0.12508932837E+03 0.  0.
         23    2    1    2    0    0  0.45447412446E+02 -0.12497377161E+03 -0.45361618225E+02  0.16741475361E+03  0.91028085948E+02 0.  0.
          5    1    3    3  502    0  0.40468461469E+02  0.42429441967E+02 -0.46947602425E+02  0.75229672954E+02  0.41800000000E+01 0. -1.
         -5    1    3    3    0  502 -0.85915873915E+02  0.82544329639E+02 -0.18252405418E+03  0.21800827164E+03  0.41800000000E+01 0. -1.
        -11    1    4    4    0    0 -0.20610199733E+02 -0.25829221884E+02 -0.34520687005E+02  0.47787099384E+02  0.00000000000E+00 0.  1.
         11    1    4    4    0    0  0.66057612180E+02 -0.99144549721E+02 -0.10840931220E+02  0.11962765423E+03  0.00000000000E+00 0. -1.
</event>
<event>
 8    1  0.6787197E-009  0.1358490E+03  0.7561462E-02  0.1219026E+00
          2   -1    0    0  501    0  0.00000000000E+00  0.00000000000E+00  0.18435770293E+03  0.18435770293E+03  0.00000000000E+00 0. -1.
         -2   -1    0    0    0  501 -0.00000000000E+00 -0.00000000000E+00 -0.16199874182E+03  0.16199874182E+03  0.00000000000E+00 0.  1.
         25    2    1    2    0    0 -0.61520657012E+02 -0.11942141181E+03  0.25407697945E+02  0.18531540322E+03  0.12509989095E+03 0.  0.
         23    2    1    2    0    0  0.61520657012E+02  0.11942141181E+03 -0.30487368382E+01  0.16104104153E+03  0.88761801589E+02 0.  0.
          5    1    3    3  502    0 -0.89811118540E+01 -0.69376952050E+01  0.56076678623E+02  0.57366002739E+02  0.41800000000E+01 0. -1.
         -5    1    3    3    0  502 -0.52539545158E+02 -0.11248371661E+03 -0.30668980678E+02  0.12794940048E+03  0.41800000000E+01 0. -1.
        -11    1    4    4    0    0  0.34870900032E+02  0.49436985050E+02 -0.44820516495E+02  0.75291924260E+02  0.00000000000E+00 0.  1.
         11    1    4    4    0    0  0.26649756979E+02  0.69984426764E+02  0.41771779657E+02  0.85749117268E+02  0.00000000000E+00 0. -1.
</event>
<event>
 8    1  0.6787197E-009  0.1952259E+03  0.7561462E-02  0.1153831E+00
         -2   -1    0    0    0  501 -0.00000000000E+00  0.00000000000E+00  0.21281072428E+03  0.21281072428E+03  0.00000000000E+00 0.  1.
          2   -1    0    0  501    0  0.00000000000E+00 -0.00000000000E+00 -0.18664496326E+03  0.18664496326E+03  0.00000000000E+00 0. -1.
         25    2    1    2    0    0  0.90692387122E+02  0.13844001081E+03  0.32957374150E+02  0.21005774481E+03  0.12508925600E+03 0.  0.
         23    2    1    2    0    0 -0.90692387122E+02 -0.13844001081E+03 -0.67916131317E+01  0.18939794274E+03  0.91840671980E+02 0.  0.
          5    1    3    3  502    0  0.84111531990E+02  0.19620698794E+02 -0.13199754501E+00  0.86470870576E+02  0.41800000000E+01 0.  1.
         -5    1    3    3    0  502  0.65808551322E+01  0.11881931202E+03  0.33089371695E+02  0.12358687423E+03  0.41800000000E+01 0.  1.
        -11    1    4    4    0    0  0.10219754073E+02 -0.49026079643E+02  0.16179905651E+02  0.52628786851E+02  0.00000000000E+00 0.  1.
         11    1    4    4    0    0 -0.10091214119E+03 -0.89413931169E+02 -0.22971518783E+02  0.13676915589E+03  0.00000000000E+00 0. -1.
</event>
<event>
 8    1  0.6787197E-009  0.1296930E+03  0.7561462E-02  0.1227912E+00
          2   -1    0    0  501    0  0.00000000000E+00  0.00000000000E+00  0.13010969026E+04  0.13010969026E+04  0.00000000000E+00 0. -1.
         -2   -1    0    0    0  501 -0.00000000000E+00 -0.00000000000E+00 -0.15485829995E+02  0.15485829995E+02  0.00000000000E+00 0.  1.
         25    2    1    2    0    0  0.88407754862E+02  0.28066333076E+01  0.81722668108E+03  0.83146286798E+03  0.12508894538E+03 0.  0.
         23    2    1    2    0    0 -0.88407754862E+02 -0.28066333076E+01  0.46838439157E+03  0.48511986465E+03  0.90186121479E+02 0.  0.
          5    1    3    3  502    0 -0.79971600615E+01 -0.36459380760E+02  0.10213201622E+03  0.10881940154E+03  0.41800000000E+01 0. -1.
         -5    1    3    3    0  502  0.96404914923E+02  0.39266014068E+02  0.71509466486E+03  0.72264346644E+03  0.41800000000E+01 0. -1.
        -11    1    4    4    0    0  0.54777694175E+01 -0.21269956934E+02  0.35173979498E+02  0.41468371797E+02  0.00000000000E+00 0.  1.
         11    1    4    4    0    0 -0.93885524279E+02  0.18463323627E+02  0.43321041207E+03  0.44365149286E+03  0.00000000000E+00 0. -1.
</event>
<event>
 8    1  0.6787197E-009  0.9528578E+02  0.7561462E-02  0.1290534E+00
         -2   -1    0    0    0  501 -0.00000000000E+00  0.00000000000E+00  0.48129580507E+02  0.48129580507E+02  0.00000000000E+00 0.  1.
          2   -1    0    0  501    0  0.00000000000E+00 -0.00000000000E+00 -0.27700106583E+03  0.27700106583E+03  0.00000000000E+00 0. -1.
         25    2    1    2    0    0  0.15782766386E+02  0.24276199001E+02 -0.94387318933E+02  0.15935588441E+03  0.12508757879E+03 0.  0.
         23    2    1    2    0    0 -0.15782766386E+02 -0.24276199001E+02 -0.13448416639E+03  0.16577476193E+03  0.92503249299E+02 0.  0.
          5    1    3    3  502    0  0.49694301469E+02  0.38953228872E+02 -0.10327627080E+03  0.12112117135E+03  0.41800000000E+01 0. -1.
         -5    1    3    3    0  502 -0.33911535083E+02 -0.14677029870E+02  0.88889518666E+01  0.38234713060E+02  0.41800000000E+01 0. -1.
        -11    1    4    4    0    0 -0.48460294588E+02 -0.29906398860E+02 -0.52963977102E+02  0.77768732244E+02  0.00000000000E+00 0.  1.
         11    1    4    4    0    0  0.32677528202E+02  0.56301998586E+01 -0.81520189285E+02  0.88006029684E+02  0.00000000000E+00 0. -1.
</event>
<event>
 8    1  0.6787197E-009  0.1694420E+03  0.7561462E-02  0.1178431E+00
          2   -1    0    0  501    0  0.00000000000E+00  0.00000000000E+00  0.44397241513E+03  0.44397241513E+03  0.00000000000E+00 0. -1.
         -2   -1    0    0    0  501 -0.00000000000E+00 -0.00000000000E+00 -0.77038285957E+02  0.77038285957E+02  0.00000000000E+00 0.  1.
         25    2    1    2    0    0  0.10389669165E+03  0.94430898063E+02  0.26252524356E+03  0.32292209476E+03  0.12508980268E+03 0.  0.
         23    2    1    2    0    0 -0.10389669165E+03 -0.94430898063E+02  0.10440888561E+03  0.19808860632E+03  0.92877142054E+02 0.  0.
          5    1    3    3  502    0  0.10074702781E+03  0.28575824149E+02  0.89872029455E+02  0.13806156387E+03  0.41800000000E+01 0.  1.
         -5    1    3    3    0  502  0.31496638339E+01  0.65855073915E+02  0.17265321410E+03  0.18486053089E+03  0.41800000000E+01 0.  1.
        -11    1    4    4    0    0 -0.25844680414E+02 -0.85659321518E+02  0.49477590345E+02  0.10224235333E+03  0.00000000000E+00 0.  1.
         11    1    4    4    0    0 -0.78052011233E+02 -0.87715765450E+01  0.54931295269E+02  0.95846252992E+02  0.00000000000E+00 0. -1.
</event>
<event>
 8    1  0.6787197E-009  0.1118235E+03  0.7561462E-02  0.1257230E+00
         -2   -1    0    0    0  501 -0.00000000000E+00  0.00000000000E+00  0.21371245508E+02  0.21371245508E+02  0.00000000000E+00 0. -1.
          2   -1    0    0  501    0  0.00000000000E+00 -0.00000000000E+00 -0.74394239211E+03  0.74394239211E+03  0.00000000000E+00 0.  1.
         25    2    1    2    0    0  0.31608818141E+02  0.54385605536E+02 -0.35814017068E+03  0.38453699087E+03  0.12508958396E+03 0.  0.
         23    2    1    2    0    0 -0.31608818141E+02 -0.54385605536E+02 -0.36443097592E+03  0.38077664675E+03  0.90686311139E+02 0.  0.
          5    1    3    3  502    0  0.41071754609E+02 -0.14910019390E+02 -0.42087190607E+02  0.60811197309E+02  0.41800000000E+01 0. -1.
         -5    1    3    3    0  502 -0.94629364687E+01  0.69295624926E+02 -0.31605298007E+03  0.32372579356E+03  0.41800000000E+01 0. -1.
        -11    1    4    4    0    0 -0.17716430906E+00 -0.73105418035E+02 -0.22226323613E+03  0.23397730588E+03  0.00000000000E+00 0. -1.
         11    1    4    4    0    0 -0.31431653832E+02  0.18719812499E+02 -0.14216773979E+03  0.14679934087E+03  0.00000000000E+00 0.  1.
</event>
<event>
 8    1  0.6787197E-009  0.1333943E+03  0.7561462E-02  0.1222504E+00
          2   -1    0    0  501    0  0.00000000000E+00  0.00000000000E+00  0.61981385276E+02  0.61981385276E+02  0.00000000000E+00 0.  1.
         -2   -1    0    0    0  501 -0.00000000000E+00 -0.00000000000E+00 -0.34473651695E+03  0.34473651695E+03  0.00000000000E+00 0. -1.
         25    2    1    2    0    0 -0.85559614074E+02 -0.39970091174E+02 -0.12307753986E+03  0.19928234240E+03  0.12508922985E+03 0.  0.
         23    2    1    2    0    0  0.85559614074E+02  0.39970091174E+02 -0.15967759181E+03  0.20743555982E+03  0.92814451483E+02 0.  0.
          5    1    3    3  502    0 -0.99708174269E+02 -0.84711573559E+01 -0.12970594757E+03  0.16387368843E+03  0.41800000000E+01 0. -1.
         -5    1    3    3    0  502  0.14148560195E+02 -0.31498933818E+02  0.66284077126E+01  0.35408653971E+02  0.41800000000E+01 0. -1.
        -11    1    4    4    0    0  0.83300109830E+02 -0.81320706593E+01 -0.92004427239E+02  0.12437786581E+03  0.00000000000E+00 0. -1.
         11    1    4    4    0    0  0.22595042442E+01  0.48102161833E+02 -0.67673164568E+02  0.83057694015E+02  0.00000000000E+00 0.  1.
</event>
<event>
 8    1  0.6787197E-009  0.9390625E+02  0.7561462E-02  0.1293659E+00
          1   -1    0    0  501    0  0.00000000000E+00  0.00000000000E+00  0.51228017153E+02  0.51228017153E+02  0.00000000000E+00 0. -1.
         -1   -1    0    0    0  501 -0.00000000000E+00 -0.00000000000E+00 -0.27280122432E+03  0.27280122432E+03  0.00000000000E+00 0.  1.
         25    2    1    2    0    0 -0.42809361617E+02 -0.51040946443E+01 -0.96805642626E+02  0.16394299650E+03  0.12508908998E+03 0.  0.
         23    2    1    2    0    0  0.42809361617E+02  0.51040946443E+01 -0.12476756454E+03  0.16008624497E+03  0.90564714124E+02 0.  0.
          5    1    3    3  502    0 -0.24533442876E+02 -0.57031803348E+02 -0.12971328656E+02  0.63562915128E+02  0.41800000000E+01 0.  1.
         -5    1    3    3    0  502 -0.18275918741E+02  0.51927708704E+02 -0.83834313970E+02  0.10038008137E+03  0.41800000000E+01 0.  1.
        -11    1    4    4    0    0  0.55332481284E+02  0.11193997708E+02 -0.13259444904E+03  0.14411202929E+03  0.00000000000E+00 0.  1.
         11    1    4    4    0    0 -0.12523119668E+02 -0.60899030639E+01  0.78268845047E+01  0.15974215680E+02  0.00000000000E+00 0. -1.
</event>
<event>
 8    1  0.6787197E-009  0.1186810E+03  0.7561462E-02  0.1245289E+00
         -2   -1    0    0    0  501 -0.00000000000E+00  0.00000000000E+00  0.36786752663E+02  0.36786752663E+02  0.00000000000E+00 0.  1.
          2   -1    0    0  501    0  0.00000000000E+00 -0.00000000000E+00 -0.50452527345E+03  0.50452527345E+03  0.00000000000E+00 0. -1.
         25    2    1    2    0    0 -0.67803526323E+01 -0.80674239887E+02 -0.25552482659E+03  0.29579613155E+03  0.12509239893E+03 0.  0.
         23    2    1    2    0    0  0.67803526323E+01  0.80674239887E+02 -0.21221369420E+03  0.24551589457E+03  0.93215322330E+02 0.  0.
          5    1    3    3  502    0 -0.57296937937E+02 -0.17907559909E+02 -0.15892949046E+03  0.16994021048E+03  0.41800000000E+01 0.  1.
         -5    1    3    3    0  502  0.50516585304E+02 -0.62766679978E+02 -0.96595336126E+02  0.12585592107E+03  0.41800000000E+01 0.  1.
        -11    1    4    4    0    0 -0.23089913090E+02  0.34454219655E+02 -0.17310093817E+03  0.17800048352E+03  0.00000000000E+00 0. -1.
         11    1    4    4    0    0  0.29870265722E+02  0.46220020232E+02 -0.39112756027E+02  0.67515411045E+02  0.00000000000E+00 0.  1.
</event>
<event>
 8    1  0.6787197E-009  0.1295702E+03  0.7561462E-02  0.1228095E+00
         -1   -1    0    0    0  501 -0.00000000000E+00  0.00000000000E+00  0.16924139280E+03  0.16924139280E+03  0.00000000000E+00 0.  1.
          1   -1    0    0  501    0  0.00000000000E+00 -0.00000000000E+00 -0.13619343582E+03  0.13619343582E+03  0.00000000000E+00 0. -1.
         25    2    1    2    0    0 -0.76018171897E+02 -0.30466982919E+02 -0.49247553848E+02  0.15741452926E+03  0.12508802083E+03 0.  0.
         23    2    1    2    0    0  0.76018171897E+02  0.30466982919E+02  0.82295510827E+02  0.14802029936E+03  0.91817527817E+02 0.  0.
          5    1    3    3  502    0 -0.96769605935E+02  0.10388420213E+02 -0.53613437224E+02  0.11119419481E+03  0.41800000000E+01 0.  1.
         -5    1    3    3    0  502  0.20751434039E+02 -0.40855403132E+02  0.43658833767E+01  0.46220334458E+02  0.41800000000E+01 0.  1.
        -11    1    4    4    0    0  0.93448233367E+02  0.20634842463E+02  0.84784033919E+02  0.12785421953E+03  0.00000000000E+00 0.  1.
         11    1    4    4    0    0 -0.17430061470E+02  0.98321404561E+01 -0.24885230922E+01  0.20166079837E+02  0.00000000000E+00 0. -1.
</event>
<event>
 8    1  0.6787197E-009  0.2311100E+03  0.7561462E-02  0.1125861E+00
          1   -1    0    0  501    0  0.00000000000E+00  0.00000000000E+00  0.17189777915E+04  0.17189777915E+04  0.00000000000E+00 0. -1.
         -1   -1    0    0    0  501 -0.00000000000E+00 -0.00000000000E+00 -0.38207718873E+02  0.38207718873E+02  0.00000000000E+00 0.  1.
         25    2    1    2    0    0 -0.14183982746E+03  0.17836695203E+03  0.10370435640E+04  0.10691307321E+04  0.12509141673E+03 0.  0.
         23    2    1    2    0    0  0.14183982746E+03 -0.17836695203E+03  0.64372650867E+03  0.68805477828E+03  0.84274869993E+02 0.  0.
          5    1    3    3  502    0 -0.35716070649E+02  0.35070357375E+02  0.51528474328E+03  0.51772715471E+03  0.41800000000E+01 0. -1.
         -5    1    3    3    0  502 -0.10612375681E+03  0.14329659466E+03  0.52175882069E+03  0.55140357740E+03  0.41800000000E+01 0. -1.
        -11    1    4    4    0    0  0.84561418278E+02 -0.65160955877E+02  0.20206589917E+03  0.22853273560E+03  0.00000000000E+00 0.  1.
         11    1    4    4    0    0  0.57278409183E+02 -0.11320599616E+03  0.44166060950E+03  0.45952204268E+03  0.00000000000E+00 0. -1.
</event>
<event>
 8    1  0.6787197E-009  0.8110163E+02  0.7561462E-02  0.1325954E+00
          2   -1    0    0  501    0  0.00000000000E+00  0.00000000000E+00  0.42930135663E+03  0.42930135663E+03  0.00000000000E+00 0. -1.
         -2   -1    0    0    0  501 -0.00000000000E+00 -0.00000000000E+00 -0.35348691425E+02  0.35348691425E+02  0.00000000000E+00 0.  1.
         25    2    1    2    0    0 -0.28770344453E+02 -0.50109180842E+02  0.18416826126E+03  0.23000144449E+03  0.12507618993E+03 0.  0.
         23    2    1    2    0    0  0.28770344453E+02  0.50109180842E+02  0.20978440394E+03  0.23464860356E+03  0.87816902075E+02 0.  0.
          5    1    3    3  502    0  0.92935329700E+01 -0.54624847638E+02  0.18318869469E+03  0.19143096405E+03  0.41800000000E+01 0.  1.
         -5    1    3    3    0  502 -0.38063877423E+02  0.45156667968E+01  0.97956657098E+00  0.38570480445E+02  0.41800000000E+01 0.  1.
        -11    1    4    4    0    0 -0.63218471810E+01  0.22660676899E+02  0.37142113665E+01  0.23817375913E+02  0.00000000000E+00 0.  1.
         11    1    4    4    0    0  0.35092191634E+02  0.27448503943E+02  0.20607019258E+03  0.21083122765E+03  0.00000000000E+00 0. -1.
</event>
<event>
 8    1  0.6787197E-009  0.1185318E+03  0.7561462E-02  0.1245539E+00
         -2   -1    0    0    0  501 -0.00000000000E+00  0.00000000000E+00  0.10241684439E+03  0.10241684439E+03  0.00000000000E+00 0. -1.
          2   -1    0    0  501    0  0.00000000000E+00 -0.00000000000E+00 -0.24501391178E+03  0.24501391178E+03  0.00000000000E+00 0.  1.
         25    2    1    2    0    0  0.91401924708E+02  0.43397060295E+02 -0.13610020694E+03  0.21073576929E+03  0.12509468992E+03 0.  0.
         23    2    1    2    0    0 -0.91401924708E+02 -0.43397060295E+02 -0.64968604442E+01  0.13669498688E+03  0.91682569557E+02 0.  0.
          5    1    3    3  502    0  0.80285436344E+02  0.42989905391E+02 -0.19115582634E+02  0.93149133941E+02  0.41800000000E+01 0.  1.
         -5    1    3    3    0  502  0.11116488364E+02  0.40715490372E+00 -0.11698462431E+03  0.11758663535E+03  0.41800000000E+01 0.  1.
        -11    1    4    4    0    0  0.20738586822E+00 -0.42398281755E+02  0.10109405297E+02  0.43587353443E+02  0.00000000000E+00 0. -1.
         11    1    4    4    0    0 -0.91609310576E+02 -0.99877853972E+00 -0.16606265741E+02  0.93107633439E+02  0.00000000000E+00 0.  1.
</event>
<event>
 8    1  0.6787197E-009  0.1899531E+03  0.7561462E-02  0.1158504E+00
         -2   -1    0    0    0  501 -0.00000000000E+00  0.00000000000E+00  0.69825232846E+02  0.69825232846E+02  0.00000000000E+00 0.  1.
          2   -1    0    0  501    0  0.00000000000E+00 -0.00000000000E+00 -0.54265763518E+03  0.54265763518E+03  0.00000000000E+00 0. -1.
         25    2    1    2    0    0  0.15622950374E+03  0.29812668449E+02 -0.18891752678E+03  0.27682915707E+03  0.12509235484E+03 0.  0.
         23    2    1    2    0    0 -0.15622950374E+03 -0.29812668449E+02 -0.28391487555E+03  0.33565371096E+03  0.82214986981E+02 0.  0.
          5    1    3    3  502    0 -0.54737767080E+01 -0.28196017419E+02 -0.40106987917E+02  0.49507782313E+02  0.41800000000E+01 0. -1.
         -5    1    3    3    0  502  0.16170328044E+03  0.58008685867E+02 -0.14881053887E+03  0.22732137475E+03  0.41800000000E+01 0. -1.
        -11    1    4    4    0    0 -0.72786120479E+02 -0.55718776579E+02 -0.14420197156E+03  0.17087015538E+03  0.00000000000E+00 0.  1.
         11    1    4    4    0    0 -0.83443383256E+02  0.25906108131E+02 -0.13971290398E+03  0.16478355557E+03  0.00000000000E+00 0. -1.
</event>
<event>
 8    1  0.6787197E-009  0.1145122E+03  0.7561462E-02  0.1252435E+00
          1   -1    0    0  501    0  0.00000000000E+00  0.00000000000E+00  0.13005292003E+03  0.13005292003E+03  0.00000000000E+00 0. -1.
         -1   -1    0    0    0  501 -0.00000000000E+00 -0.00000000000E+00 -0.18111184598E+03  0.18111184598E+03  0.00000000000E+00 0.  1.
         25    2    1    2    0    0 -0.88341744893E+02  0.29823063281E+02  0.27265595428E+02  0.15838112539E+03  0.12508992442E+03 0.  0.
         23    2    1    2    0    0  0.88341744893E+02 -0.29823063281E+02 -0.78324521387E+02  0.15278364062E+03  0.92273675535E+02 0.  0.
          5    1    3    3  502    0 -0.95081271623E+02 -0.89496670954E+01 -0.19037015881E+02  0.97470124285E+02  0.41800000000E+01 0.  1.
         -5    1    3    3    0  502  0.67395267299E+01  0.38772730376E+02  0.46302611310E+02  0.60911001104E+02  0.41800000000E+01 0.  1.
        -11    1    4    4    0    0  0.26999752052E+02 -0.39759369145E+01 -0.81695404317E+02  0.86133232679E+02  0.00000000000E+00 0.  1.
         11    1    4    4    0    0  0.61341992841E+02 -0.25847126367E+02  0.33708829295E+01  0.66650407942E+02  0.00000000000E+00 0. -1.
</event>
<event>
 8    1  0.6787197E-009  0.1436718E+03  0.7561462E-02  0.1208472E+00
          2   -1    0    0  501    0  0.00000000000E+00  0.00000000000E+00  0.11423564375E+04  0.11423564375E+04  0.00000000000E+00 0. -1.
         -2   -1    0    0    0  501 -0.00000000000E+00 -0.00000000000E+00 -0.43887957414E+02  0.43887957414E+02  0.00000000000E+00 0.  1.
         25    2    1    2    0    0 -0.28925616381E+02 -0.13150382254E+03  0.94782722485E+03  0.96548140565E+03  0.12509176578E+03 0.  0.
         23    2    1    2    0    0  0.28925616381E+02  0.13150382254E+03  0.15064125523E+03  0.22076298925E+03  0.88958209409E+02 0.  0.
          5    1    3    3  502    0  0.18706042338E+02 -0.56684676933E+02  0.69394022932E+03  0.69651531418E+03  0.41800000000E+01 0. -1.
         -5    1    3    3    0  502 -0.47631658720E+02 -0.74819145609E+02  0.25388699553E+03  0.26896609147E+03  0.41800000000E+01 0. -1.
        -11    1    4    4    0    0 -0.50140911779E+01  0.52353995714E+02  0.11705183335E+03  0.12832464170E+03  0.00000000000E+00 0. -1.
         11    1    4    4    0    0  0.33939707559E+02  0.79149826827E+02  0.33589421880E+02  0.92438347552E+02  0.00000000000E+00 0.  1.
</event>
<event>
 8    1  0.6787197E-009  0.1171942E+03  0.7561462E-02  0.1247799E+00
          2   -1    0    0  501    0  0.00000000000E+00  0.00000000000E+00  0.33443999263E+03  0.33443999263E+03  0.00000000000E+00 0. -1.
         -2   -1    0    0    0  501 -0.00000000000E+00 -0.00000000000E+00 -0.56269444904E+02  0.56269444904E+02  0.00000000000E+00 0.  1.
         25    2    1    2    0    0 -0.35636919062E+01 -0.84258231090E+02  0.17128082158E+03  0.22824472541E+03  0.12508551248E+03 0.  0.
         23    2    1    2    0    0  0.35636919062E+01  0.84258231090E+02  0.10688972615E+03  0.16246471212E+03  0.88640959616E+02 0.  0.
          5    1    3    3  502    0  0.21323012308E+02  0.32651377178E+01  0.12339480301E+03  0.12533587590E+03  0.41800000000E+01 0.  1.
         -5    1    3    3    0  502 -0.24886704214E+02 -0.87523368808E+02  0.47886018569E+02  0.10290884952E+03  0.41800000000E+01 0.  1.
        -11    1    4    4    0    0  0.30044371283E+02 -0.29480528891E+01  0.36130740362E+02  0.47082753326E+02  0.00000000000E+00 0. -1.
         11    1    4    4    0    0 -0.26480679376E+02  0.87206283979E+02  0.70758985790E+02  0.11538195880E+03  0.00000000000E+00 0.  1.
</event>
<event>
 8    1  0.6787197E-009  0.1021927E+03  0.7561462E-02  0.1275751E+00
          1   -1    0    0  501    0  0.00000000000E+00  0.00000000000E+00  0.12387161524E+03  0.12387161524E+03  0.00000000000E+00 0. -1.
         -1   -1    0    0    0  501 -0.00000000000E+00 -0.00000000000E+00 -0.19538494368E+03  0.19538494368E+03  0.00000000000E+00 0.  1.
         25    2    1    2    0    0 -0.57604225024E+02 -0.44790963686E+02 -0.12529475874E+03  0.19149620563E+03  0.12509013963E+03 0.  0.
         23    2    1    2    0    0  0.57604225024E+02  0.44790963686E+02  0.53781430303E+02  0.12776035329E+03  0.90032152368E+02 0.  0.
          5    1    3    3  502    0  0.21969320731E+02 -0.44240534844E+02 -0.93253489232E+02  0.10561042387E+03  0.41800000000E+01 0.  1.
         -5    1    3    3    0  502 -0.79573545755E+02 -0.55042884139E+00 -0.32041269508E+02  0.85885781755E+02  0.41800000000E+01 0.  1.
        -11    1    4    4    0    0  0.49619736986E+02  0.29100616220E+02 -0.12766393827E+02  0.58923212525E+02  0.00000000000E+00 0.  1.
         11    1    4    4    0    0  0.79844880380E+01  0.15690347465E+02  0.66547824130E+02  0.68837140769E+02  0.00000000000E+00 0. -1.
</event>
<event>
 8    1  0.6787197E-009  0.1048496E+03  0.7561462E-02  0.1270416E+00
          2   -1    0    0  501    0  0.00000000000E+00  0.00000000000E+00  0.38130089350E+03  0.38130089350E+03  0.00000000000E+00 0. -1.
         -2   -1    0    0    0  501 -0.00000000000E+00 -0.00000000000E+00 -0.32898821527E+02  0.32898821527E+02  0.00000000000E+00 0.  1.
         25    2    1    2    0    0 -0.16674647407E+02 -0.11509579565E+02  0.16445649587E+03  0.20761629064E+03  0.12509224924E+03 0.  0.
         23    2    1    2    0    0  0.16674647407E+02  0.11509579565E+02  0.18394557610E+03  0.20658342438E+03  0.91816240246E+02 0.  0.
          5    1    3    3  502    0  0.33723706188E+02 -0.50961683118E+02  0.65376966845E+02  0.89587955101E+02  0.41800000000E+01 0. -1.
         -5    1    3    3    0  502 -0.50398353595E+02  0.39452103553E+02  0.99079529023E+02  0.11802833554E+03  0.41800000000E+01 0. -1.
        -11    1    4    4    0    0 -0.11599196265E+02 -0.31087188867E+02  0.31340795280E+02  0.45642087096E+02  0.00000000000E+00 0.  1.
         11    1    4    4    0    0  0.28273843672E+02  0.42596768433E+02  0.15260478082E+03  0.16094133728E+03  0.00000000000E+00 0. -1.
</event>
<event>
 8    1  0.6787197E-009  0.1083346E+03  0.7561462E-02  0.1263685E+00
         -4   -1    0    0    0  501 -0.00000000000E+00  0.00000000000E+00  0.19650386209E+02  0.19650386209E+02  0.00000000000E+00 0. -1.
          4   -1    0    0  501    0  0.00000000000E+00 -0.00000000000E+00 -0.76818975703E+03  0.76818975703E+03  0.00000000000E+00 0.  1.
         25    2    1    2    0    0 -0.42078311816E+02  0.36372299916E+02 -0.36018115315E+03  0.38532008623E+03  0.12509027637E+03 0.  0.
         23    2    1    2    0    0  0.42078311816E+02 -0.36372299916E+02 -0.38835821767E+03  0.40252005701E+03  0.90037561790E+02 0.  0.
          5    1    3    3  502    0  0.37933553303E+02 -0.15710374387E+02 -0.11421385242E+03  0.12144153661E+03  0.41800000000E+01 0. -1.
         -5    1    3    3    0  502 -0.80011865119E+02  0.52082674303E+02 -0.24596730073E+03  0.26387854962E+03  0.41800000000E+01 0. -1.
        -11    1    4    4    0    0  0.54465945146E+01  0.15446276109E+02 -0.10691956896E+02  0.19559416651E+02  0.00000000000E+00 0. -1.
         11    1    4    4    0    0  0.36631717302E+02 -0.51818576025E+02 -0.37766626077E+03  0.38296064035E+03  0.00000000000E+00 0.  1.
</event>
<event>
 8    1  0.6787197E-009  0.2089366E+03  0.7561462E-02  0.1142411E+00
          2   -1    0    0  501    0  0.00000000000E+00  0.00000000000E+00  0.16761778246E+04  0.16761778246E+04  0.00000000000E+00 0. -1.
         -2   -1    0    0    0  501 -0.00000000000E+00 -0.00000000000E+00 -0.30212343885E+02  0.30212343885E+02  0.00000000000E+00 0.  1.
         25    2    1    2    0    0  0.14199503675E+03  0.13620268645E+03  0.80405815329E+03  0.83718013869E+03  0.12508920213E+03 0.  0.
         23    2    1    2    0    0 -0.14199503675E+03 -0.13620268645E+03  0.84190732744E+03  0.86921002980E+03  0.89467120570E+02 0.  0.
          5    1    3    3  502    0  0.12492003305E+02 -0.87071141059E+01  0.24088893222E+03  0.24140591138E+03  0.41800000000E+01 0.  1.
         -5    1    3    3    0  502  0.12950303345E+03  0.14490980056E+03  0.56316922107E+03  0.59577422731E+03  0.41800000000E+01 0.  1.
        -11    1    4    4    0    0 -0.73778611202E+02 -0.11430644649E+03  0.42661110894E+03  0.44777928207E+03  0.00000000000E+00 0.  1.
         11    1    4    4    0    0 -0.68216425552E+02 -0.21896239963E+02  0.41529621849E+03  0.42143074773E+03  0.00000000000E+00 0. -1.
</event>
<event>
 8    1  0.6787197E-009  0.1188809E+03  0.7561462E-02  0.1244955E+00
          1   -1    0    0  501    0  0.00000000000E+00  0.00000000000E+00  0.62970544846E+03  0.62970544846E+03  0.00000000000E+00 0. -1.
         -1   -1    0    0    0  501 -0.00000000000E+00 -0.00000000000E+00 -0.41082497021E+02  0.41082497021E+02  0.00000000000E+00 0.  1.
         25    2    1    2    0    0  0.52411030652E+02  0.25783396041E+02  0.52625788294E+03  0.54406495228E+03  0.12509042046E+03 0.  0.
         23    2    1    2    0    0 -0.52411030652E+02 -0.25783396041E+02  0.62365068494E+02  0.12672299320E+03  0.93582132870E+02 0.  0.
          5    1    3    3  502    0  0.87578647282E+02  0.28451840993E+02  0.45730734364E+03  0.46650509715E+03  0.41800000000E+01 0. -1.
         -5    1    3    3    0  502 -0.35167616630E+02 -0.26684449528E+01  0.68950539304E+02  0.77559855133E+02  0.41800000000E+01 0. -1.
        -11    1    4    4    0    0 -0.54636157057E+02 -0.56892307356E+02  0.48458426161E+02  0.92574636701E+02  0.00000000000E+00 0.  1.
         11    1    4    4    0    0  0.22251264051E+01  0.31108911316E+02  0.13906642333E+02  0.34148356501E+02  0.00000000000E+00 0. -1.
</event>
<event>
 8    1  0.6787197E-009  0.1126176E+03  0.7561462E-02  0.1255798E+00
          1   -1    0    0  501    0  0.00000000000E+00  0.00000000000E+00  0.56728447060E+03  0.56728447060E+03  0.00000000000E+00 0. -1.
         -1   -1    0    0    0  501 -0.00000000000E+00 -0.00000000000E+00 -0.28424885731E+02  0.28424885731E+02  0.00000000000E+00 0.  1.
         25    2    1    2    0    0  0.29252329735E+02  0.31532545837E+02  0.41578909092E+03  0.43632339774E+03  0.12509012370E+03 0.  0.
         23    2    1    2    0    0 -0.29252329735E+02 -0.31532545837E+02  0.12307049394E+03  0.15938595858E+03  0.91692622779E+02 0.  0.
          5    1    3    3  502    0  0.66449425093E+02  0.54685554889E+02  0.23633233172E+03  0.25154816522E+03  0.41800000000E+01 0. -1.
         -5    1    3    3    0  502 -0.37197095358E+02 -0.23153009052E+02  0.17945675920E+03  0.18477523252E+03  0.41800000000E+01 0. -1.
        -11    1    4    4    0    0 -0.47563275612E+02  0.10944738309E+02  0.90472911921E+02  0.10279786124E+03  0.00000000000E+00 0. -1.
         11    1    4    4    0    0  0.18310945878E+02 -0.42477284146E+02  0.32597582020E+02  0.56588097344E+02  0.00000000000E+00 0.  1.
</event>
<event>
 8    1  0.6787197E-009  0.1435397E+03  0.7561462E-02  0.1208644E+00
          1   -1    0    0  501    0  0.00000000000E+00  0.00000000000E+00  0.42171732546E+03  0.42171732546E+03  0.00000000000E+00 0. -1.
         -1   -1    0    0    0  501 -0.00000000000E+00 -0.00000000000E+00 -0.85705908977E+02  0.85705908977E+02  0.00000000000E+00 0.  1.
         25    2    1    2    0    0  0.96793562375E+02 -0.59625756746E+02  0.35112172369E+02  0.17264098651E+03  0.12509125065E+03 0.  0.
         23    2    1    2    0    0 -0.96793562375E+02  0.59625756746E+02  0.30089924411E+03  0.33478224793E+03  0.92814728557E+02 0.  0.
          5    1    3    3  502    0  0.12092135021E+02  0.20163321975E+02 -0.30696844518E+02  0.38891489375E+02  0.41800000000E+01 0. -1.
         -5    1    3    3    0  502  0.84701427355E+02 -0.79789078721E+02  0.65809016886E+02  0.13374949713E+03  0.41800000000E+01 0. -1.
        -11    1    4    4    0    0 -0.50698282614E+02  0.81308801840E+02  0.19696988781E+03  0.21904011920E+03  0.00000000000E+00 0.  1.
         11    1    4    4    0    0 -0.46095279762E+02 -0.21683045094E+02  0.10392935630E+03  0.11574212873E+03  0.00000000000E+00 0. -1.
</event>
<event>
 8    1  0.6787197E-009  0.1071881E+03  0.7561462E-02  0.1265867E+00
         -2   -1    0    0    0  501 -0.00000000000E+00  0.00000000000E+00  0.24257447398E+02  0.24257447398E+02  0.00000000000E+00 0. -1.
          2   -1    0    0  501    0  0.00000000000E+00 -0.00000000000E+00 -0.90098290557E+03  0.90098290557E+03  0.00000000000E+00 0.  1.
         25    2    1    2    0    0  0.44171357642E+02  0.16194549682E+02 -0.75829675958E+03  0.76998390733E+03  0.12509144523E+03 0.  0.
         23    2    1    2    0    0 -0.44171357642E+02 -0.16194549682E+02 -0.11842869859E+03  0.15525644564E+03  0.88689542723E+02 0.  0.
          5    1    3    3  502    0 -0.43509104564E+02  0.64256820418E+00 -0.21183566618E+03  0.21629904516E+03  0.41800000000E+01 0. -1.
         -5    1    3    3    0  502  0.87680462205E+02  0.15551981478E+02 -0.54646109341E+03  0.55368486216E+03  0.41800000000E+01 0. -1.
        -11    1    4    4    0    0 -0.47463232031E+02 -0.37168191049E+02 -0.11966262728E+03  0.13399021303E+03  0.00000000000E+00 0.  1.
         11    1    4    4    0    0  0.32918743891E+01  0.20973641367E+02  0.12339286967E+01  0.21266232605E+02  0.00000000000E+00 0. -1.
</event>
<event>
 8    1  0.6787197E-009  0.1016516E+03  0.7561462E-02  0.1276861E+00
          3   -1    0    0  501    0  0.00000000000E+00  0.00000000000E+00  0.31077879455E+02  0.31077879455E+02  0.00000000000E+00 0. -1.
         -3   -1    0    0    0  501 -0.00000000000E+00 -0.00000000000E+00 -0.41726296744E+03  0.41726296744E+03  0.00000000000E+00 0.  1.
         25    2    1    2    0    0  0.20779655402E+02 -0.23067563777E+02 -0.24227581888E+03  0.27442642037E+03  0.12509348986E+03 0.  0.
         23    2    1    2    0    0 -0.20779655402E+02  0.23067563777E+02 -0.14390926910E+03  0.17391442653E+03  0.92587490749E+02 0.  0.
          5    1    3    3  502    0  0.55963397850E+02 -0.49765720012E+02 -0.97545233277E+02  0.12304907038E+03  0.41800000000E+01 0. -1.
         -5    1    3    3    0  502 -0.35183742448E+02  0.26698156236E+02 -0.14473058560E+03  0.15137734999E+03  0.41800000000E+01 0. -1.
        -11    1    4    4    0    0  0.29549955470E+02  0.28246031521E+01 -0.13379146428E+02  0.32560402492E+02  0.00000000000E+00 0. -1.
         11    1    4    4    0    0 -0.50329610872E+02  0.20242960625E+02 -0.13053012268E+03  0.14135402404E+03  0.00000000000E+00 0.  1.
</event>
<event>
 8    1  0.6787197E-009  0.1160781E+03  0.7561462E-02  0.1249711E+00
         -2   -1    0    0    0  501 -0.00000000000E+00  0.00000000000E+00  0.27280054206E+03  0.27280054206E+03  0.00000000000E+00 0.  1.
          2   -1    0    0  501    0  0.00000000000E+00 -0.00000000000E+00 -0.52716396336E+02  0.52716396336E+02  0.00000000000E+00 0. -1.
         25    2    1    2    0    0 -0.40993545413E+02 -0.18229248645E+02  0.91684721362E+02  0.16144999000E+03  0.12508890785E+03 0.  0.
         23    2    1    2    0    0  0.40993545413E+02  0.18229248645E+02  0.12839942436E+03  0.16406694840E+03  0.91753883340E+02 0.  0.
          5    1    3    3  502    0 -0.74627489496E+02  0.23396953109E+02  0.63455972421E+02  0.10080085535E+03  0.41800000000E+01 0.  1.
         -5    1    3    3    0  502  0.33633944084E+02 -0.41626201754E+02  0.28228748941E+02  0.60649134650E+02  0.41800000000E+01 0.  1.
        -11    1    4    4    0    0 -0.28281541155E+02  0.11587787424E+02  0.54992271523E+02  0.62914802033E+02  0.00000000000E+00 0.  1.
         11    1    4    4    0    0  0.69275086568E+02  0.66414612203E+01  0.73407152840E+02  0.10115214636E+03  0.00000000000E+00 0. -1.
</event>
<event>
 8    1  0.6787197E-009  0.1316283E+03  0.7561462E-02  0.1225059E+00
          1   -1    0    0  501    0  0.00000000000E+00  0.00000000000E+00  0.25172813610E+03  0.25172813610E+03  0.00000000000E+00 0. -1.
         -1   -1    0    0    0  501 -0.00000000000E+00 -0.00000000000E+00 -0.93582424749E+02  0.93582424749E+02  0.00000000000E+00 0.  1.
         25    2    1    2    0    0  0.10128126353E+03  0.34069481486E+02  0.97621300250E+02  0.19129252756E+03  0.12507713191E+03 0.  0.
         23    2    1    2    0    0 -0.10128126353E+03 -0.34069481486E+02  0.60524411099E+02  0.15401803329E+03  0.92950128186E+02 0.  0.
          5    1    3    3  502    0  0.41489156803E+02 -0.21227428676E+02  0.99249901056E+02  0.10972679308E+03  0.41800000000E+01 0. -1.
         -5    1    3    3    0  502  0.59792106722E+02  0.55296910161E+02 -0.16286008054E+01  0.81565734474E+02  0.41800000000E+01 0. -1.
        -11    1    4    4    0    0 -0.59278721257E+02 -0.60970247676E+02  0.14726319218E+02  0.86302968508E+02  0.00000000000E+00 0.  1.
         11    1    4    4    0    0 -0.42002542269E+02  0.26900766190E+02  0.45798091881E+02  0.67715064783E+02  0.00000000000E+00 0. -1.
</event>
<event>
 8    1  0.6787197E-009  0.9736664E+02  0.7561462E-02  0.1285933E+00
         -1   -1    0    0    0  501 -0.00000000000E+00  0.00000000000E+00  0.14750551391E+03  0.14750551391E+03  0.00000000000E+00 0.  1.
          1   -1    0    0  501    0  0.00000000000E+00 -0.00000000000E+00 -0.17807472422E+03  0.17807472422E+03  0.00000000000E+00 0. -1.
         25    2    1    2    0    0 -0.48194030015E+02 -0.12245558026E+02 -0.12497222440E+03  0.18367943485E+03  0.12508980652E+03 0.  0.
         23    2    1    2    0    0  0.48194030015E+02  0.12245558026E+02  0.94403014087E+02  0.14190080328E+03  0.93548333405E+02 0.  0.
          5    1    3    3  502    0  0.27232105529E+01 -0.57139474711E+02 -0.24540459427E+02  0.62386232415E+02  0.41800000000E+01 0. -1.
         -5    1    3    3    0  502 -0.50917240568E+02  0.44893916686E+02 -0.10043176497E+03  0.12129320244E+03  0.41800000000E+01 0. -1.
        -11    1    4    4    0    0  0.35179004397E+02 -0.15710895235E+02 -0.40416497924E+01  0.38739250283E+02  0.00000000000E+00 0. -1.
         11    1    4    4    0    0  0.13015025618E+02  0.27956453260E+02  0.98444663879E+02  0.10316155300E+03  0.00000000000E+00 0.  1.
</event>
<event>
 8    1  0.6787197E-009  0.1147557E+03  0.7561462E-02  0.1252008E+00
         -1   -1    0    0    0  501 -0.00000000000E+00  0.00000000000E+00  0.37386329589E+02  0.37386329589E+02  0.00000000000E+00 0.  1.
          1   -1    0    0  501    0  0.00000000000E+00 -0.00000000000E+00 -0.42597657001E+03  0.42597657001E+03  0.00000000000E+00 0. -1.
         25    2    1    2    0    0  0.35969619000E+00  0.58732845563E+02 -0.16255476979E+03  0.21335644899E+03  0.12508894683E+03 0.  0.
         23    2    1    2    0    0 -0.35969619000E+00 -0.58732845563E+02 -0.22603547063E+03  0.25000645060E+03  0.89227321090E+02 0.  0.
          5    1    3    3  502    0  0.12412482314E+02  0.95386328358E+02 -0.13475518845E+03  0.16561719285E+03  0.41800000000E+01 0. -1.
         -5    1    3    3    0  502 -0.12052786124E+02 -0.36653482796E+02 -0.27799581340E+02  0.47739256143E+02  0.41800000000E+01 0. -1.
        -11    1    4    4    0    0  0.12028764195E+02  0.15241027927E+02 -0.11095865189E+03  0.11264458500E+03  0.00000000000E+00 0. -1.
         11    1    4    4    0    0 -0.12388460385E+02 -0.73973873490E+02 -0.11507681874E+03  0.13736186560E+03  0.00000000000E+00 0.  1.
</event>
<event>
 8    1  0.6787197E-009  0.1387181E+03  0.7561462E-02  0.1215064E+00
          2   -1    0    0  501    0  0.00000000000E+00  0.00000000000E+00  0.12637462446E+03  0.12637462446E+03  0.00000000000E+00 0.  1.
         -2   -1    0    0    0  501 -0.00000000000E+00 -0.00000000000E+00 -0.17468007885E+03  0.17468007885E+03  0.00000000000E+00 0. -1.
         25    2    1    2    0    0  0.80674539010E+02 -0.15464785528E+02 -0.74064789989E+02  0.16698033940E+03  0.12509716141E+03 0.  0.
         23    2    1    2    0    0 -0.80674539010E+02  0.15464785528E+02  0.25759335596E+02  0.13407436391E+03  0.10278546032E+03 0.  0.
          5    1    3    3  502    0  0.51435956586E+02  0.51823639512E+02 -0.53675869275E+02  0.90718898718E+02  0.41800000000E+01 0.  1.
         -5    1    3    3    0  502  0.29238582424E+02 -0.67288425040E+02 -0.20388920713E+02  0.76261440678E+02  0.41800000000E+01 0.  1.
        -11    1    4    4    0    0 -0.20795880257E+02  0.55176109673E+02  0.18792561616E+02  0.61887253020E+02  0.00000000000E+00 0. -1.
         11    1    4    4    0    0 -0.59878658753E+02 -0.39711324145E+02  0.69667739797E+01  0.72187110893E+02  0.00000000000E+00 0.  1.
</event>
<event>
 8    1  0.6787197E-009  0.1812710E+03  0.7561462E-02  0.1166579E+00
          1   -1    0    0  501    0  0.00000000000E+00  0.00000000000E+00  0.30397083560E+03  0.30397083560E+03  0.00000000000E+00 0. -1.
         -1   -1    0    0    0  501 -0.00000000000E+00 -0.00000000000E+00 -0.11622278643E+03  0.11622278643E+03  0.00000000000E+00 0.  1.
         25    2    1    2    0    0  0.15241055896E+03 -0.12766625671E+02  0.81181491850E+02  0.21361297093E+03  0.12509237194E+03 0.  0.
         23    2    1    2    0    0 -0.15241055896E+03  0.12766625671E+02  0.10656655732E+03  0.20658065110E+03  0.89034650868E+02 0.  0.
          5    1    3    3  502    0  0.54948903346E+01  0.38284172464E+02  0.32190889341E+02  0.50493538573E+02  0.41800000000E+01 0. -1.
         -5    1    3    3    0  502  0.14691566862E+03 -0.51050798135E+02  0.48990602508E+02  0.16311943235E+03  0.41800000000E+01 0. -1.
        -11    1    4    4    0    0 -0.14350749655E+03  0.31844673237E+02  0.11203936095E+03  0.18482776626E+03  0.00000000000E+00 0. -1.
         11    1    4    4    0    0 -0.89030624100E+01 -0.19078047565E+02 -0.54728036267E+01  0.21752884837E+02  0.00000000000E+00 0.  1.
</event>
<event>
 8    1  0.6787197E-009  0.1512222E+03  0.7561462E-02  0.1198979E+00
          2   -1    0    0  501    0  0.00000000000E+00  0.00000000000E+00  0.13807894899E+04  0.13807894899E+04  0.00000000000E+00 0. -1.
         -2   -1    0    0    0  501 -0.00000000000E+00 -0.00000000000E+00 -0.36090776847E+02  0.36090776847E+02  0.00000000000E+00 0.  1.
         25    2    1    2    0    0 -0.40560421462E+02  0.11678647854E+03  0.11744045712E+04  0.11875008109E+04  0.12509136447E+03 0.  0.
         23    2    1    2    0    0  0.40560421462E+02 -0.11678647854E+03  0.17029414179E+03  0.22937945587E+03  0.91272179170E+02 0.  0.
          5    1    3    3  502    0  0.25542662078E+02  0.10394759670E+03  0.78844630369E+03  0.79569000034E+03  0.41800000000E+01 0.  1.
         -5    1    3    3    0  502 -0.66103083540E+02  0.12838881840E+02  0.38595826756E+03  0.39181081051E+03  0.41800000000E+01 0.  1.
        -11    1    4    4    0    0  0.18101993716E+02 -0.14675461908E+02 -0.63145244760E+01  0.24143831056E+02  0.00000000000E+00 0.  1.
         11    1    4    4    0    0  0.22458427746E+02 -0.10211101663E+03  0.17660866627E+03  0.20523562482E+03  0.00000000000E+00 0. -1.
</event>
<event>
 8    1  0.6787197E-009  0.1091843E+03  0.7561462E-02  0.1262088E+00
          2   -1    0    0  501    0  0.00000000000E+00  0.00000000000E+00  0.56646332382E+03  0.56646332382E+03  0.00000000000E+00 0. -1.
         -2   -1    0    0    0  501 -0.00000000000E+00 -0.00000000000E+00 -0.21577295231E+02  0.21577295231E+02  0.00000000000E+00 0.  1.
         25    2    1    2    0    0 -0.10216909571E+02  0.27559171615E+01  0.26748387302E+03  0.29547710578E+03  0.12508843830E+03 0.  0.
         23    2    1    2    0    0  0.10216909571E+02 -0.27559171615E+01  0.27740215557E+03  0.29256351327E+03  0.92355146365E+02 0.  0.
          5    1    3    3  502    0 -0.53694181793E+02  0.40764460700E+02  0.14960918961E+03  0.16414989623E+03  0.41800000000E+01 0.  1.
         -5    1    3    3    0  502  0.43477272222E+02 -0.38008543539E+02  0.11787468341E+03  0.13132720956E+03  0.41800000000E+01 0.  1.
        -11    1    4    4    0    0  0.15242255938E+02 -0.46478336483E+02  0.15004127325E+03  0.15781300899E+03  0.00000000000E+00 0.  1.
         11    1    4    4    0    0 -0.50253463675E+01  0.43722419322E+02  0.12736088232E+03  0.13475050428E+03  0.00000000000E+00 0. -1.
</event>
<event>
 8    1  0.6787197E-009  0.3802460E+03  0.7561462E-02  0.1050843E+00
         -1   -1    0    0    0  501 -0.00000000000E+00  0.00000000000E+00  0.16783033316E+03  0.16783033316E+03  0.00000000000E+00 0.  1.
          1   -1    0    0  501    0  0.00000000000E+00 -0.00000000000E+00 -0.12314079268E+04  0.12314079268E+04  0.00000000000E+00 0. -1.
         25    2    1    2    0    0 -0.35039427853E+03  0.13618444344E+03 -0.18081121943E+03  0.43550267248E+03  0.12509007796E+03 0.  0.
         23    2    1    2    0    0  0.35039427853E+03 -0.13618444344E+03 -0.88276637423E+03  0.96373558750E+03  0.90484573747E+02 0.  0.
          5    1    3    3  502    0 -0.25131761782E+03  0.12870870092E+03 -0.18216429083E+03  0.33604728235E+03  0.41800000000E+01 0.  1.
         -5    1    3    3    0  502 -0.99076660707E+02  0.74757425138E+01  0.13530714032E+01  0.99455390126E+02  0.41800000000E+01 0.  1.
        -11    1    4    4    0    0  0.26410036275E+03 -0.81068792959E+02 -0.54860028226E+03  0.61423401119E+03  0.00000000000E+00 0.  1.
         11    1    4    4    0    0  0.86293915780E+02 -0.55115650478E+02 -0.33416609196E+03  0.34950157631E+03  0.00000000000E+00 0. -1.
</event>
<event>
 8    1  0.6787197E-009  0.1199457E+03  0.7561462E-02  0.1243187E+00
         -2   -1    0    0    0  501 -0.00000000000E+00  0.00000000000E+00  0.42663756142E+02  0.42663756142E+02  0.00000000000E+00 0.  1.
          2   -1    0    0  501    0  0.00000000000E+00 -0.00000000000E+00 -0.45628428106E+03  0.45628428106E+03  0.00000000000E+00 0. -1.
         25    2    1    2    0    0 -0.81122832625E+02  0.29345972192E+02 -0.23443834552E+03  0.27937607650E+03  0.12509018432E+03 0.  0.
         23    2    1    2    0    0  0.81122832625E+02 -0.29345972192E+02 -0.17918217939E+03  0.21957196070E+03  0.93077883820E+02 0.  0.
          5    1    3    3  502    0 -0.17578966771E+02 -0.30209243796E+02 -0.71249220671E+01  0.35914556908E+02  0.41800000000E+01 0. -1.
         -5    1    3    3    0  502 -0.63543865853E+02  0.59555215988E+02 -0.22731342345E+03  0.24346151959E+03  0.41800000000E+01 0. -1.
        -11    1    4    4    0    0  0.42667052284E+02 -0.56225578377E+02 -0.14581148386E+03  0.16199624020E+03  0.00000000000E+00 0.  1.
         11    1    4    4    0    0  0.38455780341E+02  0.26879606185E+02 -0.33370695531E+02  0.57575720495E+02  0.00000000000E+00 0. -1.
</event>
<event>
 8    1  0.6787197E-009  0.1271605E+03  0.7561462E-02  0.1231731E+00
         -2   -1    0    0    0  501 -0.00000000000E+00  0.00000000000E+00  0.53379397920E+02  0.53379397920E+02  0.00000000000E+00 0.  1.
          2   -1    0    0  501    0  0.00000000000E+00 -0.00000000000E+00 -0.42609148277E+03  0.42609148277E+03  0.00000000000E+00 0. -1.
         25    2    1    2    0    0 -0.90957629428E+02 -0.14389030868E+02 -0.27704544375E+03  0.31761981370E+03  0.12509130103E+03 0.  0.
         23    2    1    2    0    0  0.90957629428E+02  0.14389030868E+02 -0.95666641101E+02  0.16185106699E+03  0.92538246715E+02 0.  0.
          5    1    3    3  502    0 -0.93189537874E+02  0.38323030385E+02 -0.15948032817E+03  0.18869126132E+03  0.41800000000E+01 0.  1.
         -5    1    3    3    0  502  0.22319084453E+01 -0.52712061254E+02 -0.11756511558E+03  0.12892855238E+03  0.41800000000E+01 0.  1.
        -11    1    4    4    0    0  0.38063946776E+02 -0.13951460958E+02  0.86996782191E+01  0.41463136738E+02  0.00000000000E+00 0.  1.
         11    1    4    4    0    0  0.52893682652E+02  0.28340491826E+02 -0.10436631932E+03  0.12038793025E+03  0.00000000000E+00 0. -1.
</event>
<event>
 8    1  0.6787197E-009  0.7803413E+02  0.7561462E-02  0.1334725E+00
          1   -1    0    0  501    0  0.00000000000E+00  0.00000000000E+00  0.24187982901E+03  0.24187982901E+03  0.00000000000E+00 0. -1.
         -1   -1    0    0    0  501 -0.00000000000E+00 -0.00000000000E+00 -0.97594159385E+02  0.97594159385E+02  0.00000000000E+00 0.  1.
         25    2    1    2    0    0 -0.44614341660E+02  0.24892088772E+02  0.18366060392E+03  0.22800621876E+03  0.12508222415E+03 0.  0.
         23    2    1    2    0    0  0.44614341660E+02 -0.24892088772E+02 -0.39374934292E+02  0.11146776963E+03  0.90909970028E+02 0.  0.
          5    1    3    3  502    0  0.80739589363E+01 -0.24053748454E+02 -0.48791463449E+01  0.26173461686E+02  0.41800000000E+01 0.  1.
         -5    1    3    3    0  502 -0.52688300596E+02  0.48945837226E+02  0.18853975026E+03  0.20183275708E+03  0.41800000000E+01 0.  1.
        -11    1    4    4    0    0  0.21275701575E+02  0.35025624059E+01 -0.63794542788E+02  0.67339936965E+02  0.00000000000E+00 0.  1.
         11    1    4    4    0    0  0.23338640085E+02 -0.28394651178E+02  0.24419608496E+02  0.44127832665E+02  0.00000000000E+00 0. -1.
</event>
<event>
 8    1  0.6787197E-009  0.1228416E+03  0.7561462E-02  0.1238482E+00
         -1   -1    0    0    0  501 -0.00000000000E+00  0.00000000000E+00  0.35315099420E+02  0.35315099420E+02  0.00000000000E+00 0.  1.
          1   -1    0    0  501    0  0.00000000000E+00 -0.00000000000E+00 -0.52330307341E+03  0.52330307341E+03  0.00000000000E+00 0. -1.
         25    2    1    2    0    0 -0.84141085441E+01 -0.76009333254E+02 -0.20419951058E+03  0.25138242190E+03  0.12508983152E+03 0.  0.
         23    2    1    2    0    0  0.84141085441E+01  0.76009333254E+02 -0.28378846341E+03  0.30723575093E+03  0.89496920205E+02 0.  0.
          5    1    3    3  502    0 -0.54420232199E+02 -0.25789534627E+02 -0.37020530993E+02  0.70814220915E+02  0.41800000000E+01 0. -1.
         -5    1    3    3    0  502  0.46006123655E+02 -0.50219798627E+02 -0.16717897959E+03  0.18056820098E+03  0.41800000000E+01 0. -1.
        -11    1    4    4    0    0 -0.20883493961E+02  0.84126600199E+02 -0.19532903278E+03  0.21369800239E+03  0.00000000000E+00 0.  1.
         11    1    4    4    0    0  0.29297602505E+02 -0.81172669455E+01 -0.88459430629E+02  0.93537748542E+02  0.00000000000E+00 0. -1.
</event>
<event>
 8    1  0.6787197E-009  0.6022572E+02  0.7561462E-02  0.1396887E+00
          4   -1    0    0  501    0  0.00000000000E+00  0.00000000000E+00  0.26837349834E+03  0.26837349834E+03  0.00000000000E+00 0. -1.
         -4   -1    0    0    0  501 -0.00000000000E+00 -0.00000000000E+00 -0.56767880642E+02  0.56767880642E+02  0.00000000000E+00 0.  1.
         25    2    1    2    0    0  0.77522932217E+01 -0.21844772875E+02  0.19095640184E+03  0.22945936269E+03  0.12509979844E+03 0.  0.
         23    2    1    2    0    0 -0.77522932217E+01  0.21844772875E+02  0.20649215863E+02  0.95682016296E+02  0.90506165395E+02 0.  0.
          5    1    3    3  502    0  0.28438001567E+02  0.55601603125E+01 -0.56643934915E+01  0.29819340527E+02  0.41800000000E+01 0. -1.
         -5    1    3    3    0  502 -0.20685708345E+02 -0.27404933188E+02  0.19662079533E+03  0.19964002216E+03  0.41800000000E+01 0. -1.
        -11    1    4    4    0    0  0.21491928162E+02  0.27673741260E+01 -0.28245332255E+02  0.35600001824E+02  0.00000000000E+00 0.  1.
         11    1    4    4    0    0 -0.29244221384E+02  0.19077398749E+02  0.48894548118E+02  0.60082014472E+02  0.00000000000E+00 0. -1.
</event>
<event>
 8    1  0.6787197E-009  0.2503532E+03  0.7561462E-02  0.1113082E+00
          1   -1    0    0  501    0  0.00000000000E+00  0.00000000000E+00  0.27008246574E+03  0.27008246574E+03  0.00000000000E+00 0. -1.
         -1   -1    0    0    0  501 -0.00000000000E+00 -0.00000000000E+00 -0.27721335977E+03  0.27721335977E+03  0.00000000000E+00 0.  1.
         25    2    1    2    0    0  0.11164864371E+03 -0.20695567058E+03 -0.89981942482E+02  0.28114076499E+03  0.12508921031E+03 0.  0.
         23    2    1    2    0    0 -0.11164864371E+03  0.20695567058E+03  0.82851048444E+02  0.26615506052E+03  0.93156592809E+02 0.  0.
          5    1    3    3  502    0  0.67131913466E+02 -0.39496269537E+02 -0.73260110344E+02  0.10701011765E+03  0.41800000000E+01 0.  1.
         -5    1    3    3    0  502  0.44516730243E+02 -0.16745940105E+03 -0.16721832138E+02  0.17413064733E+03  0.41800000000E+01 0.  1.
        -11    1    4    4    0    0 -0.49900984272E+02  0.22269673190E+02  0.37306381981E+02  0.66165041463E+02  0.00000000000E+00 0.  1.
         11    1    4    4    0    0 -0.61747659437E+02  0.18468599739E+03  0.45544666462E+02  0.19999001906E+03  0.00000000000E+00 0. -1.
</event>
<event>
 8    1  0.6787197E-009  0.9203854E+02  0.7561462E-02  0.1297989E+00
         -2   -1    0    0    0  501 -0.00000000000E+00  0.00000000000E+00  0.37439358269E+03  0.37439358269E+03  0.00000000000E+00 0. -1.
          2   -1    0    0  501    0  0.00000000000E+00 -0.00000000000E+00 -0.78110721059E+02  0.78110721059E+02  0.00000000000E+00 0.  1.
         25    2    1    2    0    0  0.31833709512E+01 -0.79669486462E+02  0.29473439055E+03  0.32996045236E+03  0.12509267854E+03 0.  0.
         23    2    1    2    0    0 -0.31833709512E+01  0.79669486462E+02  0.15484710834E+01  0.12254385139E+03  0.93044273480E+02 0.  0.
          5    1    3    3  502    0 -0.29639360456E+02 -0.48568518649E+02  0.36420307342E+02  0.67685329865E+02  0.41800000000E+01 0.  1.
         -5    1    3    3    0  502  0.32822731408E+02 -0.31100967813E+02  0.25831408321E+03  0.26227512250E+03  0.41800000000E+01 0.  1.
        -11    1    4    4    0    0 -0.10086715253E+02  0.58076529611E+02 -0.42726732528E+02  0.72802464167E+02  0.00000000000E+00 0.  1.
         11    1    4    4    0    0  0.69033443019E+01  0.21592956852E+02  0.44275203612E+02  0.49741387225E+02  0.00000000000E+00 0. -1.
</event>
<event>
 8    1  0.6787197E-009  0.1011760E+03  0.7561462E-02  0.1277842E+00
         -1   -1    0    0    0  501 -0.00000000000E+00  0.00000000000E+00  0.22248848865E+02  0.22248848865E+02  0.00000000000E+00 0.  1.
          1   -1    0    0  501    0  0.00000000000E+00 -0.00000000000E+00 -0.71105199507E+03  0.71105199507E+03  0.00000000000E+00 0. -1.
         25    2    1    2    0    0  0.48494276423E+00  0.58074782847E+02 -0.46212673202E+03  0.48226642800E+03  0.12508747160E+03 0.  0.
         23    2    1    2    0    0 -0.48494276423E+00 -0.58074782847E+02 -0.22667641418E+03  0.25103441593E+03  0.90901956337E+02 0.  0.
          5    1    3    3  502    0  0.44032149528E+02  0.67703712601E+01 -0.33853923827E+03  0.34148346426E+03  0.41800000000E+01 0. -1.
         -5    1    3    3    0  502 -0.43547206764E+02  0.51304411587E+02 -0.12358749376E+03  0.14078296374E+03  0.41800000000E+01 0. -1.
        -11    1    4    4    0    0 -0.34716450661E+02 -0.27583174686E+02 -0.18088180464E+03  0.18623718942E+03  0.00000000000E+00 0. -1.
         11    1    4    4    0    0  0.34231507897E+02 -0.30491608161E+02 -0.45794609532E+02  0.64797226509E+02  0.00000000000E+00 0.  1.
</event>
<event>
 8    1  0.6787197E-009  0.1194505E+03  0.7561462E-02  0.1244006E+00
          1   -1    0    0  501    0  0.00000000000E+00  0.00000000000E+00  0.48822397132E+03  0.48822397132E+03  0.00000000000E+00 0. -1.
         -1   -1    0    0    0  501 -0.00000000000E+00 -0.00000000000E+00 -0.39848478437E+02  0.39848478437E+02  0.00000000000E+00 0.  1.
         25    2    1    2    0    0 -0.49739075472E+02 -0.30678509492E+02  0.12073143356E+03  0.18340495890E+03  0.12508458469E+03 0.  0.
         23    2    1    2    0    0  0.49739075472E+02  0.30678509492E+02  0.32764405932E+03  0.34466749085E+03  0.89609726404E+02 0.  0.
          5    1    3    3  502    0 -0.88654732505E+02 -0.27714532625E+02  0.10715645475E+03  0.14187224925E+03  0.41800000000E+01 0. -1.
         -5    1    3    3    0  502  0.38915657033E+02 -0.29639768677E+01  0.13574978810E+02  0.41532709650E+02  0.41800000000E+01 0. -1.
        -11    1    4    4    0    0  0.62168187858E+02 -0.11038472731E+02  0.20669042607E+03  0.21611955879E+03  0.00000000000E+00 0. -1.
         11    1    4    4    0    0 -0.12429112385E+02  0.41716982223E+02  0.12095363325E+03  0.12854793206E+03  0.00000000000E+00 0.  1.
</event>
<event>
 8    1  0.6787197E-009  0.1145340E+03  0.7561462E-02  0.1252397E+00
         -1   -1    0    0    0  501 -0.00000000000E+00  0.00000000000E+00  0.12836051136E+03  0.12836051136E+03  0.00000000000E+00 0.  1.
          1   -1    0    0  501    0  0.00000000000E+00 -0.00000000000E+00 -0.17282595992E+03  0.17282595992E+03  0.00000000000E+00 0. -1.
         25    2    1    2    0    0  0.24656172870E+02  0.51753233651E+02 -0.11017116977E+03  0.17627417310E+03  0.12509425806E+03 0.  0.
         23    2    1    2    0    0 -0.24656172870E+02 -0.51753233651E+02  0.65705721207E+02  0.12491229819E+03  0.89440015572E+02 0.  0.
          5    1    3    3  502    0  0.74851778924E+02  0.31350069603E+02 -0.51020579931E+02  0.95948880393E+02  0.41800000000E+01 0. -1.
         -5    1    3    3    0  502 -0.50195606054E+02  0.20403164048E+02 -0.59150589836E+02  0.80325292705E+02  0.41800000000E+01 0. -1.
        -11    1    4    4    0    0 -0.51238734608E+02 -0.34621268500E+02  0.69537053376E+02  0.93056122576E+02  0.00000000000E+00 0.  1.
         11    1    4    4    0    0  0.26582561738E+02 -0.17131965151E+02 -0.38313321684E+01  0.31856175613E+02  0.00000000000E+00 0. -1.
</event>
<event>
 8    1  0.6787197E-009  0.1344690E+03  0.7561462E-02  0.1220971E+00
         -2   -1    0    0    0  501 -0.00000000000E+00  0.00000000000E+00  0.73813000138E+02  0.73813000138E+02  0.00000000000E+00 0.  1.
          2   -1    0    0  501    0  0.00000000000E+00 -0.00000000000E+00 -0.29294121255E+03  0.29294121255E+03  0.00000000000E+00 0. -1.
         25    2    1    2    0    0  0.85317716673E+02 -0.48905104289E+02 -0.13313098219E+03  0.20746572950E+03  0.12508936204E+03 0.  0.
         23    2    1    2    0    0 -0.85317716673E+02  0.48905104289E+02 -0.85997230224E+02  0.15928848319E+03  0.91139866500E+02 0.  0.
          5    1    3    3  502    0 -0.31356942329E+02 -0.24472510073E+01 -0.15371114458E+02  0.35256069398E+02  0.41800000000E+01 0.  1.
         -5    1    3    3    0  502  0.11667465900E+03 -0.46457853282E+02 -0.11775986773E+03  0.17220966010E+03  0.41800000000E+01 0.  1.
        -11    1    4    4    0    0 -0.65669426896E+02  0.79725637867E+01 -0.92185625905E+02  0.11346464218E+03  0.00000000000E+00 0. -1.
         11    1    4    4    0    0 -0.19648289777E+02  0.40932540503E+02  0.61883956812E+01  0.45823841003E+02  0.00000000000E+00 0.  1.
</event>
<event>
 8    1  0.6787197E-009  0.1054456E+03  0.7561462E-02  0.1269244E+00
          1   -1    0    0  501    0  0.00000000000E+00  0.00000000000E+00  0.34813724187E+02  0.34813724187E+02  0.00000000000E+00 0. -1.
         -1   -1    0    0    0  501 -0.00000000000E+00 -0.00000000000E+00 -0.46300804734E+03  0.46300804734E+03  0.00000000000E+00 0.  1.
         25    2    1    2    0    0  0.50837353423E+02  0.32760139088E+02 -0.27704889366E+03  0.30993241013E+03  0.12507736069E+03 0.  0.
         23    2    1    2    0    0 -0.50837353423E+02 -0.32760139088E+02 -0.15114542950E+03  0.18788936140E+03  0.93807292108E+02 0.  0.
          5    1    3    3  502    0 -0.24232805321E+01 -0.44622288463E+02 -0.87355474220E+02  0.98211364884E+02  0.41800000000E+01 0.  1.
         -5    1    3    3    0  502  0.53260633955E+02  0.77382427551E+02 -0.18969341944E+03  0.21172104525E+03  0.41800000000E+01 0.  1.
        -11    1    4    4    0    0 -0.14816540322E+02 -0.32759447774E+02 -0.37419245842E+01  0.36148489390E+02  0.00000000000E+00 0. -1.
         11    1    4    4    0    0 -0.36020813101E+02 -0.69131378524E-03 -0.14740350492E+03  0.15174087201E+03  0.00000000000E+00 0.  1.
</event>
<event>
 8    1  0.6787197E-009  0.1315429E+03  0.7561462E-02  0.1225184E+00
         -1   -1    0    0    0  501 -0.00000000000E+00  0.00000000000E+00  0.37368197044E+03  0.37368197044E+03  0.00000000000E+00 0.  1.
          1   -1    0    0  501    0  0.00000000000E+00 -0.00000000000E+00 -0.58134208944E+02  0.58134208944E+02  0.00000000000E+00 0. -1.
         25    2    1    2    0    0 -0.97072176174E+02  0.23281278078E+02  0.17195626818E+03  0.23490853426E+03  0.12509211008E+03 0.  0.
         23    2    1    2    0    0  0.97072176174E+02 -0.23281278078E+02  0.14359149332E+03  0.19690764513E+03  0.90493527184E+02 0.  0.
          5    1    3    3  502    0  0.11484941169E+01 -0.20426142247E+02 -0.10286969331E+02  0.23277466870E+02  0.41800000000E+01 0. -1.
         -5    1    3    3    0  502 -0.98220670291E+02  0.43707420325E+02  0.18224323752E+03  0.21163106739E+03  0.41800000000E+01 0. -1.
        -11    1    4    4    0    0  0.25914978072E+02  0.34363943367E+02  0.42079834729E+02  0.60192849933E+02  0.00000000000E+00 0.  1.
         11    1    4    4    0    0  0.71157198102E+02 -0.57645221444E+02  0.10151165859E+03  0.13671479520E+03  0.00000000000E+00 0. -1.
</event>
<event>
 8    1  0.6787197E-009  0.1295557E+03  0.7561462E-02  0.1228116E+00
         -2   -1    0    0    0  501 -0.00000000000E+00  0.00000000000E+00  0.34227539121E+02  0.34227539121E+02  0.00000000000E+00 0. -1.
          2   -1    0    0  501    0  0.00000000000E+00 -0.00000000000E+00 -0.54724647253E+03  0.54724647253E+03  0.00000000000E+00 0.  1.
         25    2    1    2    0    0 -0.45537073758E+02  0.69740058385E+02 -0.29089563539E+03  0.32742238021E+03  0.12509134081E+03 0.  0.
         23    2    1    2    0    0  0.45537073758E+02 -0.69740058385E+02 -0.22212329802E+03  0.25405163144E+03  0.90918485929E+02 0.  0.
          5    1    3    3  502    0 -0.62278059029E+02  0.95205213990E+02 -0.25996995024E+03  0.28380351801E+03  0.41800000000E+01 0. -1.
         -5    1    3    3    0  502  0.16740985271E+02 -0.25465155605E+02 -0.30925685152E+02  0.43618862204E+02  0.41800000000E+01 0. -1.
        -11    1    4    4    0    0 -0.10157811756E+02 -0.56308092769E+02 -0.15811012825E+03  0.16814456609E+03  0.00000000000E+00 0.  1.
         11    1    4    4    0    0  0.55694885514E+02 -0.13431965616E+02 -0.64013169774E+02  0.85907065351E+02  0.00000000000E+00 0. -1.
</event>
<event>
 8    1  0.6787197E-009  0.9668979E+02  0.7561462E-02  0.1287415E+00
         -1   -1    0    0    0  501 -0.00000000000E+00  0.00000000000E+00  0.74646331899E+02  0.74646331899E+02  0.00000000000E+00 0.  1.
          1   -1    0    0  501    0  0.00000000000E+00 -0.00000000000E+00 -0.23130826758E+03  0.23130826758E+03  0.00000000000E+00 0. -1.
         25    2    1    2    0    0  0.19225629955E+02 -0.55204285250E+02 -0.34859058386E+02  0.14240222344E+03  0.12508437685E+03 0.  0.
         23    2    1    2    0    0 -0.19225629955E+02  0.55204285250E+02 -0.12180287730E+03  0.16355237604E+03  0.92175380841E+02 0.  0.
          5    1    3    3  502    0 -0.30960633156E+02 -0.19003936715E+02 -0.64128419445E+02  0.73821656691E+02  0.41800000000E+01 0.  1.
         -5    1    3    3    0  502  0.50186263111E+02 -0.36200348535E+02  0.29269361059E+02  0.68580566751E+02  0.41800000000E+01 0.  1.
        -11    1    4    4    0    0 -0.31688220631E+02 -0.60682451338E+01 -0.72847858287E+01  0.33076200361E+02  0.00000000000E+00 0.  1.
         11    1    4    4    0    0  0.12462590676E+02  0.61272530384E+02 -0.11451809147E+03  0.13047617568E+03  0.00000000000E+00 0. -1.
</event>
<event>
 8    1  0.6787197E-009  0.1057846E+03  0.7561462E-02  0.1268581E+00
         -3   -1    0    0    0  501 -0.00000000000E+00  0.00000000000E+00  0.69447595353E+03  0.69447595353E+03  0.00000000000E+00 0.  1.
          3   -1    0    0  501    0  0.00000000000E+00 -0.00000000000E+00 -0.20036945031E+02  0.20036945031E+02  0.00000000000E+00 0. -1.
         25    2    1    2    0    0 -0.72212396341E+00 -0.30461799891E+02  0.31304810912E+03  0.33849003773E+03  0.12509174356E+03 0.  0.
         23    2    1    2    0    0  0.72212396341E+00  0.30461799891E+02  0.36139089938E+03  0.37602286083E+03  0.99304415777E+02 0.  0.
          5    1    3    3  502    0  0.18213921426E+02  0.35388343305E+02  0.21564963667E+03  0.21933152982E+03  0.41800000000E+01 0. -1.
         -5    1    3    3    0  502 -0.18936045389E+02 -0.65850143196E+02  0.97398472445E+02  0.11915850791E+03  0.41800000000E+01 0. -1.
        -11    1    4    4    0    0 -0.46198497320E+02  0.31595310840E+02  0.17072386208E+03  0.17966413639E+03  0.00000000000E+00 0.  1.
         11    1    4    4    0    0  0.46920621283E+02 -0.11335109488E+01  0.19066703730E+03  0.19635872443E+03  0.00000000000E+00 0. -1.
</event>
<event>
 8    1  0.6787197E-009  0.9618983E+02  0.7561462E-02  0.1288519E+00
         -2   -1    0    0    0  501 -0.00000000000E+00  0.00000000000E+00  0.52254537875E+02  0.52254537875E+02  0.00000000000E+00 0. -1.
          2   -1    0    0  501    0  0.00000000000E+00 -0.00000000000E+00 -0.37425086247E+03  0.37425086247E+03  0.00000000000E+00 0.  1.
         25    2    1    2    0    0  0.84118431326E+01  0.26019208245E+02 -0.30355008004E+03  0.32945068519E+03  0.12508934638E+03 0.  0.
         23    2    1    2    0    0 -0.84118431326E+01 -0.26019208245E+02 -0.18446244554E+02  0.97054715155E+02  0.91277573878E+02 0.  0.
          5    1    3    3  502    0  0.26840223104E+02  0.65896245118E+02 -0.25051974084E+03  0.26046175467E+03  0.41800000000E+01 0. -1.
         -5    1    3    3    0  502 -0.18428379971E+02 -0.39877036873E+02 -0.53030339202E+02  0.68988930518E+02  0.41800000000E+01 0. -1.
        -11    1    4    4    0    0 -0.40339444897E+02 -0.17199879620E+02 -0.38481667782E+02  0.58343340913E+02  0.00000000000E+00 0.  1.
         11    1    4    4    0    0  0.31927601765E+02 -0.88193286252E+01  0.20035423228E+02  0.38711374243E+02  0.00000000000E+00 0. -1.
</event>
<event>
 8    1  0.6787197E-009  0.1396884E+03  0.7561462E-02  0.1213749E+00
          1   -1    0    0  501    0  0.00000000000E+00  0.00000000000E+00  0.50203592508E+03  0.50203592508E+03  0.00000000000E+00 0. -1.
         -1   -1    0    0    0  501 -0.00000000000E+00 -0.00000000000E+00 -0.59276772026E+02  0.59276772026E+02  0.00000000000E+00 0.  1.
         25    2    1    2    0    0 -0.94771775268E+02  0.94944399548E+02  0.24122026221E+03  0.30303481052E+03  0.12508698211E+03 0.  0.
         23    2    1    2    0    0  0.94771775268E+02 -0.94944399548E+02  0.20153889085E+03  0.25827788659E+03  0.89963402465E+02 0.  0.
          5    1    3    3  502    0 -0.65865709856E+02  0.93393674063E+02  0.80933157285E+02  0.14010110077E+03  0.41800000000E+01 0.  1.
         -5    1    3    3    0  502 -0.28906065412E+02  0.15507254845E+01  0.16028710492E+03  0.16293370974E+03  0.41800000000E+01 0.  1.
        -11    1    4    4    0    0  0.76637538048E+02 -0.63748150545E+02  0.19842755553E+03  0.22205997777E+03  0.00000000000E+00 0. -1.
         11    1    4    4    0    0  0.18134237220E+02 -0.31196249003E+02  0.31113353200E+01  0.36217908814E+02  0.00000000000E+00 0.  1.
</event>
<event>
 8    1  0.6787197E-009  0.9413630E+02  0.7561462E-02  0.1293133E+00
          1   -1    0    0  501    0  0.00000000000E+00  0.00000000000E+00  0.39703038525E+02  0.39703038525E+02  0.00000000000E+00 0. -1.
         -1   -1    0    0    0  501 -0.00000000000E+00 -0.00000000000E+00 -0.35217427922E+03  0.35217427922E+03  0.00000000000E+00 0.  1.
         25    2    1    2    0    0 -0.17571484833E+02  0.37831193261E+02 -0.13876183682E+03  0.19142133976E+03  0.12508927091E+03 0.  0.
         23    2    1    2    0    0  0.17571484833E+02 -0.37831193261E+02 -0.17370940388E+03  0.20045597798E+03  0.90926815909E+02 0.  0.
          5    1    3    3  502    0 -0.51106432843E+02  0.20132247863E+02 -0.14280235318E+03  0.15305933279E+03  0.41800000000E+01 0. -1.
         -5    1    3    3    0  502  0.33534948010E+02  0.17698945399E+02  0.40405163588E+01  0.38362006969E+02  0.41800000000E+01 0. -1.
        -11    1    4    4    0    0  0.30594592984E+02 -0.61122181271E+02 -0.14967405573E+03  0.16454261795E+03  0.00000000000E+00 0.  1.
         11    1    4    4    0    0 -0.13023108151E+02  0.23290988010E+02 -0.24035348149E+02  0.35913360035E+02  0.00000000000E+00 0. -1.
</event>
<event>
 8    1  0.6787197E-009  0.1013416E+03  0.7561462E-02  0.1277500E+00
          2   -1    0    0  501    0  0.00000000000E+00  0.00000000000E+00  0.11266922293E+03  0.11266922293E+03  0.00000000000E+00 0.  1.
         -2   -1    0    0    0  501 -0.00000000000E+00 -0.00000000000E+00 -0.14247664393E+03  0.14247664393E+03  0.00000000000E+00 0. -1.
         25    2    1    2    0    0 -0.29787342722E+01 -0.45833694439E+02  0.31232363513E+02  0.13687045031E+03  0.12509380174E+03 0.  0.
         23    2    1    2    0    0  0.29787342722E+01  0.45833694439E+02 -0.61039784515E+02  0.11827541654E+03  0.90297389003E+02 0.  0.
          5    1    3    3  502    0  0.60890541755E+02 -0.23920821717E+02  0.13453749247E+02  0.66920397157E+02  0.41800000000E+01 0.  1.
         -5    1    3    3    0  502 -0.63869276027E+02 -0.21912872722E+02  0.17778614266E+02  0.69950053155E+02  0.41800000000E+01 0.  1.
        -11    1    4    4    0    0  0.95294277576E+01 -0.96763654236E+01 -0.60883631955E+02  0.62379954162E+02  0.00000000000E+00 0. -1.
         11    1    4    4    0    0 -0.65506934854E+01  0.55510059863E+02 -0.15615256018E+00  0.55895462380E+02  0.00000000000E+00 0.  1.
</event>
<event>
 8    1  0.6787197E-009  0.1073604E+03  0.7561462E-02  0.1265538E+00
          1   -1    0    0  501    0  0.00000000000E+00  0.00000000000E+00  0.48544121572E+02  0.48544121572E+02  0.00000000000E+00 0. -1.
         -1   -1    0    0    0  501 -0.00000000000E+00 -0.00000000000E+00 -0.30376330907E+03  0.30376330907E+03  0.00000000000E+00 0.  1.
         25    2    1    2    0    0 -0.46324483120E+02 -0.25593314393E+02 -0.16425053645E+03  0.21314630594E+03  0.12510848706E+03 0.  0.
         23    2    1    2    0    0  0.46324483120E+02  0.25593314393E+02 -0.90968651052E+02  0.13916112470E+03  0.91046953139E+02 0.  0.
          5    1    3    3  502    0  0.40108276107E+02  0.52701366609E+01 -0.73549391166E+02  0.84044235338E+02  0.41800000000E+01 0. -1.
         -5    1    3    3    0  502 -0.86432759227E+02 -0.30863451054E+02 -0.90701145280E+02  0.12910207060E+03  0.41800000000E+01 0. -1.
        -11    1    4    4    0    0 -0.13147082478E+02  0.17904291163E+02  0.78598663645E+01  0.23562404779E+02  0.00000000000E+00 0. -1.
         11    1    4    4    0    0  0.59471565598E+02  0.76890232300E+01 -0.98828517416E+02  0.11559871992E+03  0.00000000000E+00 0.  1.
</event>
<event>
 8    1  0.6787197E-009  0.1144383E+03  0.7561462E-02  0.1252565E+00
         -4   -1    0    0    0  501 -0.00000000000E+00  0.00000000000E+00  0.96034471993E+02  0.96034471993E+02  0.00000000000E+00 0.  1.
          4   -1    0    0  501    0  0.00000000000E+00 -0.00000000000E+00 -0.21541740638E+03  0.21541740638E+03  0.00000000000E+00 0. -1.
         25    2    1    2    0    0  0.99168386459E+01 -0.68944971699E+02 -0.13324295362E+03  0.19558208930E+03  0.12508763390E+03 0.  0.
         23    2    1    2    0    0 -0.99168386459E+01  0.68944971699E+02  0.13860019231E+02  0.11586978907E+03  0.91553017836E+02 0.  0.
          5    1    3    3  502    0 -0.37269648422E+01 -0.89113495048E+02 -0.14335368203E+03  0.16888710968E+03  0.41800000000E+01 0.  1.
         -5    1    3    3    0  502  0.13643803488E+02  0.20168523349E+02  0.10110728411E+02  0.26694979616E+02  0.41800000000E+01 0.  1.
        -11    1    4    4    0    0 -0.49030240022E+02  0.54185829935E+02  0.59022068378E+01  0.73313741194E+02  0.00000000000E+00 0.  1.
         11    1    4    4    0    0  0.39113401376E+02  0.14759141765E+02  0.79578123931E+01  0.42556047877E+02  0.00000000000E+00 0. -1.
</event>
<event>
 8    1  0.6787197E-009  0.8672518E+02  0.7561462E-02  0.1310982E+00
          2   -1    0    0  501    0  0.00000000000E+00  0.00000000000E+00  0.92382749479E+02  0.92382749479E+02  0.00000000000E+00 0.  1.
         -2   -1    0    0    0  501 -0.00000000000E+00 -0.00000000000E+00 -0.20261063764E+03  0.20261063764E+03  0.00000000000E+00 0. -1.
         25    2    1    2    0    0  0.74382917626E+02  0.68034798562E+01 -0.49863006861E+02  0.15399065413E+03  0.12509075239E+03 0.  0.
         23    2    1    2    0    0 -0.74382917626E+02 -0.68034798562E+01 -0.60364881305E+02  0.14100273299E+03  0.10324120322E+03 0.  0.
          5    1    3    3  502    0 -0.69794875939E+00 -0.18617180484E+02  0.33701960845E+02  0.38734753213E+02  0.41800000000E+01 0.  1.
         -5    1    3    3    0  502  0.75080866386E+02  0.25420660340E+02 -0.83564967706E+02  0.11525590092E+03  0.41800000000E+01 0.  1.
        -11    1    4    4    0    0 -0.48021167520E+02 -0.75273650852E+01  0.22848978478E+02  0.53710050946E+02  0.00000000000E+00 0.  1.
         11    1    4    4    0    0 -0.26361750106E+02  0.72388522907E+00 -0.83213859783E+02  0.87292682045E+02  0.00000000000E+00 0. -1.
</event>
<event>
 8    1  0.6787197E-009  0.1541639E+03  0.7561462E-02  0.1195448E+00
          1   -1    0    0  501    0  0.00000000000E+00  0.00000000000E+00  0.16771075229E+03  0.16771075229E+03  0.00000000000E+00 0. -1.
         -1   -1    0    0    0  501 -0.00000000000E+00 -0.00000000000E+00 -0.18172558619E+03  0.18172558619E+03  0.00000000000E+00 0.  1.
         25    2    1    2    0    0  0.82878270173E+02 -0.10329647505E+03 -0.41826518196E+02  0.18691129283E+03  0.12508958526E+03 0.  0.
         23    2    1    2    0    0 -0.82878270173E+02  0.10329647505E+03  0.27811684300E+02  0.16252504564E+03  0.90010728548E+02 0.  0.
          5    1    3    3  502    0  0.97878008527E+02 -0.11006873580E+03 -0.62585141337E+02  0.16009248412E+03  0.41800000000E+01 0.  1.
         -5    1    3    3    0  502 -0.14999738354E+02  0.67722607541E+01  0.20758623140E+02  0.26818808719E+02  0.41800000000E+01 0.  1.
        -11    1    4    4    0    0 -0.88685445550E+02  0.78209299460E+02 -0.78878547039E+01  0.11850747245E+03  0.00000000000E+00 0.  1.
         11    1    4    4    0    0  0.58071753772E+01  0.25087175588E+02  0.35699539004E+02  0.44017573195E+02  0.00000000000E+00 0. -1.
</event>
<event>
 8    1  0.6787197E-009  0.1724622E+03  0.7561462E-02  0.1175304E+00
         -3   -1    0    0    0  501 -0.00000000000E+00  0.00000000000E+00  0.31883912254E+03  0.31883912254E+03  0.00000000000E+00 0.  1.
          3   -1    0    0  501    0  0.00000000000E+00 -0.00000000000E+00 -0.13300902086E+03  0.13300902086E+03  0.00000000000E+00 0. -1.
         25    2    1    2    0    0 -0.47463407360E+02  0.14270570380E+03  0.19480237173E+03  0.27606962397E+03  0.12509508507E+03 0.  0.
         23    2    1    2    0    0  0.47463407360E+02 -0.14270570380E+03 -0.89722700515E+01  0.17577851944E+03  0.90553262395E+02 0.  0.
          5    1    3    3  502    0 -0.94164904907E+01 -0.16974492667E+02 -0.17731494152E+01  0.19935399502E+02  0.41800000000E+01 0.  1.
         -5    1    3    3    0  502 -0.38046916870E+02  0.15968019647E+03  0.19657552115E+03  0.25613422446E+03  0.41800000000E+01 0.  1.
        -11    1    4    4    0    0  0.58866305615E+02 -0.94552460471E+02 -0.38864897720E+02  0.11796563056E+03  0.00000000000E+00 0. -1.
         11    1    4    4    0    0 -0.11402898255E+02 -0.48153243329E+02  0.29892627669E+02  0.57812888880E+02  0.00000000000E+00 0.  1.
</event>
<event>
 8    1  0.6787197E-009  0.1384561E+03  0.7561462E-02  0.1215422E+00
         -2   -1    0    0    0  501 -0.00000000000E+00  0.00000000000E+00  0.14971296177E+02  0.14971296177E+02  0.00000000000E+00 0.  1.
          2   -1    0    0  501    0  0.00000000000E+00 -0.00000000000E+00 -0.15417524405E+04  0.15417524405E+04  0.00000000000E+00 0. -1.
         25    2    1    2    0    0  0.13496983239E+02  0.10083145909E+03 -0.97293632176E+03  0.98620615747E+03  0.12509335367E+03 0.  0.
         23    2    1    2    0    0 -0.13496983239E+02 -0.10083145909E+03 -0.55384482257E+03  0.57051757921E+03  0.91635522620E+02 0.  0.
          5    1    3    3  502    0  0.19098389679E+01  0.11933395888E+03 -0.93203910406E+03  0.93965877058E+03  0.41800000000E+01 0.  1.
         -5    1    3    3    0  502  0.11587144271E+02 -0.18502499789E+02 -0.40897217701E+02  0.46547386892E+02  0.41800000000E+01 0.  1.
        -11    1    4    4    0    0  0.31809264835E+02 -0.93155915819E+01 -0.10091229897E+03  0.10621629658E+03  0.00000000000E+00 0.  1.
         11    1    4    4    0    0 -0.45306248074E+02 -0.91515867510E+02 -0.45293252360E+03  0.46430128263E+03  0.00000000000E+00 0. -1.
</event>
<event>
 8    1  0.6787197E-009  0.1208168E+03  0.7561462E-02  0.1241756E+00
         -2   -1    0    0    0  501 -0.00000000000E+00  0.00000000000E+00  0.27672176576E+03  0.27672176576E+03  0.00000000000E+00 0.  1.
          2   -1    0    0  501    0  0.00000000000E+00 -0.00000000000E+00 -0.19403553952E+03  0.19403553952E+03  0.00000000000E+00 0. -1.
         25    2    1    2    0    0 -0.67116409361E+02 -0.62529182049E+01 -0.15316871453E+03  0.20892731216E+03  0.12508499216E+03 0.  0.
         23    2    1    2    0    0  0.67116409361E+02  0.62529182049E+01  0.23585494076E+03  0.26182999312E+03  0.91562442200E+02 0.  0.
          5    1    3    3  502    0 -0.31723533955E+02  0.52885995667E+02 -0.11364645778E+03  0.12936885603E+03  0.41800000000E+01 0.  1.
         -5    1    3    3    0  502 -0.35392875406E+02 -0.59138913872E+02 -0.39522256752E+02  0.79558456133E+02  0.41800000000E+01 0.  1.
        -11    1    4    4    0    0  0.37982615788E+02  0.47159299790E+02  0.15775016417E+03  0.16897275802E+03  0.00000000000E+00 0.  1.
         11    1    4    4    0    0  0.29133793573E+02 -0.40906381585E+02  0.78104776596E+02  0.92857235095E+02  0.00000000000E+00 0. -1.
</event>
<event>
 8    1  0.6787197E-009  0.1058285E+03  0.7561462E-02  0.1268496E+00
         -1   -1    0    0    0  501 -0.00000000000E+00  0.00000000000E+00  0.38407893734E+02  0.38407893734E+02  0.00000000000E+00 0.  1.
          1   -1    0    0  501    0  0.00000000000E+00 -0.00000000000E+00 -0.34184864514E+03  0.34184864514E+03  0.00000000000E+00 0. -1.
         25    2    1    2    0    0 -0.34965500626E+02  0.11162297665E+02 -0.16264246796E+03  0.20844312554E+03  0.12509508815E+03 0.  0.
         23    2    1    2    0    0  0.34965500626E+02 -0.11162297665E+02 -0.14079828345E+03  0.17181341334E+03  0.91370177062E+02 0.  0.
          5    1    3    3  502    0 -0.34957061991E+02  0.64766647732E+02 -0.11503607610E+03  0.13662900880E+03  0.41800000000E+01 0.  1.
         -5    1    3    3    0  502 -0.84386349636E-02 -0.53604350067E+02 -0.47606391859E+02  0.71814116740E+02  0.41800000000E+01 0.  1.
        -11    1    4    4    0    0  0.11881966083E+02  0.32598844449E+02 -0.17294624798E+02  0.38768154771E+02  0.00000000000E+00 0.  1.
         11    1    4    4    0    0  0.23083534542E+02 -0.43761142114E+02 -0.12350365865E+03  0.13304525856E+03  0.00000000000E+00 0. -1.
</event>
<event>
 8    1  0.6787197E-009  0.1227099E+03  0.7561462E-02  0.1238692E+00
         -2   -1    0    0    0  501 -0.00000000000E+00  0.00000000000E+00  0.12058588986E+03  0.12058588986E+03  0.00000000000E+00 0.  1.
          2   -1    0    0  501    0  0.00000000000E+00 -0.00000000000E+00 -0.13894623516E+03  0.13894623516E+03  0.00000000000E+00 0. -1.
         25    2    1    2    0    0  0.60819789653E+02  0.32717737737E+02 -0.19437056706E+02  0.14421459794E+03  0.12510217388E+03 0.  0.
         23    2    1    2    0    0 -0.60819789653E+02 -0.32717737737E+02  0.10767114009E+01  0.11531752708E+03  0.92344331550E+02 0.  0.
          5    1    3    3  502    0  0.19001207605E+02  0.76668941852E+02  0.36136417845E+01  0.79181458322E+02  0.41800000000E+01 0. -1.
         -5    1    3    3    0  502  0.41818582049E+02 -0.43951204115E+02 -0.23050698491E+02  0.65033139618E+02  0.41800000000E+01 0. -1.
        -11    1    4    4    0    0  0.15559716976E+00  0.22946900683E+02  0.20197453352E+02  0.30569945753E+02  0.00000000000E+00 0.  1.
         11    1    4    4    0    0 -0.60975386823E+02 -0.55664638421E+02 -0.19120741951E+02  0.84747581331E+02  0.00000000000E+00 0. -1.
</event>
<event>
 8    1  0.6787197E-009  0.8802745E+02  0.7561462E-02  0.1307700E+00
         -2   -1    0    0    0  501 -0.00000000000E+00  0.00000000000E+00  0.26717722958E+02  0.26717722958E+02  0.00000000000E+00 0.  1.
          2   -1    0    0  501    0  0.00000000000E+00 -0.00000000000E+00 -0.52662497854E+03  0.52662497854E+03  0.00000000000E+00 0. -1.
         25    2    1    2    0    0  0.78540637421E+01  0.44213779727E+02 -0.30330198606E+03  0.33114006004E+03  0.12508037409E+03 0.  0.
         23    2    1    2    0    0 -0.78540637421E+01 -0.44213779727E+02 -0.19660526952E+03  0.22220264145E+03  0.93294357981E+02 0.  0.
          5    1    3    3  502    0  0.38299394708E+02  0.20595532065E+02 -0.25369988507E+02  0.50518593536E+02  0.41800000000E+01 0.  1.
         -5    1    3    3    0  502 -0.30445330966E+02  0.23618247662E+02 -0.27793199755E+03  0.28062146650E+03  0.41800000000E+01 0.  1.
        -11    1    4    4    0    0  0.18728903462E+02 -0.59889388776E+02 -0.80508054713E+02  0.10207378501E+03  0.00000000000E+00 0. -1.
         11    1    4    4    0    0 -0.26582967204E+02  0.15675609049E+02 -0.11609721481E+03  0.12012885644E+03  0.00000000000E+00 0.  1.
</event>
<event>
 8    1  0.6787197E-009  0.1142918E+03  0.7561462E-02  0.1252822E+00
         -3   -1    0    0    0  501 -0.00000000000E+00  0.00000000000E+00  0.26568155906E+03  0.26568155906E+03  0.00000000000E+00 0.  1.
          3   -1    0    0  501    0  0.00000000000E+00 -0.00000000000E+00 -0.12360525698E+03  0.12360525698E+03  0.00000000000E+00 0. -1.
         25    2    1    2    0    0 -0.31159728500E+02 -0.51182100463E+02 -0.66805559557E+02  0.15396216370E+03  0.12510327323E+03 0.  0.
         23    2    1    2    0    0  0.31159728500E+02  0.51182100463E+02  0.20888186164E+03  0.23532465235E+03  0.90307938706E+02 0.  0.
          5    1    3    3  502    0 -0.36039686967E+02 -0.85328055256E+02 -0.73817051594E+02  0.11851652018E+03  0.41800000000E+01 0. -1.
         -5    1    3    3    0  502  0.48799584668E+01  0.34145954793E+02  0.70114920363E+01  0.35445643512E+02  0.41800000000E+01 0. -1.
        -11    1    4    4    0    0  0.35942718428E+02 -0.11894357920E+02  0.40439458942E+02  0.55395889720E+02  0.00000000000E+00 0. -1.
         11    1    4    4    0    0 -0.47829899279E+01  0.63076458383E+02  0.16844240270E+03  0.17992876263E+03  0.00000000000E+00 0.  1.
</event>
<event>
 8    1  0.6787197E-009  0.1118368E+03  0.7561462E-02  0.1257206E+00
          1   -1    0    0  501    0  0.00000000000E+00  0.00000000000E+00  0.18776871904E+04  0.18776871904E+04  0.00000000000E+00 0.  1.
         -1   -1    0    0    0  501 -0.00000000000E+00 -0.00000000000E+00 -0.11114430598E+02  0.11114430598E+02  0.00000000000E+00 0. -1.
         25    2    1    2    0    0  0.56211507129E+02  0.72513792189E+02  0.12012709858E+04  0.12112462102E+04  0.12508963524E+03 0.  0.
         23    2    1    2    0    0 -0.56211507129E+02 -0.72513792189E+02  0.66530177399E+03  0.67755541077E+03  0.89648762391E+02 0.  0.
          5    1    3    3  502    0  0.26051468880E+01  0.30784403619E+02  0.57132072339E+02  0.65084655536E+02  0.41800000000E+01 0.  1.
         -5    1    3    3    0  502  0.53606360241E+02  0.41729388570E+02  0.11441389135E+04  0.11461615547E+04  0.41800000000E+01 0.  1.
        -11    1    4    4    0    0  0.16898898345E+02  0.52548827442E+01  0.49429752612E+02  0.52502257106E+02  0.00000000000E+00 0. -1.
         11    1    4    4    0    0 -0.73110405474E+02 -0.77768674933E+02  0.61587202138E+03  0.62505315366E+03  0.00000000000E+00 0.  1.
</event>
<event>
 8    1  0.6787197E-009  0.8863758E+02  0.7561462E-02  0.1306185E+00
         -2   -1    0    0    0  501 -0.00000000000E+00  0.00000000000E+00  0.10874576890E+03  0.10874576890E+03  0.00000000000E+00 0.  1.
          2   -1    0    0  501    0  0.00000000000E+00 -0.00000000000E+00 -0.19480644009E+03  0.19480644009E+03  0.00000000000E+00 0. -1.
         25    2    1    2    0    0 -0.11333478281E+02 -0.39190881467E+02 -0.14062295410E+03  0.19257700087E+03  0.12508682234E+03 0.  0.
         23    2    1    2    0    0  0.11333478281E+02  0.39190881467E+02  0.54562282914E+02  0.11097520812E+03  0.87601833200E+02 0.  0.
          5    1    3    3  502    0 -0.24325151456E+02 -0.82471527697E+02 -0.88396568544E+02  0.12338837710E+03  0.41800000000E+01 0.  1.
         -5    1    3    3    0  502  0.12991673174E+02  0.43280646230E+02 -0.52226385559E+02  0.69188623765E+02  0.41800000000E+01 0.  1.
        -11    1    4    4    0    0 -0.61624463202E+01  0.11658592980E+02  0.72539589488E+02  0.73728492308E+02  0.00000000000E+00 0.  1.
         11    1    4    4    0    0  0.17495924601E+02  0.27532288487E+02 -0.17977306574E+02  0.37246715810E+02  0.00000000000E+00 0. -1.
</event>
<event>
 8    1  0.6787197E-009  0.9768827E+02  0.7561462E-02  0.1285234E+00
         -2   -1    0    0    0  501 -0.00000000000E+00  0.00000000000E+00  0.35209272890E+02  0.35209272890E+02  0.00000000000E+00 0. -1.
          2   -1    0    0  501    0  0.00000000000E+00 -0.00000000000E+00 -0.34957031438E+03  0.34957031438E+03  0.00000000000E+00 0.  1.
         25    2    1    2    0    0  0.20468797508E+02 -0.29025678922E+01 -0.17736796165E+03  0.21802119594E+03  0.12508577652E+03 0.  0.
         23    2    1    2    0    0 -0.20468797508E+02  0.29025678922E+01 -0.13699307984E+03  0.16675839133E+03  0.92810886120E+02 0.  0.
          5    1    3    3  502    0 -0.52862461629E+02  0.18210858061E+01 -0.79044270130E+02  0.95200972912E+02  0.41800000000E+01 0.  1.
         -5    1    3    3    0  502  0.73331259137E+02 -0.47236536983E+01 -0.98323691517E+02  0.12282022303E+03  0.41800000000E+01 0.  1.
        -11    1    4    4    0    0 -0.93699036833E+01 -0.31344556123E+02 -0.91896540654E+01  0.33981260062E+02  0.00000000000E+00 0. -1.
         11    1    4    4    0    0 -0.11098893825E+02  0.34247124015E+02 -0.12780342577E+03  0.13277713126E+03  0.00000000000E+00 0.  1.
</event>
<event>
 8    1  0.6787197E-009  0.8489071E+02  0.7561462E-02  0.1315719E+00
          1   -1    0    0  501    0  0.00000000000E+00  0.00000000000E+00  0.24002793610E+03  0.24002793610E+03  0.00000000000E+00 0. -1.
         -1   -1    0    0    0  501 -0.00000000000E+00 -0.00000000000E+00 -0.63969801763E+02  0.63969801763E+02  0.00000000000E+00 0.  1.
         25    2    1    2    0    0 -0.17323523687E+02  0.52879204355E+02  0.11573106833E+03  0.17926759884E+03  0.12508747775E+03 0.  0.
         23    2    1    2    0    0  0.17323523687E+02 -0.52879204355E+02  0.60327066008E+02  0.12473013903E+03  0.93925172145E+02 0.  0.
          5    1    3    3  502    0 -0.34067734983E+02  0.10475052520E+01  0.11966716716E+03  0.12449663100E+03  0.41800000000E+01 0. -1.
         -5    1    3    3    0  502  0.16744211295E+02  0.51831699103E+02 -0.39360988297E+01  0.54770967837E+02  0.41800000000E+01 0. -1.
        -11    1    4    4    0    0  0.20832219932E+02 -0.64967439840E+02  0.77619418599E+02  0.10334178134E+03  0.00000000000E+00 0. -1.
         11    1    4    4    0    0 -0.35086962443E+01  0.12088235485E+02 -0.17292352591E+02  0.21388357688E+02  0.00000000000E+00 0.  1.
</event>
<event>
 8    1  0.6787197E-009  0.1173284E+03  0.7561462E-02  0.1247570E+00
         -2   -1    0    0    0  501 -0.00000000000E+00  0.00000000000E+00  0.14685533675E+02  0.14685533675E+02  0.00000000000E+00 0.  1.
          2   -1    0    0  501    0  0.00000000000E+00 -0.00000000000E+00 -0.16439391778E+04  0.16439391778E+04  0.00000000000E+00 0. -1.
         25    2    1    2    0    0  0.18380547331E+02  0.40861689035E+02 -0.14116402093E+04  0.14178800104E+04  0.12509245147E+03 0.  0.
         23    2    1    2    0    0 -0.18380547331E+02 -0.40861689035E+02 -0.21761343485E+03  0.24074470104E+03  0.92708585889E+02 0.  0.
          5    1    3    3  502    0 -0.37563043342E+02  0.61652102804E+02 -0.69781951792E+03  0.70155649523E+03  0.41800000000E+01 0.  1.
         -5    1    3    3    0  502  0.55943590673E+02 -0.20790413770E+02 -0.71382069136E+03  0.71632351522E+03  0.41800000000E+01 0.  1.
        -11    1    4    4    0    0  0.21706373819E+02  0.20079997723E+02 -0.52934212189E+02  0.60633355449E+02  0.00000000000E+00 0.  1.
         11    1    4    4    0    0 -0.40086921150E+02 -0.60941686757E+02 -0.16467922267E+03  0.18011134559E+03  0.00000000000E+00 0. -1.
</event>
<event>
 8    1  0.6787197E-009  0.1317215E+03  0.7561462E-02  0.1224923E+00
          2   -1    0    0  501    0  0.00000000000E+00  0.00000000000E+00  0.16201466337E+04  0.16201466337E+04  0.00000000000E+00 0. -1.
         -2   -1    0    0    0  501 -0.00000000000E+00 -0.00000000000E+00 -0.12802547675E+02  0.12802547675E+02  0.00000000000E+00 0.  1.
         25    2    1    2    0    0 -0.82115664085E+02  0.10315636284E+02  0.11526326870E+04  0.11623521229E+04  0.12510376425E+03 0.  0.
         23    2    1    2    0    0  0.82115664085E+02 -0.10315636284E+02  0.45471139907E+03  0.47059705853E+03  0.88598760736E+02 0.  0.
          5    1    3    3  502    0 -0.94486240737E+02 -0.36489656244E+02  0.79079637716E+03  0.79726753805E+03  0.41800000000E+01 0.  1.
         -5    1    3    3    0  502  0.12370576652E+02  0.46805292528E+02  0.36183630982E+03  0.36508458482E+03  0.41800000000E+01 0.  1.
        -11    1    4    4    0    0  0.20577077330E+02 -0.40128648211E+02  0.26779283536E+03  0.27156348648E+03  0.00000000000E+00 0. -1.
         11    1    4    4    0    0  0.61538586756E+02  0.29813011927E+02  0.18691856371E+03  0.19903357204E+03  0.00000000000E+00 0.  1.
</event>
<event>
 8    1  0.6787197E-009  0.8328419E+02  0.7561462E-02  0.1319982E+00
         -1   -1    0    0    0  501 -0.00000000000E+00  0.00000000000E+00  0.12986305592E+03  0.12986305592E+03  0.00000000000E+00 0.  1.
          1   -1    0    0  501    0  0.00000000000E+00 -0.00000000000E+00 -0.20178671024E+03  0.20178671024E+03  0.00000000000E+00 0. -1.
         25    2    1    2    0    0  0.28856509778E+02 -0.19312249503E+02  0.79247749693E+02  0.15210200669E+03  0.12509657657E+03 0.  0.
         23    2    1    2    0    0 -0.28856509778E+02  0.19312249503E+02 -0.15117140401E+03  0.17954775947E+03  0.90437511041E+02 0.  0.
          5    1    3    3  502    0 -0.46593041754E+02  0.84411840300E+01  0.17529380160E+02  0.50664748065E+02  0.41800000000E+01 0.  1.
         -5    1    3    3    0  502  0.75449551532E+02 -0.27753433533E+02  0.61718369533E+02  0.10143725862E+03  0.41800000000E+01 0.  1.
        -11    1    4    4    0    0 -0.23301611455E+01  0.10232986498E+02  0.10863588584E+02  0.15105006473E+02  0.00000000000E+00 0.  1.
         11    1    4    4    0    0 -0.26526348633E+02  0.90792630054E+01 -0.16203499260E+03  0.16444275300E+03  0.00000000000E+00 0. -1.
</event>
<event>
 8    1  0.6787197E-009  0.1146848E+03  0.7561462E-02  0.1252132E+00
         -2   -1    0    0    0  501 -0.00000000000E+00  0.00000000000E+00  0.62603590923E+02  0.62603590923E+02  0.00000000000E+00 0.  1.
          2   -1    0    0  501    0  0.00000000000E+00 -0.00000000000E+00 -0.47523055535E+03  0.47523055535E+03  0.00000000000E+00 0. -1.
         25    2    1    2    0    0  0.19081871468E+02  0.70111391529E+02 -0.43824009297E+02  0.15115349145E+03  0.12508840532E+03 0.  0.
         23    2    1    2    0    0 -0.19081871468E+02 -0.70111391529E+02 -0.36880295513E+03  0.38668065482E+03  0.90700518526E+02 0.  0.
          5    1    3    3  502    0  0.50517984961E+02 -0.54301067970E+01  0.11543034909E+02  0.52271090665E+02  0.41800000000E+01 0.  1.
         -5    1    3    3    0  502 -0.31436113494E+02  0.75541498326E+02 -0.55367044206E+02  0.98882400785E+02  0.41800000000E+01 0.  1.
        -11    1    4    4    0    0 -0.41382117577E+02 -0.57495572853E+02 -0.34329093746E+03  0.35052373428E+03  0.00000000000E+00 0. -1.
         11    1    4    4    0    0  0.22300246110E+02 -0.12615818676E+02 -0.25512017670E+02  0.36156920541E+02  0.00000000000E+00 0.  1.
</event>
<event>
 8    1  0.6787197E-009  0.8235640E+02  0.7561462E-02  0.1322494E+00
         -1   -1    0    0    0  501 -0.00000000000E+00  0.00000000000E+00  0.15576371010E+02  0.15576371010E+02  0.00000000000E+00 0.  1.
          1   -1    0    0  501    0  0.00000000000E+00 -0.00000000000E+00 -0.86871644112E+03  0.86871644112E+03  0.00000000000E+00 0. -1.
         25    2    1    2    0    0 -0.25410730951E+02 -0.28708832221E+02 -0.43348656646E+03  0.45279992512E+03  0.12508903466E+03 0.  0.
         23    2    1    2    0    0  0.25410730951E+02  0.28708832221E+02 -0.41965350366E+03  0.43149288701E+03  0.92774706247E+02 0.  0.
          5    1    3    3  502    0 -0.38644037643E+02  0.45141693528E+01 -0.34427005597E+02  0.52119386841E+02  0.41800000000E+01 0. -1.
         -5    1    3    3    0  502  0.13233306693E+02 -0.33223001574E+02 -0.39905956086E+03  0.40068053827E+03  0.41800000000E+01 0. -1.
        -11    1    4    4    0    0  0.52791252410E+02  0.32412146284E+02 -0.36534862986E+03  0.37056319960E+03  0.00000000000E+00 0. -1.
         11    1    4    4    0    0 -0.27380521459E+02 -0.37033140633E+01 -0.54304873793E+02  0.60929687412E+02  0.00000000000E+00 0.  1.
</event>
<event>
 8    1  0.6787197E-009  0.1585119E+03  0.7561462E-02  0.1190387E+00
          1   -1    0    0  501    0  0.00000000000E+00  0.00000000000E+00  0.14170047510E+03  0.14170047510E+03  0.00000000000E+00 0. -1.
         -1   -1    0    0    0  501 -0.00000000000E+00 -0.00000000000E+00 -0.18606978562E+03  0.18606978562E+03  0.00000000000E+00 0.  1.
         25    2    1    2    0    0 -0.28764052114E+02 -0.11206543430E+03 -0.52742996610E+02  0.17836941191E+03  0.12509113141E+03 0.  0.
         23    2    1    2    0    0  0.28764052114E+02  0.11206543430E+03  0.83736860950E+01  0.14940084880E+03  0.94151275862E+02 0.  0.
          5    1    3    3  502    0 -0.35763705551E+02 -0.13707303193E+03 -0.33089953123E+02  0.14553513705E+03  0.41800000000E+01 0. -1.
         -5    1    3    3    0  502  0.69996534370E+01  0.25007597635E+02 -0.19653043487E+02  0.32834274867E+02  0.41800000000E+01 0. -1.
        -11    1    4    4    0    0 -0.71134218289E+01  0.11288664432E+03  0.33142854761E+01  0.11315909033E+03  0.00000000000E+00 0. -1.
         11    1    4    4    0    0  0.35877473943E+02 -0.82121002746E+00  0.50594006189E+01  0.36241758471E+02  0.00000000000E+00 0.  1.
</event>
<event>
 8    1  0.6787197E-009  0.1167728E+03  0.7561462E-02  0.1248518E+00
         -2   -1    0    0    0  501 -0.00000000000E+00  0.00000000000E+00  0.62287380310E+02  0.62287380310E+02  0.00000000000E+00 0.  1.
          2   -1    0    0  501    0  0.00000000000E+00 -0.00000000000E+00 -0.44213053311E+03  0.44213053311E+03  0.00000000000E+00 0. -1.
         25    2    1    2    0    0 -0.10449893312E+03 -0.28766033485E+02 -0.10768881647E+03  0.19746428190E+03  0.12509096582E+03 0.  0.
         23    2    1    2    0    0  0.10449893312E+03  0.28766033485E+02 -0.27215433633E+03  0.30695363152E+03  0.91678991134E+02 0.  0.
          5    1    3    3  502    0 -0.29173038536E+02 -0.33243878893E+02 -0.11328304314E+03  0.12168295659E+03  0.41800000000E+01 0. -1.
         -5    1    3    3    0  502 -0.75325894580E+02  0.44778454087E+01  0.55942266701E+01  0.75781325310E+02  0.41800000000E+01 0. -1.
        -11    1    4    4    0    0  0.37901540669E+02  0.27689535933E+02 -0.21222912589E+03  0.21735785945E+03  0.00000000000E+00 0. -1.
         11    1    4    4    0    0  0.66597392446E+02  0.10764975521E+01 -0.59925210434E+02  0.89595772072E+02  0.00000000000E+00 0.  1.
</event>
<event>
 8    1  0.6787197E-009  0.1197239E+03  0.7561462E-02  0.1243553E+00
          1   -1    0    0  501    0  0.00000000000E+00  0.00000000000E+00  0.60797216986E+03  0.60797216986E+03  0.00000000000E+00 0. -1.
         -1   -1    0    0    0  501 -0.00000000000E+00 -0.00000000000E+00 -0.34036724148E+02  0.34036724148E+02  0.00000000000E+00 0.  1.
         25    2    1    2    0    0  0.49146178455E+02  0.71247561825E+02  0.23187480611E+03  0.27731806428E+03  0.12509125128E+03 0.  0.
         23    2    1    2    0    0 -0.49146178455E+02 -0.71247561825E+02  0.34206063960E+03  0.36469082972E+03  0.92208232808E+02 0.  0.
          5    1    3    3  502    0  0.53344821696E+02  0.10477306180E+03  0.18813558290E+03  0.22189081647E+03  0.41800000000E+01 0.  1.
         -5    1    3    3    0  502 -0.41986432411E+01 -0.33525499970E+02  0.43739223205E+02  0.55427247811E+02  0.41800000000E+01 0.  1.
        -11    1    4    4    0    0 -0.16001783873E+02 -0.12503207814E+02  0.49543245607E+01  0.20902933398E+02  0.00000000000E+00 0.  1.
         11    1    4    4    0    0 -0.33144394582E+02 -0.58744354011E+02  0.33710631504E+03  0.34378789633E+03  0.00000000000E+00 0. -1.
</event>
<event>
 8    1  0.6787197E-009  0.1210909E+03  0.7561462E-02  0.1241308E+00
         -1   -1    0    0    0  501 -0.00000000000E+00  0.00000000000E+00  0.48407951668E+03  0.48407951668E+03  0.00000000000E+00 0.  1.
          1   -1    0    0  501    0  0.00000000000E+00 -0.00000000000E+00 -0.38081579873E+02  0.38081579873E+02  0.00000000000E+00 0. -1.
         25    2    1    2    0    0  0.37597995157E+02 -0.68326916143E+02  0.17372378728E+03  0.22784101398E+03  0.12509754865E+03 0.  0.
         23    2    1    2    0    0 -0.37597995157E+02  0.68326916143E+02  0.27227414952E+03  0.29432008257E+03  0.80055741785E+02 0.  0.
          5    1    3    3  502    0  0.16357801263E+02  0.36438666341E+02  0.41335663218E+02  0.57632139649E+02  0.41800000000E+01 0. -1.
         -5    1    3    3    0  502  0.21240193895E+02 -0.10476558248E+03  0.13238812406E+03  0.17020887433E+03  0.41800000000E+01 0. -1.
        -11    1    4    4    0    0  0.12691166084E+02  0.27429876552E+02  0.17392579323E+03  0.17653227856E+03  0.00000000000E+00 0.  1.
         11    1    4    4    0    0 -0.50289161242E+02  0.40897039591E+02  0.98348356293E+02  0.11778780400E+03  0.00000000000E+00 0. -1.
</event>
<event>
 8    1  0.6787197E-009  0.1291959E+03  0.7561462E-02  0.1228654E+00
         -2   -1    0    0    0  501 -0.00000000000E+00  0.00000000000E+00  0.22292608655E+03  0.22292608655E+03  0.00000000000E+00 0.  1.
          2   -1    0    0  501    0  0.00000000000E+00 -0.00000000000E+00 -0.10624154347E+03  0.10624154347E+03  0.00000000000E+00 0. -1.
         25    2    1    2    0    0 -0.15623545244E+02 -0.68911642062E+02 -0.25298666467E+02  0.14587690303E+03  0.12508852359E+03 0.  0.
         23    2    1    2    0    0  0.15623545244E+02  0.68911642062E+02  0.14198320955E+03  0.18329072699E+03  0.91887699002E+02 0.  0.
          5    1    3    3  502    0 -0.66309914874E+02 -0.64408967947E+02 -0.18520027153E+02  0.94371519901E+02  0.41800000000E+01 0.  1.
         -5    1    3    3    0  502  0.50686369630E+02 -0.45026741155E+01 -0.67786393140E+01  0.51505383130E+02  0.41800000000E+01 0.  1.
        -11    1    4    4    0    0  0.53400777320E+02  0.46922838824E+02  0.75264084219E+02  0.10352815170E+03  0.00000000000E+00 0.  1.
         11    1    4    4    0    0 -0.37777232076E+02  0.21988803239E+02  0.66719125332E+02  0.79762575286E+02  0.00000000000E+00 0. -1.
</event>
<event>
 8    1  0.6787197E-009  0.1461259E+03  0.7561462E-02  0.1205316E+00
         -2   -1    0    0    0  501 -0.00000000000E+00  0.00000000000E+00  0.25199870270E+02  0.25199870270E+02  0.00000000000E+00 0.  1.
          2   -1    0    0  501    0  0.00000000000E+00 -0.00000000000E+00 -0.13612135292E+04  0.13612135292E+04  0.00000000000E+00 0. -1.
         25    2    1    2    0    0  0.12860694425E+03  0.19209832126E+01 -0.98532479903E+03  0.10015267761E+04  0.12508991720E+03 0.  0.
         23    2    1    2    0    0 -0.12860694425E+03 -0.19209832126E+01 -0.35068885991E+03  0.38488662337E+03  0.92798707435E+02 0.  0.
          5    1    3    3  502    0  0.41775394894E+02  0.49182271920E+02 -0.20509522030E+03  0.21504790462E+03  0.41800000000E+01 0.  1.
         -5    1    3    3    0  502  0.86831549357E+02 -0.47261288707E+02 -0.78022957872E+03  0.78647887148E+03  0.41800000000E+01 0.  1.
        -11    1    4    4    0    0 -0.47044290160E+02 -0.17094749946E+01 -0.34543779256E+02  0.58389727065E+02  0.00000000000E+00 0.  1.
         11    1    4    4    0    0 -0.81562654090E+02 -0.21150821796E+00 -0.31614508065E+03  0.32649689631E+03  0.00000000000E+00 0. -1.
</event>
<event>
 8    1  0.6787197E-009  0.1051345E+03  0.7561462E-02  0.1269855E+00
         -4   -1    0    0    0  501 -0.00000000000E+00  0.00000000000E+00  0.20571070165E+03  0.20571070165E+03  0.00000000000E+00 0.  1.
          4   -1    0    0  501    0  0.00000000000E+00 -0.00000000000E+00 -0.75031145420E+02  0.75031145420E+02  0.00000000000E+00 0. -1.
         25    2    1    2    0    0  0.30376548360E+02  0.19640128696E+02  0.18858178323E+02  0.13157914178E+03  0.12509584452E+03 0.  0.
         23    2    1    2    0    0 -0.30376548360E+02 -0.19640128696E+02  0.11182137791E+03  0.14916270529E+03  0.91853267477E+02 0.  0.
          5    1    3    3  502    0  0.16901783284E+02 -0.44324359211E+02  0.40583405473E+02  0.62568396954E+02  0.41800000000E+01 0.  1.
         -5    1    3    3    0  502  0.13474765076E+02  0.63964487908E+02 -0.21725227150E+02  0.69010744829E+02  0.41800000000E+01 0.  1.
        -11    1    4    4    0    0 -0.37597996505E+02 -0.51899940399E+02  0.85795172099E+02  0.10708886361E+03  0.00000000000E+00 0.  1.
         11    1    4    4    0    0  0.72214481451E+01  0.32259811703E+02  0.26026205809E+02  0.42073841674E+02  0.00000000000E+00 0. -1.
</event>
<event>
 8    1  0.6787197E-009  0.1820523E+03  0.7561462E-02  0.1165831E+00
         -2   -1    0    0    0  501 -0.00000000000E+00  0.00000000000E+00  0.48175812069E+02  0.48175812069E+02  0.00000000000E+00 0.  1.
          2   -1    0    0  501    0  0.00000000000E+00 -0.00000000000E+00 -0.86605818596E+03  0.86605818596E+03  0.00000000000E+00 0. -1.
         25    2    1    2    0    0 -0.83996032972E+02  0.14873317244E+03 -0.36935670272E+03  0.42573414636E+03  0.12509316284E+03 0.  0.
         23    2    1    2    0    0  0.83996032972E+02 -0.14873317244E+03 -0.44852567117E+03  0.48849985168E+03  0.90994160506E+02 0.  0.
          5    1    3    3  502    0 -0.73539642873E+02  0.81515162181E+02 -0.32823760029E+03  0.34613609373E+03  0.41800000000E+01 0. -1.
         -5    1    3    3    0  502 -0.10456390098E+02  0.67218010259E+02 -0.41119102432E+02  0.79598052626E+02  0.41800000000E+01 0. -1.
        -11    1    4    4    0    0  0.31894350321E+02 -0.12468798112E+03 -0.36612605792E+03  0.38808843388E+03  0.00000000000E+00 0. -1.
         11    1    4    4    0    0  0.52101682651E+02 -0.24045191323E+02 -0.82399613251E+02  0.10041141780E+03  0.00000000000E+00 0.  1.
</event>
<event>
 8    1  0.6787197E-009  0.1349922E+03  0.7561462E-02  0.1220231E+00
         -1   -1    0    0    0  501 -0.00000000000E+00  0.00000000000E+00  0.75309039934E+03  0.75309039934E+03  0.00000000000E+00 0. -1.
          1   -1    0    0  501    0  0.00000000000E+00 -0.00000000000E+00 -0.28303494645E+02  0.28303494645E+02  0.00000000000E+00 0.  1.
         25    2    1    2    0    0 -0.68954137007E+02  0.47778119367E+02  0.50389141092E+03  0.52592044413E+03  0.12509331659E+03 0.  0.
         23    2    1    2    0    0  0.68954137007E+02 -0.47778119367E+02  0.22089549378E+03  0.25547344986E+03  0.97131059448E+02 0.  0.
          5    1    3    3  502    0 -0.56674047786E+02 -0.29485264802E+02  0.31475193096E+03  0.32119710300E+03  0.41800000000E+01 0. -1.
         -5    1    3    3    0  502 -0.12280089222E+02  0.77263384169E+02  0.18913947996E+03  0.20472334113E+03  0.41800000000E+01 0. -1.
        -11    1    4    4    0    0  0.44529598315E+01 -0.61510147646E+02  0.93239250314E+02  0.11178946692E+03  0.00000000000E+00 0.  1.
         11    1    4    4    0    0  0.64501177176E+02  0.13732028279E+02  0.12765624347E+03  0.14368398294E+03  0.00000000000E+00 0. -1.
</event>
<event>
 8    1  0.6787197E-009  0.1158554E+03  0.7561462E-02  0.1250095E+00
         -1   -1    0    0    0  501 -0.00000000000E+00  0.00000000000E+00  0.28062229849E+03  0.28062229849E+03  0.00000000000E+00 0.  1.
          1   -1    0    0  501    0  0.00000000000E+00 -0.00000000000E+00 -0.60133782341E+02  0.60133782341E+02  0.00000000000E+00 0. -1.
         25    2    1    2    0    0 -0.65759927949E+02  0.14688137456E+02  0.80681590415E+02  0.16339207789E+03  0.12508933839E+03 0.  0.
         23    2    1    2    0    0  0.65759927949E+02 -0.14688137456E+02  0.13980692573E+03  0.17736400294E+03  0.85859790073E+02 0.  0.
          5    1    3    3  502    0 -0.78307436098E+02  0.56245146875E+02  0.67725952821E+02  0.11789761737E+03  0.41800000000E+01 0. -1.
         -5    1    3    3    0  502  0.12547508149E+02 -0.41557009419E+02  0.12955637595E+02  0.45494460521E+02  0.41800000000E+01 0. -1.
        -11    1    4    4    0    0  0.64783653324E+02  0.11152661364E+02  0.13622668413E+03  0.15125810082E+03  0.00000000000E+00 0.  1.
         11    1    4    4    0    0  0.97627462505E+00 -0.25840798819E+02  0.35802415984E+01  0.26105902123E+02  0.00000000000E+00 0. -1.
</event>
<event>
 8    1  0.6787197E-009  0.9504284E+02  0.7561462E-02  0.1291080E+00
         -1   -1    0    0    0  501 -0.00000000000E+00  0.00000000000E+00  0.28914211945E+03  0.28914211945E+03  0.00000000000E+00 0.  1.
          1   -1    0    0  501    0  0.00000000000E+00 -0.00000000000E+00 -0.46137450997E+02  0.46137450997E+02  0.00000000000E+00 0. -1.
         25    2    1    2    0    0 -0.12935502075E+02 -0.35067035657E+02  0.11789741596E+03  0.17591145721E+03  0.12509202966E+03 0.  0.
         23    2    1    2    0    0  0.12935502075E+02  0.35067035657E+02  0.12510725250E+03  0.15936811324E+03  0.91374759568E+02 0.  0.
          5    1    3    3  502    0 -0.23729519605E+02 -0.62987778864E+02  0.12746700767E+03  0.14420770032E+03  0.41800000000E+01 0. -1.
         -5    1    3    3    0  502  0.10794017530E+02  0.27920743206E+02 -0.95695917098E+01  0.31703756893E+02  0.41800000000E+01 0. -1.
        -11    1    4    4    0    0  0.41369105298E+02  0.46083841012E+02  0.54644362508E+02  0.82590130339E+02  0.00000000000E+00 0. -1.
         11    1    4    4    0    0 -0.28433603223E+02 -0.11016805354E+02  0.70462889991E+02  0.76777982900E+02  0.00000000000E+00 0.  1.
</event>
<event>
 8    1  0.6787197E-009  0.1677362E+03  0.7561462E-02  0.1180229E+00
          2   -1    0    0  501    0  0.00000000000E+00  0.00000000000E+00  0.46072508900E+03  0.46072508900E+03  0.00000000000E+00 0. -1.
         -2   -1    0    0    0  501 -0.00000000000E+00 -0.00000000000E+00 -0.81441747736E+02  0.81441747736E+02  0.00000000000E+00 0.  1.
         25    2    1    2    0    0  0.52529682721E+02  0.14315415671E+03  0.13143812391E+03  0.23701452032E+03  0.12508965696E+03 0.  0.
         23    2    1    2    0    0 -0.52529682721E+02 -0.14315415671E+03  0.24784521736E+03  0.30515231641E+03  0.91859698961E+02 0.  0.
          5    1    3    3  502    0  0.26613083605E+02  0.12904600795E+03  0.35457023420E+02  0.13651300779E+03  0.41800000000E+01 0. -1.
         -5    1    3    3    0  502  0.25916599116E+02  0.14108148767E+02  0.95981100486E+02  0.10050151254E+03  0.41800000000E+01 0. -1.
        -11    1    4    4    0    0 -0.75363492226E+02 -0.10264418525E+03  0.20814897931E+03  0.24401123399E+03  0.00000000000E+00 0.  1.
         11    1    4    4    0    0  0.22833809505E+02 -0.40509971462E+02  0.39696238049E+02  0.61141082421E+02  0.00000000000E+00 0. -1.
</event>
<event>
 8    1  0.6787197E-009  0.1175753E+03  0.7561462E-02  0.1247152E+00
         -2   -1    0    0    0  501 -0.00000000000E+00  0.00000000000E+00  0.42129941002E+02  0.42129941002E+02  0.00000000000E+00 0. -1.
          2   -1    0    0  501    0  0.00000000000E+00 -0.00000000000E+00 -0.41063017078E+03  0.41063017078E+03  0.00000000000E+00 0.  1.
         25    2    1    2    0    0 -0.63282856806E+02  0.37486853116E+02 -0.19986493086E+03  0.24699367631E+03  0.12509956607E+03 0.  0.
         23    2    1    2    0    0  0.63282856806E+02 -0.37486853116E+02 -0.16863529892E+03  0.20576643547E+03  0.92151927827E+02 0.  0.
          5    1    3    3  502    0  0.22529040062E+02  0.31157928200E+02 -0.12288971607E+02  0.40581588916E+02  0.41800000000E+01 0. -1.
         -5    1    3    3    0  502 -0.85811896867E+02  0.63289249158E+01 -0.18757595925E+03  0.20641208740E+03  0.41800000000E+01 0. -1.
        -11    1    4    4    0    0 -0.13256482779E+02 -0.30758343086E+02 -0.21565945241E+02  0.39835913435E+02  0.00000000000E+00 0. -1.
         11    1    4    4    0    0  0.76539339584E+02 -0.67285100298E+01 -0.14706935368E+03  0.16593052204E+03  0.00000000000E+00 0.  1.
</event>
<event>
 8    1  0.6787197E-009  0.9478373E+02  0.7561462E-02  0.1291664E+00
          2   -1    0    0  501    0  0.00000000000E+00  0.00000000000E+00  0.88216483380E+02  0.88216483380E+02  0.00000000000E+00 0. -1.
         -2   -1    0    0    0  501 -0.00000000000E+00 -0.00000000000E+00 -0.14646448105E+03  0.14646448105E+03  0.00000000000E+00 0.  1.
         25    2    1    2    0    0  0.37488388548E+01 -0.27516972359E+02 -0.53129668291E+02  0.13871328133E+03  0.12508946880E+03 0.  0.
         23    2    1    2    0    0 -0.37488388548E+01  0.27516972359E+02 -0.51183293777E+01  0.95967683098E+02  0.91718925762E+02 0.  0.
          5    1    3    3  502    0  0.53310626239E+02 -0.49750504698E+02 -0.37113515473E+02  0.81926924869E+02  0.41800000000E+01 0. -1.
         -5    1    3    3    0  502 -0.49561787385E+02  0.22233532339E+02 -0.16016152818E+02  0.56786356461E+02  0.41800000000E+01 0. -1.
        -11    1    4    4    0    0 -0.43005188058E+01 -0.16996045338E+02  0.32995628781E+02  0.37364040705E+02  0.00000000000E+00 0. -1.
         11    1    4    4    0    0  0.55167995100E+00  0.44513017697E+02 -0.38113958159E+02  0.58603642393E+02  0.00000000000E+00 0.  1.
</event>
<event>
 8    1  0.6787197E-009  0.1255533E+03  0.7561462E-02  0.1234207E+00
         -1   -1    0    0    0  501 -0.00000000000E+00  0.00000000000E+00  0.87861546680E+02  0.87861546680E+02  0.00000000000E+00 0.  1.
          1   -1    0    0  501    0  0.00000000000E+00 -0.00000000000E+00 -0.26699125471E+03  0.26699125471E+03  0.00000000000E+00 0. -1.
         25    2    1    2    0    0 -0.42677975802E+02  0.71142231563E+02 -0.17349731474E+03  0.22941671791E+03  0.12509230794E+03 0.  0.
         23    2    1    2    0    0  0.42677975802E+02 -0.71142231563E+02 -0.56323932944E+01  0.12543608348E+03  0.93914112117E+02 0.  0.
          5    1    3    3  502    0 -0.29757326326E+01 -0.35431881436E+02 -0.33863972306E+02  0.49279957662E+02  0.41800000000E+01 0. -1.
         -5    1    3    3    0  502 -0.39702243169E+02  0.10657411300E+03 -0.13963334243E+03  0.18013676025E+03  0.41800000000E+01 0. -1.
        -11    1    4    4    0    0  0.31454090193E+02 -0.20712420681E+01  0.32889912556E+02  0.45556516345E+02  0.00000000000E+00 0.  1.
         11    1    4    4    0    0  0.11223885609E+02 -0.69070989495E+02 -0.38522305850E+02  0.79879567137E+02  0.00000000000E+00 0. -1.
</event>
<event>
 8    1  0.6787197E-009  0.2663113E+03  0.7561462E-02  0.1103410E+00
         -1   -1    0    0    0  501 -0.00000000000E+00  0.00000000000E+00  0.80243306947E+02  0.80243306947E+02  0.00000000000E+00 0.  1.
          1   -1    0    0  501    0  0.00000000000E+00 -0.00000000000E+00 -0.10361872122E+04  0.10361872122E+04  0.00000000000E+00 0. -1.
         25    2    1    2    0    0 -0.11624392586E+03 -0.23930147610E+03 -0.49042283116E+03  0.57178674625E+03  0.12509069953E+03 0.  0.
         23    2    1    2    0    0  0.11624392586E+03  0.23930147610E+03 -0.46552107412E+03  0.54464377292E+03  0.95651043733E+02 0.  0.
          5    1    3    3  502    0 -0.43806818427E+02 -0.80950239640E+02 -0.66959177444E+02  0.11389900124E+03  0.41800000000E+01 0. -1.
         -5    1    3    3    0  502 -0.72437107431E+02 -0.15835123646E+03 -0.42346365372E+03  0.45788774502E+03  0.41800000000E+01 0. -1.
        -11    1    4    4    0    0  0.94457043772E+02  0.20419455139E+03 -0.44470742058E+03  0.49837961220E+03  0.00000000000E+00 0. -1.
         11    1    4    4    0    0  0.21786882086E+02  0.35106924705E+02 -0.20813653538E+02  0.46264160718E+02  0.00000000000E+00 0.  1.
</event>
<event>
 8    1  0.6787197E-009  0.8822714E+02  0.7561462E-02  0.1307203E+00
          2   -1    0    0  501    0  0.00000000000E+00  0.00000000000E+00  0.69486209143E+02  0.69486209143E+02  0.00000000000E+00 0. -1.
         -2   -1    0    0    0  501 -0.00000000000E+00 -0.00000000000E+00 -0.18362241345E+03  0.18362241345E+03  0.00000000000E+00 0.  1.
         25    2    1    2    0    0 -0.28346379758E+02 -0.11629422265E+02 -0.91320054717E+02  0.15789231587E+03  0.12510743507E+03 0.  0.
         23    2    1    2    0    0  0.28346379758E+02  0.11629422265E+02 -0.22816149590E+02  0.95216306721E+02  0.87217014830E+02 0.  0.
          5    1    3    3  502    0  0.28136255613E+02  0.23628968791E+02  0.83924370032E+01  0.37919420418E+02  0.41800000000E+01 0.  1.
         -5    1    3    3    0  502 -0.56482635371E+02 -0.35258391055E+02 -0.99712491720E+02  0.11997289545E+03  0.41800000000E+01 0.  1.
        -11    1    4    4    0    0  0.35122361926E+02 -0.19996873120E+02 -0.41446684396E+02  0.57890265928E+02  0.00000000000E+00 0.  1.
         11    1    4    4    0    0 -0.67759821684E+01  0.31626295384E+02  0.18630534806E+02  0.37326040793E+02  0.00000000000E+00 0. -1.
</event>
<event>
 8    1  0.6787197E-009  0.1978666E+03  0.7561462E-02  0.1151552E+00
          4   -1    0    0  501    0  0.00000000000E+00  0.00000000000E+00  0.23526926743E+02  0.23526926743E+02  0.00000000000E+00 0. -1.
         -4   -1    0    0    0  501 -0.00000000000E+00 -0.00000000000E+00 -0.16982575730E+04  0.16982575730E+04  0.00000000000E+00 0.  1.
         25    2    1    2    0    0  0.14819520268E+03 -0.77566701514E+02 -0.89195917550E+03  0.91608793951E+03  0.12509009108E+03 0.  0.
         23    2    1    2    0    0 -0.14819520268E+03  0.77566701514E+02 -0.78277147080E+03  0.80569656027E+03  0.91855105755E+02 0.  0.
          5    1    3    3  502    0  0.83211864093E+02  0.22414364388E+02 -0.29679811310E+03  0.30908447130E+03  0.41800000000E+01 0. -1.
         -5    1    3    3    0  502  0.64983338586E+02 -0.99981065902E+02 -0.59516106239E+03  0.60700346821E+03  0.41800000000E+01 0. -1.
        -11    1    4    4    0    0 -0.15389892736E+03  0.49748067890E+02 -0.68839699268E+03  0.70714225558E+03  0.00000000000E+00 0. -1.
         11    1    4    4    0    0  0.57037246813E+01  0.27818633624E+02 -0.94374478122E+02  0.98554304689E+02  0.00000000000E+00 0.  1.
</event>
<event>
 8    1  0.6787197E-009  0.2008023E+03  0.7561462E-02  0.1149064E+00
          2   -1    0    0  501    0  0.00000000000E+00  0.00000000000E+00  0.22597465902E+04  0.22597465902E+04  0.00000000000E+00 0.  1.
         -2   -1    0    0    0  501 -0.00000000000E+00 -0.00000000000E+00 -0.18597050710E+02  0.18597050710E+02  0.00000000000E+00 0. -1.
         25    2    1    2    0    0  0.16918908137E+03  0.25280744042E+02  0.13699154855E+04  0.13862111475E+04  0.12509535022E+03 0.  0.
         23    2    1    2    0    0 -0.16918908137E+03 -0.25280744042E+02  0.87123405391E+03  0.89213249337E+03  0.87106531112E+02 0.  0.
          5    1    3    3  502    0  0.18839589953E+03  0.23485087390E+02  0.11684418611E+04  0.11837729594E+04  0.41800000000E+01 0.  1.
         -5    1    3    3    0  502 -0.19206818151E+02  0.17956566516E+01  0.20147362441E+03  0.20243818805E+03  0.41800000000E+01 0.  1.
        -11    1    4    4    0    0 -0.50098172845E+02  0.32379382848E+02  0.27228340218E+03  0.27874092355E+03  0.00000000000E+00 0. -1.
         11    1    4    4    0    0 -0.11909090853E+03 -0.57660126890E+02  0.59895065173E+03  0.61339156983E+03  0.00000000000E+00 0.  1.
</event>
<event>
 8    1  0.6787197E-009  0.1490061E+03  0.7561462E-02  0.1201700E+00
         -2   -1    0    0    0  501 -0.00000000000E+00  0.00000000000E+00  0.60036220096E+02  0.60036220096E+02  0.00000000000E+00 0.  1.
          2   -1    0    0  501    0  0.00000000000E+00 -0.00000000000E+00 -0.53923241173E+03  0.53923241173E+03  0.00000000000E+00 0. -1.
         25    2    1    2    0    0 -0.92698046229E+02  0.83685772837E+02 -0.13601019927E+03  0.22303094245E+03  0.12509112932E+03 0.  0.
         23    2    1    2    0    0  0.92698046229E+02 -0.83685772837E+02 -0.34318599237E+03  0.37623768938E+03  0.90454061289E+02 0.  0.
          5    1    3    3  502    0 -0.11040647234E+03  0.29357125813E+02 -0.11458947015E+03  0.16186305644E+03  0.41800000000E+01 0. -1.
         -5    1    3    3    0  502  0.17708426111E+02  0.54328647024E+02 -0.21420729120E+02  0.61167886009E+02  0.41800000000E+01 0. -1.
        -11    1    4    4    0    0  0.73621772271E+02 -0.76057888522E+02 -0.33916947409E+03  0.35530395426E+03  0.00000000000E+00 0. -1.
         11    1    4    4    0    0  0.19076273958E+02 -0.76278843147E+01 -0.40165182845E+01  0.20933735127E+02  0.00000000000E+00 0.  1.
</event>
<event>
 8    1  0.6787197E-009  0.5337966E+02  0.7561462E-02  0.1427921E+00
         -1   -1    0    0    0  501 -0.00000000000E+00  0.00000000000E+00  0.50431840823E+03  0.50431840823E+03  0.00000000000E+00 0.  1.
          1   -1    0    0  501    0  0.00000000000E+00 -0.00000000000E+00 -0.23477134639E+02  0.23477134639E+02  0.00000000000E+00 0. -1.
         25    2    1    2    0    0  0.45474619127E+01  0.72642572289E+01  0.28677722596E+03  0.31298353178E+03  0.12507623673E+03 0.  0.
         23    2    1    2    0    0 -0.45474619127E+01 -0.72642572289E+01  0.19406404763E+03  0.21481201109E+03  0.91705488832E+02 0.  0.
          5    1    3    3  502    0 -0.47172320131E+01 -0.91983387964E+01 -0.10357965372E+02  0.15219118277E+02  0.41800000000E+01 0.  1.
         -5    1    3    3    0  502  0.92646939258E+01  0.16462596025E+02  0.29713519134E+03  0.29776441351E+03  0.41800000000E+01 0.  1.
        -11    1    4    4    0    0 -0.29671115341E+02 -0.30132284480E+02  0.44303371273E+02  0.61246374258E+02  0.00000000000E+00 0. -1.
         11    1    4    4    0    0  0.25123653428E+02  0.22868027251E+02  0.14976067636E+03  0.15356563683E+03  0.00000000000E+00 0.  1.
</event>
<event>
 8    1  0.6787197E-009  0.2196495E+03  0.7561462E-02  0.1134145E+00
          2   -1    0    0  501    0  0.00000000000E+00  0.00000000000E+00  0.58537097766E+03  0.58537097766E+03  0.00000000000E+00 0. -1.
         -2   -1    0    0    0  501 -0.00000000000E+00 -0.00000000000E+00 -0.92973843368E+02  0.92973843368E+02  0.00000000000E+00 0.  1.
         25    2    1    2    0    0 -0.30573757505E+02 -0.19169947744E+03  0.15295631635E+03  0.27699391585E+03  0.12508617192E+03 0.  0.
         23    2    1    2    0    0  0.30573757505E+02  0.19169947744E+03  0.33944081795E+03  0.40135090518E+03  0.90438022432E+02 0.  0.
          5    1    3    3  502    0 -0.11202885509E+02  0.15789621670E+02  0.25716178982E+01  0.19972541522E+02  0.41800000000E+01 0. -1.
         -5    1    3    3    0  502 -0.19370871995E+02 -0.20748909911E+03  0.15038469845E+03  0.25702137432E+03  0.41800000000E+01 0. -1.
        -11    1    4    4    0    0  0.58897615575E+02  0.14407714836E+03  0.21797116301E+03  0.26784059010E+03  0.00000000000E+00 0.  1.
         11    1    4    4    0    0 -0.28323858070E+02  0.47622329081E+02  0.12146965493E+03  0.13351031508E+03  0.00000000000E+00 0. -1.
</event>
<event>
 8    1  0.6787197E-009  0.2012921E+03  0.7561462E-02  0.1148653E+00
          1   -1    0    0  501    0  0.00000000000E+00  0.00000000000E+00  0.82188921998E+03  0.82188921998E+03  0.00000000000E+00 0. -1.
         -1   -1    0    0    0  501 -0.00000000000E+00 -0.00000000000E+00 -0.57388887144E+02  0.57388887144E+02  0.00000000000E+00 0.  1.
         25    2    1    2    0    0  0.32918403047E+02  0.17640873297E+03  0.49742355305E+03  0.54339882626E+03  0.12509368859E+03 0.  0.
         23    2    1    2    0    0 -0.32918403047E+02 -0.17640873297E+03  0.26707677978E+03  0.33587928086E+03  0.96339102559E+02 0.  0.
          5    1    3    3  502    0  0.83627483388E+01 -0.10206709248E+02  0.27539743540E+01  0.14112733548E+02  0.41800000000E+01 0.  1.
         -5    1    3    3    0  502  0.24555654708E+02  0.18661544222E+03  0.49466957870E+03  0.52928609272E+03  0.41800000000E+01 0.  1.
        -11    1    4    4    0    0  0.29789679334E+02 -0.36214619807E+02  0.39408990486E+02  0.61253507767E+02  0.00000000000E+00 0.  1.
         11    1    4    4    0    0 -0.62708082381E+02 -0.14019411317E+03  0.22766778930E+03  0.27462577309E+03  0.00000000000E+00 0. -1.
</event>
<event>
 8    1  0.6787197E-009  0.1337613E+03  0.7561462E-02  0.1221979E+00
          2   -1    0    0  501    0  0.00000000000E+00  0.00000000000E+00  0.61865314946E+03  0.61865314946E+03  0.00000000000E+00 0. -1.
         -2   -1    0    0    0  501 -0.00000000000E+00 -0.00000000000E+00 -0.37188575773E+02  0.37188575773E+02  0.00000000000E+00 0.  1.
         25    2    1    2    0    0  0.70665571907E+02  0.42119208118E+02  0.17561766332E+03  0.23077347582E+03  0.12508869944E+03 0.  0.
         23    2    1    2    0    0 -0.70665571907E+02 -0.42119208118E+02  0.40584691038E+03  0.42506824942E+03  0.95935662071E+02 0.  0.
          5    1    3    3  502    0 -0.33592231475E+02  0.90440045789E+01  0.19478068757E+02  0.40088646731E+02  0.41800000000E+01 0.  1.
         -5    1    3    3    0  502  0.10425780338E+03  0.33075203539E+02  0.15613959456E+03  0.19068482909E+03  0.41800000000E+01 0.  1.
        -11    1    4    4    0    0 -0.91912474982E+02 -0.23730886290E+02  0.34865178666E+03  0.36134350190E+03  0.00000000000E+00 0. -1.
         11    1    4    4    0    0  0.21246903075E+02 -0.18388321828E+02  0.57195123712E+02  0.63724747519E+02  0.00000000000E+00 0.  1.
</event>
<event>
 8    1  0.6787197E-009  0.1106590E+03  0.7561462E-02  0.1259354E+00
         -2   -1    0    0    0  501 -0.00000000000E+00  0.00000000000E+00  0.14716726364E+03  0.14716726364E+03  0.00000000000E+00 0.  1.
          2   -1    0    0  501    0  0.00000000000E+00 -0.00000000000E+00 -0.12599722341E+03  0.12599722341E+03  0.00000000000E+00 0. -1.
         25    2    1    2    0    0  0.51765309189E+01 -0.20383298331E+02 -0.67333977520E+02  0.14360230644E+03  0.12508190342E+03 0.  0.
         23    2    1    2    0    0 -0.51765309189E+01  0.20383298331E+02  0.88504017747E+02  0.12956218061E+03  0.92255743262E+02 0.  0.
          5    1    3    3  502    0 -0.59827782571E+02 -0.91747268252E+01 -0.29839789017E+02  0.67612310922E+02  0.41800000000E+01 0. -1.
         -5    1    3    3    0  502  0.65004313490E+02 -0.11208571506E+02 -0.37494188503E+02  0.75989995519E+02  0.41800000000E+01 0. -1.
        -11    1    4    4    0    0 -0.27082491953E+02 -0.29513932108E+02  0.39996796189E+02  0.56606335902E+02  0.00000000000E+00 0.  1.
         11    1    4    4    0    0  0.21905961034E+02  0.49897230439E+02  0.48507221558E+02  0.72955844712E+02  0.00000000000E+00 0. -1.
</event>
<event>
 8    1  0.6787197E-009  0.1131701E+03  0.7561462E-02  0.1254809E+00
         -2   -1    0    0    0  501 -0.00000000000E+00  0.00000000000E+00  0.58179069625E+02  0.58179069625E+02  0.00000000000E+00 0.  1.
          2   -1    0    0  501    0  0.00000000000E+00 -0.00000000000E+00 -0.34668258361E+03  0.34668258361E+03  0.00000000000E+00 0. -1.
         25    2    1    2    0    0  0.36909964533E+02  0.71659596887E+02 -0.21585142367E+03  0.26217548388E+03  0.12508678563E+03 0.  0.
         23    2    1    2    0    0 -0.36909964533E+02 -0.71659596887E+02 -0.72652090313E+02  0.14268616936E+03  0.92647576280E+02 0.  0.
          5    1    3    3  502    0  0.58590803341E+02 -0.77459294754E+01 -0.13156362666E+03  0.14428909148E+03  0.41800000000E+01 0. -1.
         -5    1    3    3    0  502 -0.21680838808E+02  0.79405526362E+02 -0.84287797008E+02  0.11788639240E+03  0.41800000000E+01 0. -1.
        -11    1    4    4    0    0 -0.13093960430E+02 -0.52497879363E+02 -0.91841675538E+02  0.10659442998E+03  0.00000000000E+00 0. -1.
         11    1    4    4    0    0 -0.23816004103E+02 -0.19161717524E+02  0.19189585226E+02  0.36091739374E+02  0.00000000000E+00 0.  1.
</event>
<event>
 8    1  0.6787197E-009  0.1073518E+03  0.7561462E-02  0.1265554E+00
         -2   -1    0    0    0  501 -0.00000000000E+00  0.00000000000E+00  0.22361417756E+02  0.22361417756E+02  0.00000000000E+00 0.  1.
          2   -1    0    0  501    0  0.00000000000E+00 -0.00000000000E+00 -0.93530034617E+03  0.93530034617E+03  0.00000000000E+00 0. -1.
         25    2    1    2    0    0  0.11784694562E+02  0.44273304790E+02 -0.77915025685E+03  0.79045691653E+03  0.12509200457E+03 0.  0.
         23    2    1    2    0    0 -0.11784694562E+02 -0.44273304790E+02 -0.13378867156E+03  0.16720484739E+03  0.89213495666E+02 0.  0.
          5    1    3    3  502    0 -0.40515304638E+02  0.59323337141E+02 -0.31536020172E+03  0.32346603758E+03  0.41800000000E+01 0. -1.
         -5    1    3    3    0  502  0.52299999201E+02 -0.15050032352E+02 -0.46379005513E+03  0.46699087895E+03  0.41800000000E+01 0. -1.
        -11    1    4    4    0    0  0.30365460176E+02 -0.32324428502E+02 -0.10706342177E+03  0.11588574602E+03  0.00000000000E+00 0. -1.
         11    1    4    4    0    0 -0.42150154738E+02 -0.11948876287E+02 -0.26725249798E+02  0.51319101373E+02  0.00000000000E+00 0.  1.
</event>
<event>
 8    1  0.6787197E-009  0.1287190E+03  0.7561462E-02  0.1229369E+00
          3   -1    0    0  501    0  0.00000000000E+00  0.00000000000E+00  0.38744481587E+02  0.38744481587E+02  0.00000000000E+00 0. -1.
         -3   -1    0    0    0  501 -0.00000000000E+00 -0.00000000000E+00 -0.53720391274E+03  0.53720391274E+03  0.00000000000E+00 0.  1.
         25    2    1    2    0    0  0.51476116830E+02 -0.77934072336E+02 -0.29001009532E+03  0.32935884150E+03  0.12509148994E+03 0.  0.
         23    2    1    2    0    0 -0.51476116830E+02  0.77934072336E+02 -0.20844933584E+03  0.24658955283E+03  0.92907328655E+02 0.  0.
          5    1    3    3  502    0 -0.27803806748E+02 -0.26274953322E+01 -0.14484024145E+03  0.14756735189E+03  0.41800000000E+01 0. -1.
         -5    1    3    3    0  502  0.79279923578E+02 -0.75306577004E+02 -0.14516985387E+03  0.18179148961E+03  0.41800000000E+01 0. -1.
        -11    1    4    4    0    0 -0.22649058093E+02  0.86727125467E+02 -0.19282795631E+03  0.21264335132E+03  0.00000000000E+00 0.  1.
         11    1    4    4    0    0 -0.28827058736E+02 -0.87930531305E+01 -0.15621379529E+02  0.33946201513E+02  0.00000000000E+00 0. -1.
</event>
<event>
 8    1  0.6787197E-009  0.1367813E+03  0.7561462E-02  0.1217727E+00
          2   -1    0    0  501    0  0.00000000000E+00  0.00000000000E+00  0.22350830506E+03  0.22350830506E+03  0.00000000000E+00 0. -1.
         -2   -1    0    0    0  501 -0.00000000000E+00 -0.00000000000E+00 -0.94659068122E+02  0.94659068122E+02  0.00000000000E+00 0.  1.
         25    2    1    2    0    0  0.47194792484E+02 -0.81913666151E+02  0.92320449620E+02  0.18195742415E+03  0.12509293204E+03 0.  0.
         23    2    1    2    0    0 -0.47194792484E+02  0.81913666151E+02  0.36528787313E+02  0.13620994903E+03  0.91003300882E+02 0.  0.
          5    1    3    3  502    0  0.55494675384E+02  0.13142615326E+02  0.15117679836E+02  0.59147307439E+02  0.41800000000E+01 0. -1.
         -5    1    3    3    0  502 -0.82998829008E+01 -0.95056281477E+02  0.77202769784E+02  0.12281011671E+03  0.41800000000E+01 0. -1.
        -11    1    4    4    0    0 -0.57472688341E+02  0.24386636364E+02  0.45275198592E+02  0.77121083666E+02  0.00000000000E+00 0.  1.
         11    1    4    4    0    0  0.10277895857E+02  0.57527029787E+02 -0.87464112792E+01  0.59088865361E+02  0.00000000000E+00 0. -1.
</event>
<event>
 8    1  0.6787197E-009  0.1447788E+03  0.7561462E-02  0.1207040E+00
         -2   -1    0    0    0  501 -0.00000000000E+00  0.00000000000E+00  0.25783676590E+02  0.25783676590E+02  0.00000000000E+00 0.  1.
          2   -1    0    0  501    0  0.00000000000E+00 -0.00000000000E+00 -0.88076133709E+03  0.88076133709E+03  0.00000000000E+00 0. -1.
         25    2    1    2    0    0  0.10200407451E+03  0.16115516195E+02 -0.41514312222E+03  0.44570950269E+03  0.12509439549E+03 0.  0.
         23    2    1    2    0    0 -0.10200407451E+03 -0.16115516195E+02 -0.43983453829E+03  0.46083551100E+03  0.90831745803E+02 0.  0.
          5    1    3    3  502    0  0.74294672582E+02  0.63313985816E+02 -0.18618305564E+03  0.21026165077E+03  0.41800000000E+01 0. -1.
         -5    1    3    3    0  502  0.27709401929E+02 -0.47198469621E+02 -0.22896006657E+03  0.23544785192E+03  0.41800000000E+01 0. -1.
        -11    1    4    4    0    0 -0.24355290026E+02 -0.47367541599E+02 -0.15105362904E+03  0.16016885776E+03  0.00000000000E+00 0. -1.
         11    1    4    4    0    0 -0.77648784485E+02  0.31252025404E+02 -0.28878090924E+03  0.30066665323E+03  0.00000000000E+00 0.  1.
</event>
<event>
 8    1  0.6787197E-009  0.1703611E+03  0.7561462E-02  0.1177472E+00
          2   -1    0    0  501    0  0.00000000000E+00  0.00000000000E+00  0.10398284679E+04  0.10398284679E+04  0.00000000000E+00 0. -1.
         -2   -1    0    0    0  501 -0.00000000000E+00 -0.00000000000E+00 -0.38904954535E+02  0.38904954535E+02  0.00000000000E+00 0.  1.
         25    2    1    2    0    0 -0.12967766823E+03 -0.10069021363E+03  0.41455695840E+03  0.46309768113E+03  0.12508866356E+03 0.  0.
         23    2    1    2    0    0  0.12967766823E+03  0.10069021363E+03  0.58636655497E+03  0.61563574132E+03  0.90701777463E+02 0.  0.
          5    1    3    3  502    0 -0.33452096555E+02 -0.11589349289E+02  0.88916284684E+01  0.36740838827E+02  0.41800000000E+01 0. -1.
         -5    1    3    3    0  502 -0.96225571674E+02 -0.89100864336E+02  0.40566532993E+03  0.42635684230E+03  0.41800000000E+01 0. -1.
        -11    1    4    4    0    0  0.81960230159E+02  0.27418594726E+02  0.40720553781E+03  0.41627588051E+03  0.00000000000E+00 0.  1.
         11    1    4    4    0    0  0.47717438070E+02  0.73271618899E+02  0.17916101716E+03  0.19935986081E+03  0.00000000000E+00 0. -1.
</event>
<event>
 8    1  0.6787197E-009  0.1007231E+03  0.7561462E-02  0.1278783E+00
          2   -1    0    0  501    0  0.00000000000E+00  0.00000000000E+00  0.48259529106E+03  0.48259529106E+03  0.00000000000E+00 0.  1.
         -2   -1    0    0    0  501 -0.00000000000E+00 -0.00000000000E+00 -0.27287931860E+02  0.27287931860E+02  0.00000000000E+00 0. -1.
         25    2    1    2    0    0 -0.13240982291E+02  0.12174070859E+01  0.34161137486E+03  0.36403558638E+03  0.12508705377E+03 0.  0.
         23    2    1    2    0    0  0.13240982291E+02 -0.12174070859E+01  0.11369598434E+03  0.14584763654E+03  0.90376714585E+02 0.  0.
          5    1    3    3  502    0  0.46034850391E+02 -0.20781129115E+02  0.78779885240E+02  0.93673931786E+02  0.41800000000E+01 0. -1.
         -5    1    3    3    0  502 -0.59275832681E+02  0.21998536201E+02  0.26283148962E+03  0.27036165459E+03  0.41800000000E+01 0. -1.
        -11    1    4    4    0    0  0.43325555373E+02 -0.24123670021E+02  0.42829041540E+02  0.65523904058E+02  0.00000000000E+00 0. -1.
         11    1    4    4    0    0 -0.30084573083E+02  0.22906262935E+02  0.70866942795E+02  0.80323732485E+02  0.00000000000E+00 0.  1.
</event>
<event>
 8    1  0.6787197E-009  0.1188601E+03  0.7561462E-02  0.1244990E+00
          2   -1    0    0  501    0  0.00000000000E+00  0.00000000000E+00  0.88803209398E+03  0.88803209398E+03  0.00000000000E+00 0.  1.
         -2   -1    0    0    0  501 -0.00000000000E+00 -0.00000000000E+00 -0.20922142077E+02  0.20922142077E+02  0.00000000000E+00 0. -1.
         25    2    1    2    0    0 -0.60531325615E+02  0.37601989530E+02  0.61691012676E+03  0.63348444172E+03  0.12508590012E+03 0.  0.
         23    2    1    2    0    0  0.60531325615E+02 -0.37601989530E+02  0.25019982514E+03  0.27546979433E+03  0.90585341483E+02 0.  0.
          5    1    3    3  502    0  0.38699261300E+02  0.49804535999E+01  0.15463212579E+03  0.15953370951E+03  0.41800000000E+01 0.  1.
         -5    1    3    3    0  502 -0.99230586915E+02  0.32621535930E+02  0.46227800097E+03  0.47395073221E+03  0.41800000000E+01 0.  1.
        -11    1    4    4    0    0  0.44179552109E+02 -0.54678799470E+02  0.23934363428E+03  0.24945336079E+03  0.00000000000E+00 0.  1.
         11    1    4    4    0    0  0.16351773506E+02  0.17076809940E+02  0.10856190859E+02  0.26016433546E+02  0.00000000000E+00 0. -1.
</event>
