<event>
 8    1  0.6869405E-009  0.2467613E+03  0.7561462E-02  0.1115369E+00
          2   -1    0    0  501    0  0.00000000000E+00  0.00000000000E+00  0.18878978239E+03  0.18878978239E+03  0.00000000000E+00 0. -1.
         -2   -1    0    0    0  501 -0.00000000000E+00 -0.00000000000E+00 -0.43157389441E+03  0.43157389441E+03  0.00000000000E+00 0.  1.
         25    2    1    2    0    0 -0.16967030234E+03 -0.15110298300E+03  0.21128843130E+02  0.26021972668E+03  0.12509098758E+03 0.  0.
         23    2    1    2    0    0  0.16967030234E+03  0.15110298300E+03 -0.26391295515E+03  0.36014395013E+03  0.91834056607E+02 0.  0.
          5    1    3    3  502    0 -0.13636101314E+03 -0.17028170707E+03  0.47845294267E+01  0.21824424343E+03  0.41800000000E+01 0. -1.
         -5    1    3    3    0  502 -0.33309289198E+02  0.19178724071E+02  0.16344313703E+02  0.41975483252E+02  0.41800000000E+01 0. -1.
        -11    1    4    4    0    0  0.80881040862E+02  0.11550697526E+03 -0.20144941049E+03  0.24589727345E+03  0.00000000000E+00 0.  1.
         11    1    4    4    0    0  0.88789261477E+02  0.35596007737E+02 -0.62463544661E+02  0.11424667668E+03  0.00000000000E+00 0. -1.
</event>
<event>
 8    1  0.6869405E-009  0.1796404E+03  0.7561462E-02  0.1168152E+00
          2   -1    0    0  501    0  0.00000000000E+00  0.00000000000E+00  0.23808214470E+04  0.23808214470E+04  0.00000000000E+00 0.  1.
         -2   -1    0    0    0  501 -0.00000000000E+00 -0.00000000000E+00 -0.19927133989E+02  0.19927133989E+02  0.00000000000E+00 0. -1.
         25    2    1    2    0    0  0.16615430182E+03  0.22695562865E+02  0.17062589430E+04  0.17190364752E+04  0.12507790388E+03 0.  0.
         23    2    1    2    0    0 -0.16615430182E+03 -0.22695562865E+02  0.65463537002E+03  0.68171210576E+03  0.89786340132E+02 0.  0.
          5    1    3    3  502    0  0.12031812767E+03  0.25477009126E+02  0.63662531929E+03  0.64840943809E+03  0.41800000000E+01 0.  1.
         -5    1    3    3    0  502  0.45836174152E+02 -0.27814462617E+01  0.10696336237E+04  0.10706270371E+04  0.41800000000E+01 0.  1.
        -11    1    4    4    0    0 -0.67113299216E+02  0.34793995138E+02  0.27158382641E+03  0.28190883597E+03  0.00000000000E+00 0.  1.
         11    1    4    4    0    0 -0.99041002604E+02 -0.57489558002E+02  0.38305154361E+03  0.39980326979E+03  0.00000000000E+00 0. -1.
</event>
<event>
 8    1  0.6869405E-009  0.9419146E+02  0.7561462E-02  0.1293008E+00
         -2   -1    0    0    0  501 -0.00000000000E+00  0.00000000000E+00  0.87107090607E+02  0.87107090607E+02  0.00000000000E+00 0.  1.
          2   -1    0    0  501    0  0.00000000000E+00 -0.00000000000E+00 -0.23334260705E+03  0.23334260705E+03  0.00000000000E+00 0. -1.
         25    2    1    2    0    0 -0.76539701019E+02 -0.54051045509E+01 -0.21525833954E+02  0.14831873497E+03  0.12509014601E+03 0.  0.
         23    2    1    2    0    0  0.76539701019E+02  0.54051045509E+01 -0.12470968249E+03  0.17213096269E+03  0.90493217540E+02 0.  0.
          5    1    3    3  502    0 -0.53115343863E+00 -0.31017346800E+02 -0.53408377767E+02  0.61905453251E+02  0.41800000000E+01 0. -1.
         -5    1    3    3    0  502 -0.76008547580E+02  0.25612242249E+02  0.31882543813E+02  0.86413281724E+02  0.41800000000E+01 0. -1.
        -11    1    4    4    0    0  0.47861049486E+02  0.44837743618E+01 -0.13368623478E+03  0.14206615944E+03  0.00000000000E+00 0. -1.
         11    1    4    4    0    0  0.28678651533E+02  0.92133018913E+00  0.89765522844E+01  0.30064803242E+02  0.00000000000E+00 0.  1.
</event>
<event>
 8    1  0.6869405E-009  0.1378307E+03  0.7561462E-02  0.1216278E+00
          1   -1    0    0  501    0  0.00000000000E+00  0.00000000000E+00  0.46250609309E+03  0.46250609309E+03  0.00000000000E+00 0. -1.
         -1   -1    0    0    0  501 -0.00000000000E+00 -0.00000000000E+00 -0.50811777871E+02  0.50811777871E+02  0.00000000000E+00 0.  1.
         25    2    1    2    0    0 -0.28122508602E+02 -0.98023106594E+02  0.16189244841E+03  0.22859909672E+03  0.12509587224E+03 0.  0.
         23    2    1    2    0    0  0.28122508602E+02  0.98023106594E+02  0.24980186681E+03  0.28471877425E+03  0.90908761016E+02 0.  0.
          5    1    3    3  502    0 -0.33563524707E+02  0.16713952580E+02  0.76869367768E+02  0.85628491186E+02  0.41800000000E+01 0. -1.
         -5    1    3    3    0  502  0.54410161055E+01 -0.11473705917E+03  0.85023080643E+02  0.14297060553E+03  0.41800000000E+01 0. -1.
        -11    1    4    4    0    0  0.48662530918E+02  0.45600135216E+02  0.71657812759E+02  0.97889000284E+02  0.00000000000E+00 0.  1.
         11    1    4    4    0    0 -0.20540022316E+02  0.52422971378E+02  0.17814405405E+03  0.18682977396E+03  0.00000000000E+00 0. -1.
</event>
<event>
 8    1  0.6869405E-009  0.2918949E+03  0.7561462E-02  0.1089364E+00
         -1   -1    0    0    0  501 -0.00000000000E+00  0.00000000000E+00  0.58465761351E+02  0.58465761351E+02  0.00000000000E+00 0.  1.
          1   -1    0    0  501    0  0.00000000000E+00 -0.00000000000E+00 -0.16494412915E+04  0.16494412915E+04  0.00000000000E+00 0. -1.
         25    2    1    2    0    0 -0.11461315377E+03  0.26452492830E+03 -0.88517320310E+03  0.93930218821E+03  0.12508952226E+03 0.  0.
         23    2    1    2    0    0  0.11461315377E+03 -0.26452492830E+03 -0.70580232706E+03  0.76860486465E+03  0.97400720596E+02 0.  0.
          5    1    3    3  502    0 -0.90631147021E+02  0.25256285288E+03 -0.86450644271E+03  0.90520211077E+03  0.41800000000E+01 0. -1.
         -5    1    3    3    0  502 -0.23982006745E+02  0.11962075428E+02 -0.20666760388E+02  0.34100077434E+02  0.41800000000E+01 0. -1.
        -11    1    4    4    0    0  0.10568459764E+03 -0.24577217683E+03 -0.69598283479E+03  0.74563080905E+03  0.00000000000E+00 0. -1.
         11    1    4    4    0    0  0.89285561313E+01 -0.18752751471E+02 -0.98194922696E+01  0.22974055601E+02  0.00000000000E+00 0.  1.
</event>
<event>
 8    1  0.6869405E-009  0.1312747E+03  0.7561462E-02  0.1225576E+00
         -1   -1    0    0    0  501 -0.00000000000E+00  0.00000000000E+00  0.51361016913E+03  0.51361016913E+03  0.00000000000E+00 0. -1.
          1   -1    0    0  501    0  0.00000000000E+00 -0.00000000000E+00 -0.45201236387E+02  0.45201236387E+02  0.00000000000E+00 0.  1.
         25    2    1    2    0    0 -0.32982308438E+02  0.97595107690E+02  0.20211335144E+03  0.25905725825E+03  0.12509283956E+03 0.  0.
         23    2    1    2    0    0  0.32982308438E+02 -0.97595107690E+02  0.26629558131E+03  0.29975414726E+03  0.91250065557E+02 0.  0.
          5    1    3    3  502    0  0.44316906789E+02  0.42354281817E+02  0.48030254653E+02  0.77988788794E+02  0.41800000000E+01 0.  1.
         -5    1    3    3    0  502 -0.77299215226E+02  0.55240825872E+02  0.15408309678E+03  0.18106846946E+03  0.41800000000E+01 0.  1.
        -11    1    4    4    0    0  0.22697215029E+02 -0.29932782966E+02  0.16996211002E+02  0.41231132104E+02  0.00000000000E+00 0.  1.
         11    1    4    4    0    0  0.10285093409E+02 -0.67662324724E+02  0.24929937031E+03  0.25852301516E+03  0.00000000000E+00 0. -1.
</event>
<event>
 8    1  0.6869405E-009  0.1092523E+03  0.7561462E-02  0.1261961E+00
         -1   -1    0    0    0  501 -0.00000000000E+00  0.00000000000E+00  0.26946168917E+03  0.26946168917E+03  0.00000000000E+00 0.  1.
          1   -1    0    0  501    0  0.00000000000E+00 -0.00000000000E+00 -0.48647480159E+02  0.48647480159E+02  0.00000000000E+00 0. -1.
         25    2    1    2    0    0  0.15262748345E+02 -0.26491737444E+02  0.15777541102E+03  0.20365497930E+03  0.12508999413E+03 0.  0.
         23    2    1    2    0    0 -0.15262748345E+02  0.26491737444E+02  0.63038797985E+02  0.11445419002E+03  0.90504739780E+02 0.  0.
          5    1    3    3  502    0 -0.54236250822E+02 -0.71083423035E+01  0.52304443126E+02  0.75797932718E+02  0.41800000000E+01 0.  1.
         -5    1    3    3    0  502  0.69498999167E+02 -0.19383395140E+02  0.10547096790E+03  0.12785704659E+03  0.41800000000E+01 0.  1.
        -11    1    4    4    0    0 -0.42441860696E+02  0.42307456890E+02  0.56445592667E+02  0.82324585510E+02  0.00000000000E+00 0.  1.
         11    1    4    4    0    0  0.27179112351E+02 -0.15815719447E+02  0.65932053176E+01  0.32129604513E+02  0.00000000000E+00 0. -1.
</event>
<event>
 8    1  0.6869405E-009  0.1075915E+03  0.7561462E-02  0.1265096E+00
          1   -1    0    0  501    0  0.00000000000E+00  0.00000000000E+00  0.15816468783E+03  0.15816468783E+03  0.00000000000E+00 0. -1.
         -1   -1    0    0    0  501 -0.00000000000E+00 -0.00000000000E+00 -0.90183248971E+02  0.90183248971E+02  0.00000000000E+00 0.  1.
         25    2    1    2    0    0 -0.11525458972E+02  0.34575211514E+02  0.66325739778E+02  0.14620087210E+03  0.12508920733E+03 0.  0.
         23    2    1    2    0    0  0.11525458972E+02 -0.34575211514E+02  0.16556990762E+01  0.10214706469E+03  0.95409643278E+02 0.  0.
          5    1    3    3  502    0 -0.67777492579E+02  0.27324438665E+02  0.41539376982E+02  0.84162971007E+02  0.41800000000E+01 0. -1.
         -5    1    3    3    0  502  0.56252033606E+02  0.72507728484E+01  0.24786362796E+02  0.62037901096E+02  0.41800000000E+01 0. -1.
        -11    1    4    4    0    0 -0.28106709659E+02  0.56235419276E+01  0.27805166191E+02  0.39934178577E+02  0.00000000000E+00 0. -1.
         11    1    4    4    0    0  0.39632168631E+02 -0.40198753441E+02 -0.26149467115E+02  0.62212886117E+02  0.00000000000E+00 0.  1.
</event>
<event>
 8    1  0.6869405E-009  0.1510930E+03  0.7561462E-02  0.1199136E+00
         -2   -1    0    0    0  501 -0.00000000000E+00  0.00000000000E+00  0.33476366856E+02  0.33476366856E+02  0.00000000000E+00 0.  1.
          2   -1    0    0  501    0  0.00000000000E+00 -0.00000000000E+00 -0.85591475470E+03  0.85591475470E+03  0.00000000000E+00 0. -1.
         25    2    1    2    0    0  0.10148970907E+03  0.60820503258E+02 -0.58096986378E+03  0.60594124546E+03  0.12505804918E+03 0.  0.
         23    2    1    2    0    0 -0.10148970907E+03 -0.60820503258E+02 -0.24146852406E+03  0.28344987609E+03  0.89652046712E+02 0.  0.
          5    1    3    3  502    0  0.11624973157E+03  0.28495236406E+02 -0.30516037493E+03  0.32782053843E+03  0.41800000000E+01 0.  1.
         -5    1    3    3    0  502 -0.14760022493E+02  0.32325266852E+02 -0.27580948885E+03  0.27812070703E+03  0.41800000000E+01 0.  1.
        -11    1    4    4    0    0 -0.78080022099E+02  0.35352364246E+01 -0.10651314773E+03  0.13211373277E+03  0.00000000000E+00 0.  1.
         11    1    4    4    0    0 -0.23409686976E+02 -0.64355739682E+02 -0.13495537633E+03  0.15133614332E+03  0.00000000000E+00 0. -1.
</event>
<event>
 8    1  0.6869405E-009  0.1053694E+03  0.7561462E-02  0.1269393E+00
          1   -1    0    0  501    0  0.00000000000E+00  0.00000000000E+00  0.95313362545E+02  0.95313362545E+02  0.00000000000E+00 0. -1.
         -1   -1    0    0    0  501 -0.00000000000E+00 -0.00000000000E+00 -0.16914415436E+03  0.16914415436E+03  0.00000000000E+00 0.  1.
         25    2    1    2    0    0 -0.16436589396E+02  0.38151250995E+02  0.10125490876E+02  0.13220719510E+03  0.12510210808E+03 0.  0.
         23    2    1    2    0    0  0.16436589396E+02 -0.38151250995E+02 -0.83956282693E+02  0.13225032181E+03  0.93358506792E+02 0.  0.
          5    1    3    3  502    0 -0.55404470244E+02 -0.16553272519E+02  0.25247899957E+02  0.63234444777E+02  0.41800000000E+01 0.  1.
         -5    1    3    3    0  502  0.38967880847E+02  0.54704523515E+02 -0.15122409081E+02  0.68972750323E+02  0.41800000000E+01 0.  1.
        -11    1    4    4    0    0  0.17420574805E+02 -0.60571687690E+02 -0.89184345906E+02  0.10920738680E+03  0.00000000000E+00 0.  1.
         11    1    4    4    0    0 -0.98398540831E+00  0.22420436695E+02  0.52280632134E+01  0.23042935009E+02  0.00000000000E+00 0. -1.
</event>
<event>
 8    1  0.6869405E-009  0.1211782E+03  0.7561462E-02  0.1241166E+00
          2   -1    0    0  501    0  0.00000000000E+00  0.00000000000E+00  0.28720523519E+03  0.28720523519E+03  0.00000000000E+00 0. -1.
         -2   -1    0    0    0  501 -0.00000000000E+00 -0.00000000000E+00 -0.87154869881E+02  0.87154869881E+02  0.00000000000E+00 0.  1.
         25    2    1    2    0    0 -0.81006476572E+02 -0.34136639002E+02  0.19523307479E+03  0.24797176378E+03  0.12508670103E+03 0.  0.
         23    2    1    2    0    0  0.81006476572E+02  0.34136639002E+02  0.48172905156E+01  0.12638834128E+03  0.90683224221E+02 0.  0.
          5    1    3    3  502    0  0.24648747534E+02 -0.14260839015E+02  0.47039599616E+01  0.29163880464E+02  0.41800000000E+01 0. -1.
         -5    1    3    3    0  502 -0.10565522411E+03 -0.19875799988E+02  0.19052911483E+03  0.21880788332E+03  0.41800000000E+01 0. -1.
        -11    1    4    4    0    0  0.50452213321E+02 -0.10847379853E+02  0.36725031546E+02  0.63338925005E+02  0.00000000000E+00 0. -1.
         11    1    4    4    0    0  0.30554263251E+02  0.44984018855E+02 -0.31907741031E+02  0.63049416277E+02  0.00000000000E+00 0.  1.
</event>
<event>
 8    1  0.6869405E-009  0.1287948E+03  0.7561462E-02  0.1229255E+00
          2   -1    0    0  501    0  0.00000000000E+00  0.00000000000E+00  0.11761423320E+04  0.11761423320E+04  0.00000000000E+00 0. -1.
         -2   -1    0    0    0  501 -0.00000000000E+00 -0.00000000000E+00 -0.16403298457E+02  0.16403298457E+02  0.00000000000E+00 0.  1.
         25    2    1    2    0    0 -0.22642261871E+01 -0.72936631264E+02  0.83821810292E+03  0.85063240635E+03  0.12506407865E+03 0.  0.
         23    2    1    2    0    0  0.22642261871E+01  0.72936631264E+02  0.32152093063E+03  0.34191322412E+03  0.90576294314E+02 0.  0.
          5    1    3    3  502    0  0.53166207376E+02 -0.11577072247E+01  0.35060441888E+03  0.35463913606E+03  0.41800000000E+01 0. -1.
         -5    1    3    3    0  502 -0.55430433563E+02 -0.71778924039E+02  0.48761368405E+03  0.49599327029E+03  0.41800000000E+01 0. -1.
        -11    1    4    4    0    0 -0.32869954245E+02  0.71038656764E+02  0.25381383821E+03  0.26560946729E+03  0.00000000000E+00 0. -1.
         11    1    4    4    0    0  0.35134180432E+02  0.18979745002E+01  0.67707092419E+02  0.76303756825E+02  0.00000000000E+00 0.  1.
</event>
<event>
 8    1  0.6869405E-009  0.1731253E+03  0.7561462E-02  0.1174627E+00
         -1   -1    0    0    0  501 -0.00000000000E+00  0.00000000000E+00  0.18330072211E+03  0.18330072211E+03  0.00000000000E+00 0. -1.
          1   -1    0    0  501    0  0.00000000000E+00 -0.00000000000E+00 -0.22054402034E+03  0.22054402034E+03  0.00000000000E+00 0.  1.
         25    2    1    2    0    0 -0.88135018953E+01 -0.14648678087E+03 -0.10556873300E+03  0.21983769759E+03  0.12509117120E+03 0.  0.
         23    2    1    2    0    0  0.88135018953E+01  0.14648678087E+03  0.68325434774E+02  0.18400704485E+03  0.87488129098E+02 0.  0.
          5    1    3    3  502    0 -0.29454305049E+02 -0.76277624128E+00 -0.57857870566E+02  0.65062612151E+02  0.41800000000E+01 0.  1.
         -5    1    3    3    0  502  0.20640803153E+02 -0.14572400463E+03 -0.47710862435E+02  0.15477508544E+03  0.41800000000E+01 0.  1.
        -11    1    4    4    0    0 -0.26139023964E+02  0.93948573282E+01  0.21010106226E+02  0.34827237640E+02  0.00000000000E+00 0. -1.
         11    1    4    4    0    0  0.34952525860E+02  0.13709192354E+03  0.47315328548E+02  0.14917980721E+03  0.00000000000E+00 0.  1.
</event>
<event>
 8    1  0.6869405E-009  0.1279549E+03  0.7561462E-02  0.1230522E+00
          1   -1    0    0  501    0  0.00000000000E+00  0.00000000000E+00  0.58205043903E+03  0.58205043903E+03  0.00000000000E+00 0. -1.
         -1   -1    0    0    0  501 -0.00000000000E+00 -0.00000000000E+00 -0.29523385254E+02  0.29523385254E+02  0.00000000000E+00 0.  1.
         25    2    1    2    0    0  0.15533435759E+02  0.65129789428E+02  0.24462179453E+03  0.28279046063E+03  0.12508974845E+03 0.  0.
         23    2    1    2    0    0 -0.15533435759E+02 -0.65129789428E+02  0.30790525924E+03  0.32878336365E+03  0.93859866011E+02 0.  0.
          5    1    3    3  502    0  0.37077439126E+02  0.96227881546E+02  0.16657545719E+03  0.19595764087E+03  0.41800000000E+01 0.  1.
         -5    1    3    3    0  502 -0.21544003366E+02 -0.31098092118E+02  0.78046337340E+02  0.86832819755E+02  0.41800000000E+01 0.  1.
        -11    1    4    4    0    0  0.39236007739E+02 -0.31988063827E+02  0.15355523907E+03  0.16168460649E+03  0.00000000000E+00 0.  1.
         11    1    4    4    0    0 -0.54769443499E+02 -0.33141725601E+02  0.15435002017E+03  0.16709875716E+03  0.00000000000E+00 0. -1.
</event>
<event>
 8    1  0.6869405E-009  0.2037996E+03  0.7561462E-02  0.1146572E+00
         -2   -1    0    0    0  501 -0.00000000000E+00  0.00000000000E+00  0.81910228181E+03  0.81910228181E+03  0.00000000000E+00 0.  1.
          2   -1    0    0  501    0  0.00000000000E+00 -0.00000000000E+00 -0.58626062909E+02  0.58626062909E+02  0.00000000000E+00 0. -1.
         25    2    1    2    0    0  0.80378750593E+02 -0.16888264906E+03  0.45447339765E+03  0.50712563979E+03  0.12509297607E+03 0.  0.
         23    2    1    2    0    0 -0.80378750593E+02  0.16888264906E+03  0.30600282125E+03  0.37060270493E+03  0.93415981421E+02 0.  0.
          5    1    3    3  502    0 -0.25701206549E+02 -0.71986547610E+02  0.11147151414E+03  0.13522568513E+03  0.41800000000E+01 0. -1.
         -5    1    3    3    0  502  0.10607995714E+03 -0.96896101455E+02  0.34300188351E+03  0.37189995466E+03  0.41800000000E+01 0. -1.
        -11    1    4    4    0    0 -0.53039893879E+02  0.12222758954E+03  0.28107985438E+03  0.31106060266E+03  0.00000000000E+00 0.  1.
         11    1    4    4    0    0 -0.27338856714E+02  0.46655059521E+02  0.24922966877E+02  0.59542102274E+02  0.00000000000E+00 0. -1.
</event>
<event>
 8    1  0.6869405E-009  0.1589750E+03  0.7561462E-02  0.1189859E+00
         -1   -1    0    0    0  501 -0.00000000000E+00  0.00000000000E+00  0.68802515350E+02  0.68802515350E+02  0.00000000000E+00 0.  1.
          1   -1    0    0  501    0  0.00000000000E+00 -0.00000000000E+00 -0.44766831249E+03  0.44766831249E+03  0.00000000000E+00 0. -1.
         25    2    1    2    0    0  0.68151743074E+02 -0.93481477456E+02 -0.91848598155E+02  0.19356258276E+03  0.12508741644E+03 0.  0.
         23    2    1    2    0    0 -0.68151743074E+02  0.93481477456E+02 -0.28701719899E+03  0.32290824508E+03  0.92235652075E+02 0.  0.
          5    1    3    3  502    0 -0.36597603716E+02 -0.18391749317E+02 -0.26881949116E+02  0.49170648043E+02  0.41800000000E+01 0. -1.
         -5    1    3    3    0  502  0.10474934679E+03 -0.75089728139E+02 -0.64966649040E+02  0.14439193472E+03  0.41800000000E+01 0. -1.
        -11    1    4    4    0    0 -0.69188105624E+02  0.16878323177E+02 -0.14500179614E+03  0.16154687443E+03  0.00000000000E+00 0.  1.
         11    1    4    4    0    0  0.10363625491E+01  0.76603154280E+02 -0.14201540284E+03  0.16136137065E+03  0.00000000000E+00 0. -1.
</event>
<event>
 8    1  0.6869405E-009  0.7627832E+02  0.7561462E-02  0.1339958E+00
         -1   -1    0    0    0  501 -0.00000000000E+00  0.00000000000E+00  0.73701904533E+02  0.73701904533E+02  0.00000000000E+00 0.  1.
          1   -1    0    0  501    0  0.00000000000E+00 -0.00000000000E+00 -0.23136973856E+03  0.23136973856E+03  0.00000000000E+00 0. -1.
         25    2    1    2    0    0  0.28973230865E+02 -0.26914796154E+02 -0.15010784288E+02  0.13204600001E+03  0.12508784159E+03 0.  0.
         23    2    1    2    0    0 -0.28973230865E+02  0.26914796154E+02 -0.14265704974E+03  0.17302564308E+03  0.89571116805E+02 0.  0.
          5    1    3    3  502    0  0.27435127981E+02 -0.39575419063E+00  0.52495571172E+02  0.59380975585E+02  0.41800000000E+01 0.  1.
         -5    1    3    3    0  502  0.15381028836E+01 -0.26519041963E+02 -0.67506355460E+02  0.72665024425E+02  0.41800000000E+01 0.  1.
        -11    1    4    4    0    0  0.69922669222E+01  0.53014654643E+02 -0.78260698655E+02  0.94784926848E+02  0.00000000000E+00 0.  1.
         11    1    4    4    0    0 -0.35965497787E+02 -0.26099858489E+02 -0.64396351084E+02  0.78240716236E+02  0.00000000000E+00 0. -1.
</event>
<event>
 8    1  0.6869405E-009  0.1260089E+03  0.7561462E-02  0.1233501E+00
         -2   -1    0    0    0  501 -0.00000000000E+00  0.00000000000E+00  0.60437872384E+03  0.60437872384E+03  0.00000000000E+00 0.  1.
          2   -1    0    0  501    0  0.00000000000E+00 -0.00000000000E+00 -0.30900915543E+02  0.30900915543E+02  0.00000000000E+00 0. -1.
         25    2    1    2    0    0  0.19477543476E+02  0.80253816429E+02  0.28931804212E+03  0.32584206630E+03  0.12509225765E+03 0.  0.
         23    2    1    2    0    0 -0.19477543476E+02 -0.80253816429E+02  0.28415976617E+03  0.30943757308E+03  0.90469824632E+02 0.  0.
          5    1    3    3  502    0  0.55723965502E+02  0.93920440471E+02  0.19053053499E+03  0.21964873465E+03  0.41800000000E+01 0. -1.
         -5    1    3    3    0  502 -0.36246422027E+02 -0.13666624042E+02  0.98787507132E+02  0.10619333165E+03  0.41800000000E+01 0. -1.
        -11    1    4    4    0    0  0.20277773957E+02 -0.90233250034E+01  0.11825456080E+02  0.25148557061E+02  0.00000000000E+00 0. -1.
         11    1    4    4    0    0 -0.39755317433E+02 -0.71230491425E+02  0.27233431009E+03  0.28428901602E+03  0.00000000000E+00 0.  1.
</event>
<event>
 8    1  0.6869405E-009  0.7816211E+02  0.7561462E-02  0.1334349E+00
          3   -1    0    0  501    0  0.00000000000E+00  0.00000000000E+00  0.47919784514E+02  0.47919784514E+02  0.00000000000E+00 0. -1.
         -3   -1    0    0    0  501 -0.00000000000E+00 -0.00000000000E+00 -0.27393966028E+03  0.27393966028E+03  0.00000000000E+00 0.  1.
         25    2    1    2    0    0 -0.31537093351E+02 -0.15999804168E+02 -0.12534438778E+03  0.18058090046E+03  0.12509062344E+03 0.  0.
         23    2    1    2    0    0  0.31537093351E+02  0.15999804168E+02 -0.10067548798E+03  0.14127854433E+03  0.92593148865E+02 0.  0.
          5    1    3    3  502    0 -0.21908302733E+02 -0.48082658032E+02 -0.23689500268E+01  0.53056574110E+02  0.41800000000E+01 0. -1.
         -5    1    3    3    0  502 -0.96287906177E+01  0.32082853864E+02 -0.12297543775E+03  0.12752432635E+03  0.41800000000E+01 0. -1.
        -11    1    4    4    0    0 -0.17270393758E+02 -0.23328500697E+01 -0.85098166783E+02  0.86864300377E+02  0.00000000000E+00 0.  1.
         11    1    4    4    0    0  0.48807487109E+02  0.18332654238E+02 -0.15577321201E+02  0.54414243954E+02  0.00000000000E+00 0. -1.
</event>
<event>
 7    1  0.6869405E-009  0.1821526E+03  0.7561462E-02  0.1165736E+00
          2   -1    0    0  501    0  0.00000000000E+00  0.00000000000E+00  0.29863741182E+03  0.29863741182E+03  0.00000000000E+00 0. -1.
         -2   -1    0    0    0  501 -0.00000000000E+00 -0.00000000000E+00 -0.12160859195E+03  0.12160859195E+03  0.00000000000E+00 0.  1.
         25    2    1    2    0    0  0.48705218940E+02  0.12460250493E+03  0.13697895576E+03  0.22871148311E+03  0.12509086937E+03 0.  0.
          5    1    3    3  502    0 -0.13907988282E+02  0.11221501196E+03  0.11433265044E+03  0.16085729205E+03  0.41800000000E+01 0.  1.
         -5    1    3    3    0  502  0.62613207222E+02  0.12387492967E+02  0.22646305320E+02  0.67854191067E+02  0.41800000000E+01 0.  1.
        -11    1    1    2    0    0  0.10065739062E+02 -0.12793041145E+03  0.30489153522E+02  0.13189805821E+03  0.00000000000E+00 0.  1.
         11    1    1    2    0    0 -0.58770958002E+02  0.33279065274E+01  0.95607105831E+01  0.59636462447E+02  0.00000000000E+00 0. -1.
</event>
<event>
 8    1  0.6869405E-009  0.1519492E+03  0.7561462E-02  0.1198098E+00
          2   -1    0    0  501    0  0.00000000000E+00  0.00000000000E+00  0.84809756800E+03  0.84809756800E+03  0.00000000000E+00 0.  1.
         -2   -1    0    0    0  501 -0.00000000000E+00 -0.00000000000E+00 -0.31243511923E+02  0.31243511923E+02  0.00000000000E+00 0. -1.
         25    2    1    2    0    0  0.10486409198E+03  0.19737645058E+02  0.29096522475E+03  0.33420705020E+03  0.12509011940E+03 0.  0.
         23    2    1    2    0    0 -0.10486409198E+03 -0.19737645058E+02  0.52588883132E+03  0.54513402972E+03  0.96052043324E+02 0.  0.
          5    1    3    3  502    0  0.66355195226E+02 -0.49977634786E+02  0.12604724527E+03  0.15101707305E+03  0.41800000000E+01 0. -1.
         -5    1    3    3    0  502  0.38508896758E+02  0.69715279844E+02  0.16491797948E+03  0.18318997715E+03  0.41800000000E+01 0. -1.
        -11    1    4    4    0    0 -0.62801666973E+02  0.35031530998E+02  0.31970697196E+03  0.32769468329E+03  0.00000000000E+00 0.  1.
         11    1    4    4    0    0 -0.42062425011E+02 -0.54769176055E+02  0.20618185937E+03  0.21743934643E+03  0.00000000000E+00 0. -1.
</event>
<event>
 8    1  0.6869405E-009  0.1135715E+03  0.7561462E-02  0.1254095E+00
          1   -1    0    0  501    0  0.00000000000E+00  0.00000000000E+00  0.31622895063E+03  0.31622895063E+03  0.00000000000E+00 0. -1.
         -1   -1    0    0    0  501 -0.00000000000E+00 -0.00000000000E+00 -0.49321714854E+02  0.49321714854E+02  0.00000000000E+00 0.  1.
         25    2    1    2    0    0 -0.45823928600E+02 -0.41521116442E+00  0.15414899727E+03  0.20373730158E+03  0.12508784859E+03 0.  0.
         23    2    1    2    0    0  0.45823928600E+02  0.41521116442E+00  0.11275823851E+03  0.16181336390E+03  0.10662616730E+03 0.  0.
          5    1    3    3  502    0 -0.22390980151E+01 -0.47140200708E+02  0.12442673164E+03  0.13314163897E+03  0.41800000000E+01 0.  1.
         -5    1    3    3    0  502 -0.43584830584E+02  0.46724989543E+02  0.29722265633E+02  0.70595662609E+02  0.41800000000E+01 0.  1.
        -11    1    4    4    0    0  0.64853456684E+02  0.36875104883E+02  0.66798014128E+02  0.10013849857E+03  0.00000000000E+00 0.  1.
         11    1    4    4    0    0 -0.19029528084E+02 -0.36459893719E+02  0.45960224382E+02  0.61674865337E+02  0.00000000000E+00 0. -1.
</event>
<event>
 8    1  0.6869405E-009  0.9767233E+02  0.7561462E-02  0.1285268E+00
         -2   -1    0    0    0  501 -0.00000000000E+00  0.00000000000E+00  0.32386808007E+02  0.32386808007E+02  0.00000000000E+00 0.  1.
          2   -1    0    0  501    0  0.00000000000E+00 -0.00000000000E+00 -0.45225474801E+03  0.45225474801E+03  0.00000000000E+00 0. -1.
         25    2    1    2    0    0 -0.24767311899E+02 -0.35949480249E+02 -0.16605693349E+03  0.21243226113E+03  0.12508707183E+03 0.  0.
         23    2    1    2    0    0  0.24767311899E+02  0.35949480249E+02 -0.25381100651E+03  0.27220929489E+03  0.88159448329E+02 0.  0.
          5    1    3    3  502    0 -0.44414224535E+02  0.25186380702E+02 -0.12751733622E+03  0.13742314416E+03  0.41800000000E+01 0. -1.
         -5    1    3    3    0  502  0.19646912636E+02 -0.61135860952E+02 -0.38539597272E+02  0.75009116968E+02  0.41800000000E+01 0. -1.
        -11    1    4    4    0    0  0.45873293310E+02  0.11168499625E+02 -0.63467586698E+02  0.79102648402E+02  0.00000000000E+00 0.  1.
         11    1    4    4    0    0 -0.21105981410E+02  0.24780980624E+02 -0.19034341981E+03  0.19310664649E+03  0.00000000000E+00 0. -1.
</event>
<event>
 8    1  0.6869405E-009  0.1231792E+03  0.7561462E-02  0.1237943E+00
          3   -1    0    0  501    0  0.00000000000E+00  0.00000000000E+00  0.29858163650E+03  0.29858163650E+03  0.00000000000E+00 0. -1.
         -3   -1    0    0    0  501 -0.00000000000E+00 -0.00000000000E+00 -0.81738883424E+02  0.81738883424E+02  0.00000000000E+00 0.  1.
         25    2    1    2    0    0 -0.13902729775E+02  0.10723043569E+03  0.83471226908E+02  0.18522198629E+03  0.12509231093E+03 0.  0.
         23    2    1    2    0    0  0.13902729775E+02 -0.10723043569E+03  0.13337152617E+03  0.19509853363E+03  0.92648915804E+02 0.  0.
          5    1    3    3  502    0 -0.27884426684E+02  0.28952326963E+02  0.96422096372E+02  0.10454889553E+03  0.41800000000E+01 0.  1.
         -5    1    3    3    0  502  0.13981696909E+02  0.78278108722E+02 -0.12950869464E+02  0.80673090764E+02  0.41800000000E+01 0.  1.
        -11    1    4    4    0    0  0.25237394636E+02 -0.80472962927E+01  0.74808788137E+02  0.79360190576E+02  0.00000000000E+00 0. -1.
         11    1    4    4    0    0 -0.11334664862E+02 -0.99183139392E+02  0.58562738032E+02  0.11573834305E+03  0.00000000000E+00 0.  1.
</event>
<event>
 8    1  0.6869405E-009  0.1313921E+03  0.7561462E-02  0.1225405E+00
          2   -1    0    0  501    0  0.00000000000E+00  0.00000000000E+00  0.10014298241E+04  0.10014298241E+04  0.00000000000E+00 0.  1.
         -2   -1    0    0    0  501 -0.00000000000E+00 -0.00000000000E+00 -0.24858198210E+02  0.24858198210E+02  0.00000000000E+00 0. -1.
         25    2    1    2    0    0  0.11206063349E+03  0.15956873582E+01  0.60167136950E+03  0.62467280677E+03  0.12509015484E+03 0.  0.
         23    2    1    2    0    0 -0.11206063349E+03 -0.15956873582E+01  0.37490025638E+03  0.40161521554E+03  0.90467935312E+02 0.  0.
          5    1    3    3  502    0  0.92948859306E+02 -0.42532273156E+02  0.25660172579E+03  0.27624337600E+03  0.41800000000E+01 0. -1.
         -5    1    3    3    0  502  0.19111774185E+02  0.44127960514E+02  0.34506964372E+03  0.34842943077E+03  0.41800000000E+01 0. -1.
        -11    1    4    4    0    0 -0.41859321851E+02 -0.32962737452E+01  0.35374611947E+02  0.54903837906E+02  0.00000000000E+00 0. -1.
         11    1    4    4    0    0 -0.70201311640E+02  0.17005863870E+01  0.33952564444E+03  0.34671137763E+03  0.00000000000E+00 0.  1.
</event>
<event>
 8    1  0.6869405E-009  0.9199163E+02  0.7561462E-02  0.1298099E+00
          1   -1    0    0  501    0  0.00000000000E+00  0.00000000000E+00  0.63332233247E+02  0.63332233247E+02  0.00000000000E+00 0. -1.
         -1   -1    0    0    0  501 -0.00000000000E+00 -0.00000000000E+00 -0.23988645248E+03  0.23988645248E+03  0.00000000000E+00 0.  1.
         25    2    1    2    0    0 -0.32549207617E+01 -0.47096245495E+02 -0.52965094150E+02  0.14381164461E+03  0.12509131495E+03 0.  0.
         23    2    1    2    0    0  0.32549207617E+01  0.47096245495E+02 -0.12358912508E+03  0.15940704112E+03  0.88925148700E+02 0.  0.
          5    1    3    3  502    0 -0.49039158845E+02  0.16671898112E+02 -0.36474431523E+02  0.63487383328E+02  0.41800000000E+01 0. -1.
         -5    1    3    3    0  502  0.45784238084E+02 -0.63768143606E+02 -0.16490662627E+02  0.80324261278E+02  0.41800000000E+01 0. -1.
        -11    1    4    4    0    0  0.14078416974E+02  0.22618986967E+02  0.58104761436E+01  0.27268700536E+02  0.00000000000E+00 0. -1.
         11    1    4    4    0    0 -0.10823496212E+02  0.24477258528E+02 -0.12939960122E+03  0.13213834058E+03  0.00000000000E+00 0.  1.
</event>
<event>
 8    1  0.6869405E-009  0.1746481E+03  0.7561462E-02  0.1173086E+00
          3   -1    0    0  501    0  0.00000000000E+00  0.00000000000E+00  0.69169240527E+03  0.69169240527E+03  0.00000000000E+00 0. -1.
         -3   -1    0    0    0  501 -0.00000000000E+00 -0.00000000000E+00 -0.59513964051E+02  0.59513964051E+02  0.00000000000E+00 0.  1.
         25    2    1    2    0    0  0.64058122527E+02  0.15291016723E+03  0.25636678224E+03  0.32993447634E+03  0.12509144390E+03 0.  0.
         23    2    1    2    0    0 -0.64058122527E+02 -0.15291016723E+03  0.37581165898E+03  0.42127189298E+03  0.93544868835E+02 0.  0.
          5    1    3    3  502    0  0.81775903712E+02  0.13524202567E+03  0.26001272157E+03  0.30430542505E+03  0.41800000000E+01 0. -1.
         -5    1    3    3    0  502 -0.17717781184E+02  0.17668141564E+02 -0.36459393324E+01  0.25629051290E+02  0.41800000000E+01 0. -1.
        -11    1    4    4    0    0 -0.31108042116E+02 -0.69373840688E+02  0.27921866970E+03  0.28938470167E+03  0.00000000000E+00 0. -1.
         11    1    4    4    0    0 -0.32950080412E+02 -0.83536326546E+02  0.96592989280E+02  0.13188719130E+03  0.00000000000E+00 0.  1.
</event>
<event>
 8    1  0.6869405E-009  0.1152653E+03  0.7561462E-02  0.1251119E+00
         -1   -1    0    0    0  501 -0.00000000000E+00  0.00000000000E+00  0.17591864209E+03  0.17591864209E+03  0.00000000000E+00 0.  1.
          1   -1    0    0  501    0  0.00000000000E+00 -0.00000000000E+00 -0.12608674068E+03  0.12608674068E+03  0.00000000000E+00 0. -1.
         25    2    1    2    0    0 -0.74764457842E+02  0.38161175713E+02  0.78655961027E+02  0.16994367299E+03  0.12509233508E+03 0.  0.
         23    2    1    2    0    0  0.74764457842E+02 -0.38161175713E+02 -0.28824059618E+02  0.13206170978E+03  0.97792992028E+02 0.  0.
          5    1    3    3  502    0 -0.32541775777E+01  0.50949531720E+02  0.82464783084E+02  0.97079129082E+02  0.41800000000E+01 0. -1.
         -5    1    3    3    0  502 -0.71510280264E+02 -0.12788356007E+02 -0.38088220569E+01  0.72864543904E+02  0.41800000000E+01 0. -1.
        -11    1    4    4    0    0 -0.42990724524E+01  0.12109226852E+02 -0.35873152766E+02  0.38105097930E+02  0.00000000000E+00 0. -1.
         11    1    4    4    0    0  0.79063530294E+02 -0.50270402566E+02  0.70490931481E+01  0.93956611853E+02  0.00000000000E+00 0.  1.
</event>
<event>
 8    1  0.6869405E-009  0.1215593E+03  0.7561462E-02  0.1240547E+00
          2   -1    0    0  501    0  0.00000000000E+00  0.00000000000E+00  0.41395161851E+03  0.41395161851E+03  0.00000000000E+00 0. -1.
         -2   -1    0    0    0  501 -0.00000000000E+00 -0.00000000000E+00 -0.47025710379E+02  0.47025710379E+02  0.00000000000E+00 0.  1.
         25    2    1    2    0    0  0.82660234948E+02 -0.81905745555E+01  0.24842841599E+03  0.29028279229E+03  0.12509045397E+03 0.  0.
         23    2    1    2    0    0 -0.82660234948E+02  0.81905745555E+01  0.11849749214E+03  0.17069453660E+03  0.90527173977E+02 0.  0.
          5    1    3    3  502    0  0.70724750504E+02  0.32532889466E+02  0.23172201254E+03  0.24448505624E+03  0.41800000000E+01 0.  1.
         -5    1    3    3    0  502  0.11935484443E+02 -0.40723464021E+02  0.16706403453E+02  0.45797736048E+02  0.41800000000E+01 0.  1.
        -11    1    4    4    0    0 -0.87091631229E+02 -0.23748265986E+02  0.92789436223E+02  0.12945582969E+03  0.00000000000E+00 0. -1.
         11    1    4    4    0    0  0.44313962817E+01  0.31938840541E+02  0.25708055919E+02  0.41238706906E+02  0.00000000000E+00 0.  1.
</event>
<event>
 8    1  0.6869405E-009  0.7368617E+02  0.7561462E-02  0.1347988E+00
         -2   -1    0    0    0  501 -0.00000000000E+00  0.00000000000E+00  0.44658563236E+02  0.44658563236E+02  0.00000000000E+00 0.  1.
          2   -1    0    0  501    0  0.00000000000E+00 -0.00000000000E+00 -0.32704262899E+03  0.32704262899E+03  0.00000000000E+00 0. -1.
         25    2    1    2    0    0 -0.35051912287E+02 -0.15082740235E+02 -0.22520817167E+03  0.26042682772E+03  0.12508911384E+03 0.  0.
         23    2    1    2    0    0  0.35051912287E+02  0.15082740235E+02 -0.57175894083E+02  0.11127436451E+03  0.87503004086E+02 0.  0.
          5    1    3    3  502    0 -0.18904467900E+02 -0.30649695802E+02 -0.22693771664E+01  0.36323618102E+02  0.41800000000E+01 0.  1.
         -5    1    3    3    0  502 -0.16147444387E+02  0.15566955566E+02 -0.22293879451E+03  0.22410320962E+03  0.41800000000E+01 0.  1.
        -11    1    4    4    0    0  0.34396314569E+02 -0.28528817026E+02 -0.77491386752E+01  0.45354702149E+02  0.00000000000E+00 0.  1.
         11    1    4    4    0    0  0.65559771824E+00  0.43611557262E+02 -0.49426755408E+02  0.65919662357E+02  0.00000000000E+00 0. -1.
</event>
<event>
 8    1  0.6869405E-009  0.1050363E+03  0.7561462E-02  0.1270048E+00
         -2   -1    0    0    0  501 -0.00000000000E+00  0.00000000000E+00  0.15011464575E+03  0.15011464575E+03  0.00000000000E+00 0. -1.
          2   -1    0    0  501    0  0.00000000000E+00 -0.00000000000E+00 -0.10309852534E+03  0.10309852534E+03  0.00000000000E+00 0.  1.
         25    2    1    2    0    0 -0.25120128666E+02  0.47083631570E+02  0.53541309801E+02  0.14613864750E+03  0.12506775448E+03 0.  0.
         23    2    1    2    0    0  0.25120128666E+02 -0.47083631570E+02 -0.65251893966E+01  0.10707452359E+03  0.92598522014E+02 0.  0.
          5    1    3    3  502    0  0.41820915908E+02 -0.14336744131E+02  0.24224768524E+02  0.50585008151E+02  0.41800000000E+01 0.  1.
         -5    1    3    3    0  502 -0.66941044574E+02  0.61420375701E+02  0.29316541277E+02  0.95553639346E+02  0.41800000000E+01 0.  1.
        -11    1    4    4    0    0  0.35055940926E+02 -0.10182528722E+02 -0.41499895506E+02  0.55270645124E+02  0.00000000000E+00 0.  1.
         11    1    4    4    0    0 -0.99358122599E+01 -0.36901102848E+02  0.34974706109E+02  0.51803878465E+02  0.00000000000E+00 0. -1.
</event>
<event>
 8    1  0.6869405E-009  0.1111206E+03  0.7561462E-02  0.1258509E+00
         -1   -1    0    0    0  501 -0.00000000000E+00  0.00000000000E+00  0.25054427929E+02  0.25054427929E+02  0.00000000000E+00 0.  1.
          1   -1    0    0  501    0  0.00000000000E+00 -0.00000000000E+00 -0.91555060201E+03  0.91555060201E+03  0.00000000000E+00 0. -1.
         25    2    1    2    0    0 -0.50318710218E+02 -0.88166340007E+02 -0.57331306941E+03  0.59551725331E+03  0.12509055652E+03 0.  0.
         23    2    1    2    0    0  0.50318710218E+02  0.88166340007E+02 -0.31718310467E+03  0.34508777663E+03  0.90416677549E+02 0.  0.
          5    1    3    3  502    0 -0.13315847332E+02 -0.28271026710E+02 -0.19158895745E+02  0.36893067473E+02  0.41800000000E+01 0. -1.
         -5    1    3    3    0  502 -0.37002862886E+02 -0.59895313297E+02 -0.55415417366E+03  0.55862418584E+03  0.41800000000E+01 0. -1.
        -11    1    4    4    0    0  0.58124365082E+02  0.38064500477E+02 -0.98092639146E+02  0.12020613074E+03  0.00000000000E+00 0.  1.
         11    1    4    4    0    0 -0.78056548641E+01  0.50101839529E+02 -0.21909046553E+03  0.22488164589E+03  0.00000000000E+00 0. -1.
</event>
<event>
 8    1  0.6869405E-009  0.9569364E+02  0.7561462E-02  0.1289621E+00
          1   -1    0    0  501    0  0.00000000000E+00  0.00000000000E+00  0.25364157579E+03  0.25364157579E+03  0.00000000000E+00 0. -1.
         -1   -1    0    0    0  501 -0.00000000000E+00 -0.00000000000E+00 -0.53032058993E+02  0.53032058993E+02  0.00000000000E+00 0.  1.
         25    2    1    2    0    0 -0.82328481394E+01  0.50727975234E+01  0.16731702400E+03  0.20912771147E+03  0.12508357255E+03 0.  0.
         23    2    1    2    0    0  0.82328481394E+01 -0.50727975234E+01  0.33292492793E+02  0.97545923309E+02  0.91177321822E+02 0.  0.
          5    1    3    3  502    0 -0.46850393524E+02 -0.41018122486E+02  0.63194433906E+02  0.88816972602E+02  0.41800000000E+01 0. -1.
         -5    1    3    3    0  502  0.38617545384E+02  0.46090920009E+02  0.10412259009E+03  0.12031073887E+03  0.41800000000E+01 0. -1.
        -11    1    4    4    0    0  0.33071433925E+02  0.15430890050E+02 -0.15034334118E+02  0.39469777197E+02  0.00000000000E+00 0.  1.
         11    1    4    4    0    0 -0.24838585785E+02 -0.20503687573E+02  0.48326826912E+02  0.58076146112E+02  0.00000000000E+00 0. -1.
</event>
<event>
 8    1  0.6869405E-009  0.2080459E+03  0.7561462E-02  0.1143123E+00
         -2   -1    0    0    0  501 -0.00000000000E+00  0.00000000000E+00  0.87111030813E+02  0.87111030813E+02  0.00000000000E+00 0.  1.
          2   -1    0    0  501    0  0.00000000000E+00 -0.00000000000E+00 -0.57431620557E+03  0.57431620557E+03  0.00000000000E+00 0. -1.
         25    2    1    2    0    0 -0.81316170870E+02  0.17003109820E+03 -0.32505214578E+03  0.39601984892E+03  0.12509967732E+03 0.  0.
         23    2    1    2    0    0  0.81316170870E+02 -0.17003109820E+03 -0.16215302898E+03  0.26540738746E+03  0.92868630381E+02 0.  0.
          5    1    3    3  502    0 -0.32197014593E+02 -0.13722854918E+02 -0.62965457707E+02  0.72160139690E+02  0.41800000000E+01 0. -1.
         -5    1    3    3    0  502 -0.49119156277E+02  0.18375395312E+03 -0.26208668807E+03  0.32385970923E+03  0.41800000000E+01 0. -1.
        -11    1    4    4    0    0  0.98611627591E+01 -0.56814178519E+01 -0.55939908027E+02  0.57085850697E+02  0.00000000000E+00 0. -1.
         11    1    4    4    0    0  0.71455008111E+02 -0.16434968035E+03 -0.10621312095E+03  0.20832153676E+03  0.00000000000E+00 0.  1.
</event>
<event>
 8    1  0.6869405E-009  0.1528964E+03  0.7561462E-02  0.1196958E+00
          1   -1    0    0  501    0  0.00000000000E+00  0.00000000000E+00  0.12486803945E+03  0.12486803945E+03  0.00000000000E+00 0. -1.
         -1   -1    0    0    0  501 -0.00000000000E+00 -0.00000000000E+00 -0.32756585628E+03  0.32756585628E+03  0.00000000000E+00 0.  1.
         25    2    1    2    0    0  0.72551205695E+02 -0.12041220146E+03  0.14032271924E+01  0.18818340319E+03  0.12509295935E+03 0.  0.
         23    2    1    2    0    0 -0.72551205695E+02  0.12041220146E+03 -0.20410104402E+03  0.26425049255E+03  0.91696842542E+02 0.  0.
          5    1    3    3  502    0  0.72127761969E+02 -0.66772465921E+02 -0.52933237006E+02  0.11171560424E+03  0.41800000000E+01 0.  1.
         -5    1    3    3    0  502  0.42344372658E+00 -0.53639735544E+02  0.54336464199E+02  0.76467798945E+02  0.41800000000E+01 0.  1.
        -11    1    4    4    0    0 -0.24923604506E+02  0.97727793412E+02 -0.17982951663E+03  0.20618089805E+03  0.00000000000E+00 0.  1.
         11    1    4    4    0    0 -0.47627601190E+02  0.22684408053E+02 -0.24271527385E+02  0.58069594500E+02  0.00000000000E+00 0. -1.
</event>
<event>
 8    1  0.6869405E-009  0.1294017E+03  0.7561462E-02  0.1228346E+00
         -2   -1    0    0    0  501 -0.00000000000E+00  0.00000000000E+00  0.24036576419E+02  0.24036576419E+02  0.00000000000E+00 0. -1.
          2   -1    0    0  501    0  0.00000000000E+00 -0.00000000000E+00 -0.92695759099E+03  0.92695759099E+03  0.00000000000E+00 0.  1.
         25    2    1    2    0    0  0.36936978648E+02 -0.94630625045E+02 -0.52567380069E+03  0.54981788716E+03  0.12508984257E+03 0.  0.
         23    2    1    2    0    0 -0.36936978648E+02  0.94630625045E+02 -0.37724721388E+03  0.40117628025E+03  0.91146321216E+02 0.  0.
          5    1    3    3  502    0 -0.67675262831E+00 -0.10080263373E+03 -0.47852267013E+03  0.48904299114E+03  0.41800000000E+01 0.  1.
         -5    1    3    3    0  502  0.37613731277E+02  0.61720086837E+01 -0.47151130569E+02  0.60774896015E+02  0.41800000000E+01 0.  1.
        -11    1    4    4    0    0 -0.54028545251E+02  0.58708468224E+02 -0.14458891358E+03  0.16514152075E+03  0.00000000000E+00 0. -1.
         11    1    4    4    0    0  0.17091566603E+02  0.35922156821E+02 -0.23265830030E+03  0.23603475951E+03  0.00000000000E+00 0.  1.
</event>
<event>
 8    1  0.6869405E-009  0.1246191E+03  0.7561462E-02  0.1235666E+00
          2   -1    0    0  501    0  0.00000000000E+00  0.00000000000E+00  0.49687386919E+03  0.49687386919E+03  0.00000000000E+00 0.  1.
         -2   -1    0    0    0  501 -0.00000000000E+00 -0.00000000000E+00 -0.37042344811E+02  0.37042344811E+02  0.00000000000E+00 0. -1.
         25    2    1    2    0    0 -0.65741572320E+02  0.11681173393E+02  0.16462041947E+03  0.21726944679E+03  0.12509087042E+03 0.  0.
         23    2    1    2    0    0  0.65741572320E+02 -0.11681173393E+02  0.29521110491E+03  0.31664676721E+03  0.93043938956E+02 0.  0.
          5    1    3    3  502    0  0.32474359484E+02  0.19784571603E+02  0.74093059440E+02  0.83386252791E+02  0.41800000000E+01 0.  1.
         -5    1    3    3    0  502 -0.98215931804E+02 -0.81033982095E+01  0.90527360027E+02  0.13388319400E+03  0.41800000000E+01 0.  1.
        -11    1    4    4    0    0  0.78054546191E+02  0.18093458447E+02  0.18025422165E+03  0.19725990429E+03  0.00000000000E+00 0.  1.
         11    1    4    4    0    0 -0.12312973871E+02 -0.29774631840E+02  0.11495688326E+03  0.11938686291E+03  0.00000000000E+00 0. -1.
</event>
<event>
 8    1  0.6869405E-009  0.1218647E+03  0.7561462E-02  0.1240052E+00
         -2   -1    0    0    0  501 -0.00000000000E+00  0.00000000000E+00  0.88108681597E+02  0.88108681597E+02  0.00000000000E+00 0.  1.
          2   -1    0    0  501    0  0.00000000000E+00 -0.00000000000E+00 -0.21089326502E+03  0.21089326502E+03  0.00000000000E+00 0. -1.
         25    2    1    2    0    0 -0.68631749944E+02  0.38961102099E+02 -0.39144090676E+02  0.15299684800E+03  0.12508993199E+03 0.  0.
         23    2    1    2    0    0  0.68631749944E+02 -0.38961102099E+02 -0.83640492745E+02  0.14600509861E+03  0.89963727233E+02 0.  0.
          5    1    3    3  502    0 -0.26085594057E+02  0.67948831443E+02 -0.62765085977E+02  0.96199949737E+02  0.41800000000E+01 0. -1.
         -5    1    3    3    0  502 -0.42546155887E+02 -0.28987729344E+02  0.23620995301E+02  0.56796898263E+02  0.41800000000E+01 0. -1.
        -11    1    4    4    0    0  0.10339120547E+02  0.28322317723E+02 -0.27137498110E+02  0.40564700154E+02  0.00000000000E+00 0. -1.
         11    1    4    4    0    0  0.58292629397E+02 -0.67283419822E+02 -0.56502994635E+02  0.10544039846E+03  0.00000000000E+00 0.  1.
</event>
<event>
 8    1  0.6869405E-009  0.9908205E+02  0.7561462E-02  0.1282238E+00
         -2   -1    0    0    0  501 -0.00000000000E+00  0.00000000000E+00  0.61591472449E+02  0.61591472449E+02  0.00000000000E+00 0.  1.
          2   -1    0    0  501    0  0.00000000000E+00 -0.00000000000E+00 -0.24445986996E+03  0.24445986996E+03  0.00000000000E+00 0. -1.
         25    2    1    2    0    0 -0.25869123073E+02  0.17668589441E+02 -0.15825627458E+03  0.20414299434E+03  0.12509165884E+03 0.  0.
         23    2    1    2    0    0  0.25869123073E+02 -0.17668589441E+02 -0.24612122937E+02  0.10190834807E+03  0.93798530002E+02 0.  0.
          5    1    3    3  502    0 -0.39959981733E+02  0.65060096721E+02 -0.74289891965E+02  0.10661180410E+03  0.41800000000E+01 0.  1.
         -5    1    3    3    0  502  0.14090858660E+02 -0.47391507280E+02 -0.83966382612E+02  0.97531190236E+02  0.41800000000E+01 0.  1.
        -11    1    4    4    0    0  0.26837666164E+02  0.20579120215E+02  0.22947192785E+02  0.40869721930E+02  0.00000000000E+00 0.  1.
         11    1    4    4    0    0 -0.96854309114E+00 -0.38247709656E+02 -0.47559315722E+02  0.61038626144E+02  0.00000000000E+00 0. -1.
</event>
<event>
 8    1  0.6869405E-009  0.3603055E+03  0.7561462E-02  0.1058463E+00
         -2   -1    0    0    0  501 -0.00000000000E+00  0.00000000000E+00  0.32433526376E+03  0.32433526376E+03  0.00000000000E+00 0.  1.
          2   -1    0    0  501    0  0.00000000000E+00 -0.00000000000E+00 -0.87443204724E+03  0.87443204724E+03  0.00000000000E+00 0. -1.
         25    2    1    2    0    0  0.22486397258E+03 -0.26195914078E+03 -0.71616858102E+03  0.80481773525E+03  0.12509097859E+03 0.  0.
         23    2    1    2    0    0 -0.22486397258E+03  0.26195914078E+03  0.16607179754E+03  0.39394957575E+03  0.91815187731E+02 0.  0.
          5    1    3    3  502    0  0.17439914615E+03 -0.26406374381E+03 -0.61358941376E+03  0.69040145137E+03  0.41800000000E+01 0. -1.
         -5    1    3    3    0  502  0.50464826426E+02  0.21046030370E+01 -0.10257916726E+03  0.11441628388E+03  0.41800000000E+01 0. -1.
        -11    1    4    4    0    0 -0.13558530150E+03  0.99874471152E+02  0.10778881737E+03  0.19994177433E+03  0.00000000000E+00 0. -1.
         11    1    4    4    0    0 -0.89278671072E+02  0.16208466962E+03  0.58282980171E+02  0.19400780142E+03  0.00000000000E+00 0.  1.
</event>
<event>
 8    1  0.6869405E-009  0.8638939E+02  0.7561462E-02  0.1311839E+00
          1   -1    0    0  501    0  0.00000000000E+00  0.00000000000E+00  0.33247114398E+02  0.33247114398E+02  0.00000000000E+00 0. -1.
         -1   -1    0    0    0  501 -0.00000000000E+00 -0.00000000000E+00 -0.36902151290E+03  0.36902151290E+03  0.00000000000E+00 0.  1.
         25    2    1    2    0    0  0.25707784661E+02 -0.18858431722E+02 -0.19485864137E+03  0.23373968740E+03  0.12509124954E+03 0.  0.
         23    2    1    2    0    0 -0.25707784661E+02  0.18858431722E+02 -0.14091575713E+03  0.16852893990E+03  0.86765329103E+02 0.  0.
          5    1    3    3  502    0 -0.34172457844E+01 -0.43383220785E+02 -0.19019256719E+03  0.19515241845E+03  0.41800000000E+01 0. -1.
         -5    1    3    3    0  502  0.29125030445E+02  0.24524789063E+02 -0.46660741833E+01  0.38587268953E+02  0.41800000000E+01 0. -1.
        -11    1    4    4    0    0  0.25871716466E+02  0.28274513280E+02 -0.75710475902E+02  0.84857939967E+02  0.00000000000E+00 0. -1.
         11    1    4    4    0    0 -0.51579501127E+02 -0.94160815581E+01 -0.65205281233E+02  0.83670999929E+02  0.00000000000E+00 0.  1.
</event>
<event>
 8    1  0.6869405E-009  0.1017743E+03  0.7561462E-02  0.1276609E+00
         -1   -1    0    0    0  501 -0.00000000000E+00  0.00000000000E+00  0.11891161858E+02  0.11891161858E+02  0.00000000000E+00 0.  1.
          1   -1    0    0  501    0  0.00000000000E+00 -0.00000000000E+00 -0.10999299307E+04  0.10999299307E+04  0.00000000000E+00 0. -1.
         25    2    1    2    0    0  0.31157796670E+02  0.39093094812E+02 -0.58616100285E+03  0.60144025851E+03  0.12508631000E+03 0.  0.
         23    2    1    2    0    0 -0.31157796670E+02 -0.39093094812E+02 -0.50187776597E+03  0.51038083402E+03  0.78155136771E+02 0.  0.
          5    1    3    3  502    0  0.50200365985E+02 -0.15596957318E+02 -0.45445511715E+03  0.45750439094E+03  0.41800000000E+01 0. -1.
         -5    1    3    3    0  502 -0.19042569315E+02  0.54690052130E+02 -0.13170588569E+03  0.14393586757E+03  0.41800000000E+01 0. -1.
        -11    1    4    4    0    0 -0.70087980106E+01  0.24102850908E+02 -0.14075903411E+03  0.14297963616E+03  0.00000000000E+00 0. -1.
         11    1    4    4    0    0 -0.24148998659E+02 -0.63195945721E+02 -0.36111873186E+03  0.36740119786E+03  0.00000000000E+00 0.  1.
</event>
<event>
 8    1  0.6869405E-009  0.1671588E+03  0.7561462E-02  0.1180844E+00
          3   -1    0    0  501    0  0.00000000000E+00  0.00000000000E+00  0.81325909186E+02  0.81325909186E+02  0.00000000000E+00 0. -1.
         -3   -1    0    0    0  501 -0.00000000000E+00 -0.00000000000E+00 -0.42306525165E+03  0.42306525165E+03  0.00000000000E+00 0.  1.
         25    2    1    2    0    0  0.20770034266E+02 -0.14856757878E+03 -0.16826414835E+03  0.25780707576E+03  0.12509174595E+03 0.  0.
         23    2    1    2    0    0 -0.20770034266E+02  0.14856757878E+03 -0.17347519411E+03  0.24658408508E+03  0.90588896965E+02 0.  0.
          5    1    3    3  502    0 -0.19042234434E+01 -0.14427818793E+03 -0.18068668826E+03  0.23126818479E+03  0.41800000000E+01 0. -1.
         -5    1    3    3    0  502  0.22674257709E+02 -0.42893908497E+01  0.12422539907E+02  0.26538890977E+02  0.41800000000E+01 0. -1.
        -11    1    4    4    0    0 -0.44670085156E+02  0.60145810422E+02 -0.11714655482E+03  0.13905484647E+03  0.00000000000E+00 0.  1.
         11    1    4    4    0    0  0.23900050890E+02  0.88421768357E+02 -0.56328639292E+02  0.10752923861E+03  0.00000000000E+00 0. -1.
</event>
<event>
 8    1  0.6869405E-009  0.1533574E+03  0.7561462E-02  0.1196407E+00
         -1   -1    0    0    0  501 -0.00000000000E+00  0.00000000000E+00  0.35717373292E+02  0.35717373292E+02  0.00000000000E+00 0.  1.
          1   -1    0    0  501    0  0.00000000000E+00 -0.00000000000E+00 -0.68199989765E+03  0.68199989765E+03  0.00000000000E+00 0. -1.
         25    2    1    2    0    0 -0.10908032474E+03 -0.22658089168E+02 -0.36113044757E+03  0.39808837474E+03  0.12508895911E+03 0.  0.
         23    2    1    2    0    0  0.10908032474E+03  0.22658089168E+02 -0.28515207679E+03  0.31962889620E+03  0.91864128705E+02 0.  0.
          5    1    3    3  502    0 -0.13270477102E+03 -0.35970950301E+02 -0.27159780599E+03  0.30444590018E+03  0.41800000000E+01 0.  1.
         -5    1    3    3    0  502  0.23624446281E+02  0.13312861133E+02 -0.89532641581E+02  0.93642474562E+02  0.41800000000E+01 0.  1.
        -11    1    4    4    0    0  0.14688080512E+02 -0.30166419370E+02 -0.96498339841E+02  0.10216497521E+03  0.00000000000E+00 0. -1.
         11    1    4    4    0    0  0.94392244223E+02  0.52824508538E+02 -0.18865373695E+03  0.21746392100E+03  0.00000000000E+00 0.  1.
</event>
<event>
 8    1  0.6869405E-009  0.1192911E+03  0.7561462E-02  0.1244271E+00
         -2   -1    0    0    0  501 -0.00000000000E+00  0.00000000000E+00  0.12023917617E+03  0.12023917617E+03  0.00000000000E+00 0.  1.
          2   -1    0    0  501    0  0.00000000000E+00 -0.00000000000E+00 -0.20985518366E+03  0.20985518366E+03  0.00000000000E+00 0. -1.
         25    2    1    2    0    0 -0.59662694092E+02  0.73511327846E+02 -0.11605425161E+03  0.19513982933E+03  0.12508961303E+03 0.  0.
         23    2    1    2    0    0  0.59662694092E+02 -0.73511327846E+02  0.26438244114E+02  0.13495453050E+03  0.92467249138E+02 0.  0.
          5    1    3    3  502    0 -0.51032394228E+02  0.25259581221E+02  0.11664274685E+02  0.58274174452E+02  0.41800000000E+01 0. -1.
         -5    1    3    3    0  502 -0.86302998644E+01  0.48251746625E+02 -0.12771852629E+03  0.13686565488E+03  0.41800000000E+01 0. -1.
        -11    1    4    4    0    0 -0.23009863010E+02 -0.22033431485E+01  0.59998269209E+01  0.23881089586E+02  0.00000000000E+00 0.  1.
         11    1    4    4    0    0  0.82672557102E+02 -0.71307984698E+02  0.20438417193E+02  0.11107344092E+03  0.00000000000E+00 0. -1.
</event>
<event>
 8    1  0.6869405E-009  0.1141652E+03  0.7561462E-02  0.1253045E+00
          1   -1    0    0  501    0  0.00000000000E+00  0.00000000000E+00  0.15352400948E+04  0.15352400948E+04  0.00000000000E+00 0. -1.
         -1   -1    0    0    0  501 -0.00000000000E+00 -0.00000000000E+00 -0.19548553376E+02  0.19548553376E+02  0.00000000000E+00 0.  1.
         25    2    1    2    0    0  0.55725414858E+02  0.55683069803E+02  0.12948382951E+04  0.13032496292E+04  0.12508980621E+03 0.  0.
         23    2    1    2    0    0 -0.55725414858E+02 -0.55683069803E+02  0.22085324638E+03  0.25153901896E+03  0.91048314091E+02 0.  0.
          5    1    3    3  502    0  0.55329008587E+02  0.80515543032E+02  0.59683655515E+03  0.60479368203E+03  0.41800000000E+01 0. -1.
         -5    1    3    3    0  502  0.39640627130E+00 -0.24832473229E+02  0.69800173992E+03  0.69845594721E+03  0.41800000000E+01 0. -1.
        -11    1    4    4    0    0 -0.85403854583E+01  0.16816192353E+02  0.57867351340E+01  0.19728375822E+02  0.00000000000E+00 0.  1.
         11    1    4    4    0    0 -0.47185029400E+02 -0.72499262157E+02  0.21506651124E+03  0.23181064314E+03  0.00000000000E+00 0. -1.
</event>
<event>
 8    1  0.6869405E-009  0.8945073E+02  0.7561462E-02  0.1304187E+00
         -2   -1    0    0    0  501 -0.00000000000E+00  0.00000000000E+00  0.31055618240E+02  0.31055618240E+02  0.00000000000E+00 0.  1.
          2   -1    0    0  501    0  0.00000000000E+00 -0.00000000000E+00 -0.58130110220E+03  0.58130110220E+03  0.00000000000E+00 0. -1.
         25    2    1    2    0    0  0.71835345522E+01  0.62360677595E+02 -0.19417836281E+03  0.23936108506E+03  0.12509210678E+03 0.  0.
         23    2    1    2    0    0 -0.71835345522E+01 -0.62360677595E+02 -0.35606712115E+03  0.37299563538E+03  0.91659652907E+02 0.  0.
          5    1    3    3  502    0 -0.12623236562E+02  0.18517276700E+02  0.13261941801E+02  0.26373986009E+02  0.41800000000E+01 0. -1.
         -5    1    3    3    0  502  0.19806771114E+02  0.43843400895E+02 -0.20744030461E+03  0.21298709905E+03  0.41800000000E+01 0. -1.
        -11    1    4    4    0    0  0.37478161280E+02 -0.96009526664E+01 -0.87429526408E+02  0.95607075852E+02  0.00000000000E+00 0.  1.
         11    1    4    4    0    0 -0.44661695833E+02 -0.52759724928E+02 -0.26863759474E+03  0.27738855953E+03  0.00000000000E+00 0. -1.
</event>
<event>
 8    1  0.6869405E-009  0.1586670E+03  0.7561462E-02  0.1190210E+00
          2   -1    0    0  501    0  0.00000000000E+00  0.00000000000E+00  0.84983909845E+03  0.84983909845E+03  0.00000000000E+00 0. -1.
         -2   -1    0    0    0  501 -0.00000000000E+00 -0.00000000000E+00 -0.34718943490E+02  0.34718943490E+02  0.00000000000E+00 0.  1.
         25    2    1    2    0    0 -0.65872890237E+02 -0.11359367622E+03  0.55657982990E+03  0.58538143938E+03  0.12509021372E+03 0.  0.
         23    2    1    2    0    0  0.65872890237E+02  0.11359367622E+03  0.25854032506E+03  0.29917660256E+03  0.73625939022E+02 0.  0.
          5    1    3    3  502    0 -0.69862280667E+02 -0.76796153861E+01  0.15892433333E+03  0.17382212424E+03  0.41800000000E+01 0.  1.
         -5    1    3    3    0  502  0.39893904297E+01 -0.10591406083E+03  0.39765549657E+03  0.41155931513E+03  0.41800000000E+01 0.  1.
        -11    1    4    4    0    0  0.29440993856E+02  0.95970153447E+02  0.12896955782E+03  0.16343252221E+03  0.00000000000E+00 0.  1.
         11    1    4    4    0    0  0.36431896381E+02  0.17623522768E+02  0.12957076723E+03  0.13574408035E+03  0.00000000000E+00 0. -1.
</event>
<event>
 8    1  0.6869405E-009  0.1501978E+03  0.7561462E-02  0.1200230E+00
          3   -1    0    0  501    0  0.00000000000E+00  0.00000000000E+00  0.19584033928E+03  0.19584033928E+03  0.00000000000E+00 0. -1.
         -3   -1    0    0    0  501 -0.00000000000E+00 -0.00000000000E+00 -0.12566079393E+03  0.12566079393E+03  0.00000000000E+00 0.  1.
         25    2    1    2    0    0 -0.82178988073E+02  0.62229260626E+02  0.79658793831E+02  0.18060834653E+03  0.12509190398E+03 0.  0.
         23    2    1    2    0    0  0.82178988073E+02 -0.62229260626E+02 -0.94792484871E+01  0.14089278668E+03  0.95577477622E+02 0.  0.
          5    1    3    3  502    0 -0.10597192147E+03  0.79133104935E+02  0.60923162595E+02  0.14567498268E+03  0.41800000000E+01 0. -1.
         -5    1    3    3    0  502  0.23792933398E+02 -0.16903844309E+02  0.18735631237E+02  0.34933363851E+02  0.41800000000E+01 0. -1.
        -11    1    4    4    0    0  0.20948717692E+02 -0.73413927020E+02  0.65313517922E+01  0.76623181934E+02  0.00000000000E+00 0.  1.
         11    1    4    4    0    0  0.61230270381E+02  0.11184666394E+02 -0.16010600279E+02  0.64269604749E+02  0.00000000000E+00 0. -1.
</event>
<event>
 8    1  0.6869405E-009  0.1458351E+03  0.7561462E-02  0.1205686E+00
          2   -1    0    0  501    0  0.00000000000E+00  0.00000000000E+00  0.12218627015E+03  0.12218627015E+03  0.00000000000E+00 0. -1.
         -2   -1    0    0    0  501 -0.00000000000E+00 -0.00000000000E+00 -0.20466277300E+03  0.20466277300E+03  0.00000000000E+00 0.  1.
         25    2    1    2    0    0 -0.69515637074E+02 -0.71484440540E+02 -0.10195610808E+03  0.18969889564E+03  0.12509266163E+03 0.  0.
         23    2    1    2    0    0  0.69515637074E+02  0.71484440540E+02  0.19479605237E+02  0.13715014751E+03  0.92131747545E+02 0.  0.
          5    1    3    3  502    0 -0.91665874105E+02 -0.77419226030E+01 -0.53293011650E+02  0.10639636898E+03  0.41800000000E+01 0. -1.
         -5    1    3    3    0  502  0.22150237031E+02 -0.63742517937E+02 -0.48663096429E+02  0.83302526658E+02  0.41800000000E+01 0. -1.
        -11    1    4    4    0    0  0.86419573069E+02  0.37882464895E+02  0.28309762655E+02  0.98513280412E+02  0.00000000000E+00 0.  1.
         11    1    4    4    0    0 -0.16903935995E+02  0.33601975646E+02 -0.88301574186E+01  0.38636867102E+02  0.00000000000E+00 0. -1.
</event>
<event>
 8    1  0.6869405E-009  0.3695339E+03  0.7561462E-02  0.1054871E+00
         -2   -1    0    0    0  501 -0.00000000000E+00  0.00000000000E+00  0.18947725315E+03  0.18947725315E+03  0.00000000000E+00 0.  1.
          2   -1    0    0  501    0  0.00000000000E+00 -0.00000000000E+00 -0.91775087003E+03  0.91775087003E+03  0.00000000000E+00 0. -1.
         25    2    1    2    0    0 -0.35919923530E+03  0.38279107552E+01 -0.60902894795E+03  0.71805622048E+03  0.12509889206E+03 0.  0.
         23    2    1    2    0    0  0.35919923530E+03 -0.38279107552E+01 -0.11924466894E+03  0.38917190270E+03  0.90535822942E+02 0.  0.
          5    1    3    3  502    0 -0.32596053579E+03  0.42274508343E+02 -0.51192304347E+03  0.60837495000E+03  0.41800000000E+01 0. -1.
         -5    1    3    3    0  502 -0.33238699512E+02 -0.38446597588E+02 -0.97105904474E+02  0.10968127048E+03  0.41800000000E+01 0. -1.
        -11    1    4    4    0    0  0.30418461367E+03 -0.68135374891E+01 -0.13350249881E+03  0.33226137404E+03  0.00000000000E+00 0. -1.
         11    1    4    4    0    0  0.55014621631E+02  0.29856267339E+01  0.14257829866E+02  0.56910528662E+02  0.00000000000E+00 0.  1.
</event>
<event>
 8    1  0.6869405E-009  0.1720307E+03  0.7561462E-02  0.1175747E+00
          1   -1    0    0  501    0  0.00000000000E+00  0.00000000000E+00  0.19910893883E+03  0.19910893883E+03  0.00000000000E+00 0. -1.
         -1   -1    0    0    0  501 -0.00000000000E+00 -0.00000000000E+00 -0.18320213384E+03  0.18320213384E+03  0.00000000000E+00 0.  1.
         25    2    1    2    0    0  0.95439923473E+02 -0.91403514018E+02 -0.73775575339E+02  0.19635000360E+03  0.12508839686E+03 0.  0.
         23    2    1    2    0    0 -0.95439923473E+02  0.91403514018E+02  0.89682380333E+02  0.18596106908E+03  0.95263888767E+02 0.  0.
          5    1    3    3  502    0  0.12386702092E+03 -0.89052403112E+02 -0.67349609102E+02  0.16681370333E+03  0.41800000000E+01 0. -1.
         -5    1    3    3    0  502 -0.28427097444E+02 -0.23511109057E+01 -0.64259662372E+01  0.29536300271E+02  0.41800000000E+01 0. -1.
        -11    1    4    4    0    0  0.11920314806E+02 -0.95312611588E+01  0.53140822538E+01  0.16161012176E+02  0.00000000000E+00 0.  1.
         11    1    4    4    0    0 -0.10736023828E+03  0.10093477518E+03  0.84368298079E+02  0.16980005690E+03  0.00000000000E+00 0. -1.
</event>
<event>
 8    1  0.6869405E-009  0.2019212E+03  0.7561462E-02  0.1148128E+00
         -1   -1    0    0    0  501 -0.00000000000E+00  0.00000000000E+00  0.76505495357E+02  0.76505495357E+02  0.00000000000E+00 0.  1.
          1   -1    0    0  501    0  0.00000000000E+00 -0.00000000000E+00 -0.61042774814E+03  0.61042774814E+03  0.00000000000E+00 0. -1.
         25    2    1    2    0    0  0.40471049923E+02 -0.17121538539E+03 -0.37468025203E+03  0.43241867452E+03  0.12509198507E+03 0.  0.
         23    2    1    2    0    0 -0.40471049923E+02  0.17121538539E+03 -0.15924200075E+03  0.25451456898E+03  0.92016503649E+02 0.  0.
          5    1    3    3  502    0  0.74359804615E+02 -0.51977349764E+02 -0.17939690834E+03  0.20107647439E+03  0.41800000000E+01 0. -1.
         -5    1    3    3    0  502 -0.33888754692E+02 -0.11923803563E+03 -0.19528334370E+03  0.23134220013E+03  0.41800000000E+01 0. -1.
        -11    1    4    4    0    0 -0.38432333604E+02  0.32703431144E+02 -0.11051144954E+02  0.51659331002E+02  0.00000000000E+00 0.  1.
         11    1    4    4    0    0 -0.20387163192E+01  0.13851195425E+03 -0.14819085579E+03  0.20285523798E+03  0.00000000000E+00 0. -1.
</event>
<event>
 8    1  0.6869405E-009  0.8743888E+02  0.7561462E-02  0.1309175E+00
         -1   -1    0    0    0  501 -0.00000000000E+00  0.00000000000E+00  0.17766536418E+03  0.17766536418E+03  0.00000000000E+00 0.  1.
          1   -1    0    0  501    0  0.00000000000E+00 -0.00000000000E+00 -0.98374409960E+02  0.98374409960E+02  0.00000000000E+00 0. -1.
         25    2    1    2    0    0 -0.69680726945E+02  0.24381719645E+02  0.64414961299E+02  0.15888947488E+03  0.12508679398E+03 0.  0.
         23    2    1    2    0    0  0.69680726945E+02 -0.24381719645E+02  0.14875992923E+02  0.11715029926E+03  0.89738651043E+02 0.  0.
          5    1    3    3  502    0 -0.72197983713E+02  0.13029928097E+02 -0.17916514597E+02  0.75635982005E+02  0.41800000000E+01 0.  1.
         -5    1    3    3    0  502  0.25172567688E+01  0.11351791548E+02  0.82331475896E+02  0.83253492877E+02  0.41800000000E+01 0.  1.
        -11    1    4    4    0    0 -0.68651137290E+01 -0.83885157810E+01  0.34803449385E+02  0.36452394608E+02  0.00000000000E+00 0.  1.
         11    1    4    4    0    0  0.76545840674E+02 -0.15993203864E+02 -0.19927456462E+02  0.80697904653E+02  0.00000000000E+00 0. -1.
</event>
<event>
 8    1  0.6869405E-009  0.1831926E+03  0.7561462E-02  0.1164749E+00
         -1   -1    0    0    0  501 -0.00000000000E+00  0.00000000000E+00  0.16540208778E+03  0.16540208778E+03  0.00000000000E+00 0.  1.
          1   -1    0    0  501    0  0.00000000000E+00 -0.00000000000E+00 -0.29144498941E+03  0.29144498941E+03  0.00000000000E+00 0. -1.
         25    2    1    2    0    0  0.41232917361E+02 -0.15845747633E+03  0.35065803678E+02  0.20901201567E+03  0.12508991497E+03 0.  0.
         23    2    1    2    0    0 -0.41232917361E+02  0.15845747633E+03 -0.16110870530E+03  0.24783506152E+03  0.93044492134E+02 0.  0.
          5    1    3    3  502    0 -0.25070103237E+02  0.52570636790E+01  0.17838992580E+02  0.31493631914E+02  0.41800000000E+01 0. -1.
         -5    1    3    3    0  502  0.66303020598E+02 -0.16371454001E+03  0.17226811098E+02  0.17751838376E+03  0.41800000000E+01 0. -1.
        -11    1    4    4    0    0 -0.24633357610E+02  0.99087697234E+02 -0.15537692813E+03  0.18592246730E+03  0.00000000000E+00 0. -1.
         11    1    4    4    0    0 -0.16599559751E+02  0.59369779097E+02 -0.57317771682E+01  0.61912594223E+02  0.00000000000E+00 0.  1.
</event>
<event>
 8    1  0.6869405E-009  0.7539730E+02  0.7561462E-02  0.1342645E+00
         -1   -1    0    0    0  501 -0.00000000000E+00  0.00000000000E+00  0.32319730469E+03  0.32319730469E+03  0.00000000000E+00 0.  1.
          1   -1    0    0  501    0  0.00000000000E+00 -0.00000000000E+00 -0.38439445727E+02  0.38439445727E+02  0.00000000000E+00 0. -1.
         25    2    1    2    0    0  0.18965790145E+02 -0.90063364933E+01  0.13488427337E+03  0.18515426119E+03  0.12509003933E+03 0.  0.
         23    2    1    2    0    0 -0.18965790145E+02  0.90063364933E+01  0.14987358559E+03  0.17648248923E+03  0.90791861165E+02 0.  0.
          5    1    3    3  502    0 -0.23468654522E+02 -0.10069436606E+02  0.13984008251E+03  0.14221424814E+03  0.41800000000E+01 0. -1.
         -5    1    3    3    0  502  0.42434444668E+02  0.10631001131E+01 -0.49558091376E+01  0.42940013045E+02  0.41800000000E+01 0. -1.
        -11    1    4    4    0    0 -0.38719080177E+02 -0.22718582430E+02  0.12159513864E+03  0.12961743285E+03  0.00000000000E+00 0.  1.
         11    1    4    4    0    0  0.19753290032E+02  0.31724918923E+02  0.28278446957E+02  0.46865056386E+02  0.00000000000E+00 0. -1.
</event>
<event>
 8    1  0.6869405E-009  0.1228295E+03  0.7561462E-02  0.1238501E+00
         -3   -1    0    0    0  501 -0.00000000000E+00  0.00000000000E+00  0.50277226059E+02  0.50277226059E+02  0.00000000000E+00 0.  1.
          3   -1    0    0  501    0  0.00000000000E+00 -0.00000000000E+00 -0.56891116710E+03  0.56891116710E+03  0.00000000000E+00 0. -1.
         25    2    1    2    0    0  0.32118060383E+01  0.10137492692E+03 -0.13012918049E+03  0.20704680787E+03  0.12509030949E+03 0.  0.
         23    2    1    2    0    0 -0.32118060383E+01 -0.10137492692E+03 -0.38850476054E+03  0.41214158528E+03  0.92938398136E+02 0.  0.
          5    1    3    3  502    0  0.34636312641E+01 -0.13194094837E+02 -0.81120237146E+02  0.82365321311E+02  0.41800000000E+01 0. -1.
         -5    1    3    3    0  502 -0.25182522578E+00  0.11456902176E+03 -0.49008943347E+02  0.12468148656E+03  0.41800000000E+01 0. -1.
        -11    1    4    4    0    0  0.18101478753E+02 -0.91469905613E+02 -0.37178282054E+03  0.38329736865E+03  0.00000000000E+00 0. -1.
         11    1    4    4    0    0 -0.21313284791E+02 -0.99050213092E+01 -0.16721940008E+02  0.28844216636E+02  0.00000000000E+00 0.  1.
</event>
<event>
 8    1  0.6869405E-009  0.1203383E+03  0.7561462E-02  0.1242540E+00
         -2   -1    0    0    0  501 -0.00000000000E+00  0.00000000000E+00  0.57831502924E+02  0.57831502924E+02  0.00000000000E+00 0.  1.
          2   -1    0    0  501    0  0.00000000000E+00 -0.00000000000E+00 -0.60422459367E+03  0.60422459367E+03  0.00000000000E+00 0. -1.
         25    2    1    2    0    0  0.45557394941E+02  0.64839323232E+02 -0.51594783572E+03  0.53677727754E+03  0.12509221569E+03 0.  0.
         23    2    1    2    0    0 -0.45557394941E+02 -0.64839323232E+02 -0.30445255028E+02  0.12527881906E+03  0.92131725697E+02 0.  0.
          5    1    3    3  502    0 -0.36806078459E+02  0.48511265780E+02 -0.16579557676E+03  0.17667392562E+03  0.41800000000E+01 0. -1.
         -5    1    3    3    0  502  0.82363473400E+02  0.16328057452E+02 -0.35015225896E+03  0.36010335192E+03  0.41800000000E+01 0. -1.
        -11    1    4    4    0    0  0.10156497518E+02 -0.25267379824E+02 -0.47583754282E+02  0.54825255098E+02  0.00000000000E+00 0. -1.
         11    1    4    4    0    0 -0.55713892459E+02 -0.39571943408E+02  0.17138499254E+02  0.70453563960E+02  0.00000000000E+00 0.  1.
</event>
<event>
 8    1  0.6869405E-009  0.8227948E+02  0.7561462E-02  0.1322704E+00
          2   -1    0    0  501    0  0.00000000000E+00  0.00000000000E+00  0.54939064098E+02  0.54939064098E+02  0.00000000000E+00 0. -1.
         -2   -1    0    0    0  501 -0.00000000000E+00 -0.00000000000E+00 -0.31812847615E+03  0.31812847615E+03  0.00000000000E+00 0.  1.
         25    2    1    2    0    0  0.46098663166E+02 -0.36518608315E+02 -0.21397165185E+03  0.25473454639E+03  0.12508847201E+03 0.  0.
         23    2    1    2    0    0 -0.46098663166E+02  0.36518608315E+02 -0.49217760200E+02  0.11833299386E+03  0.90119997879E+02 0.  0.
          5    1    3    3  502    0  0.43782368127E+02  0.20464116201E+02 -0.19932085869E+02  0.52444601798E+02  0.41800000000E+01 0. -1.
         -5    1    3    3    0  502  0.23162950385E+01 -0.56982724515E+02 -0.19403956598E+03  0.20228994459E+03  0.41800000000E+01 0. -1.
        -11    1    4    4    0    0 -0.36103917679E+02  0.27215913543E+02  0.18794569402E+02  0.48963605471E+02  0.00000000000E+00 0. -1.
         11    1    4    4    0    0 -0.99947454866E+01  0.93026947719E+01 -0.68012329603E+02  0.69369388388E+02  0.00000000000E+00 0.  1.
</event>
<event>
 8    1  0.6869405E-009  0.1201298E+03  0.7561462E-02  0.1242883E+00
         -2   -1    0    0    0  501 -0.00000000000E+00  0.00000000000E+00  0.68129809277E+02  0.68129809277E+02  0.00000000000E+00 0.  1.
          2   -1    0    0  501    0  0.00000000000E+00 -0.00000000000E+00 -0.35764086556E+03  0.35764086556E+03  0.00000000000E+00 0. -1.
         25    2    1    2    0    0  0.54935384993E+02  0.93413568587E+02 -0.19117159438E+03  0.25285760761E+03  0.12508557035E+03 0.  0.
         23    2    1    2    0    0 -0.54935384993E+02 -0.93413568587E+02 -0.98339461904E+02  0.17291306722E+03  0.92110193400E+02 0.  0.
          5    1    3    3  502    0  0.21215094890E+02  0.16027532551E+02 -0.16081866092E+03  0.16305543889E+03  0.41800000000E+01 0.  1.
         -5    1    3    3    0  502  0.33720290103E+02  0.77386036036E+02 -0.30352933456E+02  0.89802168724E+02  0.41800000000E+01 0.  1.
        -11    1    4    4    0    0 -0.35976729795E+02 -0.26162194062E+01  0.21790451689E+01  0.36137486473E+02  0.00000000000E+00 0.  1.
         11    1    4    4    0    0 -0.18958655198E+02 -0.90797349181E+02 -0.10051850707E+03  0.13677558075E+03  0.00000000000E+00 0. -1.
</event>
<event>
 8    1  0.6869405E-009  0.1425909E+03  0.7561462E-02  0.1209885E+00
         -3   -1    0    0    0  501 -0.00000000000E+00  0.00000000000E+00  0.59323777694E+03  0.59323777694E+03  0.00000000000E+00 0.  1.
          3   -1    0    0  501    0  0.00000000000E+00 -0.00000000000E+00 -0.41138921048E+02  0.41138921048E+02  0.00000000000E+00 0. -1.
         25    2    1    2    0    0  0.43031558945E+02  0.10276021623E+03  0.32092122435E+03  0.36200770260E+03  0.12509103643E+03 0.  0.
         23    2    1    2    0    0 -0.43031558945E+02 -0.10276021623E+03  0.23117763154E+03  0.27236899539E+03  0.91270998791E+02 0.  0.
          5    1    3    3  502    0  0.64206729262E+02  0.21282813136E+02  0.22165447206E+03  0.23178360512E+03  0.41800000000E+01 0. -1.
         -5    1    3    3    0  502 -0.21175170317E+02  0.81477403097E+02  0.99266752291E+02  0.13022409748E+03  0.41800000000E+01 0. -1.
        -11    1    4    4    0    0 -0.53696909674E+02 -0.34034118913E+02  0.59236117195E+02  0.86894170915E+02  0.00000000000E+00 0. -1.
         11    1    4    4    0    0  0.10665350729E+02 -0.68726097320E+02  0.17194151435E+03  0.18547482448E+03  0.00000000000E+00 0.  1.
</event>
<event>
 8    1  0.6869405E-009  0.1013865E+03  0.7561462E-02  0.1277407E+00
          1   -1    0    0  501    0  0.00000000000E+00  0.00000000000E+00  0.29608479519E+02  0.29608479519E+02  0.00000000000E+00 0. -1.
         -1   -1    0    0    0  501 -0.00000000000E+00 -0.00000000000E+00 -0.54747740832E+03  0.54747740832E+03  0.00000000000E+00 0.  1.
         25    2    1    2    0    0 -0.42376981892E+02  0.48440298081E+02 -0.32786959665E+03  0.35677508729E+03  0.12509084472E+03 0.  0.
         23    2    1    2    0    0  0.42376981892E+02 -0.48440298081E+02 -0.18999933215E+03  0.22031080054E+03  0.91075965804E+02 0.  0.
          5    1    3    3  502    0 -0.58476769451E+02 -0.99131203864E+01 -0.69909980291E+02  0.91775161485E+02  0.41800000000E+01 0.  1.
         -5    1    3    3    0  502  0.16099787559E+02  0.58353418468E+02 -0.25795961636E+03  0.26499992581E+03  0.41800000000E+01 0.  1.
        -11    1    4    4    0    0  0.54535696620E+02 -0.36694157952E+02 -0.19232349679E+03  0.20324598607E+03  0.00000000000E+00 0.  1.
         11    1    4    4    0    0 -0.12158714728E+02 -0.11746140130E+02  0.23241646463E+01  0.17064814476E+02  0.00000000000E+00 0. -1.
</event>
<event>
 8    1  0.6869405E-009  0.1023805E+03  0.7561462E-02  0.1275368E+00
          1   -1    0    0  501    0  0.00000000000E+00  0.00000000000E+00  0.10073670053E+04  0.10073670053E+04  0.00000000000E+00 0. -1.
         -1   -1    0    0    0  501 -0.00000000000E+00 -0.00000000000E+00 -0.17954147158E+02  0.17954147158E+02  0.00000000000E+00 0.  1.
         25    2    1    2    0    0 -0.12349896312E+02  0.65547156859E+02  0.64674044378E+03  0.66209456717E+03  0.12508822703E+03 0.  0.
         23    2    1    2    0    0  0.12349896312E+02 -0.65547156859E+02  0.34267241434E+03  0.36322658526E+03  0.10030064299E+03 0.  0.
          5    1    3    3  502    0  0.40622442525E+02 -0.24794697158E+01  0.36869914641E+03  0.37096207834E+03  0.41800000000E+01 0. -1.
         -5    1    3    3    0  502 -0.52972338838E+02  0.68026626575E+02  0.27804129737E+03  0.29113248883E+03  0.41800000000E+01 0. -1.
        -11    1    4    4    0    0  0.16674274194E+02 -0.58433223042E+01  0.25201109885E+01  0.17847318982E+02  0.00000000000E+00 0.  1.
         11    1    4    4    0    0 -0.43243778819E+01 -0.59703834555E+02  0.34015230335E+03  0.34537926628E+03  0.00000000000E+00 0. -1.
</event>
<event>
 8    1  0.6869405E-009  0.1633871E+03  0.7561462E-02  0.1184925E+00
          1   -1    0    0  501    0  0.00000000000E+00  0.00000000000E+00  0.10926525735E+04  0.10926525735E+04  0.00000000000E+00 0. -1.
         -1   -1    0    0    0  501 -0.00000000000E+00 -0.00000000000E+00 -0.27645474630E+02  0.27645474630E+02  0.00000000000E+00 0.  1.
         25    2    1    2    0    0  0.18329610312E+02 -0.13394567097E+03  0.58866681508E+03  0.61680751891E+03  0.12508188846E+03 0.  0.
         23    2    1    2    0    0 -0.18329610312E+02  0.13394567097E+03  0.47634028378E+03  0.50349052921E+03  0.91242696513E+02 0.  0.
          5    1    3    3  502    0 -0.30491815993E+02 -0.13123467588E+03  0.44695553359E+03  0.46683938609E+03  0.41800000000E+01 0. -1.
         -5    1    3    3    0  502  0.48821426305E+02 -0.27109950930E+01  0.14171128149E+03  0.14996813283E+03  0.41800000000E+01 0. -1.
        -11    1    4    4    0    0 -0.28986023908E+02  0.46383011329E+02  0.31405145316E+03  0.31877874545E+03  0.00000000000E+00 0. -1.
         11    1    4    4    0    0  0.10656413595E+02  0.87562659640E+02  0.16228883062E+03  0.18471178375E+03  0.00000000000E+00 0.  1.
</event>
<event>
 8    1  0.6869405E-009  0.1360891E+03  0.7561462E-02  0.1218690E+00
         -1   -1    0    0    0  501 -0.00000000000E+00  0.00000000000E+00  0.53600886661E+02  0.53600886661E+02  0.00000000000E+00 0.  1.
          1   -1    0    0  501    0  0.00000000000E+00 -0.00000000000E+00 -0.58929354693E+03  0.58929354693E+03  0.00000000000E+00 0. -1.
         25    2    1    2    0    0 -0.51673881092E+02 -0.77308324047E+02 -0.47345700582E+03  0.49845379283E+03  0.12509148760E+03 0.  0.
         23    2    1    2    0    0  0.51673881092E+02  0.77308324047E+02 -0.62235654448E+02  0.14444064076E+03  0.91340325515E+02 0.  0.
          5    1    3    3  502    0  0.19906428755E+02 -0.67780504966E+02 -0.33333064424E+03  0.34075981798E+03  0.41800000000E+01 0. -1.
         -5    1    3    3    0  502 -0.71580309847E+02 -0.95278190803E+01 -0.14012636158E+03  0.15769397485E+03  0.41800000000E+01 0. -1.
        -11    1    4    4    0    0  0.68715581405E+02  0.23478547716E+02 -0.24972284997E+02  0.76789897439E+02  0.00000000000E+00 0.  1.
         11    1    4    4    0    0 -0.17041700313E+02  0.53829776331E+02 -0.37263369451E+02  0.67650743324E+02  0.00000000000E+00 0. -1.
</event>
<event>
 8    1  0.6869405E-009  0.1840648E+03  0.7561462E-02  0.1163926E+00
          1   -1    0    0  501    0  0.00000000000E+00  0.00000000000E+00  0.99196569512E+03  0.99196569512E+03  0.00000000000E+00 0. -1.
         -1   -1    0    0    0  501 -0.00000000000E+00 -0.00000000000E+00 -0.39772657494E+02  0.39772657494E+02  0.00000000000E+00 0.  1.
         25    2    1    2    0    0  0.14729821578E+03  0.30736731492E+02  0.31549251845E+03  0.37124685288E+03  0.12508871069E+03 0.  0.
         23    2    1    2    0    0 -0.14729821578E+03 -0.30736731492E+02  0.63670051918E+03  0.66049149974E+03  0.90663989889E+02 0.  0.
          5    1    3    3  502    0 -0.19543920832E+02  0.17814745951E+02  0.29263005311E+02  0.39662651130E+02  0.41800000000E+01 0. -1.
         -5    1    3    3    0  502  0.16684213662E+03  0.12921985541E+02  0.28622951314E+03  0.33158420175E+03  0.41800000000E+01 0. -1.
        -11    1    4    4    0    0 -0.47397061541E+02  0.30897386238E+02  0.25238186427E+03  0.25864596523E+03  0.00000000000E+00 0. -1.
         11    1    4    4    0    0 -0.99901154242E+02 -0.61634117731E+02  0.38431865492E+03  0.40184553451E+03  0.00000000000E+00 0.  1.
</event>
<event>
 8    1  0.6869405E-009  0.1345793E+03  0.7561462E-02  0.1220815E+00
         -1   -1    0    0    0  501 -0.00000000000E+00  0.00000000000E+00  0.21481737350E+03  0.21481737350E+03  0.00000000000E+00 0.  1.
          1   -1    0    0  501    0  0.00000000000E+00 -0.00000000000E+00 -0.14104897955E+03  0.14104897955E+03  0.00000000000E+00 0. -1.
         25    2    1    2    0    0 -0.76350376894E+02  0.96508551309E+02  0.98419020065E+02  0.20118851137E+03  0.12508890066E+03 0.  0.
         23    2    1    2    0    0  0.76350376894E+02 -0.96508551309E+02 -0.24650626108E+02  0.15467784168E+03  0.90411840002E+02 0.  0.
          5    1    3    3  502    0 -0.51122050131E+02  0.21972245734E+02 -0.19717627388E+02  0.59181929860E+02  0.41800000000E+01 0. -1.
         -5    1    3    3    0  502 -0.25228326763E+02  0.74536305575E+02  0.11813664745E+03  0.14200658151E+03  0.41800000000E+01 0. -1.
        -11    1    4    4    0    0  0.30741393328E+02 -0.34650399349E+01 -0.39312229920E+02  0.50024905665E+02  0.00000000000E+00 0. -1.
         11    1    4    4    0    0  0.45608983566E+02 -0.93043511374E+02  0.14661603812E+02  0.10465293602E+03  0.00000000000E+00 0.  1.
</event>
<event>
 8    1  0.6869405E-009  0.1005066E+03  0.7561462E-02  0.1279234E+00
          1   -1    0    0  501    0  0.00000000000E+00  0.00000000000E+00  0.28363806459E+03  0.28363806459E+03  0.00000000000E+00 0. -1.
         -1   -1    0    0    0  501 -0.00000000000E+00 -0.00000000000E+00 -0.71238892305E+02  0.71238892305E+02  0.00000000000E+00 0.  1.
         25    2    1    2    0    0 -0.80140459879E+02 -0.15438847972E+02  0.64770489346E+02  0.16279796803E+03  0.12508841181E+03 0.  0.
         23    2    1    2    0    0  0.80140459879E+02  0.15438847972E+02  0.14762868294E+03  0.19207898886E+03  0.91865437458E+02 0.  0.
          5    1    3    3  502    0 -0.60258791179E+02 -0.90035289586E+01  0.10258751474E+03  0.11938951390E+03  0.41800000000E+01 0.  1.
         -5    1    3    3    0  502 -0.19881668700E+02 -0.64353190132E+01 -0.37817025393E+02  0.43408454138E+02  0.41800000000E+01 0.  1.
        -11    1    4    4    0    0  0.95849999728E+02 -0.10514493586E+01  0.13632749726E+03  0.16665387635E+03  0.00000000000E+00 0. -1.
         11    1    4    4    0    0 -0.15709539849E+02  0.16490297330E+02  0.11301185674E+02  0.25425112506E+02  0.00000000000E+00 0.  1.
</event>
<event>
 8    1  0.6869405E-009  0.1053097E+03  0.7561462E-02  0.1269511E+00
         -3   -1    0    0    0  501 -0.00000000000E+00  0.00000000000E+00  0.10293139676E+03  0.10293139676E+03  0.00000000000E+00 0.  1.
          3   -1    0    0  501    0  0.00000000000E+00 -0.00000000000E+00 -0.18422853016E+03  0.18422853016E+03  0.00000000000E+00 0. -1.
         25    2    1    2    0    0 -0.59409940054E+02 -0.94968304396E+01  0.16649495765E+02  0.13980085570E+03  0.12508933920E+03 0.  0.
         23    2    1    2    0    0  0.59409940054E+02  0.94968304396E+01 -0.97946629174E+02  0.14735907122E+03  0.92203161211E+02 0.  0.
          5    1    3    3  502    0  0.98779919638E+01  0.23675137735E+02 -0.37568042041E+02  0.45682787293E+02  0.41800000000E+01 0.  1.
         -5    1    3    3    0  502 -0.69287932018E+02 -0.33171968174E+02  0.54217537806E+02  0.94118068412E+02  0.41800000000E+01 0.  1.
        -11    1    4    4    0    0  0.24563765182E+02  0.49125807858E+02 -0.65211410195E+02  0.85259906036E+02  0.00000000000E+00 0. -1.
         11    1    4    4    0    0  0.34846174872E+02 -0.39628977418E+02 -0.32735218979E+02  0.62099165179E+02  0.00000000000E+00 0.  1.
</event>
<event>
 8    1  0.6869405E-009  0.2174064E+03  0.7561462E-02  0.1135832E+00
         -2   -1    0    0    0  501 -0.00000000000E+00  0.00000000000E+00  0.11273576619E+03  0.11273576619E+03  0.00000000000E+00 0.  1.
          2   -1    0    0  501    0  0.00000000000E+00 -0.00000000000E+00 -0.51236469829E+03  0.51236469829E+03  0.00000000000E+00 0. -1.
         25    2    1    2    0    0  0.98970008774E+02 -0.17050090439E+03 -0.97252124280E+02  0.25292750206E+03  0.12509486235E+03 0.  0.
         23    2    1    2    0    0 -0.98970008774E+02  0.17050090439E+03 -0.30237680782E+03  0.37217296242E+03  0.90638617684E+02 0.  0.
          5    1    3    3  502    0 -0.18978658705E+02 -0.39789815034E+01 -0.33792597933E+02  0.39184612479E+02  0.41800000000E+01 0. -1.
         -5    1    3    3    0  502  0.11794866748E+03 -0.16652192289E+03 -0.63459526347E+02  0.21374288958E+03  0.41800000000E+01 0. -1.
        -11    1    4    4    0    0 -0.11056634443E+03  0.16333551024E+03 -0.29888719015E+03  0.35810188196E+03  0.00000000000E+00 0. -1.
         11    1    4    4    0    0  0.11596335652E+02  0.71653941520E+01 -0.34896176649E+01  0.14071080462E+02  0.00000000000E+00 0.  1.
</event>
<event>
 8    1  0.6869405E-009  0.1522239E+03  0.7561462E-02  0.1197767E+00
          2   -1    0    0  501    0  0.00000000000E+00  0.00000000000E+00  0.30877471315E+03  0.30877471315E+03  0.00000000000E+00 0. -1.
         -2   -1    0    0    0  501 -0.00000000000E+00 -0.00000000000E+00 -0.15249851321E+03  0.15249851321E+03  0.00000000000E+00 0.  1.
         25    2    1    2    0    0 -0.13848969841E+03 -0.31984309984E+02  0.21289889070E+03  0.28490988455E+03  0.12508122161E+03 0.  0.
         23    2    1    2    0    0  0.13848969841E+03  0.31984309984E+02 -0.56622690764E+02  0.17636334181E+03  0.87724036477E+02 0.  0.
          5    1    3    3  502    0 -0.83930583540E+02  0.11227726612E+02  0.31280862508E+02  0.90367966988E+02  0.41800000000E+01 0.  1.
         -5    1    3    3    0  502 -0.54559114868E+02 -0.43212036596E+02  0.18161802820E+03  0.19454191756E+03  0.41800000000E+01 0.  1.
        -11    1    4    4    0    0  0.11744617072E+03  0.44342637075E+02 -0.74619611798E+02  0.14604094955E+03  0.00000000000E+00 0.  1.
         11    1    4    4    0    0  0.21043527684E+02 -0.12358327091E+02  0.17996921034E+02  0.30322392263E+02  0.00000000000E+00 0. -1.
</event>
<event>
 8    1  0.6869405E-009  0.1277217E+03  0.7561462E-02  0.1230876E+00
         -1   -1    0    0    0  501 -0.00000000000E+00  0.00000000000E+00  0.39921258429E+02  0.39921258429E+02  0.00000000000E+00 0.  1.
          1   -1    0    0  501    0  0.00000000000E+00 -0.00000000000E+00 -0.52753645900E+03  0.52753645900E+03  0.00000000000E+00 0. -1.
         25    2    1    2    0    0 -0.78645956150E+02 -0.54761048625E+02 -0.24994118293E+03  0.29546725633E+03  0.12508535395E+03 0.  0.
         23    2    1    2    0    0  0.78645956150E+02  0.54761048625E+02 -0.23767401764E+03  0.27199046110E+03  0.91136784024E+02 0.  0.
          5    1    3    3  502    0 -0.60989120500E+01 -0.66404055235E+02 -0.18717405661E+03  0.19874178007E+03  0.41800000000E+01 0. -1.
         -5    1    3    3    0  502 -0.72547044100E+02  0.11643006609E+02 -0.62767126329E+02  0.96725476262E+02  0.41800000000E+01 0. -1.
        -11    1    4    4    0    0 -0.58315995966E+01  0.24682654927E+02 -0.12719677241E+03  0.12970065505E+03  0.00000000000E+00 0. -1.
         11    1    4    4    0    0  0.84477555747E+02  0.30078393699E+02 -0.11047724523E+03  0.14228980605E+03  0.00000000000E+00 0.  1.
</event>
<event>
 8    1  0.6869405E-009  0.1336750E+03  0.7561462E-02  0.1222102E+00
         -1   -1    0    0    0  501 -0.00000000000E+00  0.00000000000E+00  0.32417039934E+03  0.32417039934E+03  0.00000000000E+00 0.  1.
          1   -1    0    0  501    0  0.00000000000E+00 -0.00000000000E+00 -0.81767500414E+02  0.81767500414E+02  0.00000000000E+00 0. -1.
         25    2    1    2    0    0 -0.72079786604E+02 -0.81507272938E+02  0.63329608274E+02  0.17747220162E+03  0.12508721711E+03 0.  0.
         23    2    1    2    0    0  0.72079786604E+02  0.81507272938E+02  0.17907329065E+03  0.22846569813E+03  0.91051637109E+02 0.  0.
          5    1    3    3  502    0 -0.32442722397E+02 -0.94415106444E+02 -0.19097257579E+01  0.99939291642E+02  0.41800000000E+01 0. -1.
         -5    1    3    3    0  502 -0.39637064207E+02  0.12907833506E+02  0.65239334032E+02  0.77532909978E+02  0.41800000000E+01 0. -1.
        -11    1    4    4    0    0  0.29750070897E+02  0.77501369344E+02  0.61135153455E+02  0.10309721605E+03  0.00000000000E+00 0. -1.
         11    1    4    4    0    0  0.42329715707E+02  0.40059035938E+01  0.11793813720E+03  0.12536848209E+03  0.00000000000E+00 0.  1.
</event>
<event>
 8    1  0.6869405E-009  0.1045903E+03  0.7561462E-02  0.1270929E+00
          1   -1    0    0  501    0  0.00000000000E+00  0.00000000000E+00  0.81730129635E+02  0.81730129635E+02  0.00000000000E+00 0. -1.
         -1   -1    0    0    0  501 -0.00000000000E+00 -0.00000000000E+00 -0.16970722914E+03  0.16970722914E+03  0.00000000000E+00 0.  1.
         25    2    1    2    0    0 -0.86997053477E+01 -0.49730677718E+02 -0.56421951298E+02  0.14621832176E+03  0.12509011092E+03 0.  0.
         23    2    1    2    0    0  0.86997053477E+01  0.49730677718E+02 -0.31555148204E+02  0.10521903701E+03  0.86755364056E+02 0.  0.
          5    1    3    3  502    0 -0.44647204352E+02 -0.66226172029E+02 -0.35510967183E+01  0.80058487407E+02  0.41800000000E+01 0.  1.
         -5    1    3    3    0  502  0.35947499005E+02  0.16495494311E+02 -0.52870854580E+02  0.66159834351E+02  0.41800000000E+01 0.  1.
        -11    1    4    4    0    0  0.11428565262E+02  0.69013910581E+02 -0.43496700907E+02  0.82374115761E+02  0.00000000000E+00 0.  1.
         11    1    4    4    0    0 -0.27288599140E+01 -0.19283232863E+02  0.11941552703E+02  0.22844921253E+02  0.00000000000E+00 0. -1.
</event>
<event>
 8    1  0.6869405E-009  0.1433336E+03  0.7561462E-02  0.1208912E+00
          3   -1    0    0  501    0  0.00000000000E+00  0.00000000000E+00  0.31075452059E+03  0.31075452059E+03  0.00000000000E+00 0. -1.
         -3   -1    0    0    0  501 -0.00000000000E+00 -0.00000000000E+00 -0.84189544362E+02  0.84189544362E+02  0.00000000000E+00 0.  1.
         25    2    1    2    0    0  0.82405440971E+02  0.83814137461E+02  0.97222057532E+02  0.19726759916E+03  0.12508761276E+03 0.  0.
         23    2    1    2    0    0 -0.82405440971E+02 -0.83814137461E+02  0.12934291870E+03  0.19767646580E+03  0.92363023836E+02 0.  0.
          5    1    3    3  502    0 -0.19498000748E+02  0.20210976366E+02  0.67825998318E+02  0.73528865398E+02  0.41800000000E+01 0.  1.
         -5    1    3    3    0  502  0.10190344172E+03  0.63603161095E+02  0.29396059214E+02  0.12373873376E+03  0.41800000000E+01 0.  1.
        -11    1    4    4    0    0 -0.71132609014E+02 -0.20867327011E+02  0.10652324039E+03  0.12977863517E+03  0.00000000000E+00 0.  1.
         11    1    4    4    0    0 -0.11272831957E+02 -0.62946810450E+02  0.22819678304E+02  0.67897830629E+02  0.00000000000E+00 0. -1.
</event>
<event>
 8    1  0.6869405E-009  0.2657189E+03  0.7561462E-02  0.1103755E+00
         -1   -1    0    0    0  501 -0.00000000000E+00  0.00000000000E+00  0.94101075361E+02  0.94101075361E+02  0.00000000000E+00 0.  1.
          1   -1    0    0  501    0  0.00000000000E+00 -0.00000000000E+00 -0.85027186111E+03  0.85027186111E+03  0.00000000000E+00 0. -1.
         25    2    1    2    0    0 -0.40017065451E+02  0.25605496024E+03 -0.33390450601E+03  0.44080087677E+03  0.12509070964E+03 0.  0.
         23    2    1    2    0    0  0.40017065451E+02 -0.25605496024E+03 -0.42226627973E+03  0.50357205969E+03  0.90058315059E+02 0.  0.
          5    1    3    3  502    0 -0.32114639528E+01  0.63379983797E+01 -0.87985936579E+02  0.88371268860E+02  0.41800000000E+01 0.  1.
         -5    1    3    3    0  502 -0.36805601498E+02  0.24971696186E+03 -0.24591856943E+03  0.35242960791E+03  0.41800000000E+01 0.  1.
        -11    1    4    4    0    0 -0.23975651969E+02 -0.69184770812E+02 -0.80398608766E+02  0.10874419843E+03  0.00000000000E+00 0.  1.
         11    1    4    4    0    0  0.63992717420E+02 -0.18687018943E+03 -0.34186767097E+03  0.39482786127E+03  0.00000000000E+00 0. -1.
</event>
<event>
 8    1  0.6869405E-009  0.7048784E+02  0.7561462E-02  0.1358442E+00
          1   -1    0    0  501    0  0.00000000000E+00  0.00000000000E+00  0.36686515864E+02  0.36686515864E+02  0.00000000000E+00 0. -1.
         -1   -1    0    0    0  501 -0.00000000000E+00 -0.00000000000E+00 -0.41506316598E+03  0.41506316598E+03  0.00000000000E+00 0.  1.
         25    2    1    2    0    0 -0.47710518331E+02  0.36421449501E+02 -0.23018778491E+03  0.26876886851E+03  0.12508985896E+03 0.  0.
         23    2    1    2    0    0  0.47710518331E+02 -0.36421449501E+02 -0.14818886520E+03  0.18298081333E+03  0.88990014798E+02 0.  0.
          5    1    3    3  502    0 -0.14395550731E+02  0.79585303893E+01  0.13157482282E+02  0.21474678736E+02  0.41800000000E+01 0. -1.
         -5    1    3    3    0  502 -0.33314967600E+02  0.28462919112E+02 -0.24334526719E+03  0.24729418978E+03  0.41800000000E+01 0. -1.
        -11    1    4    4    0    0  0.23558311108E+02  0.11580872808E+02 -0.11893582284E+03  0.12179836039E+03  0.00000000000E+00 0.  1.
         11    1    4    4    0    0  0.24152207223E+02 -0.48002322310E+02 -0.29253042356E+02  0.61182452942E+02  0.00000000000E+00 0. -1.
</event>
<event>
 8    1  0.6869405E-009  0.1086415E+03  0.7561462E-02  0.1263107E+00
          1   -1    0    0  501    0  0.00000000000E+00  0.00000000000E+00  0.56223192077E+02  0.56223192077E+02  0.00000000000E+00 0. -1.
         -1   -1    0    0    0  501 -0.00000000000E+00 -0.00000000000E+00 -0.24278410666E+03  0.24278410666E+03  0.00000000000E+00 0.  1.
         25    2    1    2    0    0  0.11732496878E+02 -0.24418476722E+02 -0.15192090061E+03  0.19864729446E+03  0.12508746566E+03 0.  0.
         23    2    1    2    0    0 -0.11732496878E+02  0.24418476722E+02 -0.34640013976E+02  0.10036000428E+03  0.90212451487E+02 0.  0.
          5    1    3    3  502    0  0.13276466220E+02 -0.75183605744E+02 -0.81885099571E+02  0.11203339261E+03  0.41800000000E+01 0.  1.
         -5    1    3    3    0  502 -0.15439693420E+01  0.50765129021E+02 -0.70035801039E+02  0.86613901846E+02  0.41800000000E+01 0.  1.
        -11    1    4    4    0    0  0.27055282410E+02 -0.17912163126E+02  0.15627424616E+01  0.32485012824E+02  0.00000000000E+00 0. -1.
         11    1    4    4    0    0 -0.38787779288E+02  0.42330639848E+02 -0.36202756438E+02  0.67874991461E+02  0.00000000000E+00 0.  1.
</event>
<event>
 8    1  0.6869405E-009  0.1003277E+03  0.7561462E-02  0.1279608E+00
          2   -1    0    0  501    0  0.00000000000E+00  0.00000000000E+00  0.89619992515E+02  0.89619992515E+02  0.00000000000E+00 0. -1.
         -2   -1    0    0    0  501 -0.00000000000E+00 -0.00000000000E+00 -0.20002950896E+03  0.20002950896E+03  0.00000000000E+00 0.  1.
         25    2    1    2    0    0 -0.12392659103E+02  0.75779069456E+02 -0.46544148682E+02  0.15397946607E+03  0.12508905959E+03 0.  0.
         23    2    1    2    0    0  0.12392659103E+02 -0.75779069456E+02 -0.63865367762E+02  0.13567003540E+03  0.91823351818E+02 0.  0.
          5    1    3    3  502    0 -0.18439625557E+02  0.34254853371E+02 -0.87092443579E+02  0.95477646068E+02  0.41800000000E+01 0. -1.
         -5    1    3    3    0  502  0.60469664543E+01  0.41524216085E+02  0.40548294898E+02  0.58501820005E+02  0.41800000000E+01 0. -1.
        -11    1    4    4    0    0 -0.33988862975E+02 -0.62450004465E+02 -0.33002424606E+02  0.78386260874E+02  0.00000000000E+00 0.  1.
         11    1    4    4    0    0  0.46381522078E+02 -0.13329064991E+02 -0.30862943156E+02  0.57283774527E+02  0.00000000000E+00 0. -1.
</event>
<event>
 8    1  0.6869405E-009  0.1139615E+03  0.7561462E-02  0.1253405E+00
         -2   -1    0    0    0  501 -0.00000000000E+00  0.00000000000E+00  0.27255016873E+03  0.27255016873E+03  0.00000000000E+00 0.  1.
          2   -1    0    0  501    0  0.00000000000E+00 -0.00000000000E+00 -0.57443639931E+02  0.57443639931E+02  0.00000000000E+00 0. -1.
         25    2    1    2    0    0 -0.28563100867E+02 -0.54606242868E+02  0.14219616594E+03  0.19916522984E+03  0.12509734879E+03 0.  0.
         23    2    1    2    0    0  0.28563100867E+02  0.54606242868E+02  0.72910362854E+02  0.13082857882E+03  0.89456713187E+02 0.  0.
          5    1    3    3  502    0 -0.68008799645E+02 -0.62889818262E+02  0.69287106128E+02  0.11575189651E+03  0.41800000000E+01 0. -1.
         -5    1    3    3    0  502  0.39445698778E+02  0.82835753939E+01  0.72909059814E+02  0.83413333325E+02  0.41800000000E+01 0. -1.
        -11    1    4    4    0    0 -0.61326710478E+01 -0.15382403479E+02  0.44875815522E+02  0.47833741331E+02  0.00000000000E+00 0.  1.
         11    1    4    4    0    0  0.34695771915E+02  0.69988646347E+02  0.28034547331E+02  0.82994837492E+02  0.00000000000E+00 0. -1.
</event>
<event>
 8    1  0.6869405E-009  0.9997683E+02  0.7561462E-02  0.1280345E+00
          3   -1    0    0  501    0  0.00000000000E+00  0.00000000000E+00  0.10931693843E+03  0.10931693843E+03  0.00000000000E+00 0. -1.
         -3   -1    0    0    0  501 -0.00000000000E+00 -0.00000000000E+00 -0.27451705089E+03  0.27451705089E+03  0.00000000000E+00 0.  1.
         25    2    1    2    0    0  0.93221866174E+02 -0.39250161964E+01 -0.19652386161E+03  0.25094693878E+03  0.12508803226E+03 0.  0.
         23    2    1    2    0    0 -0.93221866174E+02  0.39250161964E+01  0.31323749160E+02  0.13288705054E+03  0.89286442733E+02 0.  0.
          5    1    3    3  502    0  0.92860863108E+02 -0.55818679335E+01 -0.52597354134E+02  0.10694976021E+03  0.41800000000E+01 0. -1.
         -5    1    3    3    0  502  0.36100306539E+00  0.16568517371E+01 -0.14392650748E+03  0.14399717857E+03  0.41800000000E+01 0. -1.
        -11    1    4    4    0    0 -0.30888813263E+02 -0.18583365038E+02 -0.26655177877E+02  0.44832563485E+02  0.00000000000E+00 0.  1.
         11    1    4    4    0    0 -0.62333052911E+02  0.22508381235E+02  0.57978927037E+02  0.88054487060E+02  0.00000000000E+00 0. -1.
</event>
<event>
 8    1  0.6869405E-009  0.1372717E+03  0.7561462E-02  0.1217048E+00
         -1   -1    0    0    0  501 -0.00000000000E+00  0.00000000000E+00  0.17005051268E+03  0.17005051268E+03  0.00000000000E+00 0.  1.
          1   -1    0    0  501    0  0.00000000000E+00 -0.00000000000E+00 -0.30446772184E+03  0.30446772184E+03  0.00000000000E+00 0. -1.
         25    2    1    2    0    0 -0.20156640781E+02  0.95908502109E+02  0.11111232043E+03  0.19390283836E+03  0.12509049536E+03 0.  0.
         23    2    1    2    0    0  0.20156640781E+02 -0.95908502109E+02 -0.24552952958E+03  0.28061539616E+03  0.94103771034E+02 0.  0.
          5    1    3    3  502    0 -0.24167789929E+02 -0.26554459269E+02  0.21692848085E+02  0.42157720944E+02  0.41800000000E+01 0.  1.
         -5    1    3    3    0  502  0.40111491483E+01  0.12246296138E+03  0.89419472340E+02  0.15174511742E+03  0.41800000000E+01 0.  1.
        -11    1    4    4    0    0 -0.22201646160E+02 -0.38636195958E+02 -0.30255112168E+02  0.53861308401E+02  0.00000000000E+00 0.  1.
         11    1    4    4    0    0  0.42358286941E+02 -0.57272306151E+02 -0.21527441741E+03  0.22675408776E+03  0.00000000000E+00 0. -1.
</event>
<event>
 8    1  0.6869405E-009  0.7330655E+02  0.7561462E-02  0.1349197E+00
          1   -1    0    0  501    0  0.00000000000E+00  0.00000000000E+00  0.42090888414E+03  0.42090888414E+03  0.00000000000E+00 0. -1.
         -1   -1    0    0    0  501 -0.00000000000E+00 -0.00000000000E+00 -0.43376695034E+02  0.43376695034E+02  0.00000000000E+00 0.  1.
         25    2    1    2    0    0  0.79489885909E+01 -0.39333650692E+02  0.32672408909E+03  0.35214560852E+03  0.12509027423E+03 0.  0.
         23    2    1    2    0    0 -0.79489885909E+01  0.39333650692E+02  0.50808100013E+02  0.11213997066E+03  0.91561932570E+02 0.  0.
          5    1    3    3  502    0 -0.20223588367E+02 -0.57674380471E+02  0.69269591430E+02  0.92472030290E+02  0.41800000000E+01 0.  1.
         -5    1    3    3    0  502  0.28172576958E+02  0.18340729779E+02  0.25745449766E+03  0.25967357823E+03  0.41800000000E+01 0.  1.
        -11    1    4    4    0    0 -0.20325022915E+02  0.19950801954E+02 -0.21870976092E+02  0.35909339319E+02  0.00000000000E+00 0.  1.
         11    1    4    4    0    0  0.12376034325E+02  0.19382848738E+02  0.72679076105E+02  0.76230631339E+02  0.00000000000E+00 0. -1.
</event>
<event>
 8    1  0.6869405E-009  0.1483993E+03  0.7561462E-02  0.1202454E+00
          1   -1    0    0  501    0  0.00000000000E+00  0.00000000000E+00  0.34337982435E+03  0.34337982435E+03  0.00000000000E+00 0. -1.
         -1   -1    0    0    0  501 -0.00000000000E+00 -0.00000000000E+00 -0.70927766813E+02  0.70927766813E+02  0.00000000000E+00 0.  1.
         25    2    1    2    0    0 -0.35743730147E+02  0.93487276411E+02  0.17176641396E+03  0.23487881805E+03  0.12508746183E+03 0.  0.
         23    2    1    2    0    0  0.35743730147E+02 -0.93487276411E+02  0.10068564358E+03  0.17942877312E+03  0.10972511428E+03 0.  0.
          5    1    3    3  502    0 -0.73513156419E+01  0.11473244102E+03  0.16043095001E+03  0.19741615178E+03  0.41800000000E+01 0.  1.
         -5    1    3    3    0  502 -0.28392414505E+02 -0.21245164609E+02  0.11335463952E+02  0.37462666265E+02  0.41800000000E+01 0.  1.
        -11    1    4    4    0    0  0.51683845661E+02 -0.48111698111E+00  0.51717506804E+02  0.73117384293E+02  0.00000000000E+00 0.  1.
         11    1    4    4    0    0 -0.15940115514E+02 -0.93006159430E+02  0.48968136776E+02  0.10631138882E+03  0.00000000000E+00 0. -1.
</event>
<event>
 8    1  0.6869405E-009  0.1997340E+03  0.7561462E-02  0.1149964E+00
          2   -1    0    0  501    0  0.00000000000E+00  0.00000000000E+00  0.11904733828E+04  0.11904733828E+04  0.00000000000E+00 0. -1.
         -2   -1    0    0    0  501 -0.00000000000E+00 -0.00000000000E+00 -0.11499488903E+03  0.11499488903E+03  0.00000000000E+00 0.  1.
         25    2    1    2    0    0 -0.17295432861E+03  0.88296633212E+02  0.10668546649E+04  0.10915750960E+04  0.12509124263E+03 0.  0.
         23    2    1    2    0    0  0.17295432861E+03 -0.88296633212E+02  0.86238288705E+01  0.21389317582E+03  0.89254831887E+02 0.  0.
          5    1    3    3  502    0 -0.16546961226E+03  0.91837964872E+02  0.10655205195E+04  0.10822041648E+04  0.41800000000E+01 0. -1.
         -5    1    3    3    0  502 -0.74847163516E+01 -0.35413316603E+01  0.13341454329E+01  0.93709312679E+01  0.41800000000E+01 0. -1.
        -11    1    4    4    0    0  0.84860781411E+02 -0.72046595885E+02 -0.31569395375E+02  0.11570951095E+03  0.00000000000E+00 0.  1.
         11    1    4    4    0    0  0.88093547197E+02 -0.16250037327E+02  0.40193224246E+02  0.98183664864E+02  0.00000000000E+00 0. -1.
</event>
<event>
 8    1  0.6869405E-009  0.9860938E+02  0.7561462E-02  0.1283248E+00
         -1   -1    0    0    0  501 -0.00000000000E+00  0.00000000000E+00  0.81342461508E+02  0.81342461508E+02  0.00000000000E+00 0.  1.
          1   -1    0    0  501    0  0.00000000000E+00 -0.00000000000E+00 -0.16103023621E+03  0.16103023621E+03  0.00000000000E+00 0. -1.
         25    2    1    2    0    0 -0.17437772327E+02  0.18359501349E+02 -0.84521603082E+02  0.15307743109E+03  0.12509057249E+03 0.  0.
         23    2    1    2    0    0  0.17437772327E+02 -0.18359501349E+02  0.48338283818E+01  0.89295266629E+02  0.85493459119E+02 0.  0.
          5    1    3    3  502    0  0.14713992273E+02 -0.39152541760E+02  0.44680843667E+01  0.42271258236E+02  0.41800000000E+01 0.  1.
         -5    1    3    3    0  502 -0.32151764600E+02  0.57512043110E+02 -0.88989687448E+02  0.11080617285E+03  0.41800000000E+01 0.  1.
        -11    1    4    4    0    0  0.19419261327E+02  0.32717914240E+02  0.23239217805E+01  0.38117846676E+02  0.00000000000E+00 0.  1.
         11    1    4    4    0    0 -0.19814890004E+01 -0.51077415590E+02  0.25099066013E+01  0.51177419954E+02  0.00000000000E+00 0. -1.
</event>
<event>
 8    1  0.6869405E-009  0.1358482E+03  0.7561462E-02  0.1219027E+00
          2   -1    0    0  501    0  0.00000000000E+00  0.00000000000E+00  0.34600368404E+03  0.34600368404E+03  0.00000000000E+00 0. -1.
         -2   -1    0    0    0  501 -0.00000000000E+00 -0.00000000000E+00 -0.10893602871E+03  0.10893602871E+03  0.00000000000E+00 0.  1.
         25    2    1    2    0    0 -0.85856376632E+02 -0.72640700610E+02  0.25901603479E+03  0.30884291174E+03  0.12508656627E+03 0.  0.
         23    2    1    2    0    0  0.85856376632E+02  0.72640700610E+02 -0.21948379461E+02  0.14609680100E+03  0.90634182896E+02 0.  0.
          5    1    3    3  502    0 -0.50780566263E+02 -0.44541913342E+01  0.21357193403E+03  0.21961090395E+03  0.41800000000E+01 0.  1.
         -5    1    3    3    0  502 -0.35075810369E+02 -0.68186509275E+02  0.45444100764E+02  0.89232007791E+02  0.41800000000E+01 0.  1.
        -11    1    4    4    0    0  0.57134314206E+02 -0.84258345439E+01 -0.18837151112E+01  0.57782981320E+02  0.00000000000E+00 0. -1.
         11    1    4    4    0    0  0.28722062426E+02  0.81066535154E+02 -0.20064664350E+02  0.88313819685E+02  0.00000000000E+00 0.  1.
</event>
<event>
 8    1  0.6869405E-009  0.1623632E+03  0.7561462E-02  0.1186054E+00
         -2   -1    0    0    0  501 -0.00000000000E+00  0.00000000000E+00  0.40517345231E+02  0.40517345231E+02  0.00000000000E+00 0.  1.
          2   -1    0    0  501    0  0.00000000000E+00 -0.00000000000E+00 -0.84582560289E+03  0.84582560289E+03  0.00000000000E+00 0. -1.
         25    2    1    2    0    0 -0.57536898892E+02 -0.13833562248E+03 -0.41726242835E+03  0.46065455782E+03  0.12508976116E+03 0.  0.
         23    2    1    2    0    0  0.57536898892E+02  0.13833562248E+03 -0.38804582931E+03  0.42568839030E+03  0.90464362099E+02 0.  0.
          5    1    3    3  502    0 -0.44471828776E+02 -0.64573681834E+02 -0.69395587556E+02  0.10478894938E+03  0.41800000000E+01 0.  1.
         -5    1    3    3    0  502 -0.13065070116E+02 -0.73761940651E+02 -0.34786684080E+03  0.35586560844E+03  0.41800000000E+01 0.  1.
        -11    1    4    4    0    0  0.42901131549E+02  0.14770194884E+03 -0.36970967371E+03  0.40042679183E+03  0.00000000000E+00 0.  1.
         11    1    4    4    0    0  0.14635767343E+02 -0.93663263584E+01 -0.18336155601E+02  0.25261598473E+02  0.00000000000E+00 0. -1.
</event>
<event>
 8    1  0.6869405E-009  0.1356267E+03  0.7561462E-02  0.1219338E+00
          2   -1    0    0  501    0  0.00000000000E+00  0.00000000000E+00  0.38007897133E+02  0.38007897133E+02  0.00000000000E+00 0. -1.
         -2   -1    0    0    0  501 -0.00000000000E+00 -0.00000000000E+00 -0.70417830106E+03  0.70417830106E+03  0.00000000000E+00 0.  1.
         25    2    1    2    0    0 -0.24251788584E+02  0.85143832562E+02 -0.16784079695E+03  0.22728677687E+03  0.12510445374E+03 0.  0.
         23    2    1    2    0    0  0.24251788584E+02 -0.85143832562E+02 -0.49832960697E+03  0.51489942132E+03  0.94611814371E+02 0.  0.
          5    1    3    3  502    0 -0.19164567056E+02 -0.30482938959E+02 -0.28574356517E+02  0.46156867836E+02  0.41800000000E+01 0.  1.
         -5    1    3    3    0  502 -0.50872215278E+01  0.11562677152E+03 -0.13926644044E+03  0.18112990904E+03  0.41800000000E+01 0.  1.
        -11    1    4    4    0    0  0.49817949995E+01 -0.96629164442E+02 -0.46334769388E+03  0.47334247551E+03  0.00000000000E+00 0.  1.
         11    1    4    4    0    0  0.19269993584E+02  0.11485331880E+02 -0.34981913089E+02  0.41556945804E+02  0.00000000000E+00 0. -1.
</event>
<event>
 7    1  0.6869405E-009  0.1051467E+03  0.7561462E-02  0.1269831E+00
          3   -1    0    0  501    0  0.00000000000E+00  0.00000000000E+00  0.10484518506E+03  0.10484518506E+03  0.00000000000E+00 0. -1.
         -3   -1    0    0    0  501 -0.00000000000E+00 -0.00000000000E+00 -0.11887687514E+03  0.11887687514E+03  0.00000000000E+00 0.  1.
         23    2    1    2    0    0  0.24672118799E+02  0.96780524273E+01  0.61023202203E+01  0.94204173744E+02  0.90193180973E+02 0.  0.
          5    1    1    2  502    0 -0.51519988387E+02  0.36148462159E+02 -0.37624029114E+02  0.73444267896E+02  0.41800000000E+01 0.  1.
         -5    1    1    2    0  502  0.26847869589E+02 -0.45826514587E+02  0.17490018818E+02  0.56073618564E+02  0.41800000000E+01 0.  1.
        -11    1    3    3    0    0  0.56295915710E+02 -0.93024999973E+01  0.54081195271E+01  0.57315045047E+02  0.00000000000E+00 0. -1.
         11    1    3    3    0    0 -0.31623796912E+02  0.18980552425E+02  0.69420069320E+00  0.36889128698E+02  0.00000000000E+00 0.  1.
</event>
<event>
 8    1  0.6869405E-009  0.1117105E+03  0.7561462E-02  0.1257435E+00
          1   -1    0    0  501    0  0.00000000000E+00  0.00000000000E+00  0.18854862990E+03  0.18854862990E+03  0.00000000000E+00 0. -1.
         -1   -1    0    0    0  501 -0.00000000000E+00 -0.00000000000E+00 -0.10460193798E+03  0.10460193798E+03  0.00000000000E+00 0.  1.
         25    2    1    2    0    0 -0.15058658034E+02  0.87505370275E+02  0.49765489358E+02  0.16126989325E+03  0.12508965397E+03 0.  0.
         23    2    1    2    0    0  0.15058658034E+02 -0.87505370275E+02  0.34181202560E+02  0.13188067463E+03  0.91324721320E+02 0.  0.
          5    1    3    3  502    0  0.32567150870E+02  0.70589285986E+01 -0.24689860386E+02  0.41683442691E+02  0.41800000000E+01 0.  1.
         -5    1    3    3    0  502 -0.47625808903E+02  0.80446441677E+02  0.74455349744E+02  0.11958645056E+03  0.41800000000E+01 0.  1.
        -11    1    4    4    0    0  0.12673661816E+02 -0.48560312325E+01  0.46359088617E+02  0.48304946337E+02  0.00000000000E+00 0. -1.
         11    1    4    4    0    0  0.23849962174E+01 -0.82649339043E+02 -0.12177886058E+02  0.83575728295E+02  0.00000000000E+00 0.  1.
</event>
<event>
 8    1  0.6869405E-009  0.1175222E+03  0.7561462E-02  0.1247242E+00
         -1   -1    0    0    0  501 -0.00000000000E+00  0.00000000000E+00  0.15652771748E+02  0.15652771748E+02  0.00000000000E+00 0.  1.
          1   -1    0    0  501    0  0.00000000000E+00 -0.00000000000E+00 -0.10906318259E+04  0.10906318259E+04  0.00000000000E+00 0. -1.
         25    2    1    2    0    0 -0.48755564803E+02 -0.37158730118E+02 -0.75169958532E+03  0.76449843704E+03  0.12509083639E+03 0.  0.
         23    2    1    2    0    0  0.48755564803E+02  0.37158730118E+02 -0.32327946885E+03  0.34178616062E+03  0.92467768925E+02 0.  0.
          5    1    3    3  502    0  0.13304724340E+02 -0.66504977505E+02 -0.30049128683E+03  0.30807858345E+03  0.41800000000E+01 0.  1.
         -5    1    3    3    0  502 -0.62060289143E+02  0.29346247387E+02 -0.45120829849E+03  0.45641985359E+03  0.41800000000E+01 0.  1.
        -11    1    4    4    0    0  0.51369506113E+02 -0.89420251316E+01 -0.90283214834E+02  0.10425854810E+03  0.00000000000E+00 0.  1.
         11    1    4    4    0    0 -0.26139413103E+01  0.46100755249E+02 -0.23299625402E+03  0.23752761252E+03  0.00000000000E+00 0. -1.
</event>
<event>
 8    1  0.6869405E-009  0.9635115E+02  0.7561462E-02  0.1288162E+00
         -2   -1    0    0    0  501 -0.00000000000E+00  0.00000000000E+00  0.88355648258E+01  0.88355648258E+01  0.00000000000E+00 0.  1.
          2   -1    0    0  501    0  0.00000000000E+00 -0.00000000000E+00 -0.22567519668E+04  0.22567519668E+04  0.00000000000E+00 0. -1.
         25    2    1    2    0    0 -0.44810213270E+02 -0.55442130674E+02 -0.17395123385E+04  0.17454605279E+04  0.12508994261E+03 0.  0.
         23    2    1    2    0    0  0.44810213270E+02  0.55442130674E+02 -0.50840406347E+03  0.52012700368E+03  0.83520195985E+02 0.  0.
          5    1    3    3  502    0 -0.53686131570E+00 -0.36982706040E+02 -0.15313430350E+04  0.15317953428E+04  0.41800000000E+01 0.  1.
         -5    1    3    3    0  502 -0.44273351954E+02 -0.18459424634E+02 -0.20816930343E+03  0.21366518514E+03  0.41800000000E+01 0.  1.
        -11    1    4    4    0    0  0.68349803146E+02  0.40437508449E+02 -0.41923265187E+03  0.42668829850E+03  0.00000000000E+00 0.  1.
         11    1    4    4    0    0 -0.23539589877E+02  0.15004622225E+02 -0.89171411600E+02  0.93438705184E+02  0.00000000000E+00 0. -1.
</event>
<event>
 8    1  0.6869405E-009  0.9573033E+02  0.7561462E-02  0.1289540E+00
         -2   -1    0    0    0  501 -0.00000000000E+00  0.00000000000E+00  0.38315030553E+03  0.38315030553E+03  0.00000000000E+00 0. -1.
          2   -1    0    0  501    0  0.00000000000E+00 -0.00000000000E+00 -0.32074999743E+02  0.32074999743E+02  0.00000000000E+00 0.  1.
         25    2    1    2    0    0 -0.26035607508E+02  0.13607896736E+02  0.20283470651E+03  0.24010985207E+03  0.12509114750E+03 0.  0.
         23    2    1    2    0    0  0.26035607508E+02 -0.13607896736E+02  0.14824059928E+03  0.17511545321E+03  0.88471006351E+02 0.  0.
          5    1    3    3  502    0 -0.62142962691E+02  0.44709851674E+02  0.15238204940E+03  0.17058276592E+03  0.41800000000E+01 0. -1.
         -5    1    3    3    0  502  0.36107355183E+02 -0.31101954938E+02  0.50452657106E+02  0.69527086149E+02  0.41800000000E+01 0. -1.
        -11    1    4    4    0    0  0.43949985815E+02  0.80912084859E+00  0.26726565196E+02  0.51444778325E+02  0.00000000000E+00 0.  1.
         11    1    4    4    0    0 -0.17914378308E+02 -0.14417017585E+02  0.12151403409E+03  0.12367067488E+03  0.00000000000E+00 0. -1.
</event>
<event>
 8    1  0.6869405E-009  0.1415720E+03  0.7561462E-02  0.1211229E+00
         -1   -1    0    0    0  501 -0.00000000000E+00  0.00000000000E+00  0.79557216174E+02  0.79557216174E+02  0.00000000000E+00 0.  1.
          1   -1    0    0  501    0  0.00000000000E+00 -0.00000000000E+00 -0.33208897842E+03  0.33208897842E+03  0.00000000000E+00 0. -1.
         25    2    1    2    0    0  0.43945636029E+02 -0.11356612685E+03 -0.11368009125E+03  0.20832837442E+03  0.12509622036E+03 0.  0.
         23    2    1    2    0    0 -0.43945636029E+02  0.11356612685E+03 -0.13885167099E+03  0.20331782017E+03  0.85028614986E+02 0.  0.
          5    1    3    3  502    0 -0.30703587751E+02 -0.21289743303E+02  0.78467175291E+01  0.38405817875E+02  0.41800000000E+01 0.  1.
         -5    1    3    3    0  502  0.74649223780E+02 -0.92276383548E+02 -0.12152680878E+03  0.16992255655E+03  0.41800000000E+01 0.  1.
        -11    1    4    4    0    0 -0.43554777654E+02  0.65158174267E+02 -0.29522950990E+02  0.83750886357E+02  0.00000000000E+00 0.  1.
         11    1    4    4    0    0 -0.39085837503E+00  0.48407952585E+02 -0.10932872000E+03  0.11956693381E+03  0.00000000000E+00 0. -1.
</event>
<event>
 8    1  0.6869405E-009  0.7279055E+02  0.7561462E-02  0.1350853E+00
         -2   -1    0    0    0  501 -0.00000000000E+00  0.00000000000E+00  0.16966164556E+03  0.16966164556E+03  0.00000000000E+00 0.  1.
          2   -1    0    0  501    0  0.00000000000E+00 -0.00000000000E+00 -0.93556504175E+02  0.93556504175E+02  0.00000000000E+00 0. -1.
         25    2    1    2    0    0  0.62130653491E+02  0.16633513538E+00  0.62158955091E+02  0.15287598735E+03  0.12508831297E+03 0.  0.
         23    2    1    2    0    0 -0.62130653491E+02 -0.16633513538E+00  0.13946186297E+02  0.11034216238E+03  0.90114654285E+02 0.  0.
          5    1    3    3  502    0  0.14741112878E+02 -0.99054640387E+01  0.93342127030E+02  0.95108589019E+02  0.41800000000E+01 0.  1.
         -5    1    3    3    0  502  0.47389540613E+02  0.10071799174E+02 -0.31183171939E+02  0.57767398334E+02  0.41800000000E+01 0.  1.
        -11    1    4    4    0    0 -0.27900217921E+02  0.24003124063E+02 -0.31559136339E+02  0.48482483551E+02  0.00000000000E+00 0.  1.
         11    1    4    4    0    0 -0.34230435570E+02 -0.24169459198E+02  0.45505322636E+02  0.61859678834E+02  0.00000000000E+00 0. -1.
</event>
<event>
 8    1  0.6869405E-009  0.1197425E+03  0.7561462E-02  0.1243522E+00
          1   -1    0    0  501    0  0.00000000000E+00  0.00000000000E+00  0.22331252646E+03  0.22331252646E+03  0.00000000000E+00 0. -1.
         -1   -1    0    0    0  501 -0.00000000000E+00 -0.00000000000E+00 -0.71436955357E+02  0.71436955357E+02  0.00000000000E+00 0.  1.
         25    2    1    2    0    0  0.65165434237E+02  0.15320576299E+01  0.62029112070E+02  0.15409029040E+03  0.12508927145E+03 0.  0.
         23    2    1    2    0    0 -0.65165434237E+02 -0.15320576299E+01  0.89846459033E+02  0.14065919141E+03  0.86392944781E+02 0.  0.
          5    1    3    3  502    0  0.34693806414E+02 -0.60487615873E+02  0.18318323503E+02  0.72218039668E+02  0.41800000000E+01 0.  1.
         -5    1    3    3    0  502  0.30471627822E+02  0.62019673503E+02  0.43710788567E+02  0.81872250737E+02  0.41800000000E+01 0.  1.
        -11    1    4    4    0    0 -0.26226896235E+01 -0.31107863078E+02  0.57180043745E+01  0.31737567962E+02  0.00000000000E+00 0.  1.
         11    1    4    4    0    0 -0.62542744613E+02  0.29575805448E+02  0.84128454658E+02  0.10892162345E+03  0.00000000000E+00 0. -1.
</event>
<event>
 8    1  0.6869405E-009  0.1024335E+03  0.7561462E-02  0.1275260E+00
          2   -1    0    0  501    0  0.00000000000E+00  0.00000000000E+00  0.45083616234E+03  0.45083616234E+03  0.00000000000E+00 0. -1.
         -2   -1    0    0    0  501 -0.00000000000E+00 -0.00000000000E+00 -0.35135906589E+02  0.35135906589E+02  0.00000000000E+00 0.  1.
         25    2    1    2    0    0  0.60885115711E+01  0.41203709969E+02  0.13717479737E+03  0.19026001614E+03  0.12508850074E+03 0.  0.
         23    2    1    2    0    0 -0.60885115711E+01 -0.41203709969E+02  0.27852545838E+03  0.29571205279E+03  0.90190750716E+02 0.  0.
          5    1    3    3  502    0 -0.48674798242E+02  0.17541075232E+02  0.11553883948E+03  0.12666341671E+03  0.41800000000E+01 0.  1.
         -5    1    3    3    0  502  0.54763309813E+02  0.23662634737E+02  0.21635957891E+02  0.63596599424E+02  0.41800000000E+01 0.  1.
        -11    1    4    4    0    0 -0.39193241879E+02  0.13810577706E+01  0.69113163439E+02  0.79464752501E+02  0.00000000000E+00 0.  1.
         11    1    4    4    0    0  0.33104730308E+02 -0.42584767740E+02  0.20941229494E+03  0.21624730029E+03  0.00000000000E+00 0. -1.
</event>
<event>
 8    1  0.6869405E-009  0.9995112E+02  0.7561462E-02  0.1280399E+00
          2   -1    0    0  501    0  0.00000000000E+00  0.00000000000E+00  0.11312707150E+04  0.11312707150E+04  0.00000000000E+00 0. -1.
         -2   -1    0    0    0  501 -0.00000000000E+00 -0.00000000000E+00 -0.38527699098E+02  0.38527699098E+02  0.00000000000E+00 0.  1.
         25    2    1    2    0    0  0.86530005049E+02 -0.19998213777E+02  0.10005247657E+04  0.10122177358E+04  0.12509023755E+03 0.  0.
         23    2    1    2    0    0 -0.86530005049E+02  0.19998213777E+02  0.92218250206E+02  0.15758067832E+03  0.91869985195E+02 0.  0.
          5    1    3    3  502    0  0.11996408619E+02 -0.32673029148E+02  0.66907078531E+02  0.75534563023E+02  0.41800000000E+01 0.  1.
         -5    1    3    3    0  502  0.74533596429E+02  0.12674815370E+02  0.93361768720E+03  0.93668317279E+03  0.41800000000E+01 0.  1.
        -11    1    4    4    0    0 -0.60746211626E+02  0.10484817361E+02  0.30353454942E+00  0.61645160030E+02  0.00000000000E+00 0.  1.
         11    1    4    4    0    0 -0.25783793423E+02  0.95133964161E+01  0.91914715657E+02  0.95935518287E+02  0.00000000000E+00 0. -1.
</event>
<event>
 8    1  0.6869405E-009  0.1045609E+03  0.7561462E-02  0.1270987E+00
          1   -1    0    0  501    0  0.00000000000E+00  0.00000000000E+00  0.73063249548E+02  0.73063249548E+02  0.00000000000E+00 0. -1.
         -1   -1    0    0    0  501 -0.00000000000E+00 -0.00000000000E+00 -0.21736537637E+03  0.21736537637E+03  0.00000000000E+00 0.  1.
         25    2    1    2    0    0 -0.16741019414E+02 -0.35430277791E+02 -0.14067307144E+03  0.19227088046E+03  0.12507442636E+03 0.  0.
         23    2    1    2    0    0  0.16741019414E+02  0.35430277791E+02 -0.36290553873E+01  0.98157745459E+02  0.89923337545E+02 0.  0.
          5    1    3    3  502    0 -0.62615938739E+02  0.11311910774E+02 -0.54026418831E+02  0.83576560358E+02  0.41800000000E+01 0. -1.
         -5    1    3    3    0  502  0.45874919325E+02 -0.46742188565E+02 -0.86646652605E+02  0.10869432010E+03  0.41800000000E+01 0. -1.
        -11    1    4    4    0    0  0.39212370521E+02  0.17640996671E+01 -0.30383880625E+02  0.49637709973E+02  0.00000000000E+00 0.  1.
         11    1    4    4    0    0 -0.22471351107E+02  0.33666178124E+02  0.26754825238E+02  0.48520035486E+02  0.00000000000E+00 0. -1.
</event>
<event>
 8    1  0.6869405E-009  0.8334912E+02  0.7561462E-02  0.1319807E+00
          2   -1    0    0  501    0  0.00000000000E+00  0.00000000000E+00  0.83782084839E+03  0.83782084839E+03  0.00000000000E+00 0. -1.
         -2   -1    0    0    0  501 -0.00000000000E+00 -0.00000000000E+00 -0.15719497727E+02  0.15719497727E+02  0.00000000000E+00 0.  1.
         25    2    1    2    0    0  0.31268847167E+02 -0.21167059326E+02  0.54395800039E+03  0.55943041999E+03  0.12508518465E+03 0.  0.
         23    2    1    2    0    0 -0.31268847167E+02  0.21167059326E+02  0.27814335027E+03  0.29410992613E+03  0.87813097778E+02 0.  0.
          5    1    3    3  502    0 -0.64083834805E+01 -0.48997854731E+02  0.87660488039E+02  0.10071589105E+03  0.41800000000E+01 0.  1.
         -5    1    3    3    0  502  0.37677230648E+02  0.27830795405E+02  0.45629751235E+03  0.45871452894E+03  0.41800000000E+01 0.  1.
        -11    1    4    4    0    0 -0.34183753013E+02  0.39085491013E+02  0.26865293893E+03  0.27362493704E+03  0.00000000000E+00 0. -1.
         11    1    4    4    0    0  0.29149058453E+01 -0.17918431687E+02  0.94904113448E+01  0.20484989082E+02  0.00000000000E+00 0.  1.
</event>
<event>
 8    1  0.6869405E-009  0.2240543E+03  0.7561462E-02  0.1130896E+00
         -1   -1    0    0    0  501 -0.00000000000E+00  0.00000000000E+00  0.10382955000E+03  0.10382955000E+03  0.00000000000E+00 0.  1.
          1   -1    0    0  501    0  0.00000000000E+00 -0.00000000000E+00 -0.54353804128E+03  0.54353804128E+03  0.00000000000E+00 0. -1.
         25    2    1    2    0    0 -0.18666567214E+03 -0.99049146380E+02 -0.21290990146E+03  0.32501271058E+03  0.12509128404E+03 0.  0.
         23    2    1    2    0    0  0.18666567214E+03  0.99049146380E+02 -0.22679858981E+03  0.32235488070E+03  0.88432246473E+02 0.  0.
          5    1    3    3  502    0 -0.16460144391E+03 -0.11502064249E+03 -0.13404622737E+03  0.24147307719E+03  0.41800000000E+01 0. -1.
         -5    1    3    3    0  502 -0.22064228236E+02  0.15971496111E+02 -0.78863674093E+02  0.83539633391E+02  0.41800000000E+01 0. -1.
        -11    1    4    4    0    0  0.47669485390E+02 -0.22279223808E+01 -0.16067517484E+02  0.50353833951E+02  0.00000000000E+00 0.  1.
         11    1    4    4    0    0  0.13899618675E+03  0.10127706876E+03 -0.21073107233E+03  0.27200104675E+03  0.00000000000E+00 0. -1.
</event>
<event>
 8    1  0.6869405E-009  0.1371625E+03  0.7561462E-02  0.1217199E+00
         -1   -1    0    0    0  501 -0.00000000000E+00  0.00000000000E+00  0.22252429986E+03  0.22252429986E+03  0.00000000000E+00 0.  1.
          1   -1    0    0  501    0  0.00000000000E+00 -0.00000000000E+00 -0.15538806807E+03  0.15538806807E+03  0.00000000000E+00 0. -1.
         25    2    1    2    0    0  0.12016777514E+03 -0.54675892572E+02  0.10776657197E+03  0.21140129841E+03  0.12508847879E+03 0.  0.
         23    2    1    2    0    0 -0.12016777514E+03  0.54675892572E+02 -0.40630340173E+02  0.16651106952E+03  0.92980451275E+02 0.  0.
          5    1    3    3  502    0  0.88523839760E+02 -0.41906852901E+02 -0.26502586517E+00  0.98031613088E+02  0.41800000000E+01 0. -1.
         -5    1    3    3    0  502  0.31643935383E+02 -0.12769039672E+02  0.10803159783E+03  0.11336968533E+03  0.41800000000E+01 0. -1.
        -11    1    4    4    0    0 -0.30437267952E+02  0.41131320872E+02  0.22569779656E+02  0.55925019363E+02  0.00000000000E+00 0.  1.
         11    1    4    4    0    0 -0.89730507191E+02  0.13544571701E+02 -0.63200119829E+02  0.11058605016E+03  0.00000000000E+00 0. -1.
</event>
<event>
 8    1  0.6869405E-009  0.1061019E+03  0.7561462E-02  0.1267964E+00
         -2   -1    0    0    0  501 -0.00000000000E+00  0.00000000000E+00  0.17258965389E+03  0.17258965389E+03  0.00000000000E+00 0.  1.
          2   -1    0    0  501    0  0.00000000000E+00 -0.00000000000E+00 -0.83919440796E+02  0.83919440796E+02  0.00000000000E+00 0. -1.
         25    2    1    2    0    0  0.24701802382E+02  0.29388319259E+02  0.95763429679E+01  0.13119961473E+03  0.12509108766E+03 0.  0.
         23    2    1    2    0    0 -0.24701802382E+02 -0.29388319259E+02  0.79093870130E+02  0.12530947996E+03  0.89290386523E+02 0.  0.
          5    1    3    3  502    0 -0.39419027218E+02  0.45941888632E+02 -0.11124335221E+02  0.61690680593E+02  0.41800000000E+01 0.  1.
         -5    1    3    3    0  502  0.64120829600E+02 -0.16553569373E+02  0.20700678189E+02  0.69508934138E+02  0.41800000000E+01 0.  1.
        -11    1    4    4    0    0  0.20971523917E+02 -0.33273714252E+02  0.67345633916E+02  0.77989610097E+02  0.00000000000E+00 0.  1.
         11    1    4    4    0    0 -0.45673326299E+02  0.38853949927E+01  0.11748236214E+02  0.47319869861E+02  0.00000000000E+00 0. -1.
</event>
<event>
 8    1  0.6869405E-009  0.1061754E+03  0.7561462E-02  0.1267821E+00
          3   -1    0    0  501    0  0.00000000000E+00  0.00000000000E+00  0.16095902748E+03  0.16095902748E+03  0.00000000000E+00 0. -1.
         -3   -1    0    0    0  501 -0.00000000000E+00 -0.00000000000E+00 -0.97448810535E+02  0.97448810535E+02  0.00000000000E+00 0.  1.
         25    2    1    2    0    0 -0.51988164250E+02  0.13152847725E+02  0.68834246807E+01  0.13627979184E+03  0.12509609707E+03 0.  0.
         23    2    1    2    0    0  0.51988164250E+02 -0.13152847725E+02  0.56626792269E+02  0.12212804618E+03  0.93983506193E+02 0.  0.
          5    1    3    3  502    0 -0.85129116810E+02  0.34219471355E+02  0.21224045802E+02  0.94264899454E+02  0.41800000000E+01 0. -1.
         -5    1    3    3    0  502  0.33140952561E+02 -0.21066623631E+02 -0.14340621122E+02  0.42014892384E+02  0.41800000000E+01 0. -1.
        -11    1    4    4    0    0  0.50471296162E+02  0.15130549936E+02  0.72526984482E+02  0.89646242284E+02  0.00000000000E+00 0. -1.
         11    1    4    4    0    0  0.15168680879E+01 -0.28283397661E+02 -0.15900192213E+02  0.32481803898E+02  0.00000000000E+00 0.  1.
</event>
<event>
 8    1  0.6869405E-009  0.1047771E+03  0.7561462E-02  0.1270559E+00
          1   -1    0    0  501    0  0.00000000000E+00  0.00000000000E+00  0.83832647198E+03  0.83832647198E+03  0.00000000000E+00 0. -1.
         -1   -1    0    0    0  501 -0.00000000000E+00 -0.00000000000E+00 -0.28964734168E+02  0.28964734168E+02  0.00000000000E+00 0.  1.
         25    2    1    2    0    0  0.55365469962E+02 -0.80942798559E+02  0.59300015802E+03  0.61393222942E+03  0.12508606242E+03 0.  0.
         23    2    1    2    0    0 -0.55365469962E+02  0.80942798559E+02  0.21636157980E+03  0.25335897673E+03  0.88098615053E+02 0.  0.
          5    1    3    3  502    0  0.45046776111E+02 -0.82735857395E+02  0.20368456811E+03  0.22445335779E+03  0.41800000000E+01 0.  1.
         -5    1    3    3    0  502  0.10318693851E+02  0.17930588360E+01  0.38931558990E+03  0.38947887163E+03  0.41800000000E+01 0.  1.
        -11    1    4    4    0    0 -0.20967589128E+02  0.64625213187E+01 -0.26459700186E-01  0.21940936073E+02  0.00000000000E+00 0.  1.
         11    1    4    4    0    0 -0.34397880834E+02  0.74480277240E+02  0.21638803950E+03  0.23141804066E+03  0.00000000000E+00 0. -1.
</event>
<event>
 8    1  0.6869405E-009  0.7980188E+02  0.7561462E-02  0.1329615E+00
         -1   -1    0    0    0  501 -0.00000000000E+00  0.00000000000E+00  0.31185672611E+02  0.31185672611E+02  0.00000000000E+00 0.  1.
          1   -1    0    0  501    0  0.00000000000E+00 -0.00000000000E+00 -0.62448164452E+03  0.62448164452E+03  0.00000000000E+00 0. -1.
         25    2    1    2    0    0  0.46271750133E+02  0.92059372567E+01 -0.49306890821E+03  0.51086559578E+03  0.12506352213E+03 0.  0.
         23    2    1    2    0    0 -0.46271750133E+02 -0.92059372567E+01 -0.10022706370E+03  0.14480172135E+03  0.93253686614E+02 0.  0.
          5    1    3    3  502    0  0.12272147830E+02 -0.16777222247E+02 -0.44827603567E+03  0.44877718008E+03  0.41800000000E+01 0.  1.
         -5    1    3    3    0  502  0.33999602303E+02  0.25983159503E+02 -0.44792872533E+02  0.62088415702E+02  0.41800000000E+01 0.  1.
        -11    1    4    4    0    0 -0.33253989583E+02  0.35618929130E+02 -0.80558956646E+02  0.94150312966E+02  0.00000000000E+00 0.  1.
         11    1    4    4    0    0 -0.13017760549E+02 -0.44824866387E+02 -0.19668107054E+02  0.50651408386E+02  0.00000000000E+00 0. -1.
</event>
<event>
 8    1  0.6869405E-009  0.1428050E+03  0.7561462E-02  0.1209604E+00
          2   -1    0    0  501    0  0.00000000000E+00  0.00000000000E+00  0.49430564828E+02  0.49430564828E+02  0.00000000000E+00 0. -1.
         -2   -1    0    0    0  501 -0.00000000000E+00 -0.00000000000E+00 -0.45791862090E+03  0.45791862090E+03  0.00000000000E+00 0.  1.
         25    2    1    2    0    0  0.98864131293E+02 -0.51376615368E+01 -0.18884173055E+03  0.24720297672E+03  0.12509036925E+03 0.  0.
         23    2    1    2    0    0 -0.98864131293E+02  0.51376615368E+01 -0.21964632552E+03  0.26014620900E+03  0.98137809850E+02 0.  0.
          5    1    3    3  502    0 -0.75391676487E+01  0.42141544490E+02 -0.51303169795E+02  0.66949506733E+02  0.41800000000E+01 0. -1.
         -5    1    3    3    0  502  0.10640329894E+03 -0.47279206026E+02 -0.13753856076E+03  0.18025346999E+03  0.41800000000E+01 0. -1.
        -11    1    4    4    0    0 -0.38438566986E+02  0.40692274494E+02 -0.15493511056E+03  0.16473698164E+03  0.00000000000E+00 0.  1.
         11    1    4    4    0    0 -0.60425564307E+02 -0.35554612957E+02 -0.64711214951E+02  0.95409227356E+02  0.00000000000E+00 0. -1.
</event>
<event>
 8    1  0.6869405E-009  0.3415697E+03  0.7561462E-02  0.1066129E+00
          2   -1    0    0  501    0  0.00000000000E+00  0.00000000000E+00  0.16474261091E+03  0.16474261091E+03  0.00000000000E+00 0.  1.
         -2   -1    0    0    0  501 -0.00000000000E+00 -0.00000000000E+00 -0.76874663204E+03  0.76874663204E+03  0.00000000000E+00 0. -1.
         25    2    1    2    0    0  0.27977653947E+03 -0.16297340753E+03 -0.17682555816E+03  0.38955146779E+03  0.12509126444E+03 0.  0.
         23    2    1    2    0    0 -0.27977653947E+03  0.16297340753E+03 -0.42717846297E+03  0.54393777516E+03  0.92474971875E+02 0.  0.
          5    1    3    3  502    0  0.18198087980E+03 -0.34048680699E+02 -0.97555718516E+02  0.20931063969E+03  0.41800000000E+01 0. -1.
         -5    1    3    3    0  502  0.97795659665E+02 -0.12892472683E+03 -0.79269839645E+02  0.18024082810E+03  0.41800000000E+01 0. -1.
        -11    1    4    4    0    0 -0.22235767126E+03  0.82386604498E+02 -0.31646710605E+03  0.39545153405E+03  0.00000000000E+00 0.  1.
         11    1    4    4    0    0 -0.57418868211E+02  0.80586803031E+02 -0.11071135692E+03  0.14848624112E+03  0.00000000000E+00 0. -1.
</event>
<event>
 8    1  0.6869405E-009  0.2113878E+03  0.7561462E-02  0.1140472E+00
         -1   -1    0    0    0  501 -0.00000000000E+00  0.00000000000E+00  0.13979676143E+03  0.13979676143E+03  0.00000000000E+00 0.  1.
          1   -1    0    0  501    0  0.00000000000E+00 -0.00000000000E+00 -0.39212980010E+03  0.39212980010E+03  0.00000000000E+00 0. -1.
         25    2    1    2    0    0  0.45498231564E+02  0.19150914891E+03 -0.20391924634E+03  0.30980018256E+03  0.12508897191E+03 0.  0.
         23    2    1    2    0    0 -0.45498231564E+02 -0.19150914891E+03 -0.48413792333E+02  0.22212637897E+03  0.90831656127E+02 0.  0.
          5    1    3    3  502    0 -0.26423245766E+02  0.12512409551E+03 -0.15280734031E+03  0.19930324345E+03  0.41800000000E+01 0.  1.
         -5    1    3    3    0  502  0.71921477330E+02  0.66385053398E+02 -0.51111906031E+02  0.11049693912E+03  0.41800000000E+01 0.  1.
        -11    1    4    4    0    0 -0.25470302525E+02 -0.11301662529E+03 -0.73648844710E+02  0.13727944577E+03  0.00000000000E+00 0. -1.
         11    1    4    4    0    0 -0.20027929038E+02 -0.78492523620E+02  0.25235052377E+02  0.84846933205E+02  0.00000000000E+00 0.  1.
</event>
<event>
 8    1  0.6869405E-009  0.1366915E+03  0.7561462E-02  0.1217851E+00
         -2   -1    0    0    0  501 -0.00000000000E+00  0.00000000000E+00  0.18372427012E+02  0.18372427012E+02  0.00000000000E+00 0.  1.
          2   -1    0    0  501    0  0.00000000000E+00 -0.00000000000E+00 -0.11032357654E+04  0.11032357654E+04  0.00000000000E+00 0. -1.
         25    2    1    2    0    0  0.88113544093E+02 -0.11032863910E+02 -0.68678065858E+03  0.70370500424E+03  0.12508932509E+03 0.  0.
         23    2    1    2    0    0 -0.88113544093E+02  0.11032863910E+02 -0.39808267982E+03  0.41790318818E+03  0.91035893938E+02 0.  0.
          5    1    3    3  502    0  0.11558794866E+03  0.12253796307E+02 -0.49030031609E+03  0.50390733449E+03  0.41800000000E+01 0. -1.
         -5    1    3    3    0  502 -0.27474404563E+02 -0.23286660217E+02 -0.19648034249E+03  0.19979766975E+03  0.41800000000E+01 0. -1.
        -11    1    4    4    0    0 -0.63716094661E+02 -0.32035551478E+02 -0.29576038856E+03  0.30423711924E+03  0.00000000000E+00 0. -1.
         11    1    4    4    0    0 -0.24397449432E+02  0.43068415388E+02 -0.10232229125E+03  0.11366606895E+03  0.00000000000E+00 0.  1.
</event>
<event>
 8    1  0.6869405E-009  0.1218512E+03  0.7561462E-02  0.1240074E+00
         -2   -1    0    0    0  501 -0.00000000000E+00  0.00000000000E+00  0.17249405371E+02  0.17249405371E+02  0.00000000000E+00 0.  1.
          2   -1    0    0  501    0  0.00000000000E+00 -0.00000000000E+00 -0.13495105540E+04  0.13495105540E+04  0.00000000000E+00 0. -1.
         25    2    1    2    0    0  0.97803136332E+02  0.42041219201E+02 -0.77938057817E+03  0.79650169185E+03  0.12509173391E+03 0.  0.
         23    2    1    2    0    0 -0.97803136332E+02 -0.42041219201E+02 -0.55288057041E+03  0.57025826747E+03  0.90469049418E+02 0.  0.
          5    1    3    3  502    0  0.83185963936E+02  0.38573637255E+02 -0.77484375177E+03  0.78026158571E+03  0.41800000000E+01 0.  1.
         -5    1    3    3    0  502  0.14617172396E+02  0.34675819457E+01 -0.45368264079E+01  0.16240106135E+02  0.41800000000E+01 0.  1.
        -11    1    4    4    0    0 -0.82804633484E+02 -0.67459851422E+02 -0.47764892137E+03  0.48944451265E+03  0.00000000000E+00 0. -1.
         11    1    4    4    0    0 -0.14998502848E+02  0.25418632221E+02 -0.75231649034E+02  0.80813754820E+02  0.00000000000E+00 0.  1.
</event>
<event>
 8    1  0.6869405E-009  0.2426465E+03  0.7561462E-02  0.1118042E+00
         -2   -1    0    0    0  501 -0.00000000000E+00  0.00000000000E+00  0.11457762768E+03  0.11457762768E+03  0.00000000000E+00 0. -1.
          2   -1    0    0  501    0  0.00000000000E+00 -0.00000000000E+00 -0.57527923366E+03  0.57527923366E+03  0.00000000000E+00 0.  1.
         25    2    1    2    0    0 -0.55323123101E+02 -0.22235110330E+03 -0.28979141004E+03  0.39003448775E+03  0.12508868542E+03 0.  0.
         23    2    1    2    0    0  0.55323123101E+02  0.22235110330E+03 -0.17091019595E+03  0.29982237359E+03  0.90457169643E+02 0.  0.
          5    1    3    3  502    0 -0.82752058439E+02 -0.20393372279E+03 -0.21287834473E+03  0.30622137176E+03  0.41800000000E+01 0.  1.
         -5    1    3    3    0  502  0.27428935338E+02 -0.18417380510E+02 -0.76913065303E+02  0.83813115996E+02  0.41800000000E+01 0.  1.
        -11    1    4    4    0    0  0.19068668203E+02  0.14718387182E+03 -0.15549982456E+03  0.21495790674E+03  0.00000000000E+00 0.  1.
         11    1    4    4    0    0  0.36254454898E+02  0.75167231479E+02 -0.15410371387E+02  0.84864466854E+02  0.00000000000E+00 0. -1.
</event>
<event>
 8    1  0.6869405E-009  0.1061701E+03  0.7561462E-02  0.1267831E+00
          2   -1    0    0  501    0  0.00000000000E+00  0.00000000000E+00  0.90035537068E+02  0.90035537068E+02  0.00000000000E+00 0. -1.
         -2   -1    0    0    0  501 -0.00000000000E+00 -0.00000000000E+00 -0.16341058016E+03  0.16341058016E+03  0.00000000000E+00 0.  1.
         25    2    1    2    0    0  0.51992562192E+02  0.99437287525E+01 -0.26442699817E+02  0.13838005246E+03  0.12509084012E+03 0.  0.
         23    2    1    2    0    0 -0.51992562192E+02 -0.99437287525E+01 -0.46932343280E+02  0.11506606477E+03  0.90749380998E+02 0.  0.
          5    1    3    3  502    0  0.90996041138E+02  0.10324098113E+02 -0.35174097102E+02  0.98191425347E+02  0.41800000000E+01 0. -1.
         -5    1    3    3    0  502 -0.39003478947E+02 -0.38036936023E+00  0.87313972853E+01  0.40188627114E+02  0.41800000000E+01 0. -1.
        -11    1    4    4    0    0 -0.40815574367E+02  0.22859567185E+02 -0.61671282763E+02  0.77406834585E+02  0.00000000000E+00 0.  1.
         11    1    4    4    0    0 -0.11176987824E+02 -0.32803295937E+02  0.14738939484E+02  0.37659230187E+02  0.00000000000E+00 0. -1.
</event>
<event>
 8    1  0.6869405E-009  0.1245835E+03  0.7561462E-02  0.1235722E+00
         -1   -1    0    0    0  501 -0.00000000000E+00  0.00000000000E+00  0.16131625702E+03  0.16131625702E+03  0.00000000000E+00 0.  1.
          1   -1    0    0  501    0  0.00000000000E+00 -0.00000000000E+00 -0.11626887754E+03  0.11626887754E+03  0.00000000000E+00 0. -1.
         25    2    1    2    0    0  0.23855701601E+02  0.55253323056E+02 -0.26181975517E+02  0.14125896853E+03  0.12508627479E+03 0.  0.
         23    2    1    2    0    0 -0.23855701601E+02 -0.55253323056E+02  0.71229354990E+02  0.13632616603E+03  0.99444347873E+02 0.  0.
          5    1    3    3  502    0 -0.93225831751E+01  0.89891519762E+02 -0.20638561463E+02  0.92794496073E+02  0.41800000000E+01 0. -1.
         -5    1    3    3    0  502  0.33178284776E+02 -0.34638196705E+02 -0.55434140540E+01  0.48464472462E+02  0.41800000000E+01 0. -1.
        -11    1    4    4    0    0 -0.35540780443E+02  0.15546801348E+02  0.58126264131E+01  0.39225460258E+02  0.00000000000E+00 0. -1.
         11    1    4    4    0    0  0.11685078842E+02 -0.70800124404E+02  0.65416728577E+02  0.97100705770E+02  0.00000000000E+00 0.  1.
</event>
<event>
 8    1  0.6869405E-009  0.1324578E+03  0.7561462E-02  0.1223854E+00
         -2   -1    0    0    0  501 -0.00000000000E+00  0.00000000000E+00  0.66639664629E+03  0.66639664629E+03  0.00000000000E+00 0.  1.
          2   -1    0    0  501    0  0.00000000000E+00 -0.00000000000E+00 -0.54159422886E+02  0.54159422886E+02  0.00000000000E+00 0. -1.
         25    2    1    2    0    0  0.57790681166E+02  0.67481170428E+02  0.56302296486E+03  0.58355359579E+03  0.12508584653E+03 0.  0.
         23    2    1    2    0    0 -0.57790681166E+02 -0.67481170428E+02  0.49214258543E+02  0.13700247339E+03  0.91946524017E+02 0.  0.
          5    1    3    3  502    0  0.27062850883E+01 -0.31545361776E+02  0.21920924510E+03  0.22152336077E+03  0.41800000000E+01 0.  1.
         -5    1    3    3    0  502  0.55084396078E+02  0.99026532204E+02  0.34381371976E+03  0.36203023502E+03  0.41800000000E+01 0.  1.
        -11    1    4    4    0    0 -0.78142386273E+02 -0.50108448633E+02  0.15749018138E+02  0.94154770082E+02  0.00000000000E+00 0.  1.
         11    1    4    4    0    0  0.20351705107E+02 -0.17372721795E+02  0.33465240404E+02  0.42847703307E+02  0.00000000000E+00 0. -1.
</event>
<event>
 8    1  0.6869405E-009  0.1866921E+03  0.7561462E-02  0.1161479E+00
          2   -1    0    0  501    0  0.00000000000E+00  0.00000000000E+00  0.12207016879E+03  0.12207016879E+03  0.00000000000E+00 0. -1.
         -2   -1    0    0    0  501 -0.00000000000E+00 -0.00000000000E+00 -0.30458022648E+03  0.30458022648E+03  0.00000000000E+00 0.  1.
         25    2    1    2    0    0  0.15784803573E+03 -0.20021217329E+02 -0.10052725598E+03  0.22598699081E+03  0.12509012467E+03 0.  0.
         23    2    1    2    0    0 -0.15784803573E+03  0.20021217329E+02 -0.81982801701E+02  0.20066340447E+03  0.90707059203E+02 0.  0.
          5    1    3    3  502    0  0.91146278592E+02 -0.63356301456E+02 -0.94962356340E+02  0.14614029751E+03  0.41800000000E+01 0.  1.
         -5    1    3    3    0  502  0.66701757141E+02  0.43335084127E+02 -0.55648996414E+01  0.79846693294E+02  0.41800000000E+01 0.  1.
        -11    1    4    4    0    0 -0.46606468795E+02  0.49072323327E+02 -0.37606359801E+02  0.77424118643E+02  0.00000000000E+00 0.  1.
         11    1    4    4    0    0 -0.11124156694E+03 -0.29051105998E+02 -0.44376441900E+02  0.12323928582E+03  0.00000000000E+00 0. -1.
</event>
<event>
 8    1  0.6869405E-009  0.2959156E+03  0.7561462E-02  0.1087300E+00
         -1   -1    0    0    0  501 -0.00000000000E+00  0.00000000000E+00  0.84226051634E+02  0.84226051634E+02  0.00000000000E+00 0.  1.
          1   -1    0    0  501    0  0.00000000000E+00 -0.00000000000E+00 -0.12644808203E+04  0.12644808203E+04  0.00000000000E+00 0. -1.
         25    2    1    2    0    0 -0.17583921874E+03 -0.21590183712E+03 -0.32964950848E+03  0.44927631988E+03  0.12508948415E+03 0.  0.
         23    2    1    2    0    0  0.17583921874E+03  0.21590183712E+03 -0.85060526020E+03  0.89943055207E+03  0.88954905414E+02 0.  0.
          5    1    3    3  502    0 -0.12715621197E+03 -0.58040323440E+02 -0.15847876973E+03  0.21135367099E+03  0.41800000000E+01 0. -1.
         -5    1    3    3    0  502 -0.48683006772E+02 -0.15786151368E+03 -0.17117073875E+03  0.23792264889E+03  0.41800000000E+01 0. -1.
        -11    1    4    4    0    0  0.90431639945E+02  0.58626217289E+02 -0.23894915554E+03  0.26212900219E+03  0.00000000000E+00 0.  1.
         11    1    4    4    0    0  0.85407578795E+02  0.15727561983E+03 -0.61165610466E+03  0.63730154988E+03  0.00000000000E+00 0. -1.
</event>
<event>
 8    1  0.6869405E-009  0.1196299E+03  0.7561462E-02  0.1243709E+00
          1   -1    0    0  501    0  0.00000000000E+00  0.00000000000E+00  0.75868578774E+03  0.75868578774E+03  0.00000000000E+00 0. -1.
         -1   -1    0    0    0  501 -0.00000000000E+00 -0.00000000000E+00 -0.19859376183E+02  0.19859376183E+02  0.00000000000E+00 0.  1.
         25    2    1    2    0    0 -0.51587937602E+02  0.16548638196E+02  0.48441355175E+03  0.50322860092E+03  0.12508941973E+03 0.  0.
         23    2    1    2    0    0  0.51587937602E+02 -0.16548638196E+02  0.25441285980E+03  0.27531656300E+03  0.90211606229E+02 0.  0.
          5    1    3    3  502    0 -0.33892110070E+02 -0.52819773291E+02  0.18711241874E+03  0.19740094534E+03  0.41800000000E+01 0. -1.
         -5    1    3    3    0  502 -0.17695827532E+02  0.69368411487E+02  0.29730113301E+03  0.30582765557E+03  0.41800000000E+01 0. -1.
        -11    1    4    4    0    0 -0.19958688358E+02  0.16446861227E+02  0.51112598872E+02  0.57283036308E+02  0.00000000000E+00 0. -1.
         11    1    4    4    0    0  0.71546625961E+02 -0.32995499422E+02  0.20330026093E+03  0.21803352670E+03  0.00000000000E+00 0.  1.
</event>
<event>
 8    1  0.6869405E-009  0.9244805E+02  0.7561462E-02  0.1297029E+00
          2   -1    0    0  501    0  0.00000000000E+00  0.00000000000E+00  0.30466038039E+03  0.30466038039E+03  0.00000000000E+00 0.  1.
         -2   -1    0    0    0  501 -0.00000000000E+00 -0.00000000000E+00 -0.53922611507E+02  0.53922611507E+02  0.00000000000E+00 0. -1.
         25    2    1    2    0    0  0.69144524017E+01  0.50550638582E+02  0.20268046507E+03  0.24357818504E+03  0.12509110518E+03 0.  0.
         23    2    1    2    0    0 -0.69144524017E+01 -0.50550638582E+02  0.48057303816E+02  0.11500480686E+03  0.91177982195E+02 0.  0.
          5    1    3    3  502    0  0.60392464368E+02  0.36765033299E+01  0.67270037895E+02  0.90573157324E+02  0.41800000000E+01 0.  1.
         -5    1    3    3    0  502 -0.53478011967E+02  0.46874135252E+02  0.13541042717E+03  0.15300502771E+03  0.41800000000E+01 0.  1.
        -11    1    4    4    0    0 -0.11209178504E+02 -0.30207048331E+02  0.74616133669E+02  0.81275327470E+02  0.00000000000E+00 0.  1.
         11    1    4    4    0    0  0.42947261021E+01 -0.20343590252E+02 -0.26558829853E+02  0.33729479388E+02  0.00000000000E+00 0. -1.
</event>
<event>
 8    1  0.6869405E-009  0.1838919E+03  0.7561462E-02  0.1164089E+00
         -1   -1    0    0    0  501 -0.00000000000E+00  0.00000000000E+00  0.33242726614E+02  0.33242726614E+02  0.00000000000E+00 0.  1.
          1   -1    0    0  501    0  0.00000000000E+00 -0.00000000000E+00 -0.11401136603E+04  0.11401136603E+04  0.00000000000E+00 0. -1.
         25    2    1    2    0    0  0.10122076683E+03 -0.11557655206E+03 -0.71787457113E+03  0.74471148723E+03  0.12509083227E+03 0.  0.
         23    2    1    2    0    0 -0.10122076683E+03  0.11557655206E+03 -0.38899636254E+03  0.42864489967E+03  0.93886617361E+02 0.  0.
          5    1    3    3  502    0 -0.27396904739E+02 -0.95737634166E+01 -0.73884066392E+02  0.79489464723E+02  0.41800000000E+01 0. -1.
         -5    1    3    3    0  502  0.12861767157E+03 -0.10600278864E+03 -0.64399050473E+03  0.66522202250E+03  0.41800000000E+01 0. -1.
        -11    1    4    4    0    0 -0.99675447615E+02  0.12630646735E+03 -0.38468484404E+03  0.41697835410E+03  0.00000000000E+00 0. -1.
         11    1    4    4    0    0 -0.15453192108E+01 -0.10729915298E+02 -0.43115185020E+01  0.11666545571E+02  0.00000000000E+00 0.  1.
</event>
<event>
 8    1  0.6869405E-009  0.8903214E+02  0.7561462E-02  0.1305213E+00
         -2   -1    0    0    0  501 -0.00000000000E+00  0.00000000000E+00  0.44120700875E+02  0.44120700875E+02  0.00000000000E+00 0. -1.
          2   -1    0    0  501    0  0.00000000000E+00 -0.00000000000E+00 -0.32757297443E+03  0.32757297443E+03  0.00000000000E+00 0.  1.
         25    2    1    2    0    0  0.15596525931E+02  0.22231468339E+02 -0.22908592237E+03  0.26240975770E+03  0.12506410877E+03 0.  0.
         23    2    1    2    0    0 -0.15596525931E+02 -0.22231468339E+02 -0.54366351187E+02  0.10928391761E+03  0.90828325430E+02 0.  0.
          5    1    3    3  502    0 -0.58841190104E+01 -0.46686129078E+02 -0.47662206997E+02  0.67107196936E+02  0.41800000000E+01 0.  1.
         -5    1    3    3    0  502  0.21480644942E+02  0.68917597417E+02 -0.18142371537E+03  0.19530256076E+03  0.41800000000E+01 0.  1.
        -11    1    4    4    0    0 -0.12618093263E+01 -0.37529310384E+02 -0.72446586255E+02  0.81599933582E+02  0.00000000000E+00 0.  1.
         11    1    4    4    0    0 -0.14334716605E+02  0.15297842045E+02  0.18080235068E+02  0.27683984024E+02  0.00000000000E+00 0. -1.
</event>
<event>
 8    1  0.6869405E-009  0.1058729E+03  0.7561462E-02  0.1268409E+00
          1   -1    0    0  501    0  0.00000000000E+00  0.00000000000E+00  0.53388663044E+02  0.53388663044E+02  0.00000000000E+00 0. -1.
         -1   -1    0    0    0  501 -0.00000000000E+00 -0.00000000000E+00 -0.26567126236E+03  0.26567126236E+03  0.00000000000E+00 0.  1.
         25    2    1    2    0    0  0.26991513176E+02  0.20146135392E+02 -0.70573243873E+02  0.14752113689E+03  0.12508994573E+03 0.  0.
         23    2    1    2    0    0 -0.26991513176E+02 -0.20146135392E+02 -0.14170935545E+03  0.17153878852E+03  0.90606876073E+02 0.  0.
          5    1    3    3  502    0  0.59794977744E+02 -0.31713506664E+02 -0.32653907980E+02  0.75265768944E+02  0.41800000000E+01 0. -1.
         -5    1    3    3    0  502 -0.32803464567E+02  0.51859642056E+02 -0.37919335893E+02  0.72255367942E+02  0.41800000000E+01 0. -1.
        -11    1    4    4    0    0  0.16904494066E+02 -0.32665314697E+02 -0.20697077214E+02  0.42203716769E+02  0.00000000000E+00 0. -1.
         11    1    4    4    0    0 -0.43896007242E+02  0.12519179305E+02 -0.12101227823E+03  0.12933507175E+03  0.00000000000E+00 0.  1.
</event>
<event>
 8    1  0.6869405E-009  0.1149100E+03  0.7561462E-02  0.1251738E+00
          2   -1    0    0  501    0  0.00000000000E+00  0.00000000000E+00  0.51685618503E+03  0.51685618503E+03  0.00000000000E+00 0. -1.
         -2   -1    0    0    0  501 -0.00000000000E+00 -0.00000000000E+00 -0.35161385029E+02  0.35161385029E+02  0.00000000000E+00 0.  1.
         25    2    1    2    0    0 -0.34078305694E+02 -0.67810047728E+02  0.21412941686E+03  0.25933942983E+03  0.12508396863E+03 0.  0.
         23    2    1    2    0    0  0.34078305694E+02  0.67810047728E+02  0.26756538315E+03  0.29267814023E+03  0.91157698633E+02 0.  0.
          5    1    3    3  502    0  0.45526888237E+02 -0.90634979096E+01  0.80499497795E+02  0.93018740543E+02  0.41800000000E+01 0. -1.
         -5    1    3    3    0  502 -0.79605193931E+02 -0.58746549818E+02  0.13362991906E+03  0.16632068929E+03  0.41800000000E+01 0. -1.
        -11    1    4    4    0    0 -0.76135590569E+01  0.15734409466E+02  0.58457756902E+00  0.17489415476E+02  0.00000000000E+00 0.  1.
         11    1    4    4    0    0  0.41691864751E+02  0.52075638262E+02  0.26698080558E+03  0.27518872476E+03  0.00000000000E+00 0. -1.
</event>
<event>
 8    1  0.6869405E-009  0.9288650E+02  0.7561462E-02  0.1296008E+00
         -3   -1    0    0    0  501 -0.00000000000E+00  0.00000000000E+00  0.11853672473E+03  0.11853672473E+03  0.00000000000E+00 0.  1.
          3   -1    0    0  501    0  0.00000000000E+00 -0.00000000000E+00 -0.13233127684E+03  0.13233127684E+03  0.00000000000E+00 0. -1.
         25    2    1    2    0    0  0.17486814638E+02 -0.55967661634E+02  0.13728194362E+02  0.13882781670E+03  0.12508609649E+03 0.  0.
         23    2    1    2    0    0 -0.17486814638E+02  0.55967661634E+02 -0.27522746471E+02  0.11204018487E+03  0.91418453379E+02 0.  0.
          5    1    3    3  502    0  0.63307886464E+02 -0.43467256357E+02  0.37486704209E+02  0.85557093546E+02  0.41800000000E+01 0.  1.
         -5    1    3    3    0  502 -0.45821071826E+02 -0.12500405277E+02 -0.23758509847E+02  0.53270723155E+02  0.41800000000E+01 0.  1.
        -11    1    4    4    0    0 -0.17890924222E+02  0.28076673196E+02  0.32079990330E+02  0.46233218868E+02  0.00000000000E+00 0.  1.
         11    1    4    4    0    0  0.40410958452E+00  0.27890988437E+02 -0.59602736802E+02  0.65806966005E+02  0.00000000000E+00 0. -1.
</event>
<event>
 8    1  0.6869405E-009  0.1938092E+03  0.7561462E-02  0.1155070E+00
         -2   -1    0    0    0  501 -0.00000000000E+00  0.00000000000E+00  0.10583878534E+03  0.10583878534E+03  0.00000000000E+00 0.  1.
          2   -1    0    0  501    0  0.00000000000E+00 -0.00000000000E+00 -0.40138338347E+03  0.40138338347E+03  0.00000000000E+00 0. -1.
         25    2    1    2    0    0 -0.10000779036E+02  0.17159737701E+03 -0.19019582121E+03  0.28525204850E+03  0.12509438593E+03 0.  0.
         23    2    1    2    0    0  0.10000779036E+02 -0.17159737701E+03 -0.10534877692E+03  0.22197012030E+03  0.92879998535E+02 0.  0.
          5    1    3    3  502    0 -0.46314073043E+02  0.44272799422E+02 -0.11812673092E+03  0.13444876752E+03  0.41800000000E+01 0.  1.
         -5    1    3    3    0  502  0.36313294007E+02  0.12732457759E+03 -0.72069090294E+02  0.15080328099E+03  0.41800000000E+01 0.  1.
        -11    1    4    4    0    0 -0.18886386870E+02 -0.21005619286E+01 -0.27007837390E+02  0.33023192607E+02  0.00000000000E+00 0.  1.
         11    1    4    4    0    0  0.28887165907E+02 -0.16949681508E+03 -0.78340939530E+02  0.18894692769E+03  0.00000000000E+00 0. -1.
</event>
<event>
 8    1  0.6869405E-009  0.1181786E+03  0.7561462E-02  0.1246132E+00
          2   -1    0    0  501    0  0.00000000000E+00  0.00000000000E+00  0.12807652147E+04  0.12807652147E+04  0.00000000000E+00 0. -1.
         -2   -1    0    0    0  501 -0.00000000000E+00 -0.00000000000E+00 -0.11116021702E+02  0.11116021702E+02  0.00000000000E+00 0.  1.
         25    2    1    2    0    0 -0.25238861407E+02 -0.48225085485E+02  0.76808953233E+03  0.78011017882E+03  0.12509077671E+03 0.  0.
         23    2    1    2    0    0  0.25238861407E+02  0.48225085485E+02  0.50155966067E+03  0.51177105759E+03  0.85935226652E+02 0.  0.
          5    1    3    3  502    0  0.19665585911E+01  0.41147071526E+02  0.29226338334E+03  0.29518181937E+03  0.41800000000E+01 0. -1.
         -5    1    3    3    0  502 -0.27205419998E+02 -0.89372157011E+02  0.47582614900E+03  0.48492835945E+03  0.41800000000E+01 0. -1.
        -11    1    4    4    0    0  0.49085372566E+02  0.16511718586E+01  0.22372871485E+03  0.22905597136E+03  0.00000000000E+00 0.  1.
         11    1    4    4    0    0 -0.23846511159E+02  0.46573913627E+02  0.27783094582E+03  0.28271508622E+03  0.00000000000E+00 0. -1.
</event>
<event>
 8    1  0.6869405E-009  0.8926622E+02  0.7561462E-02  0.1304638E+00
         -2   -1    0    0    0  501 -0.00000000000E+00  0.00000000000E+00  0.26373666122E+02  0.26373666122E+02  0.00000000000E+00 0.  1.
          2   -1    0    0  501    0  0.00000000000E+00 -0.00000000000E+00 -0.59025779858E+03  0.59025779858E+03  0.00000000000E+00 0. -1.
         25    2    1    2    0    0  0.17480344639E+02  0.66954663782E+01 -0.46378480685E+03  0.48072165466E+03  0.12508625213E+03 0.  0.
         23    2    1    2    0    0 -0.17480344639E+02 -0.66954663782E+01 -0.10009932561E+03  0.13590981005E+03  0.90006720643E+02 0.  0.
          5    1    3    3  502    0 -0.40751409461E+02  0.41102444136E+02 -0.18928101518E+03  0.19797692642E+03  0.41800000000E+01 0.  1.
         -5    1    3    3    0  502  0.58231754100E+02 -0.34406977758E+02 -0.27450379167E+03  0.28274472823E+03  0.41800000000E+01 0.  1.
        -11    1    4    4    0    0  0.16795103238E+02  0.31199656251E+01  0.10265083498E+02  0.19929415884E+02  0.00000000000E+00 0.  1.
         11    1    4    4    0    0 -0.34275447877E+02 -0.98154320033E+01 -0.11036440911E+03  0.11598039416E+03  0.00000000000E+00 0. -1.
</event>
<event>
 8    1  0.6869405E-009  0.2067237E+03  0.7561462E-02  0.1144187E+00
          2   -1    0    0  501    0  0.00000000000E+00  0.00000000000E+00  0.78584024122E+03  0.78584024122E+03  0.00000000000E+00 0. -1.
         -2   -1    0    0    0  501 -0.00000000000E+00 -0.00000000000E+00 -0.63123651380E+02  0.63123651380E+02  0.00000000000E+00 0.  1.
         25    2    1    2    0    0  0.18292308562E+03 -0.59631285781E+02  0.32444248192E+03  0.39739992925E+03  0.12508810572E+03 0.  0.
         23    2    1    2    0    0 -0.18292308562E+03  0.59631285781E+02  0.39827410792E+03  0.45156396335E+03  0.90945051886E+02 0.  0.
          5    1    3    3  502    0  0.14272557083E+03 -0.58478167469E+00  0.27673478348E+03  0.31140093662E+03  0.41800000000E+01 0.  1.
         -5    1    3    3    0  502  0.40197514792E+02 -0.59046504106E+02  0.47707698443E+02  0.85998992630E+02  0.41800000000E+01 0.  1.
        -11    1    4    4    0    0 -0.16099852703E+02  0.23384924848E+02  0.13379100057E+03  0.13677021533E+03  0.00000000000E+00 0. -1.
         11    1    4    4    0    0 -0.16682323292E+03  0.36246360933E+02  0.26448310734E+03  0.31479374802E+03  0.00000000000E+00 0.  1.
</event>
<event>
 8    1  0.6869405E-009  0.1556127E+03  0.7561462E-02  0.1193741E+00
         -2   -1    0    0    0  501 -0.00000000000E+00  0.00000000000E+00  0.22776556946E+02  0.22776556946E+02  0.00000000000E+00 0. -1.
          2   -1    0    0  501    0  0.00000000000E+00 -0.00000000000E+00 -0.13336566354E+04  0.13336566354E+04  0.00000000000E+00 0.  1.
         25    2    1    2    0    0  0.12043597345E+03  0.50619127775E+02 -0.83848278190E+03  0.85776905949E+03  0.12508902457E+03 0.  0.
         23    2    1    2    0    0 -0.12043597345E+03 -0.50619127775E+02 -0.47239729656E+03  0.49866413287E+03  0.91867251029E+02 0.  0.
          5    1    3    3  502    0  0.12335919012E+03  0.24086191972E+02 -0.42021200739E+03  0.43862653589E+03  0.41800000000E+01 0. -1.
         -5    1    3    3    0  502 -0.29232166624E+01  0.26532935803E+02 -0.41827077451E+03  0.41914252360E+03  0.41800000000E+01 0. -1.
        -11    1    4    4    0    0 -0.46663102374E+02 -0.68175239142E+02 -0.21492422248E+03  0.23025579204E+03  0.00000000000E+00 0. -1.
         11    1    4    4    0    0 -0.73772871081E+02  0.17556111368E+02 -0.25747307408E+03  0.26840834083E+03  0.00000000000E+00 0.  1.
</event>
<event>
 8    1  0.6869405E-009  0.1210168E+03  0.7561462E-02  0.1241429E+00
          2   -1    0    0  501    0  0.00000000000E+00  0.00000000000E+00  0.61202064676E+03  0.61202064676E+03  0.00000000000E+00 0. -1.
         -2   -1    0    0    0  501 -0.00000000000E+00 -0.00000000000E+00 -0.36728842310E+02  0.36728842310E+02  0.00000000000E+00 0.  1.
         25    2    1    2    0    0  0.10033115727E+03 -0.80075388912E+01  0.28505807050E+03  0.32716300580E+03  0.12508823691E+03 0.  0.
         23    2    1    2    0    0 -0.10033115727E+03  0.80075388912E+01  0.29023373395E+03  0.32158648327E+03  0.95140864497E+02 0.  0.
          5    1    3    3  502    0  0.96235125216E+02  0.23849953246E+02  0.27634307747E+03  0.29362048373E+03  0.41800000000E+01 0.  1.
         -5    1    3    3    0  502  0.40960320537E+01 -0.31857492138E+02  0.87149930211E+01  0.33542522076E+02  0.41800000000E+01 0.  1.
        -11    1    4    4    0    0 -0.36279179798E+02  0.25099328923E+02  0.22241897900E+03  0.22675175285E+03  0.00000000000E+00 0.  1.
         11    1    4    4    0    0 -0.64051977472E+02 -0.17091790032E+02  0.67814754951E+02  0.94834730419E+02  0.00000000000E+00 0. -1.
</event>
<event>
 8    1  0.6869405E-009  0.7897124E+02  0.7561462E-02  0.1331997E+00
         -3   -1    0    0    0  501 -0.00000000000E+00  0.00000000000E+00  0.96252445412E+02  0.96252445412E+02  0.00000000000E+00 0.  1.
          3   -1    0    0  501    0  0.00000000000E+00 -0.00000000000E+00 -0.13363242459E+03  0.13363242459E+03  0.00000000000E+00 0. -1.
         25    2    1    2    0    0  0.27261861981E+02 -0.24855594419E+02 -0.25084235965E+02  0.13283110988E+03  0.12511544735E+03 0.  0.
         23    2    1    2    0    0 -0.27261861981E+02  0.24855594419E+02 -0.12295743210E+02  0.97053760119E+02  0.88922648182E+02 0.  0.
          5    1    3    3  502    0  0.45965393243E+02 -0.20622083296E+02 -0.68529717172E+02  0.85157983954E+02  0.41800000000E+01 0. -1.
         -5    1    3    3    0  502 -0.18703531262E+02 -0.42335111231E+01  0.43445481207E+02  0.47673125925E+02  0.41800000000E+01 0. -1.
        -11    1    4    4    0    0 -0.54568926175E+02  0.25969341171E+02  0.10655196031E+02  0.61365361461E+02  0.00000000000E+00 0.  1.
         11    1    4    4    0    0  0.27307064195E+02 -0.11137467519E+01 -0.22950939241E+02  0.35688398658E+02  0.00000000000E+00 0. -1.
</event>
<event>
 8    1  0.6869405E-009  0.1881166E+03  0.7561462E-02  0.1160171E+00
         -1   -1    0    0    0  501 -0.00000000000E+00  0.00000000000E+00  0.17781046406E+03  0.17781046406E+03  0.00000000000E+00 0.  1.
          1   -1    0    0  501    0  0.00000000000E+00 -0.00000000000E+00 -0.23761037518E+03  0.23761037518E+03  0.00000000000E+00 0. -1.
         25    2    1    2    0    0  0.11650666563E+03  0.10629791802E+03 -0.10597773837E+03  0.22748971423E+03  0.12508892253E+03 0.  0.
         23    2    1    2    0    0 -0.11650666563E+03 -0.10629791802E+03  0.46177827256E+02  0.18793112501E+03  0.91173820284E+02 0.  0.
          5    1    3    3  502    0  0.12203744398E+03  0.12700854596E+03 -0.79852118256E+02  0.19343769454E+03  0.41800000000E+01 0. -1.
         -5    1    3    3    0  502 -0.55307783492E+01 -0.20710627935E+02 -0.26125620118E+02  0.34052019693E+02  0.41800000000E+01 0. -1.
        -11    1    4    4    0    0 -0.50134325224E+02 -0.99588371330E+02  0.47536961372E+02  0.12120667047E+03  0.00000000000E+00 0.  1.
         11    1    4    4    0    0 -0.66372340410E+02 -0.67095466903E+01 -0.13591341157E+01  0.66724454541E+02  0.00000000000E+00 0. -1.
</event>
<event>
 8    1  0.6869405E-009  0.8697834E+02  0.7561462E-02  0.1310339E+00
         -1   -1    0    0    0  501 -0.00000000000E+00  0.00000000000E+00  0.27899415920E+02  0.27899415920E+02  0.00000000000E+00 0.  1.
          1   -1    0    0  501    0  0.00000000000E+00 -0.00000000000E+00 -0.42897216905E+03  0.42897216905E+03  0.00000000000E+00 0. -1.
         25    2    1    2    0    0 -0.15562340435E+02  0.14582341774E+02 -0.23435104536E+03  0.26650129460E+03  0.12509075278E+03 0.  0.
         23    2    1    2    0    0  0.15562340435E+02 -0.14582341774E+02 -0.16672170777E+03  0.19037029037E+03  0.89386176123E+02 0.  0.
          5    1    3    3  502    0 -0.18342683021E+01 -0.33559511287E+02 -0.82121864135E+01  0.34849931761E+02  0.41800000000E+01 0. -1.
         -5    1    3    3    0  502 -0.13728072133E+02  0.48141853061E+02 -0.22613885894E+03  0.23165136284E+03  0.41800000000E+01 0. -1.
        -11    1    4    4    0    0  0.48323347030E+02  0.94293162311E+01 -0.71136050354E+02  0.86512401034E+02  0.00000000000E+00 0.  1.
         11    1    4    4    0    0 -0.32761006595E+02 -0.24011658005E+02 -0.95585657419E+02  0.10385788934E+03  0.00000000000E+00 0. -1.
</event>
<event>
 8    1  0.6869405E-009  0.1569054E+03  0.7561462E-02  0.1192236E+00
         -2   -1    0    0    0  501 -0.00000000000E+00  0.00000000000E+00  0.80775921726E+02  0.80775921726E+02  0.00000000000E+00 0.  1.
          2   -1    0    0  501    0  0.00000000000E+00 -0.00000000000E+00 -0.47810197081E+03  0.47810197081E+03  0.00000000000E+00 0. -1.
         25    2    1    2    0    0 -0.11132689745E+03 -0.10393875684E+03 -0.12328178788E+03  0.23248636977E+03  0.12511822265E+03 0.  0.
         23    2    1    2    0    0  0.11132689745E+03  0.10393875684E+03 -0.27404426121E+03  0.32639152276E+03  0.90742634746E+02 0.  0.
          5    1    3    3  502    0 -0.10593633133E+03 -0.10598872613E+03 -0.48785412066E+02  0.15765026227E+03  0.41800000000E+01 0. -1.
         -5    1    3    3    0  502 -0.53905661209E+01  0.20499692980E+01 -0.74496375809E+02  0.74836107501E+02  0.41800000000E+01 0. -1.
        -11    1    4    4    0    0  0.72600778859E+02  0.89966749850E+02 -0.11873917534E+03  0.16572230064E+03  0.00000000000E+00 0.  1.
         11    1    4    4    0    0  0.38726118594E+02  0.13972006987E+02 -0.15530508586E+03  0.16066922212E+03  0.00000000000E+00 0. -1.
</event>
<event>
 8    1  0.6869405E-009  0.1731631E+03  0.7561462E-02  0.1174589E+00
         -2   -1    0    0    0  501 -0.00000000000E+00  0.00000000000E+00  0.40247079229E+02  0.40247079229E+02  0.00000000000E+00 0.  1.
          2   -1    0    0  501    0  0.00000000000E+00 -0.00000000000E+00 -0.76207794550E+03  0.76207794550E+03  0.00000000000E+00 0. -1.
         25    2    1    2    0    0 -0.13433451402E+03 -0.43858197755E+02 -0.40437367035E+03  0.44624703321E+03  0.12509614784E+03 0.  0.
         23    2    1    2    0    0  0.13433451402E+03  0.43858197755E+02 -0.31745719592E+03  0.35607799152E+03  0.77737774865E+02 0.  0.
          5    1    3    3  502    0  0.72290038515E+01 -0.42763914012E+02 -0.62414160270E+02  0.76118398831E+02  0.41800000000E+01 0.  1.
         -5    1    3    3    0  502 -0.14156351787E+03 -0.10942837431E+01 -0.34195951008E+03  0.37012863438E+03  0.41800000000E+01 0.  1.
        -11    1    4    4    0    0  0.32889128191E+02 -0.22549452511E+02 -0.71910506245E+02  0.82227084772E+02  0.00000000000E+00 0.  1.
         11    1    4    4    0    0  0.10144538582E+03  0.66407650266E+02 -0.24554668967E+03  0.27385090675E+03  0.00000000000E+00 0. -1.
</event>
<event>
 8    1  0.6869405E-009  0.1729726E+03  0.7561462E-02  0.1174783E+00
          2   -1    0    0  501    0  0.00000000000E+00  0.00000000000E+00  0.21319638316E+02  0.21319638316E+02  0.00000000000E+00 0. -1.
         -2   -1    0    0    0  501 -0.00000000000E+00 -0.00000000000E+00 -0.18529506488E+04  0.18529506488E+04  0.00000000000E+00 0.  1.
         25    2    1    2    0    0  0.13452048891E+03  0.79681960832E+02 -0.12264795406E+04  0.12427159448E+04  0.12508348831E+03 0.  0.
         23    2    1    2    0    0 -0.13452048891E+03 -0.79681960832E+02 -0.60515146990E+03  0.63155434237E+03  0.90595855428E+02 0.  0.
          5    1    3    3  502    0  0.11327974286E+03  0.18840790645E+02 -0.48490068670E+03  0.49833063712E+03  0.41800000000E+01 0.  1.
         -5    1    3    3    0  502  0.21240746054E+02  0.60841170188E+02 -0.74157885389E+03  0.74438530763E+03  0.41800000000E+01 0.  1.
        -11    1    4    4    0    0 -0.28794219163E+02 -0.48192841571E+02 -0.10177549456E+03  0.11623213122E+03  0.00000000000E+00 0. -1.
         11    1    4    4    0    0 -0.10572626975E+03 -0.31489119261E+02 -0.50337597534E+03  0.51532221115E+03  0.00000000000E+00 0.  1.
</event>
<event>
 8    1  0.6869405E-009  0.1055311E+03  0.7561462E-02  0.1269077E+00
         -2   -1    0    0    0  501 -0.00000000000E+00  0.00000000000E+00  0.56572465311E+03  0.56572465311E+03  0.00000000000E+00 0.  1.
          2   -1    0    0  501    0  0.00000000000E+00 -0.00000000000E+00 -0.23167296806E+02  0.23167296806E+02  0.00000000000E+00 0. -1.
         25    2    1    2    0    0 -0.39089423851E+02 -0.19900839067E+01  0.32373374789E+03  0.34926059473E+03  0.12508988774E+03 0.  0.
         23    2    1    2    0    0  0.39089423851E+02  0.19900839067E+01  0.21882360841E+03  0.23963135519E+03  0.89484475186E+02 0.  0.
          5    1    3    3  502    0  0.22439222458E+02  0.40403216633E+02  0.19415953064E+03  0.19962798991E+03  0.41800000000E+01 0. -1.
         -5    1    3    3    0  502 -0.61528646309E+02 -0.42393300539E+02  0.12957421725E+03  0.14963260482E+03  0.41800000000E+01 0. -1.
        -11    1    4    4    0    0 -0.13443399847E+02 -0.26751841369E+02  0.12335886733E+03  0.12694012827E+03  0.00000000000E+00 0.  1.
         11    1    4    4    0    0  0.52532823698E+02  0.28741925276E+02  0.95464741078E+02  0.11269122691E+03  0.00000000000E+00 0. -1.
</event>
<event>
 8    1  0.6869405E-009  0.1257782E+03  0.7561462E-02  0.1233858E+00
          1   -1    0    0  501    0  0.00000000000E+00  0.00000000000E+00  0.63528778272E+03  0.63528778272E+03  0.00000000000E+00 0.  1.
         -1   -1    0    0    0  501 -0.00000000000E+00 -0.00000000000E+00 -0.71593496882E+02  0.71593496882E+02  0.00000000000E+00 0. -1.
         25    2    1    2    0    0 -0.69912894349E+02  0.21625732887E+01  0.12587455690E+02  0.14387027689E+03  0.12509085903E+03 0.  0.
         23    2    1    2    0    0  0.69912894349E+02 -0.21625732887E+01  0.55110683015E+03  0.56301100271E+03  0.91488586265E+02 0.  0.
          5    1    3    3  502    0  0.20309630974E+02  0.36244776941E+02 -0.13476593385E+02  0.43877738491E+02  0.41800000000E+01 0. -1.
         -5    1    3    3    0  502 -0.90222525324E+02 -0.34082203652E+02  0.26064049075E+02  0.99992538401E+02  0.41800000000E+01 0. -1.
        -11    1    4    4    0    0  0.91791213409E+01  0.38888822786E+02  0.14833500354E+03  0.15362249211E+03  0.00000000000E+00 0.  1.
         11    1    4    4    0    0  0.60733773009E+02 -0.41051396074E+02  0.40277182661E+03  0.40938851061E+03  0.00000000000E+00 0. -1.
</event>
<event>
 8    1  0.6869405E-009  0.7456094E+02  0.7561462E-02  0.1345236E+00
          3   -1    0    0  501    0  0.00000000000E+00  0.00000000000E+00  0.19126829477E+03  0.19126829477E+03  0.00000000000E+00 0. -1.
         -3   -1    0    0    0  501 -0.00000000000E+00 -0.00000000000E+00 -0.73707182886E+02  0.73707182886E+02  0.00000000000E+00 0.  1.
         25    2    1    2    0    0 -0.41422219835E+02  0.73349582601E+00  0.96290843329E+02  0.16320504334E+03  0.12509045267E+03 0.  0.
         23    2    1    2    0    0  0.41422219835E+02 -0.73349582601E+00  0.21270268551E+02  0.10177043432E+03  0.90490102576E+02 0.  0.
          5    1    3    3  502    0 -0.19482612882E+02 -0.20014929300E+02 -0.25259381997E+02  0.37890346772E+02  0.41800000000E+01 0. -1.
         -5    1    3    3    0  502 -0.21939606953E+02  0.20748425126E+02  0.12155022533E+03  0.12531469657E+03  0.41800000000E+01 0. -1.
        -11    1    4    4    0    0  0.35830611578E+02  0.37434830394E+02  0.33019648377E+02  0.61445068407E+02  0.00000000000E+00 0. -1.
         11    1    4    4    0    0  0.55916082572E+01 -0.38168326220E+02 -0.11749379826E+02  0.40325365908E+02  0.00000000000E+00 0.  1.
</event>
<event>
 8    1  0.6869405E-009  0.2122305E+03  0.7561462E-02  0.1139812E+00
         -2   -1    0    0    0  501 -0.00000000000E+00  0.00000000000E+00  0.69352819763E+02  0.69352819763E+02  0.00000000000E+00 0.  1.
          2   -1    0    0  501    0  0.00000000000E+00 -0.00000000000E+00 -0.98755679063E+03  0.98755679063E+03  0.00000000000E+00 0. -1.
         25    2    1    2    0    0 -0.14432281258E+03  0.13003358677E+03 -0.75027396601E+03  0.78504590919E+03  0.12509295566E+03 0.  0.
         23    2    1    2    0    0  0.14432281258E+03 -0.13003358677E+03 -0.16793000486E+03  0.27186370120E+03  0.89283691565E+02 0.  0.
          5    1    3    3  502    0 -0.11814903276E+03  0.15388238644E+03 -0.66161348434E+03  0.68948448703E+03  0.41800000000E+01 0. -1.
         -5    1    3    3    0  502 -0.26173779811E+02 -0.23848799675E+02 -0.88660481671E+02  0.95561422162E+02  0.41800000000E+01 0. -1.
        -11    1    4    4    0    0  0.24833913068E+02 -0.15733835001E+02 -0.78609761930E+02  0.83927179583E+02  0.00000000000E+00 0. -1.
         11    1    4    4    0    0  0.11948889951E+03 -0.11429975177E+03 -0.89320242927E+02  0.18793652161E+03  0.00000000000E+00 0.  1.
</event>
<event>
 8    1  0.6869405E-009  0.1763422E+03  0.7561462E-02  0.1171391E+00
         -2   -1    0    0    0  501 -0.00000000000E+00  0.00000000000E+00  0.60431306902E+02  0.60431306902E+02  0.00000000000E+00 0.  1.
          2   -1    0    0  501    0  0.00000000000E+00 -0.00000000000E+00 -0.66832428689E+03  0.66832428689E+03  0.00000000000E+00 0. -1.
         25    2    1    2    0    0  0.67535523691E+02  0.15190463481E+03 -0.37358523758E+03  0.42760955100E+03  0.12509169968E+03 0.  0.
         23    2    1    2    0    0 -0.67535523691E+02 -0.15190463481E+03 -0.23430774240E+03  0.30114604279E+03  0.90292612660E+02 0.  0.
          5    1    3    3  502    0  0.66847392614E+02  0.10768714432E+03 -0.35918260441E+03  0.38091299618E+03  0.41800000000E+01 0.  1.
         -5    1    3    3    0  502  0.68813107787E+00  0.44217490490E+02 -0.14402633176E+02  0.46696554819E+02  0.41800000000E+01 0.  1.
        -11    1    4    4    0    0 -0.32876386454E+02 -0.14148692583E+03 -0.14712060505E+03  0.20674592958E+03  0.00000000000E+00 0.  1.
         11    1    4    4    0    0 -0.34659137238E+02 -0.10417708979E+02 -0.87187137352E+02  0.94400113210E+02  0.00000000000E+00 0. -1.
</event>
<event>
 8    1  0.6869405E-009  0.2019192E+03  0.7561462E-02  0.1148130E+00
         -1   -1    0    0    0  501 -0.00000000000E+00  0.00000000000E+00  0.43342238197E+02  0.43342238197E+02  0.00000000000E+00 0.  1.
          1   -1    0    0  501    0  0.00000000000E+00 -0.00000000000E+00 -0.99280934653E+03  0.99280934653E+03  0.00000000000E+00 0. -1.
         25    2    1    2    0    0 -0.22892813304E+02  0.17396391089E+03 -0.46630278274E+03  0.51368666001E+03  0.12509267077E+03 0.  0.
         23    2    1    2    0    0  0.22892813304E+02 -0.17396391089E+03 -0.48316432559E+03  0.52246492473E+03  0.93457524308E+02 0.  0.
          5    1    3    3  502    0 -0.69296415032E+02  0.13872251492E+03 -0.36762303052E+03  0.39901139615E+03  0.41800000000E+01 0. -1.
         -5    1    3    3    0  502  0.46403601728E+02  0.35241395968E+02 -0.98679752219E+02  0.11467526386E+03  0.41800000000E+01 0. -1.
        -11    1    4    4    0    0 -0.27002634924E+02 -0.54190879016E+02 -0.23194637067E+03  0.23971840257E+03  0.00000000000E+00 0. -1.
         11    1    4    4    0    0  0.49895448228E+02 -0.11977303187E+03 -0.25121795492E+03  0.28274652216E+03  0.00000000000E+00 0.  1.
</event>
<event>
 8    1  0.6869405E-009  0.7364851E+02  0.7561462E-02  0.1348108E+00
          2   -1    0    0  501    0  0.00000000000E+00  0.00000000000E+00  0.25420172204E+03  0.25420172204E+03  0.00000000000E+00 0. -1.
         -2   -1    0    0    0  501 -0.00000000000E+00 -0.00000000000E+00 -0.58099198939E+02  0.58099198939E+02  0.00000000000E+00 0.  1.
         25    2    1    2    0    0 -0.36144750270E+01 -0.25393104829E+02  0.40376368085E+02  0.13392945301E+03  0.12509585557E+03 0.  0.
         23    2    1    2    0    0  0.36144750270E+01  0.25393104829E+02  0.15572615502E+03  0.17837146797E+03  0.83113603143E+02 0.  0.
          5    1    3    3  502    0  0.21818658799E+02  0.18497301299E+02  0.69510719616E+02  0.75282246039E+02  0.41800000000E+01 0.  1.
         -5    1    3    3    0  502 -0.25433133826E+02 -0.43890406128E+02 -0.29134351531E+02  0.58647206970E+02  0.41800000000E+01 0.  1.
        -11    1    4    4    0    0 -0.39660455933E+01  0.45670379561E+02  0.40626633082E+02  0.61253868470E+02  0.00000000000E+00 0.  1.
         11    1    4    4    0    0  0.75805206203E+01 -0.20277274733E+02  0.11509952193E+03  0.11711759950E+03  0.00000000000E+00 0. -1.
</event>
<event>
 8    1  0.6869405E-009  0.1150043E+03  0.7561462E-02  0.1251574E+00
          1   -1    0    0  501    0  0.00000000000E+00  0.00000000000E+00  0.21292138290E+03  0.21292138290E+03  0.00000000000E+00 0. -1.
         -1   -1    0    0    0  501 -0.00000000000E+00 -0.00000000000E+00 -0.69954896280E+02  0.69954896280E+02  0.00000000000E+00 0.  1.
         25    2    1    2    0    0  0.22458289077E+02  0.43412681107E+02  0.11187681558E+03  0.17479985260E+03  0.12509808543E+03 0.  0.
         23    2    1    2    0    0 -0.22458289077E+02 -0.43412681107E+02  0.31089671040E+02  0.10807642657E+03  0.91240948627E+02 0.  0.
          5    1    3    3  502    0  0.15684704704E+02 -0.42773822625E+02  0.24866077182E+02  0.52071144198E+02  0.41800000000E+01 0.  1.
         -5    1    3    3    0  502  0.67735843732E+01  0.86186503732E+02  0.87010738393E+02  0.12272870840E+03  0.41800000000E+01 0.  1.
        -11    1    4    4    0    0 -0.39181624308E+02  0.11068600595E+02  0.30855181950E+02  0.51085769601E+02  0.00000000000E+00 0. -1.
         11    1    4    4    0    0  0.16723335230E+02 -0.54481281702E+02  0.23448908981E+00  0.56990656973E+02  0.00000000000E+00 0.  1.
</event>
<event>
 8    1  0.6869405E-009  0.1017987E+03  0.7561462E-02  0.1276558E+00
         -2   -1    0    0    0  501 -0.00000000000E+00  0.00000000000E+00  0.80111094830E+02  0.80111094830E+02  0.00000000000E+00 0.  1.
          2   -1    0    0  501    0  0.00000000000E+00 -0.00000000000E+00 -0.14808889399E+03  0.14808889399E+03  0.00000000000E+00 0. -1.
         25    2    1    2    0    0  0.93243004466E+00 -0.10251335997E+02 -0.50234098094E+02  0.13519334667E+03  0.12509123493E+03 0.  0.
         23    2    1    2    0    0 -0.93243004466E+00  0.10251335997E+02 -0.17743701064E+02  0.93006642152E+02  0.90716245742E+02 0.  0.
          5    1    3    3  502    0 -0.46346951249E+02  0.26946046153E+02 -0.52083669167E+02  0.74861941514E+02  0.41800000000E+01 0. -1.
         -5    1    3    3    0  502  0.47279381294E+02 -0.37197382150E+02  0.18495710728E+01  0.60331405151E+02  0.41800000000E+01 0. -1.
        -11    1    4    4    0    0 -0.38272612796E+02  0.28732261448E+02 -0.18572879924E+02  0.51335052418E+02  0.00000000000E+00 0. -1.
         11    1    4    4    0    0  0.37340182751E+02 -0.18480925450E+02  0.82917886027E+00  0.41671589734E+02  0.00000000000E+00 0.  1.
</event>
<event>
 8    1  0.6869405E-009  0.7583530E+02  0.7561462E-02  0.1341304E+00
         -2   -1    0    0    0  501 -0.00000000000E+00  0.00000000000E+00  0.54105302693E+02  0.54105302693E+02  0.00000000000E+00 0.  1.
          2   -1    0    0  501    0  0.00000000000E+00 -0.00000000000E+00 -0.23294205676E+03  0.23294205676E+03  0.00000000000E+00 0. -1.
         25    2    1    2    0    0  0.30124678528E+02 -0.53860759960E+01 -0.10463221167E+03  0.16592202106E+03  0.12508281769E+03 0.  0.
         23    2    1    2    0    0 -0.30124678528E+02  0.53860759960E+01 -0.74204542403E+02  0.12112533840E+03  0.90711230937E+02 0.  0.
          5    1    3    3  502    0 -0.61634449141E+01 -0.25510221850E+02 -0.11890813186E+03  0.12184160084E+03  0.41800000000E+01 0. -1.
         -5    1    3    3    0  502  0.36288123442E+02  0.20124145854E+02  0.14275920194E+02  0.44080420219E+02  0.41800000000E+01 0. -1.
        -11    1    4    4    0    0 -0.43884081441E+02  0.31400942108E+02 -0.74136927474E+02  0.91695778444E+02  0.00000000000E+00 0. -1.
         11    1    4    4    0    0  0.13759402913E+02 -0.26014866112E+02 -0.67614928513E-01  0.29429559955E+02  0.00000000000E+00 0.  1.
</event>
<event>
 8    1  0.6869405E-009  0.1133228E+03  0.7561462E-02  0.1254537E+00
         -2   -1    0    0    0  501 -0.00000000000E+00  0.00000000000E+00  0.18316649952E+02  0.18316649952E+02  0.00000000000E+00 0.  1.
          2   -1    0    0  501    0  0.00000000000E+00 -0.00000000000E+00 -0.87658624912E+03  0.87658624912E+03  0.00000000000E+00 0. -1.
         25    2    1    2    0    0  0.63276002902E+02 -0.79633712402E+01 -0.43984728033E+03  0.46171489463E+03  0.12509095123E+03 0.  0.
         23    2    1    2    0    0 -0.63276002902E+02  0.79633712402E+01 -0.41842231884E+03  0.43318800445E+03  0.92235256118E+02 0.  0.
          5    1    3    3  502    0  0.46594489301E+02  0.44807344968E+02 -0.35121373134E+03  0.35713765144E+03  0.41800000000E+01 0.  1.
         -5    1    3    3    0  502  0.16681513601E+02 -0.52770716208E+02 -0.88633548997E+02  0.10457724319E+03  0.41800000000E+01 0.  1.
        -11    1    4    4    0    0 -0.22949930394E+02  0.45698273251E+02 -0.13342737540E+03  0.14289120333E+03  0.00000000000E+00 0.  1.
         11    1    4    4    0    0 -0.40326072509E+02 -0.37734902011E+02 -0.28499494344E+03  0.29029680112E+03  0.00000000000E+00 0. -1.
</event>
<event>
 8    1  0.6869405E-009  0.1014069E+03  0.7561462E-02  0.1277365E+00
         -3   -1    0    0    0  501 -0.00000000000E+00  0.00000000000E+00  0.86221456699E+02  0.86221456699E+02  0.00000000000E+00 0.  1.
          3   -1    0    0  501    0  0.00000000000E+00 -0.00000000000E+00 -0.25322219685E+03  0.25322219685E+03  0.00000000000E+00 0. -1.
         25    2    1    2    0    0 -0.93104740382E+02 -0.24414290621E+02 -0.60155729375E+02  0.16891413082E+03  0.12509485020E+03 0.  0.
         23    2    1    2    0    0  0.93104740382E+02  0.24414290621E+02 -0.10684501077E+03  0.17052952272E+03  0.91651031227E+02 0.  0.
          5    1    3    3  502    0 -0.11908190269E+02 -0.20472397920E+02 -0.81325271549E+02  0.84806817324E+02  0.41800000000E+01 0.  1.
         -5    1    3    3    0  502 -0.81196550112E+02 -0.39418927005E+01  0.21169542174E+02  0.84107313499E+02  0.41800000000E+01 0.  1.
        -11    1    4    4    0    0  0.64562780972E+02  0.98125468675E+01 -0.70174912627E+01  0.65680164026E+02  0.00000000000E+00 0.  1.
         11    1    4    4    0    0  0.28541959409E+02  0.14601743753E+02 -0.99827519508E+02  0.10484935869E+03  0.00000000000E+00 0. -1.
</event>
<event>
 8    1  0.6869405E-009  0.1480392E+03  0.7561462E-02  0.1202903E+00
         -1   -1    0    0    0  501 -0.00000000000E+00  0.00000000000E+00  0.49049778994E+02  0.49049778994E+02  0.00000000000E+00 0.  1.
          1   -1    0    0  501    0  0.00000000000E+00 -0.00000000000E+00 -0.49951683885E+03  0.49951683885E+03  0.00000000000E+00 0. -1.
         25    2    1    2    0    0  0.10424712662E+03 -0.31189647665E+02 -0.19399449293E+03  0.25518525954E+03  0.12508155686E+03 0.  0.
         23    2    1    2    0    0 -0.10424712662E+03  0.31189647665E+02 -0.25647256692E+03  0.29338135830E+03  0.91946649136E+02 0.  0.
          5    1    3    3  502    0 -0.24319485831E+02 -0.25619838680E+02 -0.28974718287E+02  0.45878319769E+02  0.41800000000E+01 0. -1.
         -5    1    3    3    0  502  0.12856661246E+03 -0.55698089854E+01 -0.16501977465E+03  0.20930693977E+03  0.41800000000E+01 0. -1.
        -11    1    4    4    0    0 -0.11568193297E+03  0.32708842286E+02 -0.25478601893E+03  0.28172343428E+03  0.00000000000E+00 0. -1.
         11    1    4    4    0    0  0.11434806346E+02 -0.15191946214E+01 -0.16865479894E+01  0.11657924026E+02  0.00000000000E+00 0.  1.
</event>
<event>
 8    1  0.6869405E-009  0.1381258E+03  0.7561462E-02  0.1215873E+00
          4   -1    0    0  501    0  0.00000000000E+00  0.00000000000E+00  0.84765250675E+02  0.84765250675E+02  0.00000000000E+00 0. -1.
         -4   -1    0    0    0  501 -0.00000000000E+00 -0.00000000000E+00 -0.33308911086E+03  0.33308911086E+03  0.00000000000E+00 0.  1.
         25    2    1    2    0    0  0.48648183682E+02  0.11806737605E+03 -0.14378367622E+03  0.22940827597E+03  0.12509140848E+03 0.  0.
         23    2    1    2    0    0 -0.48648183682E+02 -0.11806737605E+03 -0.10454018396E+03  0.18844608556E+03  0.90976513669E+02 0.  0.
          5    1    3    3  502    0  0.28695967449E+02  0.12205649769E+03 -0.15981190489E+03  0.20317126894E+03  0.41800000000E+01 0.  1.
         -5    1    3    3    0  502  0.19952216233E+02 -0.39891216467E+01  0.16028228665E+02  0.26237007037E+02  0.41800000000E+01 0.  1.
        -11    1    4    4    0    0 -0.20322083184E+02 -0.80207298735E+02 -0.11336191599E+03  0.14034643505E+03  0.00000000000E+00 0.  1.
         11    1    4    4    0    0 -0.28326100498E+02 -0.37860077312E+02  0.88217320250E+01  0.48099650513E+02  0.00000000000E+00 0. -1.
</event>
<event>
 8    1  0.6869405E-009  0.1456758E+03  0.7561462E-02  0.1205890E+00
          1   -1    0    0  501    0  0.00000000000E+00  0.00000000000E+00  0.14095057370E+03  0.14095057370E+03  0.00000000000E+00 0. -1.
         -1   -1    0    0    0  501 -0.00000000000E+00 -0.00000000000E+00 -0.17952516044E+03  0.17952516044E+03  0.00000000000E+00 0.  1.
         25    2    1    2    0    0 -0.10193807596E+03  0.31106439966E+02 -0.67408897767E+02  0.17762717410E+03  0.12509385094E+03 0.  0.
         23    2    1    2    0    0  0.10193807596E+03 -0.31106439966E+02  0.28834311026E+02  0.14284856004E+03  0.90638356546E+02 0.  0.
          5    1    3    3  502    0 -0.12555965497E+03  0.43133671752E+02 -0.38746945199E+02  0.13836379135E+03  0.41800000000E+01 0. -1.
         -5    1    3    3    0  502  0.23621579016E+02 -0.12027231785E+02 -0.28661952569E+02  0.39263382746E+02  0.41800000000E+01 0. -1.
        -11    1    4    4    0    0  0.46664457982E+02  0.24991430993E+02  0.35618832499E+02  0.63803169909E+02  0.00000000000E+00 0. -1.
         11    1    4    4    0    0  0.55273617974E+02 -0.56097870959E+02 -0.67845214736E+01  0.79045390135E+02  0.00000000000E+00 0.  1.
</event>
<event>
 8    1  0.6869405E-009  0.8691674E+02  0.7561462E-02  0.1310495E+00
          3   -1    0    0  501    0  0.00000000000E+00  0.00000000000E+00  0.42310859041E+02  0.42310859041E+02  0.00000000000E+00 0. -1.
         -3   -1    0    0    0  501 -0.00000000000E+00 -0.00000000000E+00 -0.25157863153E+03  0.25157863153E+03  0.00000000000E+00 0.  1.
         25    2    1    2    0    0 -0.93578657730E+01 -0.15801523292E+02 -0.16285235332E+03  0.20616984999E+03  0.12509140766E+03 0.  0.
         23    2    1    2    0    0  0.93578657730E+01  0.15801523292E+02 -0.46415419163E+02  0.87719640582E+02  0.72132422790E+02 0.  0.
          5    1    3    3  502    0 -0.57193457606E+02 -0.27276984632E+02 -0.13570535685E+03  0.14982837436E+03  0.41800000000E+01 0. -1.
         -5    1    3    3    0  502  0.47835591833E+02  0.11475461339E+02 -0.27146996472E+02  0.56341475632E+02  0.41800000000E+01 0. -1.
        -11    1    4    4    0    0  0.24642613183E+02  0.30868393411E+02 -0.52230051870E+02  0.65483543082E+02  0.00000000000E+00 0. -1.
         11    1    4    4    0    0 -0.15284747410E+02 -0.15066870118E+02  0.58146327066E+01  0.22236097500E+02  0.00000000000E+00 0.  1.
</event>
<event>
 8    1  0.6869405E-009  0.1163967E+03  0.7561462E-02  0.1249163E+00
          2   -1    0    0  501    0  0.00000000000E+00  0.00000000000E+00  0.13996815566E+03  0.13996815566E+03  0.00000000000E+00 0. -1.
         -2   -1    0    0    0  501 -0.00000000000E+00 -0.00000000000E+00 -0.10309937230E+03  0.10309937230E+03  0.00000000000E+00 0.  1.
         25    2    1    2    0    0 -0.29960431912E+02  0.42946071283E+02  0.25151838012E+02  0.13792015575E+03  0.12508941557E+03 0.  0.
         23    2    1    2    0    0  0.29960431912E+02 -0.42946071283E+02  0.11716945348E+02  0.10514737221E+03  0.90425054915E+02 0.  0.
          5    1    3    3  502    0  0.10529589088E+02 -0.40879337204E+02  0.81530623894E+01  0.43196496188E+02  0.41800000000E+01 0.  1.
         -5    1    3    3    0  502 -0.40490021000E+02  0.83825408487E+02  0.16998775623E+02  0.94723659565E+02  0.41800000000E+01 0.  1.
        -11    1    4    4    0    0 -0.26738968558E+02 -0.27643128196E+02 -0.14143612692E+02  0.40977515249E+02  0.00000000000E+00 0. -1.
         11    1    4    4    0    0  0.56699400471E+02 -0.15302943088E+02  0.25860558040E+02  0.64169856966E+02  0.00000000000E+00 0.  1.
</event>
<event>
 8    1  0.6869405E-009  0.8003782E+02  0.7561462E-02  0.1328944E+00
          4   -1    0    0  501    0  0.00000000000E+00  0.00000000000E+00  0.10941862376E+03  0.10941862376E+03  0.00000000000E+00 0. -1.
         -4   -1    0    0    0  501 -0.00000000000E+00 -0.00000000000E+00 -0.12357816941E+03  0.12357816941E+03  0.00000000000E+00 0.  1.
         25    2    1    2    0    0 -0.20031637929E+02 -0.11606195318E+02  0.27084667754E+02  0.13006727051E+03  0.12509174770E+03 0.  0.
         23    2    1    2    0    0  0.20031637929E+02  0.11606195318E+02 -0.41244213404E+02  0.10292952265E+03  0.91418987122E+02 0.  0.
          5    1    3    3  502    0 -0.29483014173E+02 -0.40538693311E+02  0.64410233814E+02  0.81723830062E+02  0.41800000000E+01 0. -1.
         -5    1    3    3    0  502  0.94513762442E+01  0.28932497993E+02 -0.37325566059E+02  0.48343440452E+02  0.41800000000E+01 0. -1.
        -11    1    4    4    0    0 -0.28871239918E+02  0.82882828371E+01 -0.44630841188E+02  0.53797361571E+02  0.00000000000E+00 0. -1.
         11    1    4    4    0    0  0.48902877847E+02  0.33179124805E+01  0.33866277841E+01  0.49132161083E+02  0.00000000000E+00 0.  1.
</event>
<event>
 8    1  0.6869405E-009  0.1014204E+03  0.7561462E-02  0.1277337E+00
          1   -1    0    0  501    0  0.00000000000E+00  0.00000000000E+00  0.44212749447E+03  0.44212749447E+03  0.00000000000E+00 0. -1.
         -1   -1    0    0    0  501 -0.00000000000E+00 -0.00000000000E+00 -0.26697513434E+02  0.26697513434E+02  0.00000000000E+00 0.  1.
         25    2    1    2    0    0 -0.95485347037E+01  0.51049444077E+01  0.21769327652E+03  0.25130481000E+03  0.12508601008E+03 0.  0.
         23    2    1    2    0    0  0.95485347037E+01 -0.51049444077E+01  0.19773670452E+03  0.21752019790E+03  0.89988872696E+02 0.  0.
          5    1    3    3  502    0 -0.24817046245E+02  0.61305659812E+02  0.13058551889E+03  0.14643879217E+03  0.41800000000E+01 0. -1.
         -5    1    3    3    0  502  0.15268511541E+02 -0.56200715405E+02  0.87107757633E+02  0.10486601783E+03  0.41800000000E+01 0. -1.
        -11    1    4    4    0    0 -0.32253294530E+02  0.99491542261E+01  0.14346228273E+03  0.14737939898E+03  0.00000000000E+00 0. -1.
         11    1    4    4    0    0  0.41801829233E+02 -0.15054098634E+02  0.54274421793E+02  0.70140798925E+02  0.00000000000E+00 0.  1.
</event>
<event>
 8    1  0.6869405E-009  0.7524542E+02  0.7561462E-02  0.1343113E+00
          1   -1    0    0  501    0  0.00000000000E+00  0.00000000000E+00  0.51619593222E+02  0.51619593222E+02  0.00000000000E+00 0. -1.
         -1   -1    0    0    0  501 -0.00000000000E+00 -0.00000000000E+00 -0.29803797258E+03  0.29803797258E+03  0.00000000000E+00 0.  1.
         25    2    1    2    0    0  0.60180149230E+01  0.43125448192E+02 -0.19299531640E+03  0.23407274394E+03  0.12508731559E+03 0.  0.
         23    2    1    2    0    0 -0.60180149230E+01 -0.43125448192E+02 -0.53423062957E+02  0.11558482185E+03  0.92789043545E+02 0.  0.
          5    1    3    3  502    0 -0.22565141553E+02  0.58370649380E+02 -0.19135139697E+03  0.20136818976E+03  0.41800000000E+01 0.  1.
         -5    1    3    3    0  502  0.28583156476E+02 -0.15245201188E+02 -0.16439194213E+01  0.32704554185E+02  0.41800000000E+01 0.  1.
        -11    1    4    4    0    0  0.12500461154E+02 -0.29733294489E+02 -0.76552148644E+02  0.83069620152E+02  0.00000000000E+00 0.  1.
         11    1    4    4    0    0 -0.18518476077E+02 -0.13392153703E+02  0.23129085687E+02  0.32515201702E+02  0.00000000000E+00 0. -1.
</event>
<event>
 8    1  0.6869405E-009  0.1018964E+03  0.7561462E-02  0.1276358E+00
         -2   -1    0    0    0  501 -0.00000000000E+00  0.00000000000E+00  0.21248619381E+03  0.21248619381E+03  0.00000000000E+00 0.  1.
          2   -1    0    0  501    0  0.00000000000E+00 -0.00000000000E+00 -0.75421761039E+02  0.75421761039E+02  0.00000000000E+00 0. -1.
         25    2    1    2    0    0  0.51088537361E+02  0.36520889893E+02  0.95956743438E+02  0.16970565362E+03  0.12509395753E+03 0.  0.
         23    2    1    2    0    0 -0.51088537361E+02 -0.36520889893E+02  0.41107689330E+02  0.11820230123E+03  0.91313349765E+02 0.  0.
          5    1    3    3  502    0  0.35395142632E+02  0.73244212705E+02  0.20134302180E+02  0.83907051795E+02  0.41800000000E+01 0. -1.
         -5    1    3    3    0  502  0.15693394729E+02 -0.36723322813E+02  0.75822441257E+02  0.85798601823E+02  0.41800000000E+01 0. -1.
        -11    1    4    4    0    0 -0.15274295802E+02 -0.43138372605E+02  0.61347413894E+02  0.76535798779E+02  0.00000000000E+00 0.  1.
         11    1    4    4    0    0 -0.35814241559E+02  0.66174827124E+01 -0.20239724564E+02  0.41666502449E+02  0.00000000000E+00 0. -1.
</event>
<event>
 8    1  0.6869405E-009  0.9786004E+02  0.7561462E-02  0.1284861E+00
          1   -1    0    0  501    0  0.00000000000E+00  0.00000000000E+00  0.20760394778E+02  0.20760394778E+02  0.00000000000E+00 0. -1.
         -1   -1    0    0    0  501 -0.00000000000E+00 -0.00000000000E+00 -0.64022567185E+03  0.64022567185E+03  0.00000000000E+00 0.  1.
         25    2    1    2    0    0  0.35915011280E+02 -0.50741113989E+01 -0.27522944353E+03  0.30448836365E+03  0.12508510050E+03 0.  0.
         23    2    1    2    0    0 -0.35915011280E+02  0.50741113989E+01 -0.34423583353E+03  0.35649770298E+03  0.85303390886E+02 0.  0.
          5    1    3    3  502    0 -0.19338990379E+02  0.31160086418E+02 -0.22494211813E+02  0.43225102655E+02  0.41800000000E+01 0.  1.
         -5    1    3    3    0  502  0.55254001659E+02 -0.36234197817E+02 -0.25273523172E+03  0.26126326099E+03  0.41800000000E+01 0.  1.
        -11    1    4    4    0    0 -0.37670296734E+02  0.41549688109E+02 -0.21620623447E+03  0.22336195661E+03  0.00000000000E+00 0.  1.
         11    1    4    4    0    0  0.17552854543E+01 -0.36475576710E+02 -0.12802959906E+03  0.13313574636E+03  0.00000000000E+00 0. -1.
</event>
<event>
 8    1  0.6869405E-009  0.1162407E+03  0.7561462E-02  0.1249431E+00
          1   -1    0    0  501    0  0.00000000000E+00  0.00000000000E+00  0.17504984141E+03  0.17504984141E+03  0.00000000000E+00 0. -1.
         -1   -1    0    0    0  501 -0.00000000000E+00 -0.00000000000E+00 -0.10514125282E+03  0.10514125282E+03  0.00000000000E+00 0.  1.
         25    2    1    2    0    0  0.50548387688E+02  0.59601903589E+02  0.23167971942E+02  0.14930500807E+03  0.12509078344E+03 0.  0.
         23    2    1    2    0    0 -0.50548387688E+02 -0.59601903589E+02  0.46740616650E+02  0.13088608615E+03  0.94015721526E+02 0.  0.
          5    1    3    3  502    0 -0.14091845672E+02 -0.18580995968E+02  0.39901390788E+02  0.46405031111E+02  0.41800000000E+01 0. -1.
         -5    1    3    3    0  502  0.64640233361E+02  0.78182899557E+02 -0.16733418845E+02  0.10289997696E+03  0.41800000000E+01 0. -1.
        -11    1    4    4    0    0  0.97740773934E+00 -0.55567052872E+02 -0.73658430862E+01  0.56061647631E+02  0.00000000000E+00 0.  1.
         11    1    4    4    0    0 -0.51525795428E+02 -0.40348507173E+01  0.54106459736E+02  0.74824438521E+02  0.00000000000E+00 0. -1.
</event>
<event>
 8    1  0.6869405E-009  0.1002891E+03  0.7561462E-02  0.1279689E+00
         -3   -1    0    0    0  501 -0.00000000000E+00  0.00000000000E+00  0.52222220253E+02  0.52222220253E+02  0.00000000000E+00 0.  1.
          3   -1    0    0  501    0  0.00000000000E+00 -0.00000000000E+00 -0.36140990401E+03  0.36140990401E+03  0.00000000000E+00 0. -1.
         25    2    1    2    0    0  0.68390433011E+02 -0.26184193600E+02 -0.10819242357E+03  0.18087111282E+03  0.12508355452E+03 0.  0.
         23    2    1    2    0    0 -0.68390433011E+02  0.26184193600E+02 -0.20099526019E+03  0.23276101144E+03  0.91737290725E+02 0.  0.
          5    1    3    3  502    0  0.64776471148E+02 -0.52404634183E+00  0.45891655899E+01  0.65075330808E+02  0.41800000000E+01 0.  1.
         -5    1    3    3    0  502  0.36139618632E+01 -0.25660147258E+02 -0.11278158916E+03  0.11579578201E+03  0.41800000000E+01 0.  1.
        -11    1    4    4    0    0 -0.82120769621E+02  0.26423488693E+01 -0.18156536849E+03  0.19929070688E+03  0.00000000000E+00 0. -1.
         11    1    4    4    0    0  0.13730336610E+02  0.23541844731E+02 -0.19429891692E+02  0.33470304569E+02  0.00000000000E+00 0.  1.
</event>
<event>
 8    1  0.6869405E-009  0.7698363E+02  0.7561462E-02  0.1337836E+00
          2   -1    0    0  501    0  0.00000000000E+00  0.00000000000E+00  0.13090994543E+04  0.13090994543E+04  0.00000000000E+00 0. -1.
         -2   -1    0    0    0  501 -0.00000000000E+00 -0.00000000000E+00 -0.14759477047E+02  0.14759477047E+02  0.00000000000E+00 0.  1.
         25    2    1    2    0    0 -0.16689354487E+02  0.22061789415E+02  0.10995312579E+04  0.11069696817E+04  0.12509049460E+03 0.  0.
         23    2    1    2    0    0  0.16689354487E+02 -0.22061789415E+02  0.19480871928E+03  0.21688924964E+03  0.91242821084E+02 0.  0.
          5    1    3    3  502    0 -0.39740872173E+02 -0.20540703572E+02  0.16021055825E+03  0.16639156469E+03  0.41800000000E+01 0. -1.
         -5    1    3    3    0  502  0.23051517686E+02  0.42602492987E+02  0.93932069970E+03  0.94057811699E+03  0.41800000000E+01 0. -1.
        -11    1    4    4    0    0 -0.18315790791E+02 -0.17109831503E+02  0.73411068989E+01  0.26117166325E+02  0.00000000000E+00 0.  1.
         11    1    4    4    0    0  0.35005145278E+02 -0.49519579121E+01  0.18746761238E+03  0.19077208332E+03  0.00000000000E+00 0. -1.
</event>
<event>
 8    1  0.6869405E-009  0.1730154E+03  0.7561462E-02  0.1174739E+00
          2   -1    0    0  501    0  0.00000000000E+00  0.00000000000E+00  0.10008276309E+04  0.10008276309E+04  0.00000000000E+00 0.  1.
         -2   -1    0    0    0  501 -0.00000000000E+00 -0.00000000000E+00 -0.45901742797E+02  0.45901742797E+02  0.00000000000E+00 0. -1.
         25    2    1    2    0    0 -0.25432183192E+02  0.13634127222E+03  0.78989473173E+03  0.81167557231E+03  0.12509120283E+03 0.  0.
         23    2    1    2    0    0  0.25432183192E+02 -0.13634127222E+03  0.16503115642E+03  0.23505380143E+03  0.93697750900E+02 0.  0.
          5    1    3    3  502    0 -0.70956491100E+02  0.10708663350E+03  0.47229009976E+03  0.48946683385E+03  0.41800000000E+01 0.  1.
         -5    1    3    3    0  502  0.45524307909E+02  0.29254638726E+02  0.31760463196E+03  0.32220873846E+03  0.41800000000E+01 0.  1.
        -11    1    4    4    0    0 -0.28070658899E+02 -0.17982858419E+02  0.57342723236E+02  0.66328975539E+02  0.00000000000E+00 0. -1.
         11    1    4    4    0    0  0.53502842090E+02 -0.11835841380E+03  0.10768843318E+03  0.16872482589E+03  0.00000000000E+00 0.  1.
</event>
<event>
 8    1  0.6869405E-009  0.8927826E+02  0.7561462E-02  0.1304609E+00
         -1   -1    0    0    0  501 -0.00000000000E+00  0.00000000000E+00  0.42436505874E+03  0.42436505874E+03  0.00000000000E+00 0.  1.
          1   -1    0    0  501    0  0.00000000000E+00 -0.00000000000E+00 -0.34207713451E+02  0.34207713451E+02  0.00000000000E+00 0. -1.
         25    2    1    2    0    0 -0.44114161605E+01  0.52286387899E+02  0.21688923093E+03  0.25581491334E+03  0.12508798681E+03 0.  0.
         23    2    1    2    0    0  0.44114161605E+01 -0.52286387899E+02  0.17326811436E+03  0.20275785885E+03  0.91299413572E+02 0.  0.
          5    1    3    3  502    0 -0.79974223386E+01  0.78064749857E+02  0.65949787983E+02  0.10259098825E+03  0.41800000000E+01 0.  1.
         -5    1    3    3    0  502  0.35860061781E+01 -0.25778361958E+02  0.15093944294E+03  0.15322392509E+03  0.41800000000E+01 0.  1.
        -11    1    4    4    0    0 -0.15122977217E+02 -0.51916127449E+02  0.17498036611E+03  0.18314507161E+03  0.00000000000E+00 0.  1.
         11    1    4    4    0    0  0.19534393377E+02 -0.37026045066E+00 -0.17122517484E+01  0.19612787244E+02  0.00000000000E+00 0. -1.
</event>
<event>
 8    1  0.6869405E-009  0.6384359E+02  0.7561462E-02  0.1382375E+00
          2   -1    0    0  501    0  0.00000000000E+00  0.00000000000E+00  0.28582419524E+03  0.28582419524E+03  0.00000000000E+00 0. -1.
         -2   -1    0    0    0  501 -0.00000000000E+00 -0.00000000000E+00 -0.46159958531E+02  0.46159958531E+02  0.00000000000E+00 0.  1.
         25    2    1    2    0    0  0.29564573717E+02  0.17985088427E+02  0.11452000827E+03  0.17308823545E+03  0.12508867868E+03 0.  0.
         23    2    1    2    0    0 -0.29564573717E+02 -0.17985088427E+02  0.12514422844E+03  0.15889591832E+03  0.91593163068E+02 0.  0.
          5    1    3    3  502    0 -0.78198715249E+00  0.16283317976E+02 -0.25054194038E+02  0.30181832069E+02  0.41800000000E+01 0.  1.
         -5    1    3    3    0  502  0.30346560870E+02  0.17017704516E+01  0.13957420231E+03  0.14290640339E+03  0.41800000000E+01 0.  1.
        -11    1    4    4    0    0 -0.26352573548E+02 -0.45443582275E+02  0.11969921239E+03  0.13071908334E+03  0.00000000000E+00 0. -1.
         11    1    4    4    0    0 -0.32120001693E+01  0.27458493848E+02  0.54450160509E+01  0.28176834976E+02  0.00000000000E+00 0.  1.
</event>
<event>
 8    1  0.6869405E-009  0.1613191E+03  0.7561462E-02  0.1187215E+00
          2   -1    0    0  501    0  0.00000000000E+00  0.00000000000E+00  0.22381747382E+03  0.22381747382E+03  0.00000000000E+00 0. -1.
         -2   -1    0    0    0  501 -0.00000000000E+00 -0.00000000000E+00 -0.15289427326E+03  0.15289427326E+03  0.00000000000E+00 0.  1.
         25    2    1    2    0    0 -0.13302568771E+03  0.37669914596E+02  0.95365765727E+02  0.20942313729E+03  0.12509422490E+03 0.  0.
         23    2    1    2    0    0  0.13302568771E+03 -0.37669914596E+02 -0.24442565168E+02  0.16728860979E+03  0.90957044362E+02 0.  0.
          5    1    3    3  502    0 -0.95896903994E+02  0.62797157762E+02  0.11304728226E+03  0.16104924602E+03  0.41800000000E+01 0.  1.
         -5    1    3    3    0  502 -0.37128783713E+02 -0.25127243165E+02 -0.17681516532E+02  0.48373891264E+02  0.41800000000E+01 0.  1.
        -11    1    4    4    0    0  0.33048705462E+02  0.27979775064E+02 -0.19745611765E+02  0.47591742239E+02  0.00000000000E+00 0.  1.
         11    1    4    4    0    0  0.99976982245E+02 -0.65649689660E+02 -0.46969534032E+01  0.11969686756E+03  0.00000000000E+00 0. -1.
</event>
<event>
 8    1  0.6869405E-009  0.1313962E+03  0.7561462E-02  0.1225399E+00
          1   -1    0    0  501    0  0.00000000000E+00  0.00000000000E+00  0.96432285677E+03  0.96432285677E+03  0.00000000000E+00 0. -1.
         -1   -1    0    0    0  501 -0.00000000000E+00 -0.00000000000E+00 -0.22106292640E+02  0.22106292640E+02  0.00000000000E+00 0.  1.
         25    2    1    2    0    0 -0.84372486334E+02  0.39721316278E+02  0.49580051161E+03  0.51977112531E+03  0.12508947190E+03 0.  0.
         23    2    1    2    0    0  0.84372486334E+02 -0.39721316278E+02  0.44641605252E+03  0.46665802410E+03  0.98923809517E+02 0.  0.
          5    1    3    3  502    0  0.23381326875E+02 -0.59777765830E+01  0.20212157358E+03  0.20360015513E+03  0.41800000000E+01 0.  1.
         -5    1    3    3    0  502 -0.10775381321E+03  0.45699092861E+02  0.29367893802E+03  0.31617097018E+03  0.41800000000E+01 0.  1.
        -11    1    4    4    0    0 -0.14696140733E+02 -0.72565862856E+00  0.10884984474E+02  0.18302623306E+02  0.00000000000E+00 0.  1.
         11    1    4    4    0    0  0.99068627067E+02 -0.38995657650E+02  0.43553106805E+03  0.44835540079E+03  0.00000000000E+00 0. -1.
</event>
<event>
 8    1  0.6869405E-009  0.9923678E+02  0.7561462E-02  0.1281909E+00
          4   -1    0    0  501    0  0.00000000000E+00  0.00000000000E+00  0.86589090223E+02  0.86589090223E+02  0.00000000000E+00 0. -1.
         -4   -1    0    0    0  501 -0.00000000000E+00 -0.00000000000E+00 -0.16845873242E+03  0.16845873242E+03  0.00000000000E+00 0.  1.
         25    2    1    2    0    0  0.13093699290E+02  0.13669036091E+02 -0.91952013948E+02  0.15641306096E+03  0.12510629585E+03 0.  0.
         23    2    1    2    0    0 -0.13093699290E+02 -0.13669036091E+02  0.10082371754E+02  0.98634761683E+02  0.96274994070E+02 0.  0.
          5    1    3    3  502    0 -0.11477138083E+02 -0.48639541529E+02 -0.69386060166E+02  0.85612075341E+02  0.41800000000E+01 0. -1.
         -5    1    3    3    0  502  0.24570837373E+02  0.62308577620E+02 -0.22565953782E+02  0.70800985617E+02  0.41800000000E+01 0. -1.
        -11    1    4    4    0    0 -0.12899531164E+01 -0.46401534386E+02 -0.21942960905E+02  0.51344521672E+02  0.00000000000E+00 0.  1.
         11    1    4    4    0    0 -0.11803746174E+02  0.32732498295E+02  0.32025332659E+02  0.47290240011E+02  0.00000000000E+00 0. -1.
</event>
<event>
 8    1  0.6869405E-009  0.1071218E+03  0.7561462E-02  0.1265995E+00
         -2   -1    0    0    0  501 -0.00000000000E+00  0.00000000000E+00  0.11577591468E+03  0.11577591468E+03  0.00000000000E+00 0.  1.
          2   -1    0    0  501    0  0.00000000000E+00 -0.00000000000E+00 -0.13312074002E+03  0.13312074002E+03  0.00000000000E+00 0. -1.
         25    2    1    2    0    0  0.19703251700E+02  0.49833394901E+01  0.50654126137E+02  0.13648722695E+03  0.12509944375E+03 0.  0.
         23    2    1    2    0    0 -0.19703251700E+02 -0.49833394901E+01 -0.67998951475E+02  0.11240942775E+03  0.87172072621E+02 0.  0.
          5    1    3    3  502    0  0.27962571184E+02  0.62099143067E+02  0.20530886345E+02  0.71254464078E+02  0.41800000000E+01 0. -1.
         -5    1    3    3    0  502 -0.82593194841E+01 -0.57115803577E+02  0.30123239792E+02  0.65232762874E+02  0.41800000000E+01 0. -1.
        -11    1    4    4    0    0 -0.29193202061E+02  0.35847469295E+02 -0.45361321173E+02  0.64768306755E+02  0.00000000000E+00 0. -1.
         11    1    4    4    0    0  0.94899503606E+01 -0.40830808785E+02 -0.22637630303E+02  0.47641120994E+02  0.00000000000E+00 0.  1.
</event>
<event>
 8    1  0.6869405E-009  0.1089151E+03  0.7561462E-02  0.1262592E+00
         -2   -1    0    0    0  501 -0.00000000000E+00  0.00000000000E+00  0.50709674596E+02  0.50709674596E+02  0.00000000000E+00 0.  1.
          2   -1    0    0  501    0  0.00000000000E+00 -0.00000000000E+00 -0.43918466153E+03  0.43918466153E+03  0.00000000000E+00 0. -1.
         25    2    1    2    0    0 -0.71920534016E+02  0.26987991520E+02 -0.32083122472E+03  0.35281913536E+03  0.12509097738E+03 0.  0.
         23    2    1    2    0    0  0.71920534016E+02 -0.26987991520E+02 -0.67643762221E+02  0.13707520077E+03  0.91175748966E+02 0.  0.
          5    1    3    3  502    0 -0.48552037802E+02 -0.23099398554E+02 -0.41518705549E+02  0.68059958116E+02  0.41800000000E+01 0. -1.
         -5    1    3    3    0  502 -0.23368496214E+02  0.50087390074E+02 -0.27931251917E+03  0.28475917724E+03  0.41800000000E+01 0. -1.
        -11    1    4    4    0    0 -0.65595765979E+01  0.17199547675E+02  0.74039448557E+01  0.19841141217E+02  0.00000000000E+00 0.  1.
         11    1    4    4    0    0  0.78480110614E+02 -0.44187539195E+02 -0.75047707077E+02  0.11723405955E+03  0.00000000000E+00 0. -1.
</event>
<event>
 8    1  0.6869405E-009  0.1004825E+03  0.7561462E-02  0.1279285E+00
         -2   -1    0    0    0  501 -0.00000000000E+00  0.00000000000E+00  0.37725593939E+02  0.37725593939E+02  0.00000000000E+00 0.  1.
          2   -1    0    0  501    0  0.00000000000E+00 -0.00000000000E+00 -0.50387074158E+03  0.50387074158E+03  0.00000000000E+00 0. -1.
         25    2    1    2    0    0  0.14868309138E+02  0.79871713250E+02 -0.29659753021E+03  0.33199168717E+03  0.12509127959E+03 0.  0.
         23    2    1    2    0    0 -0.14868309138E+02 -0.79871713250E+02 -0.16954761744E+03  0.20960464835E+03  0.92666913398E+02 0.  0.
          5    1    3    3  502    0  0.24932365069E+02  0.76631540614E+02 -0.75198572258E+02  0.11030101321E+03  0.41800000000E+01 0. -1.
         -5    1    3    3    0  502 -0.10064055931E+02  0.32401726353E+01 -0.22139895795E+03  0.22169067396E+03  0.41800000000E+01 0. -1.
        -11    1    4    4    0    0 -0.43121575761E+02 -0.61822626381E+02 -0.15635630757E+03  0.17357650286E+03  0.00000000000E+00 0. -1.
         11    1    4    4    0    0  0.28253266623E+02 -0.18049086869E+02 -0.13191309870E+02  0.36028145494E+02  0.00000000000E+00 0.  1.
</event>
<event>
 8    1  0.6869405E-009  0.1224398E+03  0.7561462E-02  0.1239126E+00
          2   -1    0    0  501    0  0.00000000000E+00  0.00000000000E+00  0.17482731085E+03  0.17482731085E+03  0.00000000000E+00 0.  1.
         -2   -1    0    0    0  501 -0.00000000000E+00 -0.00000000000E+00 -0.10423914535E+03  0.10423914535E+03  0.00000000000E+00 0. -1.
         25    2    1    2    0    0  0.12671324758E+02  0.76004821813E+02  0.63896648740E+01  0.14705563319E+03  0.12508891248E+03 0.  0.
         23    2    1    2    0    0 -0.12671324758E+02 -0.76004821813E+02  0.64198500632E+02  0.13201082301E+03  0.85837721884E+02 0.  0.
          5    1    3    3  502    0  0.58568705074E+02  0.11255921505E+01  0.68669503205E+01  0.59128568209E+02  0.41800000000E+01 0.  1.
         -5    1    3    3    0  502 -0.45897380316E+02  0.74879229662E+02 -0.47728544647E+00  0.87927064981E+02  0.41800000000E+01 0.  1.
        -11    1    4    4    0    0 -0.35486495010E+02 -0.62050267178E+02  0.10803951722E+02  0.72292823695E+02  0.00000000000E+00 0. -1.
         11    1    4    4    0    0  0.22815170252E+02 -0.13954554635E+02  0.53394548911E+02  0.59717999314E+02  0.00000000000E+00 0.  1.
</event>
<event>
 8    1  0.6869405E-009  0.1108974E+03  0.7561462E-02  0.1258917E+00
         -2   -1    0    0    0  501 -0.00000000000E+00  0.00000000000E+00  0.18548522596E+02  0.18548522596E+02  0.00000000000E+00 0. -1.
          2   -1    0    0  501    0  0.00000000000E+00 -0.00000000000E+00 -0.14830507123E+04  0.14830507123E+04  0.00000000000E+00 0.  1.
         25    2    1    2    0    0 -0.50132489787E+02 -0.57277129835E+01 -0.12936630084E+04  0.13006755667E+04  0.12508747895E+03 0.  0.
         23    2    1    2    0    0  0.50132489787E+02  0.57277129835E+01 -0.17083918134E+03  0.20092366819E+03  0.92942032093E+02 0.  0.
          5    1    3    3  502    0 -0.37247068294E+02 -0.58681696518E+02 -0.46192927227E+03  0.46714773956E+03  0.41800000000E+01 0.  1.
         -5    1    3    3    0  502 -0.12885421493E+02  0.52953983534E+02 -0.83173373612E+03  0.83352782717E+03  0.41800000000E+01 0.  1.
        -11    1    4    4    0    0 -0.10736161021E+02 -0.26528138891E+02 -0.91402347691E+02  0.95777849578E+02  0.00000000000E+00 0.  1.
         11    1    4    4    0    0  0.60868650807E+02  0.32255851874E+02 -0.79436833652E+02  0.10514581861E+03  0.00000000000E+00 0. -1.
</event>
<event>
 8    1  0.6869405E-009  0.9970591E+02  0.7561462E-02  0.1280916E+00
         -3   -1    0    0    0  501 -0.00000000000E+00  0.00000000000E+00  0.24797994553E+02  0.24797994553E+02  0.00000000000E+00 0. -1.
          3   -1    0    0  501    0  0.00000000000E+00 -0.00000000000E+00 -0.58115907866E+03  0.58115907866E+03  0.00000000000E+00 0.  1.
         25    2    1    2    0    0 -0.12042812368E+01 -0.12259263972E+02 -0.44376865665E+03  0.46122567596E+03  0.12508702447E+03 0.  0.
         23    2    1    2    0    0  0.12042812368E+01  0.12259263972E+02 -0.11259242746E+03  0.14473139726E+03  0.90102068701E+02 0.  0.
          5    1    3    3  502    0 -0.61561678331E+02  0.10674424269E+00 -0.17849560887E+03  0.18885975330E+03  0.41800000000E+01 0. -1.
         -5    1    3    3    0  502  0.60357397094E+02 -0.12366008215E+02 -0.26527304779E+03  0.27236592266E+03  0.41800000000E+01 0. -1.
        -11    1    4    4    0    0 -0.98020579204E+01 -0.30378166297E+02 -0.89472245242E+02  0.94995768304E+02  0.00000000000E+00 0.  1.
         11    1    4    4    0    0  0.11006339157E+02  0.42637430269E+02 -0.23120182217E+02  0.49735628953E+02  0.00000000000E+00 0. -1.
</event>
<event>
 8    1  0.6869405E-009  0.9112290E+02  0.7561462E-02  0.1300155E+00
          1   -1    0    0  501    0  0.00000000000E+00  0.00000000000E+00  0.34708782149E+03  0.34708782149E+03  0.00000000000E+00 0. -1.
         -1   -1    0    0    0  501 -0.00000000000E+00 -0.00000000000E+00 -0.51913680917E+02  0.51913680917E+02  0.00000000000E+00 0.  1.
         25    2    1    2    0    0 -0.63416968169E+02  0.44061129129E+02  0.16363153960E+03  0.21997774384E+03  0.12510728230E+03 0.  0.
         23    2    1    2    0    0  0.63416968169E+02 -0.44061129129E+02  0.13154260098E+03  0.17902375857E+03  0.93717422641E+02 0.  0.
          5    1    3    3  502    0 -0.13550897222E+02  0.14040393518E+02  0.16028935399E+03  0.16152680542E+03  0.41800000000E+01 0. -1.
         -5    1    3    3    0  502 -0.49866070947E+02  0.30020735611E+02  0.33421856042E+01  0.58450938426E+02  0.41800000000E+01 0. -1.
        -11    1    4    4    0    0  0.19548836395E+02 -0.55296802659E+02  0.11797673274E+03  0.13175129167E+03  0.00000000000E+00 0. -1.
         11    1    4    4    0    0  0.43868131775E+02  0.11235673530E+02  0.13565868236E+02  0.47272466892E+02  0.00000000000E+00 0.  1.
</event>
<event>
 8    1  0.6869405E-009  0.1801775E+03  0.7561462E-02  0.1167631E+00
         -1   -1    0    0    0  501 -0.00000000000E+00  0.00000000000E+00  0.77614808289E+02  0.77614808289E+02  0.00000000000E+00 0.  1.
          1   -1    0    0  501    0  0.00000000000E+00 -0.00000000000E+00 -0.56067960669E+03  0.56067960669E+03  0.00000000000E+00 0. -1.
         25    2    1    2    0    0  0.10317996049E+03 -0.12490200277E+03 -0.14051692650E+03  0.24827017901E+03  0.12508581298E+03 0.  0.
         23    2    1    2    0    0 -0.10317996049E+03  0.12490200277E+03 -0.34254787190E+03  0.39002423597E+03  0.92375567948E+02 0.  0.
          5    1    3    3  502    0  0.47323964385E+02 -0.10575037942E+03 -0.25188044830E+02  0.11863646300E+03  0.41800000000E+01 0.  1.
         -5    1    3    3    0  502  0.55855996107E+02 -0.19151623358E+02 -0.11532888167E+03  0.12963371601E+03  0.41800000000E+01 0.  1.
        -11    1    4    4    0    0  0.77600812457E+01  0.51777306627E+02 -0.77367928423E+02  0.93417903482E+02  0.00000000000E+00 0.  1.
         11    1    4    4    0    0 -0.11094004174E+03  0.73124696148E+02 -0.26517994348E+03  0.29660633249E+03  0.00000000000E+00 0. -1.
</event>
<event>
 8    1  0.6869405E-009  0.5494096E+02  0.7561462E-02  0.1420378E+00
          1   -1    0    0  501    0  0.00000000000E+00  0.00000000000E+00  0.94783521852E+02  0.94783521852E+02  0.00000000000E+00 0. -1.
         -1   -1    0    0    0  501 -0.00000000000E+00 -0.00000000000E+00 -0.12888668916E+03  0.12888668916E+03  0.00000000000E+00 0.  1.
         25    2    1    2    0    0  0.54450975444E+01  0.18545217856E+02 -0.29352912880E+02  0.12994074900E+03  0.12509768408E+03 0.  0.
         23    2    1    2    0    0 -0.54450975444E+01 -0.18545217856E+02 -0.47502544275E+01  0.93729462015E+02  0.91591882500E+02 0.  0.
          5    1    3    3  502    0  0.35600644130E+02  0.28149194099E+01 -0.68836053539E+02  0.77660828611E+02  0.41800000000E+01 0. -1.
         -5    1    3    3    0  502 -0.30155546585E+02  0.15730298446E+02  0.39483140659E+02  0.52279920384E+02  0.41800000000E+01 0. -1.
        -11    1    4    4    0    0 -0.19253913073E+02 -0.17141485632E+02  0.39603616793E+02  0.47254525300E+02  0.00000000000E+00 0. -1.
         11    1    4    4    0    0  0.13808815529E+02 -0.14037322246E+01 -0.44353871220E+02  0.46474936715E+02  0.00000000000E+00 0.  1.
</event>
<event>
 8    1  0.6869405E-009  0.1012907E+03  0.7561462E-02  0.1277605E+00
          2   -1    0    0  501    0  0.00000000000E+00  0.00000000000E+00  0.15503002256E+02  0.15503002256E+02  0.00000000000E+00 0. -1.
         -2   -1    0    0    0  501 -0.00000000000E+00 -0.00000000000E+00 -0.13776576228E+04  0.13776576228E+04  0.00000000000E+00 0.  1.
         25    2    1    2    0    0  0.98087310585E+01  0.19745445140E+02 -0.11967132966E+04  0.12034348695E+04  0.12508667800E+03 0.  0.
         23    2    1    2    0    0 -0.98087310585E+01 -0.19745445140E+02 -0.16544132398E+03  0.18972575561E+03  0.90216056518E+02 0.  0.
          5    1    3    3  502    0  0.61898502410E+02 -0.12752462821E+02 -0.71667052512E+03  0.71946380304E+03  0.41800000000E+01 0.  1.
         -5    1    3    3    0  502 -0.52089771351E+02  0.32497907961E+02 -0.48004277147E+03  0.48397106643E+03  0.41800000000E+01 0.  1.
        -11    1    4    4    0    0 -0.38670515999E+02  0.58744894124E+01 -0.13505900020E+03  0.14060886163E+03  0.00000000000E+00 0.  1.
         11    1    4    4    0    0  0.28861784940E+02 -0.25619934552E+02 -0.30382323782E+02  0.49116893985E+02  0.00000000000E+00 0. -1.
</event>
<event>
 8    1  0.6869405E-009  0.7200467E+02  0.7561462E-02  0.1353406E+00
         -1   -1    0    0    0  501 -0.00000000000E+00  0.00000000000E+00  0.24008139981E+02  0.24008139981E+02  0.00000000000E+00 0.  1.
          1   -1    0    0  501    0  0.00000000000E+00 -0.00000000000E+00 -0.52060191834E+03  0.52060191834E+03  0.00000000000E+00 0. -1.
         25    2    1    2    0    0 -0.20186528481E+02  0.11049009049E+02 -0.30861173903E+03  0.33379356562E+03  0.12508941780E+03 0.  0.
         23    2    1    2    0    0  0.20186528481E+02 -0.11049009049E+02 -0.18798203933E+03  0.21081649271E+03  0.92610852245E+02 0.  0.
          5    1    3    3  502    0 -0.41558958142E+02  0.29496672823E+02 -0.29949999349E+03  0.30383370321E+03  0.41800000000E+01 0.  1.
         -5    1    3    3    0  502  0.21372429661E+02 -0.18447663774E+02 -0.91117455451E+01  0.29959862403E+02  0.41800000000E+01 0.  1.
        -11    1    4    4    0    0  0.50203939955E+01 -0.35341753940E+02 -0.21039842757E+02  0.41435720227E+02  0.00000000000E+00 0.  1.
         11    1    4    4    0    0  0.15166134485E+02  0.24292744891E+02 -0.16694219657E+03  0.16938077248E+03  0.00000000000E+00 0. -1.
</event>
<event>
 8    1  0.6869405E-009  0.1525448E+03  0.7561462E-02  0.1197380E+00
          1   -1    0    0  501    0  0.00000000000E+00  0.00000000000E+00  0.88188962740E+03  0.88188962740E+03  0.00000000000E+00 0. -1.
         -1   -1    0    0    0  501 -0.00000000000E+00 -0.00000000000E+00 -0.32724486502E+02  0.32724486502E+02  0.00000000000E+00 0.  1.
         25    2    1    2    0    0 -0.11234793323E+03  0.59061446160E+02  0.51398204790E+03  0.54399970358E+03  0.12509124436E+03 0.  0.
         23    2    1    2    0    0  0.11234793323E+03 -0.59061446160E+02  0.33518309300E+03  0.37061441032E+03  0.94324030752E+02 0.  0.
          5    1    3    3  502    0 -0.13919430943E+03  0.44945409057E+02  0.44723020550E+03  0.47056080870E+03  0.41800000000E+01 0.  1.
         -5    1    3    3    0  502  0.26846376199E+02  0.14116037103E+02  0.66751842397E+02  0.73438894885E+02  0.41800000000E+01 0.  1.
        -11    1    4    4    0    0  0.46509189434E+02 -0.34344741189E+02  0.48600570264E+02  0.75529341180E+02  0.00000000000E+00 0.  1.
         11    1    4    4    0    0  0.65838743798E+02 -0.24716704972E+02  0.28658252274E+03  0.29508506914E+03  0.00000000000E+00 0. -1.
</event>
<event>
 8    1  0.6869405E-009  0.1283444E+03  0.7561462E-02  0.1229933E+00
          3   -1    0    0  501    0  0.00000000000E+00  0.00000000000E+00  0.43194979316E+03  0.43194979316E+03  0.00000000000E+00 0. -1.
         -3   -1    0    0    0  501 -0.00000000000E+00 -0.00000000000E+00 -0.40448808457E+02  0.40448808457E+02  0.00000000000E+00 0.  1.
         25    2    1    2    0    0 -0.51690028704E+02 -0.46794490920E+02  0.18927456059E+03  0.23734540553E+03  0.12508556588E+03 0.  0.
         23    2    1    2    0    0  0.51690028704E+02  0.46794490920E+02  0.20222642411E+03  0.23505319609E+03  0.97431488415E+02 0.  0.
          5    1    3    3  502    0 -0.87904987817E+02 -0.57572137759E+02  0.14106316786E+03  0.17594921897E+03  0.41800000000E+01 0. -1.
         -5    1    3    3    0  502  0.36214959113E+02  0.10777646839E+02  0.48211392735E+02  0.61396186562E+02  0.41800000000E+01 0. -1.
        -11    1    4    4    0    0 -0.20969129929E+02  0.33684245766E+02  0.10985208262E+03  0.11679817156E+03  0.00000000000E+00 0. -1.
         11    1    4    4    0    0  0.72659158634E+02  0.13110245155E+02  0.92374341490E+02  0.11825502453E+03  0.00000000000E+00 0.  1.
</event>
<event>
 8    1  0.6869405E-009  0.9701918E+02  0.7561462E-02  0.1286692E+00
         -2   -1    0    0    0  501 -0.00000000000E+00  0.00000000000E+00  0.55747122690E+02  0.55747122690E+02  0.00000000000E+00 0. -1.
          2   -1    0    0  501    0  0.00000000000E+00 -0.00000000000E+00 -0.29396451669E+03  0.29396451669E+03  0.00000000000E+00 0.  1.
         25    2    1    2    0    0 -0.73232729257E+01  0.69411653502E+02 -0.10424931724E+03  0.17716246153E+03  0.12508800767E+03 0.  0.
         23    2    1    2    0    0  0.73232729257E+01 -0.69411653502E+02 -0.13396807676E+03  0.17254917785E+03  0.83391637577E+02 0.  0.
          5    1    3    3  502    0 -0.38421743025E+01 -0.25651162044E+02  0.10288472639E+02  0.28214703380E+02  0.41800000000E+01 0.  1.
         -5    1    3    3    0  502 -0.34810986232E+01  0.95062815546E+02 -0.11453778988E+03  0.14894775815E+03  0.41800000000E+01 0.  1.
        -11    1    4    4    0    0 -0.14969022628E+01 -0.58492088817E+02 -0.14390872636E+03  0.15534891919E+03  0.00000000000E+00 0.  1.
         11    1    4    4    0    0  0.88201751885E+01 -0.10919564685E+02  0.99406496058E+01  0.17200258656E+02  0.00000000000E+00 0. -1.
</event>
<event>
 8    1  0.6869405E-009  0.7056255E+02  0.7561462E-02  0.1358190E+00
          1   -1    0    0  501    0  0.00000000000E+00  0.00000000000E+00  0.22079408123E+03  0.22079408123E+03  0.00000000000E+00 0. -1.
         -1   -1    0    0    0  501 -0.00000000000E+00 -0.00000000000E+00 -0.75419885053E+02  0.75419885053E+02  0.00000000000E+00 0.  1.
         25    2    1    2    0    0 -0.19422671632E+02  0.31184847041E+02  0.14544870829E+03  0.19531286591E+03  0.12506819735E+03 0.  0.
         23    2    1    2    0    0  0.19422671632E+02 -0.31184847041E+02 -0.74512108657E-01  0.10090110038E+03  0.93974952233E+02 0.  0.
          5    1    3    3  502    0 -0.64531999225E+01 -0.21614131556E+02 -0.13947134894E+02  0.26847894590E+02  0.41800000000E+01 0.  1.
         -5    1    3    3    0  502 -0.12969471710E+02  0.52798978597E+02  0.15939584318E+03  0.16846497132E+03  0.41800000000E+01 0.  1.
        -11    1    4    4    0    0  0.30378098587E+02 -0.39550760668E+02 -0.36600766854E+02  0.61860388598E+02  0.00000000000E+00 0.  1.
         11    1    4    4    0    0 -0.10955426954E+02  0.83659136271E+01  0.36526254746E+02  0.39040711780E+02  0.00000000000E+00 0. -1.
</event>
<event>
 8    1  0.6869405E-009  0.1553378E+03  0.7561462E-02  0.1194063E+00
          2   -1    0    0  501    0  0.00000000000E+00  0.00000000000E+00  0.17214588306E+03  0.17214588306E+03  0.00000000000E+00 0. -1.
         -2   -1    0    0    0  501 -0.00000000000E+00 -0.00000000000E+00 -0.20155139495E+03  0.20155139495E+03  0.00000000000E+00 0.  1.
         25    2    1    2    0    0 -0.78581421259E+02  0.10511670394E+03 -0.90987627507E+02  0.20285874676E+03  0.12509341136E+03 0.  0.
         23    2    1    2    0    0  0.78581421259E+02 -0.10511670394E+03  0.61582115612E+02  0.17083853125E+03  0.90381887472E+02 0.  0.
          5    1    3    3  502    0 -0.49460190210E+02  0.12866004379E+03 -0.48773312027E+02  0.14627380370E+03  0.41800000000E+01 0.  1.
         -5    1    3    3    0  502 -0.29121231049E+02 -0.23543339854E+02 -0.42214315481E+02  0.56584943057E+02  0.41800000000E+01 0.  1.
        -11    1    4    4    0    0  0.77671088354E+02 -0.85722668406E+02  0.82664497885E+02  0.14217803296E+03  0.00000000000E+00 0. -1.
         11    1    4    4    0    0  0.91033290495E+00 -0.19394035532E+02 -0.21082382273E+02  0.28660498295E+02  0.00000000000E+00 0.  1.
</event>
<event>
 8    1  0.6869405E-009  0.1091274E+03  0.7561462E-02  0.1262194E+00
          1   -1    0    0  501    0  0.00000000000E+00  0.00000000000E+00  0.50486929018E+03  0.50486929018E+03  0.00000000000E+00 0. -1.
         -1   -1    0    0    0  501 -0.00000000000E+00 -0.00000000000E+00 -0.31258431534E+02  0.31258431534E+02  0.00000000000E+00 0.  1.
         25    2    1    2    0    0 -0.21961469856E+02 -0.57102237545E+02  0.29743680242E+03  0.32842319348E+03  0.12510064305E+03 0.  0.
         23    2    1    2    0    0  0.21961469856E+02  0.57102237545E+02  0.17617405622E+03  0.20770452823E+03  0.91437964056E+02 0.  0.
          5    1    3    3  502    0 -0.56114882077E+01  0.24879320253E+02  0.78912445009E+01  0.27022463173E+02  0.41800000000E+01 0. -1.
         -5    1    3    3    0  502 -0.16349981649E+02 -0.81981557798E+02  0.28954555792E+03  0.30140073031E+03  0.41800000000E+01 0. -1.
        -11    1    4    4    0    0  0.14249484281E+01  0.78812371689E+02  0.14110560442E+03  0.16162986113E+03  0.00000000000E+00 0.  1.
         11    1    4    4    0    0  0.20536521428E+02 -0.21710134144E+02  0.35068451804E+02  0.46074667105E+02  0.00000000000E+00 0. -1.
</event>
<event>
 8    1  0.6869405E-009  0.1356443E+03  0.7561462E-02  0.1219313E+00
         -2   -1    0    0    0  501 -0.00000000000E+00  0.00000000000E+00  0.51832794442E+02  0.51832794442E+02  0.00000000000E+00 0.  1.
          2   -1    0    0  501    0  0.00000000000E+00 -0.00000000000E+00 -0.68917566111E+03  0.68917566111E+03  0.00000000000E+00 0. -1.
         25    2    1    2    0    0 -0.10481614427E+03  0.76246124791E+02 -0.49897417875E+03  0.53049303135E+03  0.12509088541E+03 0.  0.
         23    2    1    2    0    0  0.10481614427E+03 -0.76246124791E+02 -0.13836868792E+03  0.21051542420E+03  0.91492919844E+02 0.  0.
          5    1    3    3  502    0 -0.57068599110E+02  0.74308927566E+01 -0.58731618432E+02  0.82334188373E+02  0.41800000000E+01 0.  1.
         -5    1    3    3    0  502 -0.47747545165E+02  0.68815232035E+02 -0.44024256032E+03  0.44815884298E+03  0.41800000000E+01 0.  1.
        -11    1    4    4    0    0  0.42765300229E+02 -0.27878314599E+02  0.33679950942E+00  0.51050805698E+02  0.00000000000E+00 0.  1.
         11    1    4    4    0    0  0.62050844046E+02 -0.48367810192E+02 -0.13870548743E+03  0.15946461850E+03  0.00000000000E+00 0. -1.
</event>
<event>
 8    1  0.6869405E-009  0.8699432E+02  0.7561462E-02  0.1310298E+00
         -2   -1    0    0    0  501 -0.00000000000E+00  0.00000000000E+00  0.32607958138E+02  0.32607958138E+02  0.00000000000E+00 0.  1.
          2   -1    0    0  501    0  0.00000000000E+00 -0.00000000000E+00 -0.46554790230E+03  0.46554790230E+03  0.00000000000E+00 0. -1.
         25    2    1    2    0    0  0.30880555369E+02 -0.29797496577E+02 -0.15760478428E+03  0.20573808935E+03  0.12508954345E+03 0.  0.
         23    2    1    2    0    0 -0.30880555369E+02  0.29797496577E+02 -0.27533515989E+03  0.29241777109E+03  0.88640865720E+02 0.  0.
          5    1    3    3  502    0 -0.15302511791E+02 -0.32648554191E+02  0.49865668605E+01  0.36639230436E+02  0.41800000000E+01 0.  1.
         -5    1    3    3    0  502  0.46183067160E+02  0.28510576143E+01 -0.16259135114E+03  0.16909885892E+03  0.41800000000E+01 0.  1.
        -11    1    4    4    0    0  0.92722220335E+01 -0.23058653381E+02 -0.13382384998E+03  0.13611208036E+03  0.00000000000E+00 0. -1.
         11    1    4    4    0    0 -0.40152777402E+02  0.52856149958E+02 -0.14151130991E+03  0.15630569073E+03  0.00000000000E+00 0.  1.
</event>
<event>
 8    1  0.6869405E-009  0.1086533E+03  0.7561462E-02  0.1263084E+00
         -1   -1    0    0    0  501 -0.00000000000E+00  0.00000000000E+00  0.11089934233E+03  0.11089934233E+03  0.00000000000E+00 0.  1.
          1   -1    0    0  501    0  0.00000000000E+00 -0.00000000000E+00 -0.13342716180E+03  0.13342716180E+03  0.00000000000E+00 0. -1.
         25    2    1    2    0    0  0.69039061535E+01 -0.49967580239E+02  0.55698534208E+01  0.13498784935E+03  0.12508506390E+03 0.  0.
         23    2    1    2    0    0 -0.69039061535E+01  0.49967580239E+02 -0.28097672891E+02  0.10933865477E+03  0.92849551477E+02 0.  0.
          5    1    3    3  502    0 -0.31051124527E+02 -0.80202796495E+02  0.55233939382E+01  0.86282334117E+02  0.41800000000E+01 0. -1.
         -5    1    3    3    0  502  0.37955030681E+02  0.30235216256E+02  0.46459482626E-01  0.48705515237E+02  0.41800000000E+01 0. -1.
        -11    1    4    4    0    0 -0.32835725446E+02  0.45610225643E+02 -0.49918401036E+02  0.75168639144E+02  0.00000000000E+00 0. -1.
         11    1    4    4    0    0  0.25931819293E+02  0.43573545959E+01  0.21820728146E+02  0.34170015624E+02  0.00000000000E+00 0.  1.
</event>
<event>
 8    1  0.6869405E-009  0.1645608E+03  0.7561462E-02  0.1183642E+00
         -2   -1    0    0    0  501 -0.00000000000E+00  0.00000000000E+00  0.32872426108E+03  0.32872426108E+03  0.00000000000E+00 0.  1.
          2   -1    0    0  501    0  0.00000000000E+00 -0.00000000000E+00 -0.84842881624E+02  0.84842881624E+02  0.00000000000E+00 0. -1.
         25    2    1    2    0    0  0.76073348024E+02 -0.10097311982E+03  0.13900937698E+03  0.22573099247E+03  0.12509256119E+03 0.  0.
         23    2    1    2    0    0 -0.76073348024E+02  0.10097311982E+03  0.10487200248E+03  0.18783615024E+03  0.91112881780E+02 0.  0.
          5    1    3    3  502    0  0.14852107632E+02 -0.11016693804E+03  0.63833893691E+02  0.12825590716E+03  0.41800000000E+01 0.  1.
         -5    1    3    3    0  502  0.61221240391E+02  0.91938182116E+01  0.75175483287E+02  0.97475085308E+02  0.41800000000E+01 0.  1.
        -11    1    4    4    0    0 -0.88479138223E+02  0.46482481962E+02  0.66677986689E+02  0.12014629807E+03  0.00000000000E+00 0.  1.
         11    1    4    4    0    0  0.12405790200E+02  0.54490637861E+02  0.38194015788E+02  0.67689852172E+02  0.00000000000E+00 0. -1.
</event>
<event>
 8    1  0.6869405E-009  0.1099370E+03  0.7561462E-02  0.1260687E+00
         -2   -1    0    0    0  501 -0.00000000000E+00  0.00000000000E+00  0.44337940431E+02  0.44337940431E+02  0.00000000000E+00 0.  1.
          2   -1    0    0  501    0  0.00000000000E+00 -0.00000000000E+00 -0.38624959261E+03  0.38624959261E+03  0.00000000000E+00 0. -1.
         25    2    1    2    0    0 -0.43002664971E+02  0.59139195609E+02 -0.17111197841E+03  0.22421679082E+03  0.12508871444E+03 0.  0.
         23    2    1    2    0    0  0.43002664971E+02 -0.59139195609E+02 -0.17079967377E+03  0.20637074221E+03  0.89831403362E+02 0.  0.
          5    1    3    3  502    0 -0.64687323780E+02  0.63438934489E+02 -0.17876039517E+03  0.20045373418E+03  0.41800000000E+01 0. -1.
         -5    1    3    3    0  502  0.21684658808E+02 -0.42997388793E+01  0.76484167606E+01  0.23763056643E+02  0.41800000000E+01 0. -1.
        -11    1    4    4    0    0  0.23703722026E+02  0.16325944940E+02 -0.15641275132E+02  0.32757478594E+02  0.00000000000E+00 0.  1.
         11    1    4    4    0    0  0.19298942945E+02 -0.75465140549E+02 -0.15515839864E+03  0.17361326362E+03  0.00000000000E+00 0. -1.
</event>
<event>
 8    1  0.6869405E-009  0.7553384E+02  0.7561462E-02  0.1342226E+00
          2   -1    0    0  501    0  0.00000000000E+00  0.00000000000E+00  0.21838328915E+03  0.21838328915E+03  0.00000000000E+00 0. -1.
         -2   -1    0    0    0  501 -0.00000000000E+00 -0.00000000000E+00 -0.73897743835E+02  0.73897743835E+02  0.00000000000E+00 0.  1.
         25    2    1    2    0    0 -0.46201693640E+02 -0.15167961878E+01  0.14236230217E+03  0.19506712192E+03  0.12508900755E+03 0.  0.
         23    2    1    2    0    0  0.46201693640E+02  0.15167961878E+01  0.21232431449E+01  0.97213911064E+02  0.85493503712E+02 0.  0.
          5    1    3    3  502    0 -0.16853841899E+01 -0.78024270227E+01  0.14913784431E+03  0.14940979684E+03  0.41800000000E+01 0.  1.
         -5    1    3    3    0  502 -0.44516309450E+02  0.62856308349E+01 -0.67755421398E+01  0.45657325079E+02  0.41800000000E+01 0.  1.
        -11    1    4    4    0    0  0.12418078074E+02  0.42220013669E+02  0.46715562780E+01  0.44255639813E+02  0.00000000000E+00 0. -1.
         11    1    4    4    0    0  0.33783615566E+02 -0.40703217481E+02 -0.25483131331E+01  0.52958271250E+02  0.00000000000E+00 0.  1.
</event>
<event>
 8    1  0.6869405E-009  0.1392149E+03  0.7561462E-02  0.1214389E+00
         -1   -1    0    0    0  501 -0.00000000000E+00  0.00000000000E+00  0.33799650385E+03  0.33799650385E+03  0.00000000000E+00 0.  1.
          1   -1    0    0  501    0  0.00000000000E+00 -0.00000000000E+00 -0.84564247883E+02  0.84564247883E+02  0.00000000000E+00 0. -1.
         25    2    1    2    0    0 -0.98390242307E+01 -0.11267281509E+03  0.62857802925E+02  0.17997515809E+03  0.12509190414E+03 0.  0.
         23    2    1    2    0    0  0.98390242307E+01  0.11267281509E+03  0.19057445304E+03  0.24258559365E+03  0.98677142420E+02 0.  0.
          5    1    3    3  502    0 -0.58901879441E+01 -0.12166590018E+03  0.89541010639E+02  0.15123607561E+03  0.41800000000E+01 0. -1.
         -5    1    3    3    0  502 -0.39488362867E+01  0.89930850936E+01 -0.26683207713E+02  0.28739082473E+02  0.41800000000E+01 0. -1.
        -11    1    4    4    0    0  0.42971637658E+02  0.10261600559E+03  0.11800126130E+03  0.16217553427E+03  0.00000000000E+00 0. -1.
         11    1    4    4    0    0 -0.33132613427E+02  0.10056809492E+02  0.72573191744E+02  0.80410059380E+02  0.00000000000E+00 0.  1.
</event>
<event>
 8    1  0.6869405E-009  0.1085340E+03  0.7561462E-02  0.1263309E+00
          1   -1    0    0  501    0  0.00000000000E+00  0.00000000000E+00  0.54433352527E+02  0.54433352527E+02  0.00000000000E+00 0. -1.
         -1   -1    0    0    0  501 -0.00000000000E+00 -0.00000000000E+00 -0.30227931976E+03  0.30227931976E+03  0.00000000000E+00 0.  1.
         25    2    1    2    0    0  0.85456960440E+00  0.12337091036E+02 -0.44852997420E+02  0.13345867744E+03  0.12508594286E+03 0.  0.
         23    2    1    2    0    0 -0.85456960440E+00 -0.12337091036E+02 -0.20299296982E+03  0.22325399485E+03  0.92104648729E+02 0.  0.
          5    1    3    3  502    0  0.61221830486E+02  0.17662669037E+02 -0.14193079490E+02  0.65414052855E+02  0.41800000000E+01 0. -1.
         -5    1    3    3    0  502 -0.60367260881E+02 -0.53255780003E+01 -0.30659917929E+02  0.68044624584E+02  0.41800000000E+01 0. -1.
        -11    1    4    4    0    0  0.44101403964E+02  0.47853693304E+01 -0.86287000742E+02  0.97022059802E+02  0.00000000000E+00 0.  1.
         11    1    4    4    0    0 -0.44955973568E+02 -0.17122460367E+02 -0.11670596908E+03  0.12623193505E+03  0.00000000000E+00 0. -1.
</event>
<event>
 8    1  0.6869405E-009  0.1160983E+03  0.7561462E-02  0.1249676E+00
          1   -1    0    0  501    0  0.00000000000E+00  0.00000000000E+00  0.50758010659E+02  0.50758010659E+02  0.00000000000E+00 0. -1.
         -1   -1    0    0    0  501 -0.00000000000E+00 -0.00000000000E+00 -0.31361686537E+03  0.31361686537E+03  0.00000000000E+00 0.  1.
         25    2    1    2    0    0 -0.39964129610E+02 -0.42527073272E+02 -0.10954495968E+03  0.17620201015E+03  0.12506544916E+03 0.  0.
         23    2    1    2    0    0  0.39964129610E+02  0.42527073272E+02 -0.15331389503E+03  0.18817286588E+03  0.92185646529E+02 0.  0.
          5    1    3    3  502    0  0.41279297821E+02 -0.14817508742E+02 -0.10926731646E+02  0.45391682701E+02  0.41800000000E+01 0.  1.
         -5    1    3    3    0  502 -0.81243427432E+02 -0.27709564531E+02 -0.98618228032E+02  0.13081032745E+03  0.41800000000E+01 0.  1.
        -11    1    4    4    0    0 -0.24325724192E+02  0.26438127961E+02 -0.88327393077E+02  0.95354306853E+02  0.00000000000E+00 0.  1.
         11    1    4    4    0    0  0.64289853802E+02  0.16088945311E+02 -0.64986501956E+02  0.92818559025E+02  0.00000000000E+00 0. -1.
</event>
<event>
 8    1  0.6869405E-009  0.8649271E+02  0.7561462E-02  0.1311574E+00
         -2   -1    0    0    0  501 -0.00000000000E+00  0.00000000000E+00  0.88691512284E+02  0.88691512284E+02  0.00000000000E+00 0. -1.
          2   -1    0    0  501    0  0.00000000000E+00 -0.00000000000E+00 -0.16906075954E+03  0.16906075954E+03  0.00000000000E+00 0.  1.
         25    2    1    2    0    0  0.56806179044E+01 -0.40693308602E+02 -0.67657058987E+02  0.14803835861E+03  0.12509861392E+03 0.  0.
         23    2    1    2    0    0 -0.56806179044E+01  0.40693308602E+02 -0.12712188272E+02  0.10971391322E+03  0.10093229532E+03 0.  0.
          5    1    3    3  502    0  0.32406960979E+02 -0.59058180258E+01 -0.91919603327E+02  0.97733186187E+02  0.41800000000E+01 0. -1.
         -5    1    3    3    0  502 -0.26726343075E+02 -0.34787490576E+02  0.24262544340E+02  0.50305172424E+02  0.41800000000E+01 0. -1.
        -11    1    4    4    0    0 -0.35190319275E+02 -0.10413254520E+02 -0.30884370093E+02  0.47964974267E+02  0.00000000000E+00 0.  1.
         11    1    4    4    0    0  0.29509701371E+02  0.51106563122E+02  0.18172181821E+02  0.61748938949E+02  0.00000000000E+00 0. -1.
</event>
<event>
 8    1  0.6869405E-009  0.1315841E+03  0.7561462E-02  0.1225124E+00
          1   -1    0    0  501    0  0.00000000000E+00  0.00000000000E+00  0.71952777731E+03  0.71952777731E+03  0.00000000000E+00 0. -1.
         -1   -1    0    0    0  501 -0.00000000000E+00 -0.00000000000E+00 -0.39300971270E+02  0.39300971270E+02  0.00000000000E+00 0.  1.
         25    2    1    2    0    0 -0.96304300894E+02 -0.81959517279E+02  0.41389307860E+03  0.45049651614E+03  0.12509096571E+03 0.  0.
         23    2    1    2    0    0  0.96304300894E+02  0.81959517279E+02  0.26633372744E+03  0.30833223244E+03  0.90239848976E+02 0.  0.
          5    1    3    3  502    0 -0.41206891755E+02 -0.68128743234E+02  0.84356482506E+02  0.11607334803E+03  0.41800000000E+01 0. -1.
         -5    1    3    3    0  502 -0.55097409139E+02 -0.13830774046E+02  0.32953659609E+03  0.33442316811E+03  0.41800000000E+01 0. -1.
        -11    1    4    4    0    0  0.68117973181E+02  0.59234483132E+02  0.86966746383E+02  0.12534750591E+03  0.00000000000E+00 0.  1.
         11    1    4    4    0    0  0.28186327713E+02  0.22725034147E+02  0.17936698106E+03  0.18298472652E+03  0.00000000000E+00 0. -1.
</event>
<event>
 8    1  0.6869405E-009  0.1296771E+03  0.7561462E-02  0.1227936E+00
         -2   -1    0    0    0  501 -0.00000000000E+00  0.00000000000E+00  0.23617285435E+03  0.23617285435E+03  0.00000000000E+00 0.  1.
          2   -1    0    0  501    0  0.00000000000E+00 -0.00000000000E+00 -0.10713438380E+03  0.10713438380E+03  0.00000000000E+00 0. -1.
         25    2    1    2    0    0 -0.63567718495E+02  0.76719507901E+02  0.13369164616E+03  0.20844132980E+03  0.12509034331E+03 0.  0.
         23    2    1    2    0    0  0.63567718495E+02 -0.76719507901E+02 -0.46531756136E+01  0.13486590835E+03  0.90776778225E+02 0.  0.
          5    1    3    3  502    0 -0.10580408787E+02 -0.22060424262E+02  0.80607523465E+02  0.84342472147E+02  0.41800000000E+01 0. -1.
         -5    1    3    3    0  502 -0.52987309707E+02  0.98779932164E+02  0.53084122696E+02  0.12409885765E+03  0.41800000000E+01 0. -1.
        -11    1    4    4    0    0  0.79824405381E+01 -0.65083066906E+02  0.25754528627E+02  0.70447290222E+02  0.00000000000E+00 0.  1.
         11    1    4    4    0    0  0.55585277957E+02 -0.11636440996E+02 -0.30407704241E+02  0.64418618130E+02  0.00000000000E+00 0. -1.
</event>
<event>
 8    1  0.6869405E-009  0.1293021E+03  0.7561462E-02  0.1228495E+00
         -2   -1    0    0    0  501 -0.00000000000E+00  0.00000000000E+00  0.24773818689E+02  0.24773818689E+02  0.00000000000E+00 0.  1.
          2   -1    0    0  501    0  0.00000000000E+00 -0.00000000000E+00 -0.11144086922E+04  0.11144086922E+04  0.00000000000E+00 0. -1.
         25    2    1    2    0    0 -0.53021544973E+02 -0.10549106994E+03 -0.74410428137E+03  0.76372655292E+03  0.12508963190E+03 0.  0.
         23    2    1    2    0    0  0.53021544973E+02  0.10549106994E+03 -0.34553059218E+03  0.37545595801E+03  0.87384988444E+02 0.  0.
          5    1    3    3  502    0 -0.22514388525E+02 -0.51971771303E+02 -0.64126457294E+03  0.64377456273E+03  0.41800000000E+01 0. -1.
         -5    1    3    3    0  502 -0.30507156447E+02 -0.53519298636E+02 -0.10283970843E+03  0.11995199019E+03  0.41800000000E+01 0. -1.
        -11    1    4    4    0    0 -0.19069804843E+02  0.14382744104E+02 -0.11323769211E+03  0.11572940723E+03  0.00000000000E+00 0.  1.
         11    1    4    4    0    0  0.72091349816E+02  0.91108325836E+02 -0.23229290008E+03  0.25972655078E+03  0.00000000000E+00 0. -1.
</event>
<event>
 8    1  0.6869405E-009  0.1107729E+03  0.7561462E-02  0.1259145E+00
          1   -1    0    0  501    0  0.00000000000E+00  0.00000000000E+00  0.75646415391E+02  0.75646415391E+02  0.00000000000E+00 0. -1.
         -1   -1    0    0    0  501 -0.00000000000E+00 -0.00000000000E+00 -0.23324437430E+03  0.23324437430E+03  0.00000000000E+00 0.  1.
         25    2    1    2    0    0  0.38433172801E+02  0.26199092183E+02 -0.15853369777E+03  0.20722918646E+03  0.12508997238E+03 0.  0.
         23    2    1    2    0    0 -0.38433172801E+02 -0.26199092183E+02  0.93573885790E+00  0.10166160323E+03  0.90391950754E+02 0.  0.
          5    1    3    3  502    0  0.67262884007E+02  0.51813794885E+02 -0.68425359809E+02  0.10912592346E+03  0.41800000000E+01 0.  1.
         -5    1    3    3    0  502 -0.28829711206E+02 -0.25614702701E+02 -0.90108337957E+02  0.98103263004E+02  0.41800000000E+01 0.  1.
        -11    1    4    4    0    0 -0.59994957334E+02 -0.40035956713E+02 -0.11742708388E+02  0.73076425307E+02  0.00000000000E+00 0.  1.
         11    1    4    4    0    0  0.21561784533E+02  0.13836864530E+02  0.12678447246E+02  0.28585177922E+02  0.00000000000E+00 0. -1.
</event>
<event>
 8    1  0.6869405E-009  0.1074017E+03  0.7561462E-02  0.1265459E+00
          1   -1    0    0  501    0  0.00000000000E+00  0.00000000000E+00  0.39439294202E+03  0.39439294202E+03  0.00000000000E+00 0. -1.
         -1   -1    0    0    0  501 -0.00000000000E+00 -0.00000000000E+00 -0.45122076453E+02  0.45122076453E+02  0.00000000000E+00 0.  1.
         25    2    1    2    0    0 -0.58909194959E+02  0.20490173220E+02  0.11907182412E+03  0.18360093742E+03  0.12506424138E+03 0.  0.
         23    2    1    2    0    0  0.58909194959E+02 -0.20490173220E+02  0.23019904145E+03  0.25591408105E+03  0.92791582317E+02 0.  0.
          5    1    3    3  502    0 -0.22419065140E+02  0.52733392830E+02  0.28534841995E+01  0.57524255520E+02  0.41800000000E+01 0.  1.
         -5    1    3    3    0  502 -0.36490129819E+02 -0.32243219609E+02  0.11621833992E+03  0.12607668190E+03  0.41800000000E+01 0.  1.
        -11    1    4    4    0    0  0.40914735284E+02  0.32667055559E+02  0.80365709706E+02  0.95915584650E+02  0.00000000000E+00 0.  1.
         11    1    4    4    0    0  0.17994459675E+02 -0.53157228780E+02  0.14983333174E+03  0.15999849640E+03  0.00000000000E+00 0. -1.
</event>
<event>
 8    1  0.6869405E-009  0.1178587E+03  0.7561462E-02  0.1246672E+00
         -1   -1    0    0    0  501 -0.00000000000E+00  0.00000000000E+00  0.94703796026E+03  0.94703796026E+03  0.00000000000E+00 0.  1.
          1   -1    0    0  501    0  0.00000000000E+00 -0.00000000000E+00 -0.20164738492E+02  0.20164738492E+02  0.00000000000E+00 0. -1.
         25    2    1    2    0    0  0.37753234392E+02  0.75043317502E+02  0.59831880698E+03  0.61700079391E+03  0.12509108158E+03 0.  0.
         23    2    1    2    0    0 -0.37753234392E+02 -0.75043317502E+02  0.32855441479E+03  0.35020190484E+03  0.87387438855E+02 0.  0.
          5    1    3    3  502    0  0.61668353233E+02 -0.63164767959E+01  0.18837962227E+03  0.19836138272E+03  0.41800000000E+01 0. -1.
         -5    1    3    3    0  502 -0.23915118841E+02  0.81359794298E+02  0.40993918471E+03  0.41863941118E+03  0.41800000000E+01 0. -1.
        -11    1    4    4    0    0 -0.41864857429E+02 -0.60535316119E+02  0.32684074731E+03  0.33502546902E+03  0.00000000000E+00 0.  1.
         11    1    4    4    0    0  0.41116230371E+01 -0.14508001384E+02  0.17136674736E+01  0.15176435825E+02  0.00000000000E+00 0. -1.
</event>
<event>
 8    1  0.6869405E-009  0.9725904E+02  0.7561462E-02  0.1286168E+00
          2   -1    0    0  501    0  0.00000000000E+00  0.00000000000E+00  0.45384574848E+03  0.45384574848E+03  0.00000000000E+00 0.  1.
         -2   -1    0    0    0  501 -0.00000000000E+00 -0.00000000000E+00 -0.32834345614E+02  0.32834345614E+02  0.00000000000E+00 0. -1.
         25    2    1    2    0    0 -0.31290593228E+02 -0.31177067782E+02  0.17026474260E+03  0.21584699645E+03  0.12509489407E+03 0.  0.
         23    2    1    2    0    0  0.31290593228E+02  0.31177067782E+02  0.25074666027E+03  0.27083309765E+03  0.92334004385E+02 0.  0.
          5    1    3    3  502    0 -0.52917194664E+02  0.12879931807E+01  0.14252049093E+02  0.54977101787E+02  0.41800000000E+01 0.  1.
         -5    1    3    3    0  502  0.21626601436E+02 -0.32465060963E+02  0.15601269351E+03  0.16086989466E+03  0.41800000000E+01 0.  1.
        -11    1    4    4    0    0  0.18894150827E+02  0.64196140036E+02  0.15671471758E+03  0.17040433104E+03  0.00000000000E+00 0.  1.
         11    1    4    4    0    0  0.12396442401E+02 -0.33019072253E+02  0.94031942681E+02  0.10042876660E+03  0.00000000000E+00 0. -1.
</event>
<event>
 8    1  0.6869405E-009  0.1528461E+03  0.7561462E-02  0.1197019E+00
          4   -1    0    0  501    0  0.00000000000E+00  0.00000000000E+00  0.17685315041E+03  0.17685315041E+03  0.00000000000E+00 0. -1.
         -4   -1    0    0    0  501 -0.00000000000E+00 -0.00000000000E+00 -0.19933070276E+03  0.19933070276E+03  0.00000000000E+00 0.  1.
         25    2    1    2    0    0  0.12402813171E+03 -0.87754483927E+02  0.16236488459E+01  0.19680814718E+03  0.12508790371E+03 0.  0.
         23    2    1    2    0    0 -0.12402813171E+03  0.87754483927E+02 -0.24101201197E+02  0.17937570599E+03  0.92254805267E+02 0.  0.
          5    1    3    3  502    0  0.36790463382E+02 -0.16233448503E+02 -0.56784935329E+02  0.69706989079E+02  0.41800000000E+01 0.  1.
         -5    1    3    3    0  502  0.87237668332E+02 -0.71521035424E+02  0.58408584175E+02  0.12710115810E+03  0.41800000000E+01 0.  1.
        -11    1    4    4    0    0 -0.39318247414E+02  0.34576200027E+02  0.35207242370E+02  0.63095071941E+02  0.00000000000E+00 0. -1.
         11    1    4    4    0    0 -0.84709884299E+02  0.53178283900E+02 -0.59308443567E+02  0.11628063405E+03  0.00000000000E+00 0.  1.
</event>
<event>
 8    1  0.6869405E-009  0.1093563E+03  0.7561462E-02  0.1261767E+00
          1   -1    0    0  501    0  0.00000000000E+00  0.00000000000E+00  0.16411851974E+03  0.16411851974E+03  0.00000000000E+00 0. -1.
         -1   -1    0    0    0  501 -0.00000000000E+00 -0.00000000000E+00 -0.94886426971E+02  0.94886426971E+02  0.00000000000E+00 0.  1.
         25    2    1    2    0    0  0.51610372530E+02  0.26889022938E+02  0.19662212709E+02  0.13936178067E+03  0.12509377761E+03 0.  0.
         23    2    1    2    0    0 -0.51610372530E+02 -0.26889022938E+02  0.49569880055E+02  0.11964316603E+03  0.92036210602E+02 0.  0.
          5    1    3    3  502    0 -0.26535949063E+02 -0.67062027955E+00 -0.31874005341E+02  0.41689698257E+02  0.41800000000E+01 0. -1.
         -5    1    3    3    0  502  0.78146321593E+02  0.27559643218E+02  0.51536218051E+02  0.97672082418E+02  0.41800000000E+01 0. -1.
        -11    1    4    4    0    0  0.11738834307E+01 -0.50878523634E+02  0.24295456085E+02  0.56393894668E+02  0.00000000000E+00 0.  1.
         11    1    4    4    0    0 -0.52784255960E+02  0.23989500695E+02  0.25274423970E+02  0.63249271363E+02  0.00000000000E+00 0. -1.
</event>
<event>
 8    1  0.6869405E-009  0.2185845E+03  0.7561462E-02  0.1134943E+00
          2   -1    0    0  501    0  0.00000000000E+00  0.00000000000E+00  0.34314336554E+02  0.34314336554E+02  0.00000000000E+00 0. -1.
         -2   -1    0    0    0  501 -0.00000000000E+00 -0.00000000000E+00 -0.15598312725E+04  0.15598312725E+04  0.00000000000E+00 0.  1.
         25    2    1    2    0    0 -0.19417586687E+03 -0.47638941565E+02 -0.92300994581E+03  0.95266389068E+03  0.12508953799E+03 0.  0.
         23    2    1    2    0    0  0.19417586687E+03  0.47638941565E+02 -0.60250699012E+03  0.64148171836E+03  0.92251752366E+02 0.  0.
          5    1    3    3  502    0  0.88220222798E+01 -0.17546147235E+02 -0.28226634268E+02  0.34639726355E+02  0.41800000000E+01 0.  1.
         -5    1    3    3    0  502 -0.20299788915E+03 -0.30092794330E+02 -0.89478331154E+03  0.91802416432E+03  0.41800000000E+01 0.  1.
        -11    1    4    4    0    0  0.13873233664E+03  0.65723245454E+02 -0.34761220730E+03  0.38000059591E+03  0.00000000000E+00 0. -1.
         11    1    4    4    0    0  0.55443530237E+02 -0.18084303888E+02 -0.25489478282E+03  0.26148112246E+03  0.00000000000E+00 0.  1.
</event>
<event>
 8    1  0.6869405E-009  0.1511400E+03  0.7561462E-02  0.1199079E+00
          1   -1    0    0  501    0  0.00000000000E+00  0.00000000000E+00  0.51592773790E+03  0.51592773790E+03  0.00000000000E+00 0. -1.
         -1   -1    0    0    0  501 -0.00000000000E+00 -0.00000000000E+00 -0.71471775148E+02  0.71471775148E+02  0.00000000000E+00 0.  1.
         25    2    1    2    0    0  0.64736393001E+02  0.96603624693E+02  0.39580424091E+03  0.43108187048E+03  0.12509005179E+03 0.  0.
         23    2    1    2    0    0 -0.64736393001E+02 -0.96603624693E+02  0.48651721838E+02  0.15631764256E+03  0.92440004622E+02 0.  0.
          5    1    3    3  502    0 -0.53319721796E+01 -0.19937036573E+02  0.13785980264E+03  0.13945864240E+03  0.41800000000E+01 0. -1.
         -5    1    3    3    0  502  0.70068365181E+02  0.11654066127E+03  0.25794443827E+03  0.29162322809E+03  0.41800000000E+01 0. -1.
        -11    1    4    4    0    0 -0.59757187274E+02 -0.12658004303E+02  0.37015206151E+02  0.71423189444E+02  0.00000000000E+00 0.  1.
         11    1    4    4    0    0 -0.49792057267E+01 -0.83945620389E+02  0.11636515687E+02  0.84894453114E+02  0.00000000000E+00 0. -1.
</event>
<event>
 8    1  0.6869405E-009  0.1071948E+03  0.7561462E-02  0.1265855E+00
         -1   -1    0    0    0  501 -0.00000000000E+00  0.00000000000E+00  0.29995274334E+03  0.29995274334E+03  0.00000000000E+00 0.  1.
          1   -1    0    0  501    0  0.00000000000E+00 -0.00000000000E+00 -0.47796515833E+02  0.47796515833E+02  0.00000000000E+00 0. -1.
         25    2    1    2    0    0  0.24811894063E+02  0.23676195716E+02  0.94078702695E+02  0.16023149435E+03  0.12508851726E+03 0.  0.
         23    2    1    2    0    0 -0.24811894063E+02 -0.23676195716E+02  0.15807752481E+03  0.18751776482E+03  0.94858926533E+02 0.  0.
          5    1    3    3  502    0 -0.23021518879E+02  0.62068570156E+02  0.35138988263E+02  0.75064762898E+02  0.41800000000E+01 0. -1.
         -5    1    3    3    0  502  0.47833412943E+02 -0.38392374440E+02  0.58939714432E+02  0.85166731452E+02  0.41800000000E+01 0. -1.
        -11    1    4    4    0    0  0.28851821142E+02 -0.13929027699E+02  0.11079564442E+03  0.11533481790E+03  0.00000000000E+00 0.  1.
         11    1    4    4    0    0 -0.53663715205E+02 -0.97471680177E+01  0.47281880385E+02  0.72182946924E+02  0.00000000000E+00 0. -1.
</event>
<event>
 8    1  0.6869405E-009  0.2068172E+03  0.7561462E-02  0.1144111E+00
         -1   -1    0    0    0  501 -0.00000000000E+00  0.00000000000E+00  0.32066847172E+03  0.32066847172E+03  0.00000000000E+00 0.  1.
          1   -1    0    0  501    0  0.00000000000E+00 -0.00000000000E+00 -0.15520573192E+03  0.15520573192E+03  0.00000000000E+00 0. -1.
         25    2    1    2    0    0  0.15516743826E+03 -0.99913991347E+02  0.15222946975E+03  0.26996511869E+03  0.12509042444E+03 0.  0.
         23    2    1    2    0    0 -0.15516743826E+03  0.99913991347E+02  0.13233270048E+02  0.20590908495E+03  0.90353153049E+02 0.  0.
          5    1    3    3  502    0  0.96515034073E+02 -0.28854902408E+01  0.25676592768E+02  0.10000118835E+03  0.41800000000E+01 0.  1.
         -5    1    3    3    0  502  0.58652404183E+02 -0.97028501107E+02  0.12655287698E+03  0.16996393034E+03  0.41800000000E+01 0.  1.
        -11    1    4    4    0    0 -0.15676627630E+03  0.11115614407E+03  0.19110156961E+02  0.19312315202E+03  0.00000000000E+00 0. -1.
         11    1    4    4    0    0  0.15988380424E+01 -0.11242152722E+02 -0.58768869132E+01  0.12785932923E+02  0.00000000000E+00 0.  1.
</event>
<event>
 8    1  0.6869405E-009  0.1920521E+03  0.7561462E-02  0.1156623E+00
          1   -1    0    0  501    0  0.00000000000E+00  0.00000000000E+00  0.22509652396E+03  0.22509652396E+03  0.00000000000E+00 0. -1.
         -1   -1    0    0    0  501 -0.00000000000E+00 -0.00000000000E+00 -0.19877170392E+03  0.19877170392E+03  0.00000000000E+00 0.  1.
         25    2    1    2    0    0 -0.17896445082E+03  0.14357279125E+02  0.38817867252E+02  0.22223593763E+03  0.12509028353E+03 0.  0.
         23    2    1    2    0    0  0.17896445082E+03 -0.14357279125E+02 -0.12493047213E+02  0.20163229026E+03  0.90912585062E+02 0.  0.
          5    1    3    3  502    0 -0.11502180667E+03 -0.29600748059E+02 -0.25281870573E+02  0.12150253361E+03  0.41800000000E+01 0. -1.
         -5    1    3    3    0  502 -0.63942644155E+02  0.43958027184E+02  0.64099737825E+02  0.10073340402E+03  0.41800000000E+01 0. -1.
        -11    1    4    4    0    0  0.92067303194E+02 -0.34557895349E+02 -0.43023056846E+02  0.10733880877E+03  0.00000000000E+00 0.  1.
         11    1    4    4    0    0  0.86897147631E+02  0.20200616224E+02  0.30530009633E+02  0.94293481484E+02  0.00000000000E+00 0. -1.
</event>
<event>
 8    1  0.6869405E-009  0.1146913E+03  0.7561462E-02  0.1252121E+00
          2   -1    0    0  501    0  0.00000000000E+00  0.00000000000E+00  0.18711951531E+03  0.18711951531E+03  0.00000000000E+00 0. -1.
         -2   -1    0    0    0  501 -0.00000000000E+00 -0.00000000000E+00 -0.94498316184E+02  0.94498316184E+02  0.00000000000E+00 0.  1.
         25    2    1    2    0    0  0.60212226111E+02 -0.37237653088E+02  0.87486866099E+02  0.16828232017E+03  0.12511128071E+03 0.  0.
         23    2    1    2    0    0 -0.60212226111E+02  0.37237653088E+02  0.51343330241E+01  0.11333551132E+03  0.88353957294E+02 0.  0.
          5    1    3    3  502    0  0.57755399374E+02  0.34321753116E+02  0.21080480663E+02  0.70537422400E+02  0.41800000000E+01 0.  1.
         -5    1    3    3    0  502  0.24568267364E+01 -0.71559406204E+02  0.66406385435E+02  0.97744897772E+02  0.41800000000E+01 0.  1.
        -11    1    4    4    0    0  0.63123995560E+01  0.20916060948E+02 -0.29396563046E+02  0.36626300832E+02  0.00000000000E+00 0.  1.
         11    1    4    4    0    0 -0.66524625667E+02  0.16321592140E+02  0.34530896070E+02  0.76709210486E+02  0.00000000000E+00 0. -1.
</event>
<event>
 8    1  0.6869405E-009  0.1044349E+03  0.7561462E-02  0.1271237E+00
         -2   -1    0    0    0  501 -0.00000000000E+00  0.00000000000E+00  0.60374009001E+02  0.60374009001E+02  0.00000000000E+00 0.  1.
          2   -1    0    0  501    0  0.00000000000E+00 -0.00000000000E+00 -0.10110888930E+04  0.10110888930E+04  0.00000000000E+00 0. -1.
         25    2    1    2    0    0 -0.28995645016E+02 -0.16328784893E+02 -0.96425887003E+03  0.97290573222E+03  0.12507205410E+03 0.  0.
         23    2    1    2    0    0  0.28995645016E+02  0.16328784893E+02  0.13543985991E+02  0.98557169818E+02  0.91775266385E+02 0.  0.
          5    1    3    3  502    0 -0.40569357321E+02  0.43355519230E+02 -0.29937811310E+03  0.30523810510E+03  0.41800000000E+01 0. -1.
         -5    1    3    3    0  502  0.11573712305E+02 -0.59684304123E+02 -0.66488075693E+03  0.66766762712E+03  0.41800000000E+01 0. -1.
        -11    1    4    4    0    0  0.52359386802E+02 -0.98934992775E+01  0.28448635422E+02  0.60404565817E+02  0.00000000000E+00 0.  1.
         11    1    4    4    0    0 -0.23363741786E+02  0.26222284171E+02 -0.14904649431E+02  0.38152604001E+02  0.00000000000E+00 0. -1.
</event>
<event>
 8    1  0.6869405E-009  0.1088883E+03  0.7561462E-02  0.1262642E+00
         -2   -1    0    0    0  501 -0.00000000000E+00  0.00000000000E+00  0.12759887467E+03  0.12759887467E+03  0.00000000000E+00 0.  1.
          2   -1    0    0  501    0  0.00000000000E+00 -0.00000000000E+00 -0.10022606155E+03  0.10022606155E+03  0.00000000000E+00 0. -1.
         25    2    1    2    0    0 -0.19978154760E+02  0.16535897332E+02  0.73503853000E+00  0.12775061779E+03  0.12508843869E+03 0.  0.
         23    2    1    2    0    0  0.19978154760E+02 -0.16535897332E+02  0.26637774585E+02  0.10007431843E+03  0.92912515878E+02 0.  0.
          5    1    3    3  502    0 -0.70190860567E+02  0.12966221657E+02  0.19091966989E+02  0.74005779603E+02  0.41800000000E+01 0.  1.
         -5    1    3    3    0  502  0.50212705806E+02  0.35696756759E+01 -0.18356928459E+02  0.53744838183E+02  0.41800000000E+01 0.  1.
        -11    1    4    4    0    0  0.18923828572E+02 -0.54547604189E+02  0.21913730933E+02  0.61755680014E+02  0.00000000000E+00 0.  1.
         11    1    4    4    0    0  0.10543261884E+01  0.38011706857E+02  0.47240436514E+01  0.38318638419E+02  0.00000000000E+00 0. -1.
</event>
<event>
 8    1  0.6869405E-009  0.9272518E+02  0.7561462E-02  0.1296383E+00
         -1   -1    0    0    0  501 -0.00000000000E+00  0.00000000000E+00  0.52012653063E+02  0.52012653063E+02  0.00000000000E+00 0.  1.
          1   -1    0    0  501    0  0.00000000000E+00 -0.00000000000E+00 -0.48569861575E+03  0.48569861575E+03  0.00000000000E+00 0. -1.
         25    2    1    2    0    0  0.25602036319E+02  0.98830616017E+01 -0.42345003507E+03  0.44239067785E+03  0.12508573251E+03 0.  0.
         23    2    1    2    0    0 -0.25602036319E+02 -0.98830616017E+01 -0.10235927621E+02  0.95320590968E+02  0.90708884228E+02 0.  0.
          5    1    3    3  502    0 -0.21635867835E+02 -0.26223839708E+02 -0.33499561509E+02  0.47911309388E+02  0.41800000000E+01 0. -1.
         -5    1    3    3    0  502  0.47237904153E+02  0.36106901310E+02 -0.38995047356E+03  0.39447936846E+03  0.41800000000E+01 0. -1.
        -11    1    4    4    0    0  0.10078088058E+02  0.33753970301E+02 -0.15940999437E+02  0.38665408740E+02  0.00000000000E+00 0. -1.
         11    1    4    4    0    0 -0.35680124377E+02 -0.43637031903E+02  0.57050718163E+01  0.56655182228E+02  0.00000000000E+00 0.  1.
</event>
<event>
 8    1  0.6869405E-009  0.1268942E+03  0.7561462E-02  0.1232138E+00
          1   -1    0    0  501    0  0.00000000000E+00  0.00000000000E+00  0.28961561618E+03  0.28961561618E+03  0.00000000000E+00 0. -1.
         -1   -1    0    0    0  501 -0.00000000000E+00 -0.00000000000E+00 -0.81546389123E+02  0.81546389123E+02  0.00000000000E+00 0.  1.
         25    2    1    2    0    0  0.10162133149E+03  0.12720596210E+02  0.15609788827E+03  0.22472160101E+03  0.12507813020E+03 0.  0.
         23    2    1    2    0    0 -0.10162133149E+03 -0.12720596210E+02  0.51971338779E+02  0.14644040429E+03  0.90857379303E+02 0.  0.
          5    1    3    3  502    0  0.20721328136E+02 -0.44799793457E+02  0.14259101597E+02  0.51547932178E+02  0.41800000000E+01 0.  1.
         -5    1    3    3    0  502  0.80900003351E+02  0.57520389667E+02  0.14183878668E+03  0.17317366883E+03  0.41800000000E+01 0.  1.
        -11    1    4    4    0    0 -0.53623363204E+02  0.47212427059E+01 -0.20654047353E+02  0.57657132135E+02  0.00000000000E+00 0.  1.
         11    1    4    4    0    0 -0.47997968282E+02 -0.17441838916E+02  0.72625386133E+02  0.88783272157E+02  0.00000000000E+00 0. -1.
</event>
<event>
 8    1  0.6869405E-009  0.6593780E+02  0.7561462E-02  0.1374478E+00
          1   -1    0    0  501    0  0.00000000000E+00  0.00000000000E+00  0.22954125871E+03  0.22954125871E+03  0.00000000000E+00 0. -1.
         -1   -1    0    0    0  501 -0.00000000000E+00 -0.00000000000E+00 -0.57257684972E+02  0.57257684972E+02  0.00000000000E+00 0.  1.
         25    2    1    2    0    0  0.23116014406E+02  0.29653105059E+02  0.10648869419E+03  0.16852308547E+03  0.12508609669E+03 0.  0.
         23    2    1    2    0    0 -0.23116014406E+02 -0.29653105059E+02  0.65794879549E+02  0.11827585821E+03  0.90810548390E+02 0.  0.
          5    1    3    3  502    0 -0.19390788525E+02  0.16667401572E+02 -0.21059344626E+02  0.33388221738E+02  0.41800000000E+01 0.  1.
         -5    1    3    3    0  502  0.42506802931E+02  0.12985703487E+02  0.12754803881E+03  0.13513486373E+03  0.41800000000E+01 0.  1.
        -11    1    4    4    0    0  0.12705245866E+01  0.12532777729E+02  0.68331130353E+02  0.69482574259E+02  0.00000000000E+00 0. -1.
         11    1    4    4    0    0 -0.24386538993E+02 -0.42185882787E+02 -0.25362508045E+01  0.48793283951E+02  0.00000000000E+00 0.  1.
</event>
<event>
 8    1  0.6869405E-009  0.6644850E+02  0.7561462E-02  0.1372604E+00
          2   -1    0    0  501    0  0.00000000000E+00  0.00000000000E+00  0.25223542000E+03  0.25223542000E+03  0.00000000000E+00 0. -1.
         -2   -1    0    0    0  501 -0.00000000000E+00 -0.00000000000E+00 -0.62639599484E+02  0.62639599484E+02  0.00000000000E+00 0.  1.
         25    2    1    2    0    0 -0.36804760207E+02 -0.69112112947E+01  0.16977484896E+03  0.21418181362E+03  0.12509194511E+03 0.  0.
         23    2    1    2    0    0  0.36804760207E+02  0.69112112947E+01  0.19820971561E+02  0.10069320587E+03  0.91344926398E+02 0.  0.
          5    1    3    3  502    0 -0.83139049635E+01 -0.21601407261E+02  0.17902059661E+03  0.18055909898E+03  0.41800000000E+01 0.  1.
         -5    1    3    3    0  502 -0.28490855244E+02  0.14690195966E+02 -0.92457476581E+01  0.33622714641E+02  0.41800000000E+01 0.  1.
        -11    1    4    4    0    0  0.11451816612E+02 -0.30090388507E+02 -0.22298078130E+02  0.39163501791E+02  0.00000000000E+00 0.  1.
         11    1    4    4    0    0  0.25352943595E+02  0.37001599802E+02  0.42119049691E+02  0.61529704076E+02  0.00000000000E+00 0. -1.
</event>
<event>
 8    1  0.6869405E-009  0.1059197E+03  0.7561462E-02  0.1268318E+00
         -1   -1    0    0    0  501 -0.00000000000E+00  0.00000000000E+00  0.31103867728E+02  0.31103867728E+02  0.00000000000E+00 0.  1.
          1   -1    0    0  501    0  0.00000000000E+00 -0.00000000000E+00 -0.44364397412E+03  0.44364397412E+03  0.00000000000E+00 0. -1.
         25    2    1    2    0    0 -0.89609217711E+01  0.70266927729E+01 -0.14595149504E+03  0.19256005292E+03  0.12509141676E+03 0.  0.
         23    2    1    2    0    0  0.89609217711E+01 -0.70266927729E+01 -0.26658861135E+03  0.28218778892E+03  0.91819322499E+02 0.  0.
          5    1    3    3  502    0 -0.14878627128E+02  0.64458979928E+02 -0.63317830288E+02  0.91667626079E+02  0.41800000000E+01 0. -1.
         -5    1    3    3    0  502  0.59177053569E+01 -0.57432287155E+02 -0.82633664750E+02  0.10089242684E+03  0.41800000000E+01 0. -1.
        -11    1    4    4    0    0  0.32976771836E+02 -0.36800408459E+02 -0.10374837761E+03  0.11491502687E+03  0.00000000000E+00 0.  1.
         11    1    4    4    0    0 -0.24015850065E+02  0.29773715686E+02 -0.16284023374E+03  0.16727276205E+03  0.00000000000E+00 0. -1.
</event>
<event>
 8    1  0.6869405E-009  0.1075600E+03  0.7561462E-02  0.1265156E+00
         -2   -1    0    0    0  501 -0.00000000000E+00  0.00000000000E+00  0.20917392441E+02  0.20917392441E+02  0.00000000000E+00 0.  1.
          2   -1    0    0  501    0  0.00000000000E+00 -0.00000000000E+00 -0.59514061406E+03  0.59514061406E+03  0.00000000000E+00 0. -1.
         25    2    1    2    0    0 -0.15501590767E+02 -0.80233786851E+00 -0.26065795583E+03  0.28953500151E+03  0.12508798543E+03 0.  0.
         23    2    1    2    0    0  0.15501590767E+02  0.80233786851E+00 -0.31356526579E+03  0.32652300499E+03  0.89739366047E+02 0.  0.
          5    1    3    3  502    0  0.25615421776E+02 -0.52603556101E+02 -0.14176343784E+03  0.15341977921E+03  0.41800000000E+01 0. -1.
         -5    1    3    3    0  502 -0.41117012543E+02  0.51801218232E+02 -0.11889451800E+03  0.13611522230E+03  0.41800000000E+01 0. -1.
        -11    1    4    4    0    0  0.97521502767E+01  0.44786327089E+02 -0.18191394561E+03  0.18759958192E+03  0.00000000000E+00 0. -1.
         11    1    4    4    0    0  0.57494404906E+01 -0.43983989220E+02 -0.13165132017E+03  0.13892342307E+03  0.00000000000E+00 0.  1.
</event>
<event>
 8    1  0.6869405E-009  0.8617368E+02  0.7561462E-02  0.1312391E+00
          2   -1    0    0  501    0  0.00000000000E+00  0.00000000000E+00  0.25918435716E+02  0.25918435716E+02  0.00000000000E+00 0. -1.
         -2   -1    0    0    0  501 -0.00000000000E+00 -0.00000000000E+00 -0.48046526464E+03  0.48046526464E+03  0.00000000000E+00 0.  1.
         25    2    1    2    0    0  0.21755298225E+01  0.14019299424E+02 -0.28059638268E+03  0.30755031901E+03  0.12510633501E+03 0.  0.
         23    2    1    2    0    0 -0.21755298225E+01 -0.14019299424E+02 -0.17395044625E+03  0.19883338135E+03  0.95261125886E+02 0.  0.
          5    1    3    3  502    0  0.44028854016E+02  0.28744510751E+02 -0.24471739955E+03  0.25033750204E+03  0.41800000000E+01 0. -1.
         -5    1    3    3    0  502 -0.41853324194E+02 -0.14725211327E+02 -0.35878983128E+02  0.57212816964E+02  0.41800000000E+01 0. -1.
        -11    1    4    4    0    0  0.26684706848E+02  0.17800797405E+02 -0.17393113023E+02  0.36489208657E+02  0.00000000000E+00 0. -1.
         11    1    4    4    0    0 -0.28860236670E+02 -0.31820096828E+02 -0.15655733322E+03  0.16234417270E+03  0.00000000000E+00 0.  1.
</event>
<event>
 8    1  0.6869405E-009  0.1107610E+03  0.7561462E-02  0.1259167E+00
          2   -1    0    0  501    0  0.00000000000E+00  0.00000000000E+00  0.14163788120E+03  0.14163788120E+03  0.00000000000E+00 0. -1.
         -2   -1    0    0    0  501 -0.00000000000E+00 -0.00000000000E+00 -0.92918860500E+02  0.92918860500E+02  0.00000000000E+00 0.  1.
         25    2    1    2    0    0 -0.42641266378E+02  0.20047377231E+02  0.18969557955E+02  0.13500659756E+03  0.12508701900E+03 0.  0.
         23    2    1    2    0    0  0.42641266378E+02 -0.20047377231E+02  0.29749462746E+02  0.99550144142E+02  0.82492579865E+02 0.  0.
          5    1    3    3  502    0 -0.49046733381E+02  0.64727708878E+02  0.32692975839E+02  0.87644517348E+02  0.41800000000E+01 0.  1.
         -5    1    3    3    0  502  0.64054670031E+01 -0.44680331647E+02 -0.13723417884E+02  0.47362080212E+02  0.41800000000E+01 0.  1.
        -11    1    4    4    0    0  0.51443460087E+02 -0.45040899923E+02  0.23741733974E+02  0.72379432049E+02  0.00000000000E+00 0. -1.
         11    1    4    4    0    0 -0.88021937089E+01  0.24993522692E+02  0.60077287720E+01  0.27170712093E+02  0.00000000000E+00 0.  1.
</event>
<event>
 8    1  0.6869405E-009  0.1092164E+03  0.7561462E-02  0.1262028E+00
          3   -1    0    0  501    0  0.00000000000E+00  0.00000000000E+00  0.31200564172E+03  0.31200564172E+03  0.00000000000E+00 0. -1.
         -3   -1    0    0    0  501 -0.00000000000E+00 -0.00000000000E+00 -0.41876439863E+02  0.41876439863E+02  0.00000000000E+00 0.  1.
         25    2    1    2    0    0  0.33202311015E+02 -0.44813195543E+01  0.17463821893E+03  0.21741330984E+03  0.12509022386E+03 0.  0.
         23    2    1    2    0    0 -0.33202311015E+02  0.44813195543E+01  0.95490982932E+02  0.13646877174E+03  0.91557207025E+02 0.  0.
          5    1    3    3  502    0  0.17105324331E+01  0.54179172069E+02  0.11792431307E+03  0.12985347365E+03  0.41800000000E+01 0. -1.
         -5    1    3    3    0  502  0.31491778582E+02 -0.58660491623E+02  0.56713905862E+02  0.87559836191E+02  0.41800000000E+01 0. -1.
        -11    1    4    4    0    0 -0.55567143582E+02  0.30223541166E+02  0.58523850605E+02  0.86175466208E+02  0.00000000000E+00 0.  1.
         11    1    4    4    0    0  0.22364832567E+02 -0.25742221612E+02  0.36967132327E+02  0.50293305536E+02  0.00000000000E+00 0. -1.
</event>
<event>
 8    1  0.6869405E-009  0.7590075E+02  0.7561462E-02  0.1341104E+00
          1   -1    0    0  501    0  0.00000000000E+00  0.00000000000E+00  0.34832262360E+03  0.34832262360E+03  0.00000000000E+00 0. -1.
         -1   -1    0    0    0  501 -0.00000000000E+00 -0.00000000000E+00 -0.47768122046E+02  0.47768122046E+02  0.00000000000E+00 0.  1.
         25    2    1    2    0    0  0.19481015797E+02 -0.28068580493E+01  0.28221014785E+03  0.30931695183E+03  0.12508805185E+03 0.  0.
         23    2    1    2    0    0 -0.19481015797E+02  0.28068580493E+01  0.18344353705E+02  0.86773793811E+02  0.82497197231E+02 0.  0.
          5    1    3    3  502    0 -0.25833977559E+02 -0.15405834962E+02  0.84600296594E+01  0.31524254935E+02  0.41800000000E+01 0.  1.
         -5    1    3    3    0  502  0.45314993356E+02  0.12598976913E+02  0.27375011819E+03  0.27779269690E+03  0.41800000000E+01 0.  1.
        -11    1    4    4    0    0 -0.17116335098E+02  0.36565361424E+02  0.30729387985E+02  0.50737460216E+02  0.00000000000E+00 0. -1.
         11    1    4    4    0    0 -0.23646806996E+01 -0.33758503374E+02 -0.12385034280E+02  0.36036333595E+02  0.00000000000E+00 0.  1.
</event>
<event>
 8    1  0.6869405E-009  0.1324530E+03  0.7561462E-02  0.1223861E+00
          1   -1    0    0  501    0  0.00000000000E+00  0.00000000000E+00  0.56107341623E+02  0.56107341623E+02  0.00000000000E+00 0.  1.
         -1   -1    0    0    0  501 -0.00000000000E+00 -0.00000000000E+00 -0.47146414821E+03  0.47146414821E+03  0.00000000000E+00 0. -1.
         25    2    1    2    0    0 -0.29468571159E+02  0.99666599559E+02 -0.32012001046E+03  0.35906329472E+03  0.12509116983E+03 0.  0.
         23    2    1    2    0    0  0.29468571159E+02 -0.99666599559E+02 -0.95236796132E+02  0.16850819511E+03  0.92320835825E+02 0.  0.
          5    1    3    3  502    0 -0.33532332209E+02 -0.16456537959E+02 -0.35879576414E+02  0.51962018327E+02  0.41800000000E+01 0. -1.
         -5    1    3    3    0  502  0.40637610501E+01  0.11612313752E+03 -0.28424043404E+03  0.30710127640E+03  0.41800000000E+01 0. -1.
        -11    1    4    4    0    0  0.17243190049E+02 -0.87881949508E+01 -0.71101001315E+02  0.73687939051E+02  0.00000000000E+00 0. -1.
         11    1    4    4    0    0  0.12225381109E+02 -0.90878404608E+02 -0.24135794817E+02  0.94820256058E+02  0.00000000000E+00 0.  1.
</event>
<event>
 8    1  0.6869405E-009  0.1056088E+03  0.7561462E-02  0.1268925E+00
         -1   -1    0    0    0  501 -0.00000000000E+00  0.00000000000E+00  0.39119250338E+03  0.39119250338E+03  0.00000000000E+00 0.  1.
          1   -1    0    0  501    0  0.00000000000E+00 -0.00000000000E+00 -0.48363324428E+02  0.48363324428E+02  0.00000000000E+00 0. -1.
         25    2    1    2    0    0 -0.35687551005E+02  0.73597456651E+02  0.20903341793E+03  0.25696787472E+03  0.12508929572E+03 0.  0.
         23    2    1    2    0    0  0.35687551005E+02 -0.73597456651E+02  0.13379576103E+03  0.18258795309E+03  0.93524692052E+02 0.  0.
          5    1    3    3  502    0  0.62506410661E+01  0.69854363891E+01 -0.15730426731E+02  0.18782586627E+02  0.41800000000E+01 0.  1.
         -5    1    3    3    0  502 -0.41938192071E+02  0.66612020262E+02  0.22476384466E+03  0.23818528809E+03  0.41800000000E+01 0.  1.
        -11    1    4    4    0    0 -0.18050304497E+02  0.11558978095E+02  0.37872842353E+02  0.43517532731E+02  0.00000000000E+00 0.  1.
         11    1    4    4    0    0  0.53737855502E+02 -0.85156434746E+02  0.95922918676E+02  0.13907042036E+03  0.00000000000E+00 0. -1.
</event>
<event>
 8    1  0.6869405E-009  0.1188640E+03  0.7561462E-02  0.1244983E+00
         -1   -1    0    0    0  501 -0.00000000000E+00  0.00000000000E+00  0.51139674149E+02  0.51139674149E+02  0.00000000000E+00 0.  1.
          1   -1    0    0  501    0  0.00000000000E+00 -0.00000000000E+00 -0.57607901944E+03  0.57607901944E+03  0.00000000000E+00 0. -1.
         25    2    1    2    0    0  0.33714162115E+02  0.65212098660E+02 -0.48046734060E+03  0.50188471819E+03  0.12510052929E+03 0.  0.
         23    2    1    2    0    0 -0.33714162115E+02 -0.65212098660E+02 -0.44472004692E+02  0.12533397540E+03  0.91332270581E+02 0.  0.
          5    1    3    3  502    0 -0.22463775684E+02  0.76721717152E+02 -0.35434040918E+03  0.36327047923E+03  0.41800000000E+01 0.  1.
         -5    1    3    3    0  502  0.56177937799E+02 -0.11509618492E+02 -0.12612693141E+03  0.13861423895E+03  0.41800000000E+01 0.  1.
        -11    1    4    4    0    0  0.19482256595E+02 -0.32006636434E+02  0.13604105038E+02  0.39862949862E+02  0.00000000000E+00 0.  1.
         11    1    4    4    0    0 -0.53196418710E+02 -0.33205462227E+02 -0.58076109730E+02  0.85471025538E+02  0.00000000000E+00 0. -1.
</event>
<event>
 8    1  0.6869405E-009  0.1494139E+03  0.7561462E-02  0.1201195E+00
         -1   -1    0    0    0  501 -0.00000000000E+00  0.00000000000E+00  0.60367513691E+02  0.60367513691E+02  0.00000000000E+00 0.  1.
          1   -1    0    0  501    0  0.00000000000E+00 -0.00000000000E+00 -0.59789003997E+03  0.59789003997E+03  0.00000000000E+00 0. -1.
         25    2    1    2    0    0  0.30064514014E+02  0.13680827374E+03 -0.15534901158E+03  0.24372070287E+03  0.12508431894E+03 0.  0.
         23    2    1    2    0    0 -0.30064514014E+02 -0.13680827374E+03 -0.38217351470E+03  0.41453685079E+03  0.78510041131E+02 0.  0.
          5    1    3    3  502    0  0.43985574932E+02  0.41156630399E+02  0.38112078106E+00  0.60383910779E+02  0.41800000000E+01 0.  1.
         -5    1    3    3    0  502 -0.13921060918E+02  0.95651643337E+02 -0.15573013236E+03  0.18333679209E+03  0.41800000000E+01 0.  1.
        -11    1    4    4    0    0 -0.14607124123E+02 -0.10817090648E+03 -0.35723112392E+03  0.37353499030E+03  0.00000000000E+00 0. -1.
         11    1    4    4    0    0 -0.15457389891E+02 -0.28637367257E+02 -0.24942390786E+02  0.41001860492E+02  0.00000000000E+00 0.  1.
</event>
<event>
 8    1  0.6869405E-009  0.7425319E+02  0.7561462E-02  0.1346199E+00
          1   -1    0    0  501    0  0.00000000000E+00  0.00000000000E+00  0.56368318666E+03  0.56368318666E+03  0.00000000000E+00 0. -1.
         -1   -1    0    0    0  501 -0.00000000000E+00 -0.00000000000E+00 -0.27622899390E+02  0.27622899390E+02  0.00000000000E+00 0.  1.
         25    2    1    2    0    0  0.26346541501E+02 -0.35082170720E+02  0.40475961073E+03  0.42591395477E+03  0.12508978952E+03 0.  0.
         23    2    1    2    0    0 -0.26346541501E+02  0.35082170720E+02  0.13130067654E+03  0.16539213127E+03  0.90497461160E+02 0.  0.
          5    1    3    3  502    0 -0.22951502869E+02 -0.61373953421E+01  0.85708747256E+01  0.25600222638E+02  0.41800000000E+01 0. -1.
         -5    1    3    3    0  502  0.49298044371E+02 -0.28944775377E+02  0.39618873600E+03  0.40031373213E+03  0.41800000000E+01 0. -1.
        -11    1    4    4    0    0 -0.58006596549E+01  0.44204631028E+02  0.15152007524E+02  0.47088006846E+02  0.00000000000E+00 0.  1.
         11    1    4    4    0    0 -0.20545881847E+02 -0.91224603083E+01  0.11614866901E+03  0.11830412443E+03  0.00000000000E+00 0. -1.
</event>
<event>
 8    1  0.6869405E-009  0.1358071E+03  0.7561462E-02  0.1219085E+00
          2   -1    0    0  501    0  0.00000000000E+00  0.00000000000E+00  0.47737763706E+02  0.47737763706E+02  0.00000000000E+00 0. -1.
         -2   -1    0    0    0  501 -0.00000000000E+00 -0.00000000000E+00 -0.41255129785E+03  0.41255129785E+03  0.00000000000E+00 0.  1.
         25    2    1    2    0    0 -0.35439467906E+02  0.85901258651E+02 -0.17784093459E+03  0.23644736659E+03  0.12507988259E+03 0.  0.
         23    2    1    2    0    0  0.35439467906E+02 -0.85901258651E+02 -0.18697259956E+03  0.22384169497E+03  0.80693056070E+02 0.  0.
          5    1    3    3  502    0 -0.29455426504E+01 -0.32264830073E+02 -0.45708951957E+02  0.56182525487E+02  0.41800000000E+01 0.  1.
         -5    1    3    3    0  502 -0.32493925255E+02  0.11816608872E+03 -0.13213198263E+03  0.18026484110E+03  0.41800000000E+01 0.  1.
        -11    1    4    4    0    0 -0.88979804709E+01 -0.67883772766E+02 -0.14431460661E+03  0.15973129419E+03  0.00000000000E+00 0.  1.
         11    1    4    4    0    0  0.44337448377E+02 -0.18017485885E+02 -0.42657992947E+02  0.64110400782E+02  0.00000000000E+00 0. -1.
</event>
<event>
 8    1  0.6869405E-009  0.7877738E+02  0.7561462E-02  0.1332557E+00
          2   -1    0    0  501    0  0.00000000000E+00  0.00000000000E+00  0.30766120103E+03  0.30766120103E+03  0.00000000000E+00 0. -1.
         -2   -1    0    0    0  501 -0.00000000000E+00 -0.00000000000E+00 -0.38254445399E+02  0.38254445399E+02  0.00000000000E+00 0.  1.
         25    2    1    2    0    0 -0.10880553715E+02 -0.40253515507E+01  0.14607153449E+03  0.19266042609E+03  0.12508619702E+03 0.  0.
         23    2    1    2    0    0  0.10880553715E+02  0.40253515507E+01  0.12333522114E+03  0.15325522034E+03  0.90227467467E+02 0.  0.
          5    1    3    3  502    0 -0.33398410615E+02  0.47487570401E+02  0.34519780701E+02  0.67672821973E+02  0.41800000000E+01 0. -1.
         -5    1    3    3    0  502  0.22517856899E+02 -0.51512921952E+02  0.11155175379E+03  0.12498760411E+03  0.41800000000E+01 0. -1.
        -11    1    4    4    0    0 -0.40443623793E+01 -0.16840534528E+02 -0.82560856047E+01  0.19186542674E+02  0.00000000000E+00 0.  1.
         11    1    4    4    0    0  0.14924916095E+02  0.20865886079E+02  0.13159130674E+03  0.13406867767E+03  0.00000000000E+00 0. -1.
</event>
<event>
 8    1  0.6869405E-009  0.7441795E+02  0.7561462E-02  0.1345683E+00
         -1   -1    0    0    0  501 -0.00000000000E+00  0.00000000000E+00  0.47562466038E+02  0.47562466038E+02  0.00000000000E+00 0.  1.
          1   -1    0    0  501    0  0.00000000000E+00 -0.00000000000E+00 -0.29178125295E+03  0.29178125295E+03  0.00000000000E+00 0. -1.
         25    2    1    2    0    0  0.43483626312E+02 -0.10343318812E+02 -0.13087578224E+03  0.18647977141E+03  0.12509366397E+03 0.  0.
         23    2    1    2    0    0 -0.43483626312E+02  0.10343318812E+02 -0.11334300467E+03  0.15286394758E+03  0.92319769067E+02 0.  0.
          5    1    3    3  502    0  0.62470067409E+02  0.16496622499E+02 -0.15689246298E+02  0.66620362693E+02  0.41800000000E+01 0. -1.
         -5    1    3    3    0  502 -0.18986441096E+02 -0.26839941311E+02 -0.11518653594E+03  0.11985940872E+03  0.41800000000E+01 0. -1.
        -11    1    4    4    0    0 -0.13037196094E+02  0.15299612163E+02 -0.11969370030E+03  0.12136980064E+03  0.00000000000E+00 0. -1.
         11    1    4    4    0    0 -0.30446430218E+02 -0.49562933514E+01  0.63506956300E+01  0.31494146945E+02  0.00000000000E+00 0.  1.
</event>
<event>
 8    1  0.6869405E-009  0.9409207E+02  0.7561462E-02  0.1293234E+00
         -2   -1    0    0    0  501 -0.00000000000E+00  0.00000000000E+00  0.32277872444E+02  0.32277872444E+02  0.00000000000E+00 0.  1.
          2   -1    0    0  501    0  0.00000000000E+00 -0.00000000000E+00 -0.53910619503E+03  0.53910619503E+03  0.00000000000E+00 0. -1.
         25    2    1    2    0    0 -0.13269644962E+02 -0.27354022210E+02 -0.42758915977E+03  0.44654723282E+03  0.12509042962E+03 0.  0.
         23    2    1    2    0    0  0.13269644962E+02  0.27354022210E+02 -0.79239162814E+02  0.12483683465E+03  0.91548153192E+02 0.  0.
          5    1    3    3  502    0 -0.25738312300E+02  0.40725785583E+02 -0.27117570404E+03  0.27545378050E+03  0.41800000000E+01 0.  1.
         -5    1    3    3    0  502  0.12468667339E+02 -0.68079807793E+02 -0.15641345573E+03  0.17109345233E+03  0.41800000000E+01 0.  1.
        -11    1    4    4    0    0  0.12583939083E+02  0.48105790314E+02 -0.76648546672E+01  0.50311753911E+02  0.00000000000E+00 0.  1.
         11    1    4    4    0    0  0.68570587877E+00 -0.20751768104E+02 -0.71574308147E+02  0.74525080736E+02  0.00000000000E+00 0. -1.
</event>
<event>
 8    1  0.6869405E-009  0.1242969E+03  0.7561462E-02  0.1236172E+00
         -2   -1    0    0    0  501 -0.00000000000E+00  0.00000000000E+00  0.83948243376E+02  0.83948243376E+02  0.00000000000E+00 0.  1.
          2   -1    0    0  501    0  0.00000000000E+00 -0.00000000000E+00 -0.33002856304E+03  0.33002856304E+03  0.00000000000E+00 0. -1.
         25    2    1    2    0    0 -0.64714213971E+02  0.98089073832E+02 -0.18803962107E+03  0.25458420082E+03  0.12507925617E+03 0.  0.
         23    2    1    2    0    0  0.64714213971E+02 -0.98089073832E+02 -0.58040698602E+02  0.15939260560E+03  0.90707685064E+02 0.  0.
          5    1    3    3  502    0 -0.30695790436E+02  0.48977860959E+02 -0.75559183287E+00  0.57957792691E+02  0.41800000000E+01 0. -1.
         -5    1    3    3    0  502 -0.34018423535E+02  0.49111212873E+02 -0.18728402923E+03  0.19662640813E+03  0.41800000000E+01 0. -1.
        -11    1    4    4    0    0  0.29994982001E+02 -0.90325710979E+02 -0.47200243309E+01  0.95292768030E+02  0.00000000000E+00 0.  1.
         11    1    4    4    0    0  0.34719231970E+02 -0.77633628526E+01 -0.53320674271E+02  0.64099837567E+02  0.00000000000E+00 0. -1.
</event>
<event>
 8    1  0.6869405E-009  0.1531638E+03  0.7561462E-02  0.1196638E+00
          1   -1    0    0  501    0  0.00000000000E+00  0.00000000000E+00  0.20482775173E+03  0.20482775173E+03  0.00000000000E+00 0. -1.
         -1   -1    0    0    0  501 -0.00000000000E+00 -0.00000000000E+00 -0.13798904639E+03  0.13798904639E+03  0.00000000000E+00 0.  1.
         25    2    1    2    0    0  0.12137380896E+03 -0.31681641044E+02  0.50377606589E+02  0.18417625593E+03  0.12509061565E+03 0.  0.
         23    2    1    2    0    0 -0.12137380896E+03  0.31681641044E+02  0.16461098751E+02  0.15864054219E+03  0.95710636679E+02 0.  0.
          5    1    3    3  502    0  0.19103122277E+02 -0.53939440805E+02 -0.16743520962E+02  0.59767971768E+02  0.41800000000E+01 0.  1.
         -5    1    3    3    0  502  0.10227068668E+03  0.22257799761E+02  0.67121127551E+02  0.12440828416E+03  0.41800000000E+01 0.  1.
        -11    1    4    4    0    0 -0.90237058921E+02  0.54665613704E+02 -0.17749731204E+02  0.10698649019E+03  0.00000000000E+00 0.  1.
         11    1    4    4    0    0 -0.31136750039E+02 -0.22983972660E+02  0.34210829955E+02  0.51654052004E+02  0.00000000000E+00 0. -1.
</event>
<event>
 8    1  0.6869405E-009  0.9759838E+02  0.7561462E-02  0.1285429E+00
          2   -1    0    0  501    0  0.00000000000E+00  0.00000000000E+00  0.25116854520E+03  0.25116854520E+03  0.00000000000E+00 0. -1.
         -2   -1    0    0    0  501 -0.00000000000E+00 -0.00000000000E+00 -0.47138950235E+02  0.47138950235E+02  0.00000000000E+00 0.  1.
         25    2    1    2    0    0 -0.84984532889E+01  0.35641006703E+01  0.12973892918E+03  0.18045585974E+03  0.12508877267E+03 0.  0.
         23    2    1    2    0    0  0.84984532889E+01 -0.35641006703E+01  0.74290665789E+02  0.11785163570E+03  0.91021857216E+02 0.  0.
          5    1    3    3  502    0  0.49185905809E+02  0.10741950705E+02  0.16577571607E+02  0.53168892368E+02  0.41800000000E+01 0.  1.
         -5    1    3    3    0  502 -0.57684359098E+02 -0.71778500350E+01  0.11316135757E+03  0.12728696737E+03  0.41800000000E+01 0.  1.
        -11    1    4    4    0    0  0.29678193503E+02  0.32851489409E+02  0.18595630872E+02  0.48018881843E+02  0.00000000000E+00 0. -1.
         11    1    4    4    0    0 -0.21179740214E+02 -0.36415590079E+02  0.55695034918E+02  0.69832753854E+02  0.00000000000E+00 0.  1.
</event>
<event>
 8    1  0.6869405E-009  0.9841679E+02  0.7561462E-02  0.1283661E+00
         -1   -1    0    0    0  501 -0.00000000000E+00  0.00000000000E+00  0.15827934937E+03  0.15827934937E+03  0.00000000000E+00 0.  1.
          1   -1    0    0  501    0  0.00000000000E+00 -0.00000000000E+00 -0.76684247871E+02  0.76684247871E+02  0.00000000000E+00 0. -1.
         25    2    1    2    0    0  0.13028005597E+01 -0.16995586736E+02  0.32983633748E+02  0.13052980834E+03  0.12513817768E+03 0.  0.
         23    2    1    2    0    0 -0.13028005597E+01  0.16995586736E+02  0.48611467752E+02  0.10443378890E+03  0.90844890935E+02 0.  0.
          5    1    3    3  502    0 -0.32316559996E+02  0.31469540324E+02 -0.21482118900E+02  0.50136272803E+02  0.41800000000E+01 0. -1.
         -5    1    3    3    0  502  0.33619360556E+02 -0.48465127060E+02  0.54465752648E+02  0.80393535540E+02  0.41800000000E+01 0. -1.
        -11    1    4    4    0    0  0.71816321263E+01  0.53979965342E+02  0.27347920784E+02  0.60937027082E+02  0.00000000000E+00 0.  1.
         11    1    4    4    0    0 -0.84844326860E+01 -0.36984378606E+02  0.21263546968E+02  0.43496761817E+02  0.00000000000E+00 0. -1.
</event>
<event>
 8    1  0.6869405E-009  0.1064318E+03  0.7561462E-02  0.1267324E+00
         -2   -1    0    0    0  501 -0.00000000000E+00  0.00000000000E+00  0.70494278340E+02  0.70494278340E+02  0.00000000000E+00 0. -1.
          2   -1    0    0  501    0  0.00000000000E+00 -0.00000000000E+00 -0.36363943546E+03  0.36363943546E+03  0.00000000000E+00 0.  1.
         25    2    1    2    0    0 -0.35366660364E+02 -0.65644254902E+02 -0.27929112071E+03  0.31497792423E+03  0.12509034246E+03 0.  0.
         23    2    1    2    0    0  0.35366660364E+02  0.65644254902E+02 -0.13854036413E+02  0.11915578958E+03  0.91903204501E+02 0.  0.
          5    1    3    3  502    0 -0.28986605244E+02 -0.48284264640E+00 -0.12668103324E+01  0.29317803959E+02  0.41800000000E+01 0. -1.
         -5    1    3    3    0  502 -0.63800551204E+01 -0.65161412255E+02 -0.27802431038E+03  0.28566012027E+03  0.41800000000E+01 0. -1.
        -11    1    4    4    0    0  0.11390314707E+02  0.85855869657E+02 -0.59277082561E+01  0.86810755952E+02  0.00000000000E+00 0. -1.
         11    1    4    4    0    0  0.23976345657E+02 -0.20211614755E+02 -0.79263281569E+01  0.32345033624E+02  0.00000000000E+00 0.  1.
</event>
<event>
 8    1  0.6869405E-009  0.8733604E+02  0.7561462E-02  0.1309434E+00
         -3   -1    0    0    0  501 -0.00000000000E+00  0.00000000000E+00  0.24828772664E+02  0.24828772664E+02  0.00000000000E+00 0.  1.
          3   -1    0    0  501    0  0.00000000000E+00 -0.00000000000E+00 -0.50470548027E+03  0.50470548027E+03  0.00000000000E+00 0. -1.
         25    2    1    2    0    0 -0.21918140451E+02 -0.13335023182E+02 -0.25648906038E+03  0.28651775417E+03  0.12509019799E+03 0.  0.
         23    2    1    2    0    0  0.21918140451E+02  0.13335023182E+02 -0.22338764722E+03  0.24301649876E+03  0.92177817374E+02 0.  0.
          5    1    3    3  502    0 -0.44550097705E+02  0.11136983872E+02 -0.24705440830E+02  0.52312281750E+02  0.41800000000E+01 0.  1.
         -5    1    3    3    0  502  0.22631957254E+02 -0.24472007054E+02 -0.23178361955E+03  0.23420547242E+03  0.41800000000E+01 0.  1.
        -11    1    4    4    0    0 -0.26468016252E+02 -0.22513695667E+02 -0.67895555608E+02  0.76270760113E+02  0.00000000000E+00 0.  1.
         11    1    4    4    0    0  0.48386156703E+02  0.35848718849E+02 -0.15549209161E+03  0.16674573865E+03  0.00000000000E+00 0. -1.
</event>
<event>
 8    1  0.6869405E-009  0.1051838E+03  0.7561462E-02  0.1269758E+00
          2   -1    0    0  501    0  0.00000000000E+00  0.00000000000E+00  0.11120215503E+03  0.11120215503E+03  0.00000000000E+00 0. -1.
         -2   -1    0    0    0  501 -0.00000000000E+00 -0.00000000000E+00 -0.18595793683E+03  0.18595793683E+03  0.00000000000E+00 0.  1.
         25    2    1    2    0    0 -0.68492483993E+02  0.21996982599E+02  0.22336514635E+02  0.14601853582E+03  0.12508958914E+03 0.  0.
         23    2    1    2    0    0  0.68492483993E+02 -0.21996982599E+02 -0.97092296436E+02  0.15114155603E+03  0.90784185440E+02 0.  0.
          5    1    3    3  502    0 -0.91545442597E+02  0.45511809715E+02  0.38213212130E+02  0.10922277631E+03  0.41800000000E+01 0.  1.
         -5    1    3    3    0  502  0.23052958604E+02 -0.23514827116E+02 -0.15876697495E+02  0.36795759511E+02  0.41800000000E+01 0.  1.
        -11    1    4    4    0    0  0.20298071785E+02  0.30713247284E+01 -0.94555216265E+02  0.96758119436E+02  0.00000000000E+00 0.  1.
         11    1    4    4    0    0  0.48194412208E+02 -0.25068307328E+02 -0.25370801710E+01  0.54383436598E+02  0.00000000000E+00 0. -1.
</event>
<event>
 8    1  0.6869405E-009  0.8931595E+02  0.7561462E-02  0.1304517E+00
          1   -1    0    0  501    0  0.00000000000E+00  0.00000000000E+00  0.17929308667E+02  0.17929308667E+02  0.00000000000E+00 0. -1.
         -1   -1    0    0    0  501 -0.00000000000E+00 -0.00000000000E+00 -0.66524477273E+03  0.66524477273E+03  0.00000000000E+00 0.  1.
         25    2    1    2    0    0  0.22226793213E+02  0.20557305410E+02 -0.43871512375E+03  0.45720406691E+03  0.12509182968E+03 0.  0.
         23    2    1    2    0    0 -0.22226793213E+02 -0.20557305410E+02 -0.20860034032E+03  0.22597001449E+03  0.81435326029E+02 0.  0.
          5    1    3    3  502    0  0.65793639914E+02  0.10366556911E+02 -0.36359435430E+03  0.36966822346E+03  0.41800000000E+01 0.  1.
         -5    1    3    3    0  502 -0.43566846701E+02  0.10190748499E+02 -0.75120769441E+02  0.87535843446E+02  0.41800000000E+01 0.  1.
        -11    1    4    4    0    0 -0.33880905387E+02  0.91094511882E+01 -0.17921742500E+03  0.18261923029E+03  0.00000000000E+00 0.  1.
         11    1    4    4    0    0  0.11654112174E+02 -0.29666756598E+02 -0.29382915323E+02  0.43350784197E+02  0.00000000000E+00 0. -1.
</event>
<event>
 8    1  0.6869405E-009  0.1400211E+03  0.7561462E-02  0.1213301E+00
          1   -1    0    0  501    0  0.00000000000E+00  0.00000000000E+00  0.19277650707E+04  0.19277650707E+04  0.00000000000E+00 0. -1.
         -1   -1    0    0    0  501 -0.00000000000E+00 -0.00000000000E+00 -0.20117615058E+02  0.20117615058E+02  0.00000000000E+00 0.  1.
         25    2    1    2    0    0 -0.20875914135E+02  0.13218918688E+03  0.14976841797E+04  0.15088478091E+04  0.12511604276E+03 0.  0.
         23    2    1    2    0    0  0.20875914135E+02 -0.13218918688E+03  0.40996327596E+03  0.43903487662E+03  0.82291860673E+02 0.  0.
          5    1    3    3  502    0 -0.71679106387E+01  0.45469504868E+02  0.11246085060E+04  0.11255579146E+04  0.41800000000E+01 0. -1.
         -5    1    3    3    0  502 -0.13708003497E+02  0.86719682013E+02  0.37307567366E+03  0.38328989458E+03  0.41800000000E+01 0. -1.
        -11    1    4    4    0    0 -0.14513653574E+02 -0.88592338351E+02  0.32516607860E+03  0.33733103507E+03  0.00000000000E+00 0. -1.
         11    1    4    4    0    0  0.35389567710E+02 -0.43596848530E+02  0.84797197370E+02  0.10170384155E+03  0.00000000000E+00 0.  1.
</event>
<event>
 8    1  0.6869405E-009  0.1151211E+03  0.7561462E-02  0.1251370E+00
          1   -1    0    0  501    0  0.00000000000E+00  0.00000000000E+00  0.35412243849E+03  0.35412243849E+03  0.00000000000E+00 0.  1.
         -1   -1    0    0    0  501 -0.00000000000E+00 -0.00000000000E+00 -0.65112452575E+02  0.65112452575E+02  0.00000000000E+00 0. -1.
         25    2    1    2    0    0  0.82530472781E+02 -0.33438066035E+02  0.77557221458E+02  0.17202451115E+03  0.12509167293E+03 0.  0.
         23    2    1    2    0    0 -0.82530472781E+02  0.33438066035E+02  0.21145276446E+03  0.24721037992E+03  0.92039758503E+02 0.  0.
          5    1    3    3  502    0  0.10631651963E+03 -0.11234892646E+02  0.86987304349E+02  0.13789013263E+03  0.41800000000E+01 0.  1.
         -5    1    3    3    0  502 -0.23786046850E+02 -0.22203173389E+02 -0.94300828908E+01  0.34134378515E+02  0.41800000000E+01 0.  1.
        -11    1    4    4    0    0 -0.32975870383E+02  0.21839558752E+02  0.11949512567E+02  0.41317855759E+02  0.00000000000E+00 0. -1.
         11    1    4    4    0    0 -0.49554602398E+02  0.11598507283E+02  0.19950325189E+03  0.20589252416E+03  0.00000000000E+00 0.  1.
</event>
<event>
 8    1  0.6869405E-009  0.1530781E+03  0.7561462E-02  0.1196741E+00
         -1   -1    0    0    0  501 -0.00000000000E+00  0.00000000000E+00  0.48151049443E+02  0.48151049443E+02  0.00000000000E+00 0.  1.
          1   -1    0    0  501    0  0.00000000000E+00 -0.00000000000E+00 -0.63632491088E+03  0.63632491088E+03  0.00000000000E+00 0. -1.
         25    2    1    2    0    0  0.57154518340E+02  0.10890647551E+03 -0.19314988720E+03  0.26092569748E+03  0.12509229114E+03 0.  0.
         23    2    1    2    0    0 -0.57154518340E+02 -0.10890647551E+03 -0.39502397423E+03  0.42355026284E+03  0.90684207901E+02 0.  0.
          5    1    3    3  502    0  0.49103261664E+02  0.46433658602E+00 -0.12021224255E+03  0.12992229051E+03  0.41800000000E+01 0.  1.
         -5    1    3    3    0  502  0.80512566769E+01  0.10844213892E+03 -0.72937644657E+02  0.13100340696E+03  0.41800000000E+01 0.  1.
        -11    1    4    4    0    0 -0.78708322845E+02 -0.87000041215E+02 -0.34914896931E+03  0.36833274362E+03  0.00000000000E+00 0.  1.
         11    1    4    4    0    0  0.21553804505E+02 -0.21906434292E+02 -0.45875004925E+02  0.55217519221E+02  0.00000000000E+00 0. -1.
</event>
<event>
 8    1  0.6869405E-009  0.9505543E+02  0.7561462E-02  0.1291051E+00
         -2   -1    0    0    0  501 -0.00000000000E+00  0.00000000000E+00  0.90023449980E+02  0.90023449980E+02  0.00000000000E+00 0.  1.
          2   -1    0    0  501    0  0.00000000000E+00 -0.00000000000E+00 -0.16668887527E+03  0.16668887527E+03  0.00000000000E+00 0. -1.
         25    2    1    2    0    0 -0.45177450578E+01 -0.47792115730E+02 -0.71192345611E+02  0.15172107707E+03  0.12508572583E+03 0.  0.
         23    2    1    2    0    0  0.45177450578E+01  0.47792115730E+02 -0.54730796760E+01  0.10499124818E+03  0.93213256818E+02 0.  0.
          5    1    3    3  502    0 -0.57750111669E+02 -0.29820724082E+02 -0.57716009476E+01  0.65384514681E+02  0.41800000000E+01 0.  1.
         -5    1    3    3    0  502  0.53232366611E+02 -0.17971391648E+02 -0.65420744663E+02  0.86336562389E+02  0.41800000000E+01 0.  1.
        -11    1    4    4    0    0  0.25794234004E+02  0.36089009689E+02 -0.42027100928E+02  0.61106761824E+02  0.00000000000E+00 0. -1.
         11    1    4    4    0    0 -0.21276488947E+02  0.11703106041E+02  0.36554021252E+02  0.43884486354E+02  0.00000000000E+00 0.  1.
</event>
<event>
 8    1  0.6869405E-009  0.2042211E+03  0.7561462E-02  0.1146226E+00
          2   -1    0    0  501    0  0.00000000000E+00  0.00000000000E+00  0.13156178457E+04  0.13156178457E+04  0.00000000000E+00 0. -1.
         -2   -1    0    0    0  501 -0.00000000000E+00 -0.00000000000E+00 -0.32886124274E+02  0.32886124274E+02  0.00000000000E+00 0.  1.
         25    2    1    2    0    0  0.17375050705E+03  0.19393893778E+02  0.57540448080E+03  0.61425036506E+03  0.12509129720E+03 0.  0.
         23    2    1    2    0    0 -0.17375050705E+03 -0.19393893778E+02  0.70732724066E+03  0.73425360495E+03  0.90835946547E+02 0.  0.
          5    1    3    3  502    0  0.12786354048E+03 -0.45115250579E+02  0.36912521413E+03  0.39326246570E+03  0.41800000000E+01 0. -1.
         -5    1    3    3    0  502  0.45886966569E+02  0.64509144357E+02  0.20627926667E+03  0.22098789936E+03  0.41800000000E+01 0. -1.
        -11    1    4    4    0    0 -0.11749838434E+03  0.27043236917E+02  0.37073427334E+03  0.38984754510E+03  0.00000000000E+00 0.  1.
         11    1    4    4    0    0 -0.56252122708E+02 -0.46437130696E+02  0.33659296732E+03  0.34440605986E+03  0.00000000000E+00 0. -1.
</event>
<event>
 8    1  0.6869405E-009  0.1543627E+03  0.7561462E-02  0.1195212E+00
          3   -1    0    0  501    0  0.00000000000E+00  0.00000000000E+00  0.25643408940E+03  0.25643408940E+03  0.00000000000E+00 0. -1.
         -3   -1    0    0    0  501 -0.00000000000E+00 -0.00000000000E+00 -0.11186367056E+03  0.11186367056E+03  0.00000000000E+00 0.  1.
         25    2    1    2    0    0  0.49646288211E+02  0.10236012105E+03  0.86256832384E+01  0.16931087521E+03  0.12509764882E+03 0.  0.
         23    2    1    2    0    0 -0.49646288211E+02 -0.10236012105E+03  0.13594473560E+03  0.19898688475E+03  0.90401663974E+02 0.  0.
          5    1    3    3  502    0 -0.38284282021E+02  0.20781855696E+02  0.21218889830E+02  0.48634200535E+02  0.41800000000E+01 0.  1.
         -5    1    3    3    0  502  0.87930570232E+02  0.81578265355E+02 -0.12593206592E+02  0.12067667468E+03  0.41800000000E+01 0.  1.
        -11    1    4    4    0    0 -0.62626429124E+02 -0.26531009292E+02  0.56797537255E+02  0.88611084618E+02  0.00000000000E+00 0.  1.
         11    1    4    4    0    0  0.12980140913E+02 -0.75829111759E+02  0.79147198344E+02  0.11037580013E+03  0.00000000000E+00 0. -1.
</event>
<event>
 8    1  0.6869405E-009  0.1120367E+03  0.7561462E-02  0.1256844E+00
          4   -1    0    0  501    0  0.00000000000E+00  0.00000000000E+00  0.28422003881E+03  0.28422003881E+03  0.00000000000E+00 0. -1.
         -4   -1    0    0    0  501 -0.00000000000E+00 -0.00000000000E+00 -0.48036725023E+02  0.48036725023E+02  0.00000000000E+00 0.  1.
         25    2    1    2    0    0 -0.27638556724E+02  0.25212009456E+02  0.16291830308E+03  0.20878028723E+03  0.12508916668E+03 0.  0.
         23    2    1    2    0    0  0.27638556724E+02 -0.25212009456E+02  0.73265010714E+02  0.12347647661E+03  0.92082263450E+02 0.  0.
          5    1    3    3  502    0 -0.66103360680E+02 -0.19669154106E+02  0.68409394568E+02  0.97230898286E+02  0.41800000000E+01 0. -1.
         -5    1    3    3    0  502  0.38464803956E+02  0.44881163561E+02  0.94508908509E+02  0.11154938894E+03  0.41800000000E+01 0. -1.
        -11    1    4    4    0    0  0.59859304404E+02 -0.19811265948E+02  0.63240757375E+02  0.89302944943E+02  0.00000000000E+00 0. -1.
         11    1    4    4    0    0 -0.32220747679E+02 -0.54007435073E+01  0.10024253339E+02  0.34173531665E+02  0.00000000000E+00 0.  1.
</event>
<event>
 8    1  0.6869405E-009  0.8861263E+02  0.7561462E-02  0.1306247E+00
         -2   -1    0    0    0  501 -0.00000000000E+00  0.00000000000E+00  0.46376873904E+02  0.46376873904E+02  0.00000000000E+00 0. -1.
          2   -1    0    0  501    0  0.00000000000E+00 -0.00000000000E+00 -0.37332425113E+03  0.37332425113E+03  0.00000000000E+00 0.  1.
         25    2    1    2    0    0  0.46212066470E+02  0.36164651822E+02 -0.25189346062E+03  0.28730354196E+03  0.12509825175E+03 0.  0.
         23    2    1    2    0    0 -0.46212066470E+02 -0.36164651822E+02 -0.75053916606E+02  0.13239758307E+03  0.91937981689E+02 0.  0.
          5    1    3    3  502    0  0.35917771971E+02  0.56949480171E+01 -0.34677807560E+01  0.36769779434E+02  0.41800000000E+01 0. -1.
         -5    1    3    3    0  502  0.10294294499E+02  0.30469703804E+02 -0.24842567987E+03  0.25053376253E+03  0.41800000000E+01 0. -1.
        -11    1    4    4    0    0 -0.64740438874E+02  0.30535670731E+01 -0.36606594483E+02  0.74435821061E+02  0.00000000000E+00 0. -1.
         11    1    4    4    0    0  0.18528372403E+02 -0.39218218895E+02 -0.38447322124E+02  0.57961762013E+02  0.00000000000E+00 0.  1.
</event>
<event>
 8    1  0.6869405E-009  0.2031687E+03  0.7561462E-02  0.1147093E+00
         -1   -1    0    0    0  501 -0.00000000000E+00  0.00000000000E+00  0.45830761703E+03  0.45830761703E+03  0.00000000000E+00 0.  1.
          1   -1    0    0  501    0  0.00000000000E+00 -0.00000000000E+00 -0.97727999506E+02  0.97727999506E+02  0.00000000000E+00 0. -1.
         25    2    1    2    0    0 -0.19707576497E+02  0.17559773965E+03  0.13244497466E+03  0.25379697988E+03  0.12509308911E+03 0.  0.
         23    2    1    2    0    0  0.19707576497E+02 -0.17559773965E+03  0.22813464286E+03  0.30223863666E+03  0.89887838303E+02 0.  0.
          5    1    3    3  502    0  0.23721333280E+02 -0.75559854030E+01  0.30832417578E+02  0.39848524963E+02  0.41800000000E+01 0.  1.
         -5    1    3    3    0  502 -0.43428909777E+02  0.18315372505E+03  0.10161255708E+03  0.21394845491E+03  0.41800000000E+01 0.  1.
        -11    1    4    4    0    0  0.49235009947E+02 -0.12313358760E+03  0.18730090162E+03  0.22949421419E+03  0.00000000000E+00 0.  1.
         11    1    4    4    0    0 -0.29527433450E+02 -0.52464152046E+02  0.40833741242E+02  0.72744422466E+02  0.00000000000E+00 0. -1.
</event>
<event>
 8    1  0.6869405E-009  0.1782558E+03  0.7561462E-02  0.1169502E+00
          1   -1    0    0  501    0  0.00000000000E+00  0.00000000000E+00  0.69873783159E+03  0.69873783159E+03  0.00000000000E+00 0. -1.
         -1   -1    0    0    0  501 -0.00000000000E+00 -0.00000000000E+00 -0.75474533050E+02  0.75474533050E+02  0.00000000000E+00 0.  1.
         25    2    1    2    0    0 -0.15138014849E+02  0.16832562297E+03  0.50665595425E+03  0.54855271543E+03  0.12508857176E+03 0.  0.
         23    2    1    2    0    0  0.15138014849E+02 -0.16832562297E+03  0.11660734429E+03  0.22565964921E+03  0.93607316487E+02 0.  0.
          5    1    3    3  502    0 -0.48615708139E+02  0.98298284667E+02  0.41045637041E+03  0.42487403340E+03  0.41800000000E+01 0.  1.
         -5    1    3    3    0  502  0.33477693289E+02  0.70027338299E+02  0.96199583838E+02  0.12367868203E+03  0.41800000000E+01 0.  1.
        -11    1    4    4    0    0  0.10747835047E+02 -0.13448000931E+03  0.13152531080E+03  0.18841256923E+03  0.00000000000E+00 0. -1.
         11    1    4    4    0    0  0.43901798027E+01 -0.33845613655E+02 -0.14917966512E+02  0.37247079983E+02  0.00000000000E+00 0.  1.
</event>
<event>
 8    1  0.6869405E-009  0.1026666E+03  0.7561462E-02  0.1274786E+00
         -2   -1    0    0    0  501 -0.00000000000E+00  0.00000000000E+00  0.51483471754E+02  0.51483471754E+02  0.00000000000E+00 0.  1.
          2   -1    0    0  501    0  0.00000000000E+00 -0.00000000000E+00 -0.23702679345E+03  0.23702679345E+03  0.00000000000E+00 0. -1.
         25    2    1    2    0    0 -0.14995725042E+02  0.17224036612E+02 -0.12005099234E+03  0.17487459157E+03  0.12508933931E+03 0.  0.
         23    2    1    2    0    0  0.14995725042E+02 -0.17224036612E+02 -0.65492329353E+02  0.11363567363E+03  0.90012676387E+02 0.  0.
          5    1    3    3  502    0 -0.65572343049E+02 -0.77419273697E+01 -0.41563392733E+02  0.78132308476E+02  0.41800000000E+01 0.  1.
         -5    1    3    3    0  502  0.50576618007E+02  0.24965963982E+02 -0.78487599611E+02  0.96742283099E+02  0.41800000000E+01 0.  1.
        -11    1    4    4    0    0  0.42833803444E+02  0.96664061185E+01 -0.84732631303E+01  0.44721027636E+02  0.00000000000E+00 0.  1.
         11    1    4    4    0    0 -0.27838078403E+02 -0.26890442731E+02 -0.57019066223E+02  0.68914645993E+02  0.00000000000E+00 0. -1.
</event>
<event>
 8    1  0.6869405E-009  0.1356178E+03  0.7561462E-02  0.1219350E+00
         -1   -1    0    0    0  501 -0.00000000000E+00  0.00000000000E+00  0.39600313256E+03  0.39600313256E+03  0.00000000000E+00 0.  1.
          1   -1    0    0  501    0  0.00000000000E+00 -0.00000000000E+00 -0.61643541945E+02  0.61643541945E+02  0.00000000000E+00 0. -1.
         25    2    1    2    0    0 -0.78940451245E+01 -0.99142199493E+02  0.10327094685E+03  0.19027223503E+03  0.12508854181E+03 0.  0.
         23    2    1    2    0    0  0.78940451245E+01  0.99142199493E+02  0.23108864376E+03  0.26737443947E+03  0.90529762719E+02 0.  0.
          5    1    3    3  502    0 -0.24751176699E+02  0.16310524689E+02  0.57582999561E+02  0.64899369812E+02  0.41800000000E+01 0.  1.
         -5    1    3    3    0  502  0.16857131575E+02 -0.11545272418E+03  0.45687947292E+02  0.12537286522E+03  0.41800000000E+01 0.  1.
        -11    1    4    4    0    0 -0.18080964774E+02  0.96793200197E+02  0.21564874707E+03  0.23706587060E+03  0.00000000000E+00 0.  1.
         11    1    4    4    0    0  0.25975009899E+02  0.23489992959E+01  0.15439896688E+02  0.30308568866E+02  0.00000000000E+00 0. -1.
</event>
<event>
 8    1  0.6869405E-009  0.1847316E+03  0.7561462E-02  0.1163301E+00
          2   -1    0    0  501    0  0.00000000000E+00  0.00000000000E+00  0.51426874182E+03  0.51426874182E+03  0.00000000000E+00 0. -1.
         -2   -1    0    0    0  501 -0.00000000000E+00 -0.00000000000E+00 -0.10891413843E+03  0.10891413843E+03  0.00000000000E+00 0.  1.
         25    2    1    2    0    0 -0.14845467846E+03 -0.79690711173E+02  0.37419327622E+03  0.42902396239E+03  0.12510616027E+03 0.  0.
         23    2    1    2    0    0  0.14845467846E+03  0.79690711173E+02  0.31161327170E+02  0.19415891785E+03  0.91308576081E+02 0.  0.
          5    1    3    3  502    0 -0.60442433336E+02  0.23071354506E+02  0.18771013936E+03  0.19859039243E+03  0.41800000000E+01 0.  1.
         -5    1    3    3    0  502 -0.88012245129E+02 -0.10276206568E+03  0.18648313686E+03  0.23043356997E+03  0.41800000000E+01 0.  1.
        -11    1    4    4    0    0  0.10708510681E+03  0.49038765553E+02  0.63052099032E+02  0.13359486450E+03  0.00000000000E+00 0. -1.
         11    1    4    4    0    0  0.41369571654E+02  0.30651945620E+02 -0.31890771862E+02  0.60564053357E+02  0.00000000000E+00 0.  1.
</event>
<event>
 8    1  0.6869405E-009  0.1692094E+03  0.7561462E-02  0.1178675E+00
         -2   -1    0    0    0  501 -0.00000000000E+00  0.00000000000E+00  0.77394165723E+02  0.77394165723E+02  0.00000000000E+00 0.  1.
          2   -1    0    0  501    0  0.00000000000E+00 -0.00000000000E+00 -0.77398243664E+03  0.77398243664E+03  0.00000000000E+00 0. -1.
         25    2    1    2    0    0 -0.10107660347E+02 -0.13429298003E+03 -0.58658527531E+02  0.19293823751E+03  0.12509025284E+03 0.  0.
         23    2    1    2    0    0  0.10107660347E+02  0.13429298003E+03 -0.63792974338E+03  0.65843836485E+03  0.91923628811E+02 0.  0.
          5    1    3    3  502    0 -0.66834451514E+02 -0.64712229053E+02 -0.20799652222E+02  0.95418103265E+02  0.41800000000E+01 0. -1.
         -5    1    3    3    0  502  0.56726791166E+02 -0.69580750980E+02 -0.37858875309E+02  0.97520134242E+02  0.41800000000E+01 0. -1.
        -11    1    4    4    0    0 -0.33992760150E+02  0.63255606902E+02 -0.39622999462E+03  0.40268472554E+03  0.00000000000E+00 0. -1.
         11    1    4    4    0    0  0.44100420497E+02  0.71037373130E+02 -0.24169974876E+03  0.25575363931E+03  0.00000000000E+00 0.  1.
</event>
<event>
 8    1  0.6869405E-009  0.1014114E+03  0.7561462E-02  0.1277356E+00
         -2   -1    0    0    0  501 -0.00000000000E+00  0.00000000000E+00  0.17463677583E+02  0.17463677583E+02  0.00000000000E+00 0.  1.
          2   -1    0    0  501    0  0.00000000000E+00 -0.00000000000E+00 -0.69396779335E+03  0.69396779335E+03  0.00000000000E+00 0. -1.
         25    2    1    2    0    0  0.14064523747E+01  0.15056406142E+02 -0.43289720293E+03  0.45085866189E+03  0.12507945966E+03 0.  0.
         23    2    1    2    0    0 -0.14064523747E+01 -0.15056406142E+02 -0.24360691285E+03  0.26057280904E+03  0.91242464637E+02 0.  0.
          5    1    3    3  502    0  0.56599134276E+02  0.10591500952E+02 -0.31856756311E+03  0.32375670891E+03  0.41800000000E+01 0. -1.
         -5    1    3    3    0  502 -0.55192681902E+02  0.44649051906E+01 -0.11432963981E+03  0.12710195299E+03  0.41800000000E+01 0. -1.
        -11    1    4    4    0    0 -0.22940750174E+02  0.31088760237E+02 -0.73900709640E+02  0.83391270028E+02  0.00000000000E+00 0.  1.
         11    1    4    4    0    0  0.21534297799E+02 -0.46145166379E+02 -0.16970620321E+03  0.17718153902E+03  0.00000000000E+00 0. -1.
</event>
<event>
 8    1  0.6869405E-009  0.1036789E+03  0.7561462E-02  0.1272745E+00
         -2   -1    0    0    0  501 -0.00000000000E+00  0.00000000000E+00  0.70578170897E+02  0.70578170897E+02  0.00000000000E+00 0.  1.
          2   -1    0    0  501    0  0.00000000000E+00 -0.00000000000E+00 -0.24038914308E+03  0.24038914308E+03  0.00000000000E+00 0. -1.
         25    2    1    2    0    0  0.40490778281E+02  0.37505976000E+00 -0.16505902531E+03  0.21102394473E+03  0.12508788757E+03 0.  0.
         23    2    1    2    0    0 -0.40490778281E+02 -0.37505976000E+00 -0.47519468689E+01  0.99943369246E+02  0.91249395952E+02 0.  0.
          5    1    3    3  502    0  0.55320851238E+02  0.38951023404E+02 -0.15366200479E+03  0.16794958447E+03  0.41800000000E+01 0.  1.
         -5    1    3    3    0  502 -0.14830072957E+02 -0.38575963644E+02 -0.11397020518E+02  0.43074360259E+02  0.41800000000E+01 0.  1.
        -11    1    4    4    0    0 -0.32867997212E+02 -0.43341283827E+02 -0.12015309770E+02  0.55705832669E+02  0.00000000000E+00 0. -1.
         11    1    4    4    0    0 -0.76227810686E+01  0.42966224067E+02  0.72633629010E+01  0.44237536577E+02  0.00000000000E+00 0.  1.
</event>
<event>
 8    1  0.6869405E-009  0.1963638E+03  0.7561462E-02  0.1152844E+00
          2   -1    0    0  501    0  0.00000000000E+00  0.00000000000E+00  0.18171237490E+03  0.18171237490E+03  0.00000000000E+00 0. -1.
         -2   -1    0    0    0  501 -0.00000000000E+00 -0.00000000000E+00 -0.25683593378E+03  0.25683593378E+03  0.00000000000E+00 0.  1.
         25    2    1    2    0    0 -0.16463385103E+03  0.78819429765E+02  0.41039119643E+00  0.22128390175E+03  0.12509831869E+03 0.  0.
         23    2    1    2    0    0  0.16463385103E+03 -0.78819429765E+02 -0.75533950076E+02  0.21726440693E+03  0.90452404563E+02 0.  0.
          5    1    3    3  502    0 -0.71194021434E+02  0.63347811753E+02 -0.56347389301E+02  0.11078824226E+03  0.41800000000E+01 0. -1.
         -5    1    3    3    0  502 -0.93439829595E+02  0.15471618011E+02  0.56757780497E+02  0.11049565949E+03  0.41800000000E+01 0. -1.
        -11    1    4    4    0    0  0.12713534801E+03 -0.97899700596E+02 -0.50099289693E+02  0.16810022878E+03  0.00000000000E+00 0. -1.
         11    1    4    4    0    0  0.37498503023E+02  0.19080270831E+02 -0.25434660383E+02  0.49164178146E+02  0.00000000000E+00 0.  1.
</event>
<event>
 8    1  0.6869405E-009  0.1159148E+03  0.7561462E-02  0.1249993E+00
          2   -1    0    0  501    0  0.00000000000E+00  0.00000000000E+00  0.87591618650E+02  0.87591618650E+02  0.00000000000E+00 0. -1.
         -2   -1    0    0    0  501 -0.00000000000E+00 -0.00000000000E+00 -0.21129699798E+03  0.21129699798E+03  0.00000000000E+00 0.  1.
         25    2    1    2    0    0 -0.14603135254E+02  0.62110604987E+02 -0.11649526690E+02  0.14090483954E+03  0.12508990176E+03 0.  0.
         23    2    1    2    0    0  0.14603135254E+02 -0.62110604987E+02 -0.11205585264E+03  0.15798377709E+03  0.91276398382E+02 0.  0.
          5    1    3    3  502    0  0.28951330315E+02 -0.22485668955E+02 -0.25234056667E+02  0.44699159402E+02  0.41800000000E+01 0. -1.
         -5    1    3    3    0  502 -0.43554465569E+02  0.84596273942E+02  0.13584529977E+02  0.96205680137E+02  0.41800000000E+01 0. -1.
        -11    1    4    4    0    0 -0.21125586108E+02 -0.60327401182E+02 -0.34639926222E+02  0.72702202239E+02  0.00000000000E+00 0. -1.
         11    1    4    4    0    0  0.35728721362E+02 -0.17832038049E+01 -0.77415926416E+02  0.85281574849E+02  0.00000000000E+00 0.  1.
</event>
<event>
 8    1  0.6869405E-009  0.9051359E+02  0.7561462E-02  0.1301613E+00
         -2   -1    0    0    0  501 -0.00000000000E+00  0.00000000000E+00  0.85678735818E+02  0.85678735818E+02  0.00000000000E+00 0. -1.
          2   -1    0    0  501    0  0.00000000000E+00 -0.00000000000E+00 -0.15125690611E+03  0.15125690611E+03  0.00000000000E+00 0.  1.
         25    2    1    2    0    0  0.40628449505E+01 -0.20425273129E+02 -0.55902278408E+02  0.13858653149E+03  0.12508982168E+03 0.  0.
         23    2    1    2    0    0 -0.40628449505E+01  0.20425273129E+02 -0.96758918821E+01  0.98349110440E+02  0.95630675775E+02 0.  0.
          5    1    3    3  502    0 -0.28538263980E+01  0.40797199249E+02 -0.64244763804E+02  0.76271999239E+02  0.41800000000E+01 0.  1.
         -5    1    3    3    0  502  0.69166713485E+01 -0.61222472378E+02  0.83424853967E+01  0.62314532247E+02  0.41800000000E+01 0.  1.
        -11    1    4    4    0    0  0.12879539393E+02 -0.25851914212E+02  0.24911675860E+02  0.38141782831E+02  0.00000000000E+00 0. -1.
         11    1    4    4    0    0 -0.16942384343E+02  0.46277187341E+02 -0.34587567742E+02  0.60207327608E+02  0.00000000000E+00 0.  1.
</event>
<event>
 8    1  0.6869405E-009  0.1141823E+03  0.7561462E-02  0.1253015E+00
         -1   -1    0    0    0  501 -0.00000000000E+00  0.00000000000E+00  0.79864346774E+03  0.79864346774E+03  0.00000000000E+00 0.  1.
          1   -1    0    0  501    0  0.00000000000E+00 -0.00000000000E+00 -0.32123538575E+02  0.32123538575E+02  0.00000000000E+00 0. -1.
         25    2    1    2    0    0 -0.49509279502E+02 -0.10149407388E+03  0.50536125660E+03  0.53271932606E+03  0.12509062672E+03 0.  0.
         23    2    1    2    0    0  0.49509279502E+02  0.10149407388E+03  0.26115867257E+03  0.29804768026E+03  0.88748812168E+02 0.  0.
          5    1    3    3  502    0 -0.25862346835E+02 -0.53993787174E+02  0.45662472696E+03  0.46055162980E+03  0.41800000000E+01 0. -1.
         -5    1    3    3    0  502 -0.23646932667E+02 -0.47500286709E+02  0.48736529635E+02  0.72167696256E+02  0.41800000000E+01 0. -1.
        -11    1    4    4    0    0  0.30590794857E+02  0.37506115062E+02  0.20559864433E+03  0.21121862595E+03  0.00000000000E+00 0.  1.
         11    1    4    4    0    0  0.18918484645E+02  0.63987958821E+02  0.55560028243E+02  0.86829054318E+02  0.00000000000E+00 0. -1.
</event>
<event>
 8    1  0.6869405E-009  0.1127982E+03  0.7561462E-02  0.1255474E+00
         -1   -1    0    0    0  501 -0.00000000000E+00  0.00000000000E+00  0.11566120696E+04  0.11566120696E+04  0.00000000000E+00 0.  1.
          1   -1    0    0  501    0  0.00000000000E+00 -0.00000000000E+00 -0.19456512751E+02  0.19456512751E+02  0.00000000000E+00 0. -1.
         25    2    1    2    0    0 -0.39881541922E+02  0.38974118622E+02  0.97329089000E+03  0.98287892287E+03  0.12508517555E+03 0.  0.
         23    2    1    2    0    0  0.39881541922E+02 -0.38974118622E+02  0.16386466684E+03  0.19318965948E+03  0.85796830845E+02 0.  0.
          5    1    3    3  502    0  0.37415141119E+02  0.23797490771E+01  0.13328662827E+03  0.13852203314E+03  0.41800000000E+01 0. -1.
         -5    1    3    3    0  502 -0.77296683040E+02  0.36594369544E+02  0.84000426173E+03  0.84435688972E+03  0.41800000000E+01 0. -1.
        -11    1    4    4    0    0 -0.14355005022E+02  0.18374101984E+02  0.34305272009E+02  0.41479217453E+02  0.00000000000E+00 0.  1.
         11    1    4    4    0    0  0.54236546944E+02 -0.57348220605E+02  0.12955939483E+03  0.15171044202E+03  0.00000000000E+00 0. -1.
</event>
<event>
 8    1  0.6869405E-009  0.1315523E+03  0.7561462E-02  0.1225170E+00
          2   -1    0    0  501    0  0.00000000000E+00  0.00000000000E+00  0.90045596397E+03  0.90045596397E+03  0.00000000000E+00 0. -1.
         -2   -1    0    0    0  501 -0.00000000000E+00 -0.00000000000E+00 -0.33942525935E+02  0.33942525935E+02  0.00000000000E+00 0.  1.
         25    2    1    2    0    0  0.46795315528E+02 -0.90896036451E+02  0.70136783722E+03  0.71973322745E+03  0.12508870700E+03 0.  0.
         23    2    1    2    0    0 -0.46795315528E+02  0.90896036451E+02  0.16514560082E+03  0.21466526245E+03  0.91412331969E+02 0.  0.
          5    1    3    3  502    0  0.56568933642E+02 -0.29861310413E+02  0.57937440676E+03  0.58290987101E+03  0.41800000000E+01 0. -1.
         -5    1    3    3    0  502 -0.97736181136E+01 -0.61034726038E+02  0.12199343045E+03  0.13682335644E+03  0.41800000000E+01 0. -1.
        -11    1    4    4    0    0 -0.29764913444E+02 -0.12482302006E+02  0.42338075253E+02  0.53237867649E+02  0.00000000000E+00 0.  1.
         11    1    4    4    0    0 -0.17030402084E+02  0.10337833846E+03  0.12280752556E+03  0.16142739480E+03  0.00000000000E+00 0. -1.
</event>
<event>
 8    1  0.6869405E-009  0.8352560E+02  0.7561462E-02  0.1319334E+00
          1   -1    0    0  501    0  0.00000000000E+00  0.00000000000E+00  0.20835136144E+03  0.20835136144E+03  0.00000000000E+00 0. -1.
         -1   -1    0    0    0  501 -0.00000000000E+00 -0.00000000000E+00 -0.82587676319E+02  0.82587676319E+02  0.00000000000E+00 0.  1.
         25    2    1    2    0    0  0.35744128906E+02  0.74929528995E+01  0.13993441311E+03  0.19121364942E+03  0.12508889902E+03 0.  0.
         23    2    1    2    0    0 -0.35744128906E+02 -0.74929528995E+01 -0.14170727989E+02  0.99725388335E+02  0.91709085987E+02 0.  0.
          5    1    3    3  502    0  0.63972428166E+02 -0.18451268267E+02  0.13718902300E+03  0.15254907833E+03  0.41800000000E+01 0. -1.
         -5    1    3    3    0  502 -0.28228299260E+02  0.25944221167E+02  0.27453901059E+01  0.38664571095E+02  0.41800000000E+01 0. -1.
        -11    1    4    4    0    0 -0.36214270888E+02 -0.25162028962E+02  0.29201549554E+02  0.52889806331E+02  0.00000000000E+00 0. -1.
         11    1    4    4    0    0  0.47014198204E+00  0.17669076062E+02 -0.43372277543E+02  0.46835582004E+02  0.00000000000E+00 0.  1.
</event>
<event>
 8    1  0.6869405E-009  0.5652235E+02  0.7561462E-02  0.1413034E+00
          2   -1    0    0  501    0  0.00000000000E+00  0.00000000000E+00  0.10976726292E+03  0.10976726292E+03  0.00000000000E+00 0. -1.
         -2   -1    0    0    0  501 -0.00000000000E+00 -0.00000000000E+00 -0.11289155999E+03  0.11289155999E+03  0.00000000000E+00 0.  1.
         25    2    1    2    0    0 -0.20849108854E+02 -0.21759797634E+02 -0.24731719408E+02  0.13102139538E+03  0.12508706556E+03 0.  0.
         23    2    1    2    0    0  0.20849108854E+02  0.21759797634E+02  0.21607422336E+02  0.91637427523E+02  0.83799542302E+02 0.  0.
          5    1    3    3  502    0 -0.44198633927E+02 -0.31490964289E+02 -0.64067577914E+02  0.84067395657E+02  0.41800000000E+01 0. -1.
         -5    1    3    3    0  502  0.23349525072E+02  0.97311666549E+01  0.39335858506E+02  0.46953999723E+02  0.41800000000E+01 0. -1.
        -11    1    4    4    0    0  0.17116898230E+02  0.83297761909E+01 -0.31459404399E+02  0.36770470510E+02  0.00000000000E+00 0.  1.
         11    1    4    4    0    0  0.37322106240E+01  0.13430021443E+02  0.53066826735E+02  0.54866957013E+02  0.00000000000E+00 0. -1.
</event>
<event>
 8    1  0.6869405E-009  0.9507314E+02  0.7561462E-02  0.1291011E+00
         -2   -1    0    0    0  501 -0.00000000000E+00  0.00000000000E+00  0.10676101908E+03  0.10676101908E+03  0.00000000000E+00 0.  1.
          2   -1    0    0  501    0  0.00000000000E+00 -0.00000000000E+00 -0.14260829022E+03  0.14260829022E+03  0.00000000000E+00 0. -1.
         25    2    1    2    0    0 -0.27888736378E+01 -0.42583057512E+02 -0.61229963758E+02  0.14565545898E+03  0.12508121228E+03 0.  0.
         23    2    1    2    0    0  0.27888736378E+01  0.42583057512E+02  0.25382692617E+02  0.10371385031E+03  0.91055955648E+02 0.  0.
          5    1    3    3  502    0  0.43296878861E+02 -0.61639922712E+02 -0.13778453891E+02  0.76690403459E+02  0.41800000000E+01 0.  1.
         -5    1    3    3    0  502 -0.46085752499E+02  0.19056865200E+02 -0.47451509866E+02  0.68965055522E+02  0.41800000000E+01 0.  1.
        -11    1    4    4    0    0 -0.14771416811E+02  0.44600207078E+02 -0.22922461953E+02  0.52276309051E+02  0.00000000000E+00 0. -1.
         11    1    4    4    0    0  0.17560290448E+02 -0.20171495664E+01  0.48305154570E+02  0.51437541261E+02  0.00000000000E+00 0.  1.
</event>
<event>
 8    1  0.6869405E-009  0.1533646E+03  0.7561462E-02  0.1196399E+00
         -2   -1    0    0    0  501 -0.00000000000E+00  0.00000000000E+00  0.29552893654E+03  0.29552893654E+03  0.00000000000E+00 0.  1.
          2   -1    0    0  501    0  0.00000000000E+00 -0.00000000000E+00 -0.12105691022E+03  0.12105691022E+03  0.00000000000E+00 0. -1.
         25    2    1    2    0    0  0.11096220032E+03  0.84450094780E+02  0.16402177514E+03  0.24898860900E+03  0.12509099201E+03 0.  0.
         23    2    1    2    0    0 -0.11096220032E+03 -0.84450094780E+02  0.10450251177E+02  0.16759723776E+03  0.92386135033E+02 0.  0.
          5    1    3    3  502    0  0.46720434770E+02  0.68651705864E+02  0.16266909033E+03  0.18268705781E+03  0.41800000000E+01 0. -1.
         -5    1    3    3    0  502  0.64241765550E+02  0.15798388916E+02  0.13526848131E+01  0.66301551185E+02  0.41800000000E+01 0. -1.
        -11    1    4    4    0    0 -0.54874287240E+02  0.12313529485E+01  0.31161647013E+02  0.63116969784E+02  0.00000000000E+00 0.  1.
         11    1    4    4    0    0 -0.56087913080E+02 -0.85681447728E+02 -0.20711395836E+02  0.10448026797E+03  0.00000000000E+00 0. -1.
</event>
<event>
 8    1  0.6869405E-009  0.1327690E+03  0.7561462E-02  0.1223404E+00
         -2   -1    0    0    0  501 -0.00000000000E+00  0.00000000000E+00  0.37724944070E+02  0.37724944070E+02  0.00000000000E+00 0.  1.
          2   -1    0    0  501    0  0.00000000000E+00 -0.00000000000E+00 -0.85042620339E+03  0.85042620339E+03  0.00000000000E+00 0. -1.
         25    2    1    2    0    0  0.91674482440E+02  0.39491322234E+02 -0.67520128524E+03  0.69390807756E+03  0.12509144357E+03 0.  0.
         23    2    1    2    0    0 -0.91674482440E+02 -0.39491322234E+02 -0.13749997409E+03  0.19424306990E+03  0.94129443159E+02 0.  0.
          5    1    3    3  502    0 -0.38119511758E+01 -0.23268561604E+02 -0.28721718028E+02  0.37394737830E+02  0.41800000000E+01 0.  1.
         -5    1    3    3    0  502  0.95486433616E+02  0.62759883838E+02 -0.64647956721E+03  0.65651333973E+03  0.41800000000E+01 0.  1.
        -11    1    4    4    0    0 -0.93020183387E+02 -0.57391113442E+02 -0.84110806950E+02  0.13791708475E+03  0.00000000000E+00 0.  1.
         11    1    4    4    0    0  0.13457009467E+01  0.17899791208E+02 -0.53389167136E+02  0.56325985156E+02  0.00000000000E+00 0. -1.
</event>
<event>
 8    1  0.6869405E-009  0.9922601E+02  0.7561462E-02  0.1281932E+00
          3   -1    0    0  501    0  0.00000000000E+00  0.00000000000E+00  0.76727699049E+03  0.76727699049E+03  0.00000000000E+00 0. -1.
         -3   -1    0    0    0  501 -0.00000000000E+00 -0.00000000000E+00 -0.16512198722E+02  0.16512198722E+02  0.00000000000E+00 0.  1.
         25    2    1    2    0    0 -0.48304757781E+01 -0.28581504527E+02  0.46641158238E+03  0.48376411982E+03  0.12509086118E+03 0.  0.
         23    2    1    2    0    0  0.48304757781E+01  0.28581504527E+02  0.28435320939E+03  0.30002506939E+03  0.91203391798E+02 0.  0.
          5    1    3    3  502    0 -0.30475853785E+02 -0.68619304130E+02  0.21269710665E+03  0.22559902070E+03  0.41800000000E+01 0.  1.
         -5    1    3    3    0  502  0.25645378006E+02  0.40037799602E+02  0.25371447573E+03  0.25816509912E+03  0.41800000000E+01 0.  1.
        -11    1    4    4    0    0  0.69603144077E+01 -0.22932187362E+02  0.21605014279E+02  0.32266202687E+02  0.00000000000E+00 0.  1.
         11    1    4    4    0    0 -0.21298386296E+01  0.51513691889E+02  0.26274819511E+03  0.26775886670E+03  0.00000000000E+00 0. -1.
</event>
<event>
 8    1  0.6869405E-009  0.1368098E+03  0.7561462E-02  0.1217687E+00
          3   -1    0    0  501    0  0.00000000000E+00  0.00000000000E+00  0.90025017225E+02  0.90025017225E+02  0.00000000000E+00 0. -1.
         -3   -1    0    0    0  501 -0.00000000000E+00 -0.00000000000E+00 -0.28539293525E+03  0.28539293525E+03  0.00000000000E+00 0.  1.
         25    2    1    2    0    0  0.41462467470E+02  0.75916972678E+02 -0.19792403974E+03  0.24961082392E+03  0.12509642266E+03 0.  0.
         23    2    1    2    0    0 -0.41462467470E+02 -0.75916972678E+02  0.25561217115E+01  0.12580712856E+03  0.91314713431E+02 0.  0.
          5    1    3    3  502    0 -0.34002864458E+00 -0.33597131442E+02 -0.56573146198E+02  0.65930843551E+02  0.41800000000E+01 0.  1.
         -5    1    3    3    0  502  0.41802496114E+02  0.10951410412E+03 -0.14135089354E+03  0.18367998037E+03  0.41800000000E+01 0.  1.
        -11    1    4    4    0    0 -0.66967248764E+02 -0.68746776776E+02 -0.99938165066E+01  0.96491492332E+02  0.00000000000E+00 0.  1.
         11    1    4    4    0    0  0.25504781295E+02 -0.71701959019E+01  0.12549938218E+02  0.29315636228E+02  0.00000000000E+00 0. -1.
</event>
<event>
 8    1  0.6869405E-009  0.1981116E+03  0.7561462E-02  0.1151342E+00
         -1   -1    0    0    0  501 -0.00000000000E+00  0.00000000000E+00  0.80076636261E+02  0.80076636261E+02  0.00000000000E+00 0.  1.
          1   -1    0    0  501    0  0.00000000000E+00 -0.00000000000E+00 -0.64717297473E+03  0.64717297473E+03  0.00000000000E+00 0. -1.
         25    2    1    2    0    0  0.17125801520E+03 -0.94095055515E+02 -0.22698869408E+03  0.32458297505E+03  0.12508818173E+03 0.  0.
         23    2    1    2    0    0 -0.17125801520E+03  0.94095055515E+02 -0.34010764439E+03  0.40266663595E+03  0.91016606671E+02 0.  0.
          5    1    3    3  502    0  0.59168948455E+02 -0.20819549761E+02 -0.22093732657E+01  0.62902876276E+02  0.41800000000E+01 0.  1.
         -5    1    3    3    0  502  0.11208906674E+03 -0.73275505754E+02 -0.22477932082E+03  0.26168009877E+03  0.41800000000E+01 0.  1.
        -11    1    4    4    0    0 -0.94467501552E+02  0.74005761587E+02 -0.12453338162E+03  0.17294370395E+03  0.00000000000E+00 0.  1.
         11    1    4    4    0    0 -0.76790513645E+02  0.20089293928E+02 -0.21557426277E+03  0.22972293200E+03  0.00000000000E+00 0. -1.
</event>
<event>
 8    1  0.6869405E-009  0.1056505E+03  0.7561462E-02  0.1268843E+00
         -1   -1    0    0    0  501 -0.00000000000E+00  0.00000000000E+00  0.36021636429E+02  0.36021636429E+02  0.00000000000E+00 0.  1.
          1   -1    0    0  501    0  0.00000000000E+00 -0.00000000000E+00 -0.50048929378E+03  0.50048929378E+03  0.00000000000E+00 0. -1.
         25    2    1    2    0    0 -0.10754033611E+02  0.62653208200E+02 -0.35113500795E+03  0.37813255359E+03  0.12508941017E+03 0.  0.
         23    2    1    2    0    0  0.10754033611E+02 -0.62653208200E+02 -0.11333264940E+03  0.15837837662E+03  0.90544723895E+02 0.  0.
          5    1    3    3  502    0  0.35412757648E+02  0.53294121762E+01 -0.25260183663E+02  0.44022895374E+02  0.41800000000E+01 0.  1.
         -5    1    3    3    0  502 -0.46166791260E+02  0.57323796024E+02 -0.32587482429E+03  0.33410965822E+03  0.41800000000E+01 0.  1.
        -11    1    4    4    0    0 -0.34163984515E+02 -0.20031633935E+02 -0.76992746444E+02  0.86581332867E+02  0.00000000000E+00 0. -1.
         11    1    4    4    0    0  0.44918018126E+02 -0.42621574265E+02 -0.36339902954E+02  0.71797043755E+02  0.00000000000E+00 0.  1.
</event>
<event>
 8    1  0.6869405E-009  0.1079014E+03  0.7561462E-02  0.1264506E+00
          1   -1    0    0  501    0  0.00000000000E+00  0.00000000000E+00  0.44181207465E+03  0.44181207465E+03  0.00000000000E+00 0. -1.
         -1   -1    0    0    0  501 -0.00000000000E+00 -0.00000000000E+00 -0.31040056767E+02  0.31040056767E+02  0.00000000000E+00 0.  1.
         25    2    1    2    0    0 -0.44256279274E+02 -0.11114493378E+02  0.20500097611E+03  0.24444777364E+03  0.12508862303E+03 0.  0.
         23    2    1    2    0    0  0.44256279274E+02  0.11114493378E+02  0.20577104177E+03  0.22840435778E+03  0.88003856755E+02 0.  0.
          5    1    3    3  502    0  0.33362995319E+02  0.11818770745E+02  0.16523232560E+02  0.39284378738E+02  0.41800000000E+01 0. -1.
         -5    1    3    3    0  502 -0.77619274594E+02 -0.22933264123E+02  0.18847774355E+03  0.20516339490E+03  0.41800000000E+01 0. -1.
        -11    1    4    4    0    0  0.64292508503E+02  0.30569898493E+02  0.14940211339E+03  0.16549633479E+03  0.00000000000E+00 0. -1.
         11    1    4    4    0    0 -0.20036229229E+02 -0.19455405115E+02  0.56368928387E+02  0.62908022997E+02  0.00000000000E+00 0.  1.
</event>
<event>
 8    1  0.6869405E-009  0.1029194E+03  0.7561462E-02  0.1274274E+00
          2   -1    0    0  501    0  0.00000000000E+00  0.00000000000E+00  0.17055966600E+04  0.17055966600E+04  0.00000000000E+00 0. -1.
         -2   -1    0    0    0  501 -0.00000000000E+00 -0.00000000000E+00 -0.11127102440E+02  0.11127102440E+02  0.00000000000E+00 0.  1.
         25    2    1    2    0    0  0.25937992949E+02 -0.26097605623E+02  0.14039816949E+04  0.14100234586E+04  0.12509072594E+03 0.  0.
         23    2    1    2    0    0 -0.25937992949E+02  0.26097605623E+02  0.29048786259E+03  0.30670030376E+03  0.91257950431E+02 0.  0.
          5    1    3    3  502    0 -0.22337249048E+02  0.38542626922E+02  0.69845737025E+03  0.69988903209E+03  0.41800000000E+01 0.  1.
         -5    1    3    3    0  502  0.48275241998E+02 -0.64640232545E+02  0.70552432468E+03  0.71013442654E+03  0.41800000000E+01 0.  1.
        -11    1    4    4    0    0  0.24199164471E+02  0.16428303427E+02  0.32565157958E+02  0.43771888552E+02  0.00000000000E+00 0.  1.
         11    1    4    4    0    0 -0.50137157420E+02  0.96693021956E+01  0.25792270463E+03  0.26292841521E+03  0.00000000000E+00 0. -1.
</event>
<event>
 7    1  0.6869405E-009  0.1592208E+03  0.7561462E-02  0.1189579E+00
          2   -1    0    0  501    0  0.00000000000E+00  0.00000000000E+00  0.37971440714E+02  0.37971440714E+02  0.00000000000E+00 0. -1.
         -2   -1    0    0    0  501 -0.00000000000E+00 -0.00000000000E+00 -0.77692597290E+03  0.77692597290E+03  0.00000000000E+00 0.  1.
         23    2    1    2    0    0 -0.69879188070E+02 -0.10757101684E+03 -0.26407333312E+03  0.30731813107E+03  0.90857491861E+02 0.  0.
          5    1    1    2  502    0  0.10057571431E+03  0.75170773148E+02 -0.26924321954E+03  0.29711193701E+03  0.41800000000E+01 0. -1.
         -5    1    1    2    0  502 -0.30696526245E+02  0.32400243692E+02 -0.20563797952E+03  0.21046734553E+03  0.41800000000E+01 0. -1.
        -11    1    3    3    0    0 -0.19104388169E+02  0.87862552650E+01 -0.86572639525E+02  0.89089830189E+02  0.00000000000E+00 0.  1.
         11    1    3    3    0    0 -0.50774799900E+02 -0.11635727210E+03 -0.17750069360E+03  0.21822830088E+03  0.00000000000E+00 0. -1.
</event>
<event>
 8    1  0.6869405E-009  0.1468671E+03  0.7561462E-02  0.1204376E+00
         -2   -1    0    0    0  501 -0.00000000000E+00  0.00000000000E+00  0.29274843770E+03  0.29274843770E+03  0.00000000000E+00 0.  1.
          2   -1    0    0  501    0  0.00000000000E+00 -0.00000000000E+00 -0.82245399402E+02  0.82245399402E+02  0.00000000000E+00 0. -1.
         25    2    1    2    0    0  0.67395818995E+01 -0.11100535147E+03  0.70306764927E+02  0.18154433674E+03  0.12509074702E+03 0.  0.
         23    2    1    2    0    0 -0.67395818995E+01  0.11100535147E+03  0.14019627337E+03  0.19344950035E+03  0.73485400610E+02 0.  0.
          5    1    3    3  502    0 -0.36988510784E+02 -0.11723498957E+03  0.52454896232E+02  0.13372053413E+03  0.41800000000E+01 0.  1.
         -5    1    3    3    0  502  0.43728092683E+02  0.62296381006E+01  0.17851868695E+02  0.47823802614E+02  0.41800000000E+01 0.  1.
        -11    1    4    4    0    0  0.26452607657E+02  0.59153526365E+02  0.10248502204E+03  0.12125205102E+03  0.00000000000E+00 0.  1.
         11    1    4    4    0    0 -0.33192189556E+02  0.51851825104E+02  0.37711251323E+02  0.72197449335E+02  0.00000000000E+00 0. -1.
</event>
<event>
 8    1  0.6869405E-009  0.9699183E+02  0.7561462E-02  0.1286752E+00
          2   -1    0    0  501    0  0.00000000000E+00  0.00000000000E+00  0.53471144880E+03  0.53471144880E+03  0.00000000000E+00 0.  1.
         -2   -1    0    0    0  501 -0.00000000000E+00 -0.00000000000E+00 -0.25278612647E+02  0.25278612647E+02  0.00000000000E+00 0. -1.
         25    2    1    2    0    0  0.38051329768E+01  0.77758161208E+01  0.39909728823E+03  0.41832902002E+03  0.12508229757E+03 0.  0.
         23    2    1    2    0    0 -0.38051329768E+01 -0.77758161208E+01  0.11033554792E+03  0.14166104142E+03  0.88424969150E+02 0.  0.
          5    1    3    3  502    0  0.52808939879E+02  0.18069753698E+02  0.31828573547E+03  0.32316958695E+03  0.41800000000E+01 0.  1.
         -5    1    3    3    0  502 -0.49003806902E+02 -0.10293937577E+02  0.80811552760E+02  0.95159433065E+02  0.41800000000E+01 0.  1.
        -11    1    4    4    0    0 -0.25429500860E+00 -0.47691252951E+02  0.70824387816E+02  0.85385093450E+02  0.00000000000E+00 0.  1.
         11    1    4    4    0    0 -0.35508379682E+01  0.39915436830E+02  0.39511160104E+02  0.56275947974E+02  0.00000000000E+00 0. -1.
</event>
<event>
 8    1  0.6869405E-009  0.2036977E+03  0.7561462E-02  0.1146656E+00
         -2   -1    0    0    0  501 -0.00000000000E+00  0.00000000000E+00  0.29870439289E+02  0.29870439289E+02  0.00000000000E+00 0.  1.
          2   -1    0    0  501    0  0.00000000000E+00 -0.00000000000E+00 -0.14744348908E+04  0.14744348908E+04  0.00000000000E+00 0. -1.
         25    2    1    2    0    0 -0.15912299900E+03  0.77875054307E+02 -0.80248462586E+03  0.83127360791E+03  0.12509829566E+03 0.  0.
         23    2    1    2    0    0  0.15912299900E+03 -0.77875054307E+02 -0.64207982567E+03  0.67303172219E+03  0.96542962727E+02 0.  0.
          5    1    3    3  502    0 -0.15802944872E+03  0.30761035505E+02 -0.50523657031E+03  0.53028389788E+03  0.41800000000E+01 0.  1.
         -5    1    3    3    0  502 -0.10935502777E+01  0.47114018802E+02 -0.29724805554E+03  0.30098971003E+03  0.41800000000E+01 0.  1.
        -11    1    4    4    0    0  0.31403189590E+02 -0.63074174891E+02 -0.17706143895E+03  0.19056564490E+03  0.00000000000E+00 0. -1.
         11    1    4    4    0    0  0.12771980941E+03 -0.14800879416E+02 -0.46501838672E+03  0.48246607729E+03  0.00000000000E+00 0.  1.
</event>
<event>
 8    1  0.6869405E-009  0.1221214E+03  0.7561462E-02  0.1239638E+00
          2   -1    0    0  501    0  0.00000000000E+00  0.00000000000E+00  0.53927033762E+03  0.53927033762E+03  0.00000000000E+00 0. -1.
         -2   -1    0    0    0  501 -0.00000000000E+00 -0.00000000000E+00 -0.32072948678E+02  0.32072948678E+02  0.00000000000E+00 0.  1.
         25    2    1    2    0    0 -0.40112332936E+02  0.62314135283E+02  0.27413973192E+03  0.31030714672E+03  0.12508350004E+03 0.  0.
         23    2    1    2    0    0  0.40112332936E+02 -0.62314135283E+02  0.23305765702E+03  0.26103613957E+03  0.91279482666E+02 0.  0.
          5    1    3    3  502    0 -0.33903459988E+02 -0.31169954825E+02  0.54450860224E+02  0.71437939934E+02  0.41800000000E+01 0. -1.
         -5    1    3    3    0  502 -0.62088729481E+01  0.93484090108E+02  0.21968887169E+03  0.23886920679E+03  0.41800000000E+01 0. -1.
        -11    1    4    4    0    0 -0.26301093101E+01 -0.61407537371E+02  0.19262254688E+03  0.20219111921E+03  0.00000000000E+00 0. -1.
         11    1    4    4    0    0  0.42742442246E+02 -0.90659791208E+00  0.40435110140E+02  0.58845020358E+02  0.00000000000E+00 0.  1.
</event>
<event>
 8    1  0.6869405E-009  0.1305163E+03  0.7561462E-02  0.1226692E+00
         -1   -1    0    0    0  501 -0.00000000000E+00  0.00000000000E+00  0.17446949833E+03  0.17446949833E+03  0.00000000000E+00 0.  1.
          1   -1    0    0  501    0  0.00000000000E+00 -0.00000000000E+00 -0.12921638398E+03  0.12921638398E+03  0.00000000000E+00 0. -1.
         25    2    1    2    0    0  0.14122004968E+02 -0.75855465333E+02  0.92678092146E+02  0.17375417268E+03  0.12509117121E+03 0.  0.
         23    2    1    2    0    0 -0.14122004968E+02  0.75855465333E+02 -0.47424977798E+02  0.12993170963E+03  0.93164574825E+02 0.  0.
          5    1    3    3  502    0  0.65274188886E+02 -0.15676804095E+02  0.34667780370E+02  0.75669077681E+02  0.41800000000E+01 0.  1.
         -5    1    3    3    0  502 -0.51152183918E+02 -0.60178661238E+02  0.58010311775E+02  0.98085094995E+02  0.41800000000E+01 0.  1.
        -11    1    4    4    0    0 -0.49854273467E+02  0.49725264826E+02 -0.83888807046E+01  0.70911380359E+02  0.00000000000E+00 0.  1.
         11    1    4    4    0    0  0.35732268499E+02  0.26130200508E+02 -0.39036097093E+02  0.59020329268E+02  0.00000000000E+00 0. -1.
</event>
<event>
 8    1  0.6869405E-009  0.1103346E+03  0.7561462E-02  0.1259952E+00
          1   -1    0    0  501    0  0.00000000000E+00  0.00000000000E+00  0.26459377414E+02  0.26459377414E+02  0.00000000000E+00 0. -1.
         -1   -1    0    0    0  501 -0.00000000000E+00 -0.00000000000E+00 -0.51220405264E+03  0.51220405264E+03  0.00000000000E+00 0.  1.
         25    2    1    2    0    0 -0.20594889961E+02  0.18017109313E+01 -0.19609805469E+03  0.23352451489E+03  0.12510737927E+03 0.  0.
         23    2    1    2    0    0  0.20594889961E+02 -0.18017109313E+01 -0.28964662053E+03  0.30513891516E+03  0.93740050695E+02 0.  0.
          5    1    3    3  502    0 -0.62923541151E+02  0.33710792869E+02 -0.13304508062E+03  0.15104388589E+03  0.41800000000E+01 0. -1.
         -5    1    3    3    0  502  0.42328651190E+02 -0.31909081938E+02 -0.63052974068E+02  0.82480629002E+02  0.41800000000E+01 0. -1.
        -11    1    4    4    0    0 -0.37684810334E+02 -0.11840989699E+00 -0.11501961713E+03  0.12103582641E+03  0.00000000000E+00 0.  1.
         11    1    4    4    0    0  0.58279700295E+02 -0.16833010343E+01 -0.17462700341E+03  0.18410308875E+03  0.00000000000E+00 0. -1.
</event>
<event>
 8    1  0.6869405E-009  0.9970282E+02  0.7561462E-02  0.1280922E+00
         -2   -1    0    0    0  501 -0.00000000000E+00  0.00000000000E+00  0.48179178603E+02  0.48179178603E+02  0.00000000000E+00 0.  1.
          2   -1    0    0  501    0  0.00000000000E+00 -0.00000000000E+00 -0.40596854862E+03  0.40596854862E+03  0.00000000000E+00 0. -1.
         25    2    1    2    0    0  0.80623978987E+02 -0.13797329217E+02 -0.24479120386E+03  0.28681145016E+03  0.12508989636E+03 0.  0.
         23    2    1    2    0    0 -0.80623978987E+02  0.13797329217E+02 -0.11299816616E+03  0.16733627707E+03  0.92424303010E+02 0.  0.
          5    1    3    3  502    0  0.18449245837E+01 -0.34041710157E+02 -0.17856502588E+03  0.18183834207E+03  0.41800000000E+01 0.  1.
         -5    1    3    3    0  502  0.78779054404E+02  0.20244380940E+02 -0.66226177979E+02  0.10497310809E+03  0.41800000000E+01 0.  1.
        -11    1    4    4    0    0 -0.21919137987E+02 -0.39749238319E+01 -0.10276583513E+03  0.10515258199E+03  0.00000000000E+00 0. -1.
         11    1    4    4    0    0 -0.58704841000E+02  0.17772253049E+02 -0.10232331028E+02  0.62183695078E+02  0.00000000000E+00 0.  1.
</event>
<event>
 8    1  0.6869405E-009  0.8770888E+02  0.7561462E-02  0.1308497E+00
         -2   -1    0    0    0  501 -0.00000000000E+00  0.00000000000E+00  0.10200126572E+03  0.10200126572E+03  0.00000000000E+00 0.  1.
          2   -1    0    0  501    0  0.00000000000E+00 -0.00000000000E+00 -0.11633599825E+03  0.11633599825E+03  0.00000000000E+00 0. -1.
         25    2    1    2    0    0  0.22759978922E+01  0.80891525655E+00 -0.37643373832E+01  0.12516400333E+03  0.12508406366E+03 0.  0.
         23    2    1    2    0    0 -0.22759978922E+01 -0.80891525655E+00 -0.10570395149E+02  0.93173260639E+02  0.92540200638E+02 0.  0.
          5    1    3    3  502    0  0.15814087832E+02  0.54667331129E+02  0.25214422901E+02  0.62384629429E+02  0.41800000000E+01 0.  1.
         -5    1    3    3    0  502 -0.13538089940E+02 -0.53858415872E+02 -0.28978760285E+02  0.62779373899E+02  0.41800000000E+01 0.  1.
        -11    1    4    4    0    0 -0.46884492971E+01 -0.31516131636E+02  0.28961405735E+02  0.43058229553E+02  0.00000000000E+00 0.  1.
         11    1    4    4    0    0  0.24124514049E+01  0.30707216379E+02 -0.39531800885E+02  0.50115031085E+02  0.00000000000E+00 0. -1.
</event>
<event>
 8    1  0.6869405E-009  0.1438188E+03  0.7561462E-02  0.1208281E+00
         -1   -1    0    0    0  501 -0.00000000000E+00  0.00000000000E+00  0.11292226674E+03  0.11292226674E+03  0.00000000000E+00 0.  1.
          1   -1    0    0  501    0  0.00000000000E+00 -0.00000000000E+00 -0.28499941738E+03  0.28499941738E+03  0.00000000000E+00 0. -1.
         25    2    1    2    0    0  0.10550775399E+02 -0.10207375147E+03  0.22377492802E+02  0.16333091459E+03  0.12508343566E+03 0.  0.
         23    2    1    2    0    0 -0.10550775399E+02  0.10207375147E+03 -0.19445464344E+03  0.23459076953E+03  0.81791510525E+02 0.  0.
          5    1    3    3  502    0 -0.11322364766E+02 -0.12554052352E+03  0.30953677113E+02  0.12986231754E+03  0.41800000000E+01 0.  1.
         -5    1    3    3    0  502  0.21873140165E+02  0.23466772051E+02 -0.85761843103E+01  0.33468597050E+02  0.41800000000E+01 0.  1.
        -11    1    4    4    0    0 -0.39401716432E+02  0.89316916954E+02 -0.12753615481E+03  0.16060970611E+03  0.00000000000E+00 0.  1.
         11    1    4    4    0    0  0.28850941032E+02  0.12756834518E+02 -0.66918488627E+02  0.73981063425E+02  0.00000000000E+00 0. -1.
</event>
<event>
 8    1  0.6869405E-009  0.1293684E+03  0.7561462E-02  0.1228396E+00
          1   -1    0    0  501    0  0.00000000000E+00  0.00000000000E+00  0.94976150593E+03  0.94976150593E+03  0.00000000000E+00 0. -1.
         -1   -1    0    0    0  501 -0.00000000000E+00 -0.00000000000E+00 -0.23548606908E+02  0.23548606908E+02  0.00000000000E+00 0.  1.
         25    2    1    2    0    0  0.38976032755E+02 -0.82811128478E+02  0.66193769528E+03  0.67984459334E+03  0.12510133708E+03 0.  0.
         23    2    1    2    0    0 -0.38976032755E+02  0.82811128478E+02  0.26427520374E+03  0.29346551949E+03  0.88903395256E+02 0.  0.
          5    1    3    3  502    0 -0.59702530382E+01 -0.95543691955E+02  0.55298672013E+03  0.56122724991E+03  0.41800000000E+01 0.  1.
         -5    1    3    3    0  502  0.44946285793E+02  0.12732563477E+02  0.10895097514E+03  0.11861734344E+03  0.41800000000E+01 0.  1.
        -11    1    4    4    0    0  0.64292711786E+01  0.67927969776E+02  0.21168656203E+03  0.22241120734E+03  0.00000000000E+00 0. -1.
         11    1    4    4    0    0 -0.45405303933E+02  0.14883158702E+02  0.52588641710E+02  0.71054312150E+02  0.00000000000E+00 0.  1.
</event>
<event>
 8    1  0.6869405E-009  0.1016463E+03  0.7561462E-02  0.1276872E+00
          3   -1    0    0  501    0  0.00000000000E+00  0.00000000000E+00  0.44461015821E+03  0.44461015821E+03  0.00000000000E+00 0. -1.
         -3   -1    0    0    0  501 -0.00000000000E+00 -0.00000000000E+00 -0.54053341704E+02  0.54053341704E+02  0.00000000000E+00 0.  1.
         25    2    1    2    0    0  0.15434939434E+02 -0.29744721775E+02  0.37232596449E+03  0.39420750899E+03  0.12509976210E+03 0.  0.
         23    2    1    2    0    0 -0.15434939434E+02  0.29744721775E+02  0.18230852011E+02  0.10445599092E+03  0.97240445525E+02 0.  0.
          5    1    3    3  502    0  0.64558669370E+01 -0.75815488365E+02  0.16733494776E+03  0.18386985516E+03  0.41800000000E+01 0. -1.
         -5    1    3    3    0  502  0.89790724967E+01  0.46070766590E+02  0.20499101673E+03  0.21033765383E+03  0.41800000000E+01 0. -1.
        -11    1    4    4    0    0 -0.84445113882E+01  0.54033835586E+02  0.42617630202E+02  0.69334173138E+02  0.00000000000E+00 0. -1.
         11    1    4    4    0    0 -0.69904280455E+01 -0.24289113811E+02 -0.24386778191E+02  0.35121817785E+02  0.00000000000E+00 0.  1.
</event>
<event>
 8    1  0.6869405E-009  0.1634137E+03  0.7561462E-02  0.1184896E+00
         -2   -1    0    0    0  501 -0.00000000000E+00  0.00000000000E+00  0.54131482914E+03  0.54131482914E+03  0.00000000000E+00 0.  1.
          2   -1    0    0  501    0  0.00000000000E+00 -0.00000000000E+00 -0.54423882766E+02  0.54423882766E+02  0.00000000000E+00 0. -1.
         25    2    1    2    0    0  0.11127847251E+03  0.62352569647E+02  0.19475832111E+03  0.26428948521E+03  0.12508951580E+03 0.  0.
         23    2    1    2    0    0 -0.11127847251E+03 -0.62352569647E+02  0.29213262527E+03  0.33144922670E+03  0.90809568614E+02 0.  0.
          5    1    3    3  502    0 -0.24044773973E+02  0.10191247646E+02  0.62904425514E+02  0.68238199223E+02  0.41800000000E+01 0.  1.
         -5    1    3    3    0  502  0.13532324648E+03  0.52161322001E+02  0.13185389560E+03  0.19605128598E+03  0.41800000000E+01 0.  1.
        -11    1    4    4    0    0 -0.58890578203E+02  0.16011817911E+02  0.13604930384E+03  0.14911033361E+03  0.00000000000E+00 0.  1.
         11    1    4    4    0    0 -0.52387894306E+02 -0.78364387558E+02  0.15608332142E+03  0.18233889309E+03  0.00000000000E+00 0. -1.
</event>
<event>
 8    1  0.6869405E-009  0.1010700E+03  0.7561462E-02  0.1278062E+00
          1   -1    0    0  501    0  0.00000000000E+00  0.00000000000E+00  0.17498833225E+03  0.17498833225E+03  0.00000000000E+00 0. -1.
         -1   -1    0    0    0  501 -0.00000000000E+00 -0.00000000000E+00 -0.10530433724E+03  0.10530433724E+03  0.00000000000E+00 0.  1.
         25    2    1    2    0    0  0.32069776690E+02 -0.54833868211E+02  0.10169622057E+03  0.17327976782E+03  0.12509409650E+03 0.  0.
         23    2    1    2    0    0 -0.32069776690E+02  0.54833868211E+02 -0.32012225555E+02  0.10701290167E+03  0.79948451257E+02 0.  0.
          5    1    3    3  502    0  0.48698648128E+02 -0.68546674379E+02  0.11868985897E+03  0.14551618439E+03  0.41800000000E+01 0.  1.
         -5    1    3    3    0  502 -0.16628871438E+02  0.13712806167E+02 -0.16993638407E+02  0.27763583425E+02  0.41800000000E+01 0.  1.
        -11    1    4    4    0    0 -0.53216832555E+02  0.23453924913E+02 -0.11247266676E+01  0.58166853715E+02  0.00000000000E+00 0. -1.
         11    1    4    4    0    0  0.21147055864E+02  0.31379943298E+02 -0.30887498887E+02  0.48846047953E+02  0.00000000000E+00 0.  1.
</event>
<event>
 8    1  0.6869405E-009  0.1160072E+03  0.7561462E-02  0.1249833E+00
          1   -1    0    0  501    0  0.00000000000E+00  0.00000000000E+00  0.42126889203E+03  0.42126889203E+03  0.00000000000E+00 0. -1.
         -1   -1    0    0    0  501 -0.00000000000E+00 -0.00000000000E+00 -0.53621276634E+02  0.53621276634E+02  0.00000000000E+00 0.  1.
         25    2    1    2    0    0  0.15161755506E+02 -0.89728095000E+02  0.27810204001E+03  0.31822833377E+03  0.12509003914E+03 0.  0.
         23    2    1    2    0    0 -0.15161755506E+02  0.89728095000E+02  0.89545575392E+02  0.15666183490E+03  0.90793780514E+02 0.  0.
          5    1    3    3  502    0 -0.32583123759E+00 -0.11281155242E+03  0.15377858307E+03  0.19076655246E+03  0.41800000000E+01 0. -1.
         -5    1    3    3    0  502  0.15487586744E+02  0.23083457418E+02  0.12432345694E+03  0.12746178131E+03  0.41800000000E+01 0. -1.
        -11    1    4    4    0    0 -0.12010738973E+02  0.66816367360E+02  0.39557951391E+01  0.68002449316E+02  0.00000000000E+00 0.  1.
         11    1    4    4    0    0 -0.31510165339E+01  0.22911727640E+02  0.85589780253E+02  0.88659385585E+02  0.00000000000E+00 0. -1.
</event>
<event>
 8    1  0.6869405E-009  0.1280641E+03  0.7561462E-02  0.1230357E+00
         -2   -1    0    0    0  501 -0.00000000000E+00  0.00000000000E+00  0.73078677048E+02  0.73078677048E+02  0.00000000000E+00 0. -1.
          2   -1    0    0  501    0  0.00000000000E+00 -0.00000000000E+00 -0.31095220327E+03  0.31095220327E+03  0.00000000000E+00 0.  1.
         25    2    1    2    0    0 -0.72086410322E+02  0.32966512860E+02 -0.41049624535E+02  0.15367119977E+03  0.12508606813E+03 0.  0.
         23    2    1    2    0    0  0.72086410322E+02 -0.32966512860E+02 -0.19682390168E+03  0.23035968054E+03  0.89681060556E+02 0.  0.
          5    1    3    3  502    0  0.31650869847E+02 -0.95772386775E+01  0.22473132800E+01  0.33406943586E+02  0.41800000000E+01 0.  1.
         -5    1    3    3    0  502 -0.10373728017E+03  0.42543751537E+02 -0.43296937815E+02  0.12026425619E+03  0.41800000000E+01 0.  1.
        -11    1    4    4    0    0 -0.14575961737E+02  0.57632549651E+01 -0.71205411333E+02  0.72910111586E+02  0.00000000000E+00 0.  1.
         11    1    4    4    0    0  0.86662372059E+02 -0.38729767825E+02 -0.12561849035E+03  0.15744956896E+03  0.00000000000E+00 0. -1.
</event>
<event>
 8    1  0.6869405E-009  0.2253584E+03  0.7561462E-02  0.1129950E+00
         -1   -1    0    0    0  501 -0.00000000000E+00  0.00000000000E+00  0.15784680527E+04  0.15784680527E+04  0.00000000000E+00 0.  1.
          1   -1    0    0  501    0  0.00000000000E+00 -0.00000000000E+00 -0.39480620928E+02  0.39480620928E+02  0.00000000000E+00 0. -1.
         25    2    1    2    0    0  0.18125101518E+03 -0.93309860925E+02  0.11018330434E+04  0.11274930851E+04  0.12508373495E+03 0.  0.
         23    2    1    2    0    0 -0.18125101518E+03  0.93309860925E+02  0.43715438836E+03  0.49045558853E+03  0.88792254207E+02 0.  0.
          5    1    3    3  502    0 -0.45718472702E+01 -0.45464013671E+02  0.26399812220E+03  0.26795589050E+03  0.41800000000E+01 0. -1.
         -5    1    3    3    0  502  0.18582286245E+03 -0.47845847254E+02  0.83783492120E+03  0.85953719460E+03  0.41800000000E+01 0. -1.
        -11    1    4    4    0    0 -0.17177550731E+03  0.66037653299E+02  0.31394139380E+03  0.36390520099E+03  0.00000000000E+00 0. -1.
         11    1    4    4    0    0 -0.94755078651E+01  0.27272207626E+02  0.12321299455E+03  0.12655038753E+03  0.00000000000E+00 0.  1.
</event>
<event>
 8    1  0.6869405E-009  0.1270859E+03  0.7561462E-02  0.1231845E+00
         -2   -1    0    0    0  501 -0.00000000000E+00  0.00000000000E+00  0.67250212534E+02  0.67250212534E+02  0.00000000000E+00 0.  1.
          2   -1    0    0  501    0  0.00000000000E+00 -0.00000000000E+00 -0.29506421676E+03  0.29506421676E+03  0.00000000000E+00 0. -1.
         25    2    1    2    0    0 -0.69272501377E+02  0.38581517517E+02 -0.17434459569E+03  0.22876270747E+03  0.12509646414E+03 0.  0.
         23    2    1    2    0    0  0.69272501377E+02 -0.38581517517E+02 -0.53469408537E+02  0.13355172183E+03  0.93219481937E+02 0.  0.
          5    1    3    3  502    0 -0.94954808554E+02 -0.71952905973E+01 -0.11694030232E+03  0.15086647932E+03  0.41800000000E+01 0. -1.
         -5    1    3    3    0  502  0.25682307176E+02  0.45776808115E+02 -0.57404293370E+02  0.77896228153E+02  0.41800000000E+01 0. -1.
        -11    1    4    4    0    0  0.65513770810E+02 -0.57342302133E+02 -0.12008174892E+02  0.87888509169E+02  0.00000000000E+00 0.  1.
         11    1    4    4    0    0  0.37587305668E+01  0.18760784616E+02 -0.41461233645E+02  0.45663212658E+02  0.00000000000E+00 0. -1.
</event>
<event>
 8    1  0.6869405E-009  0.1079849E+03  0.7561462E-02  0.1264348E+00
          1   -1    0    0  501    0  0.00000000000E+00  0.00000000000E+00  0.17340724489E+03  0.17340724489E+03  0.00000000000E+00 0. -1.
         -1   -1    0    0    0  501 -0.00000000000E+00 -0.00000000000E+00 -0.86928425058E+02  0.86928425058E+02  0.00000000000E+00 0.  1.
         25    2    1    2    0    0  0.93022697206E+01  0.47453900635E+02  0.64634370238E+02  0.14887177209E+03  0.12508716082E+03 0.  0.
         23    2    1    2    0    0 -0.93022697206E+01 -0.47453900635E+02  0.21844449596E+02  0.11146389786E+03  0.98023546356E+02 0.  0.
          5    1    3    3  502    0  0.38846165619E+02  0.72974815596E+02  0.71050848657E+02  0.10908732185E+03  0.41800000000E+01 0.  1.
         -5    1    3    3    0  502 -0.29543895899E+02 -0.25520914962E+02 -0.64164784193E+01  0.39784450237E+02  0.41800000000E+01 0.  1.
        -11    1    4    4    0    0 -0.25875160536E+02  0.14594171158E+02 -0.19082988068E+02  0.35308273792E+02  0.00000000000E+00 0.  1.
         11    1    4    4    0    0  0.16572890815E+02 -0.62048071792E+02  0.40927437665E+02  0.76155624066E+02  0.00000000000E+00 0. -1.
</event>
<event>
 8    1  0.6869405E-009  0.9065194E+02  0.7561462E-02  0.1301281E+00
         -1   -1    0    0    0  501 -0.00000000000E+00  0.00000000000E+00  0.16263179853E+03  0.16263179853E+03  0.00000000000E+00 0.  1.
          1   -1    0    0  501    0  0.00000000000E+00 -0.00000000000E+00 -0.79955073432E+02  0.79955073432E+02  0.00000000000E+00 0. -1.
         25    2    1    2    0    0 -0.22598134571E+02  0.27811252197E+02  0.46611075985E+02  0.13821783643E+03  0.12508971368E+03 0.  0.
         23    2    1    2    0    0  0.22598134571E+02 -0.27811252197E+02  0.36065649117E+02  0.10436903553E+03  0.91148357620E+02 0.  0.
          5    1    3    3  502    0  0.51184521255E+02  0.12694126184E+02  0.80760121481E+01  0.53513460250E+02  0.41800000000E+01 0. -1.
         -5    1    3    3    0  502 -0.73782655827E+02  0.15117126013E+02  0.38535063836E+02  0.84704376184E+02  0.41800000000E+01 0. -1.
        -11    1    4    4    0    0 -0.95082111076E+01 -0.16288502272E+02  0.59871560363E+02  0.62772009089E+02  0.00000000000E+00 0.  1.
         11    1    4    4    0    0  0.32106345679E+02 -0.11522749925E+02 -0.23805911246E+02  0.41597026444E+02  0.00000000000E+00 0. -1.
</event>
<event>
 8    1  0.6869405E-009  0.9418431E+02  0.7561462E-02  0.1293024E+00
         -1   -1    0    0    0  501 -0.00000000000E+00  0.00000000000E+00  0.45223503120E+02  0.45223503120E+02  0.00000000000E+00 0.  1.
          1   -1    0    0  501    0  0.00000000000E+00 -0.00000000000E+00 -0.54247186015E+03  0.54247186015E+03  0.00000000000E+00 0. -1.
         25    2    1    2    0    0  0.31075955933E+01 -0.38216091463E+02 -0.69589947097E+02  0.14818975328E+03  0.12508922992E+03 0.  0.
         23    2    1    2    0    0 -0.31075955933E+01  0.38216091463E+02 -0.42765840993E+03  0.43950560999E+03  0.93826109523E+02 0.  0.
          5    1    3    3  502    0  0.24092376244E+02  0.15828672710E+02  0.24185773215E+02  0.37860447684E+02  0.41800000000E+01 0. -1.
         -5    1    3    3    0  502 -0.20984780651E+02 -0.54044764172E+02 -0.93775720311E+02  0.11032930560E+03  0.41800000000E+01 0. -1.
        -11    1    4    4    0    0 -0.46900160516E+02  0.32246703817E+02 -0.22547267439E+03  0.23254548342E+03  0.00000000000E+00 0.  1.
         11    1    4    4    0    0  0.43792564923E+02  0.59693876458E+01 -0.20218573554E+03  0.20696012656E+03  0.00000000000E+00 0. -1.
</event>
<event>
 8    1  0.6869405E-009  0.1084123E+03  0.7561462E-02  0.1263539E+00
         -2   -1    0    0    0  501 -0.00000000000E+00  0.00000000000E+00  0.24336398387E+03  0.24336398387E+03  0.00000000000E+00 0.  1.
          2   -1    0    0  501    0  0.00000000000E+00 -0.00000000000E+00 -0.11673637297E+03  0.11673637297E+03  0.00000000000E+00 0. -1.
         25    2    1    2    0    0  0.88272884041E+02 -0.17814010080E+02 -0.37353362509E+02  0.15859658968E+03  0.12509261991E+03 0.  0.
         23    2    1    2    0    0 -0.88272884041E+02  0.17814010080E+02  0.16398097341E+03  0.20150376716E+03  0.74863659567E+02 0.  0.
          5    1    3    3  502    0 -0.18166809345E+02 -0.56027760465E+01 -0.47071755547E+02  0.50937673990E+02  0.41800000000E+01 0.  1.
         -5    1    3    3    0  502  0.10643969339E+03 -0.12211234033E+02  0.97183930382E+01  0.10765891569E+03  0.41800000000E+01 0.  1.
        -11    1    4    4    0    0 -0.62506219785E+02  0.14449441639E+02  0.41754930547E+02  0.76545986835E+02  0.00000000000E+00 0. -1.
         11    1    4    4    0    0 -0.25766664256E+02  0.33645684408E+01  0.12222604287E+03  0.12495778032E+03  0.00000000000E+00 0.  1.
</event>
<event>
 8    1  0.6869405E-009  0.5115632E+02  0.7561462E-02  0.1439203E+00
          2   -1    0    0  501    0  0.00000000000E+00  0.00000000000E+00  0.18533809940E+03  0.18533809940E+03  0.00000000000E+00 0.  1.
         -2   -1    0    0    0  501 -0.00000000000E+00 -0.00000000000E+00 -0.72440641060E+02  0.72440641060E+02  0.00000000000E+00 0. -1.
         25    2    1    2    0    0 -0.27083231715E+02  0.17061205539E+02  0.93660650319E+02  0.15951114939E+03  0.12508758206E+03 0.  0.
         23    2    1    2    0    0  0.27083231715E+02 -0.17061205539E+02  0.19236808019E+02  0.98267591070E+02  0.90894876079E+02 0.  0.
          5    1    3    3  502    0 -0.14304863545E+02  0.16956247040E+02  0.12415168351E+03  0.12618738587E+03  0.41800000000E+01 0.  1.
         -5    1    3    3    0  502 -0.12778368170E+02  0.10495849936E+00 -0.30491033194E+02  0.33323763512E+02  0.41800000000E+01 0.  1.
        -11    1    4    4    0    0  0.24254740122E+02 -0.38045231192E+02  0.45804481846E+02  0.64294498925E+02  0.00000000000E+00 0.  1.
         11    1    4    4    0    0  0.28284915932E+01  0.20984025653E+02 -0.26567673827E+02  0.33973092145E+02  0.00000000000E+00 0. -1.
</event>
<event>
 8    1  0.6869405E-009  0.1037949E+03  0.7561462E-02  0.1272512E+00
         -1   -1    0    0    0  501 -0.00000000000E+00  0.00000000000E+00  0.23040044571E+03  0.23040044571E+03  0.00000000000E+00 0.  1.
          1   -1    0    0  501    0  0.00000000000E+00 -0.00000000000E+00 -0.78477276572E+02  0.78477276572E+02  0.00000000000E+00 0. -1.
         25    2    1    2    0    0  0.57624569560E+02 -0.23009145693E+02  0.23944381464E+02  0.14167414821E+03  0.12509284178E+03 0.  0.
         23    2    1    2    0    0 -0.57624569560E+02  0.23009145693E+02  0.12797878767E+03  0.16720357408E+03  0.87911622024E+02 0.  0.
          5    1    3    3  502    0  0.24470101419E+02 -0.52401369075E+02  0.60707398669E+02  0.83949687298E+02  0.41800000000E+01 0.  1.
         -5    1    3    3    0  502  0.33154468141E+02  0.29392223382E+02 -0.36763017204E+02  0.57724460907E+02  0.41800000000E+01 0.  1.
        -11    1    4    4    0    0 -0.23465664376E+02  0.54063723757E+02  0.53612547190E+02  0.79673263064E+02  0.00000000000E+00 0. -1.
         11    1    4    4    0    0 -0.34158905185E+02 -0.31054578065E+02  0.74366240483E+02  0.87530311012E+02  0.00000000000E+00 0.  1.
</event>
<event>
 8    1  0.6869405E-009  0.1057472E+03  0.7561462E-02  0.1268654E+00
         -2   -1    0    0    0  501 -0.00000000000E+00  0.00000000000E+00  0.23698059636E+02  0.23698059636E+02  0.00000000000E+00 0.  1.
          2   -1    0    0  501    0  0.00000000000E+00 -0.00000000000E+00 -0.91577672086E+03  0.91577672086E+03  0.00000000000E+00 0. -1.
         25    2    1    2    0    0 -0.49474334800E+02  0.36260649970E+01 -0.78218361817E+03  0.79367417976E+03  0.12508650184E+03 0.  0.
         23    2    1    2    0    0  0.49474334800E+02 -0.36260649970E+01 -0.10989504306E+03  0.14580060073E+03  0.81975828964E+02 0.  0.
          5    1    3    3  502    0  0.33741450940E+02  0.11942906016E+02 -0.43684851948E+03  0.43833231672E+03  0.41800000000E+01 0. -1.
         -5    1    3    3    0  502 -0.83215785740E+02 -0.83168410190E+01 -0.34533509869E+03  0.35534186304E+03  0.41800000000E+01 0. -1.
        -11    1    4    4    0    0  0.69451346568E+02 -0.11220171156E+02 -0.99953748960E+02  0.12222983970E+03  0.00000000000E+00 0. -1.
         11    1    4    4    0    0 -0.19977011768E+02  0.75941061592E+01 -0.99412940969E+01  0.23570761037E+02  0.00000000000E+00 0.  1.
</event>
<event>
 8    1  0.6869405E-009  0.8642460E+02  0.7561462E-02  0.1311749E+00
         -1   -1    0    0    0  501 -0.00000000000E+00  0.00000000000E+00  0.31286552641E+02  0.31286552641E+02  0.00000000000E+00 0.  1.
          1   -1    0    0  501    0  0.00000000000E+00 -0.00000000000E+00 -0.40077738376E+03  0.40077738376E+03  0.00000000000E+00 0. -1.
         25    2    1    2    0    0 -0.14739067287E+02  0.20715918349E+02 -0.18231808033E+03  0.22256100057E+03  0.12508847742E+03 0.  0.
         23    2    1    2    0    0  0.14739067287E+02 -0.20715918349E+02 -0.18717275079E+03  0.20950293582E+03  0.90617062986E+02 0.  0.
          5    1    3    3  502    0 -0.44786019751E+02  0.18321109185E+01 -0.18130782491E+03  0.18681312579E+03  0.41800000000E+01 0.  1.
         -5    1    3    3    0  502  0.30046952464E+02  0.18883807430E+02 -0.10102554224E+01  0.35747874782E+02  0.41800000000E+01 0.  1.
        -11    1    4    4    0    0 -0.12481296707E+02 -0.50341408721E+02 -0.12631890551E+03  0.13655221012E+03  0.00000000000E+00 0.  1.
         11    1    4    4    0    0  0.27220363994E+02  0.29625490372E+02 -0.60853845281E+02  0.72950725708E+02  0.00000000000E+00 0. -1.
</event>
<event>
 8    1  0.6869405E-009  0.8792968E+02  0.7561462E-02  0.1307944E+00
         -1   -1    0    0    0  501 -0.00000000000E+00  0.00000000000E+00  0.72786125334E+02  0.72786125334E+02  0.00000000000E+00 0.  1.
          1   -1    0    0  501    0  0.00000000000E+00 -0.00000000000E+00 -0.16734741481E+03  0.16734741481E+03  0.00000000000E+00 0. -1.
         25    2    1    2    0    0  0.23994252255E+02  0.21415347304E+02 -0.56282795799E+02  0.14088910456E+03  0.12509054897E+03 0.  0.
         23    2    1    2    0    0 -0.23994252255E+02 -0.21415347304E+02 -0.38278493675E+02  0.99244435579E+02  0.85731404246E+02 0.  0.
          5    1    3    3  502    0 -0.33562654506E+02  0.50496281883E+02 -0.10460929419E+02  0.61670330840E+02  0.41800000000E+01 0. -1.
         -5    1    3    3    0  502  0.57556906761E+02 -0.29080934579E+02 -0.45821866380E+02  0.79218773725E+02  0.41800000000E+01 0. -1.
        -11    1    4    4    0    0 -0.34821670655E+02 -0.17248097949E+02  0.17250672689E+02  0.42516247933E+02  0.00000000000E+00 0.  1.
         11    1    4    4    0    0  0.10827418401E+02 -0.41672493552E+01 -0.55529166364E+02  0.56728187646E+02  0.00000000000E+00 0. -1.
</event>
<event>
 8    1  0.6869405E-009  0.1228472E+03  0.7561462E-02  0.1238473E+00
          2   -1    0    0  501    0  0.00000000000E+00  0.00000000000E+00  0.13193668561E+04  0.13193668561E+04  0.00000000000E+00 0. -1.
         -2   -1    0    0    0  501 -0.00000000000E+00 -0.00000000000E+00 -0.14431637846E+02  0.14431637846E+02  0.00000000000E+00 0.  1.
         25    2    1    2    0    0 -0.15219532351E+02 -0.67119665948E+02  0.95369484756E+03  0.96432236391E+03  0.12508827102E+03 0.  0.
         23    2    1    2    0    0  0.15219532351E+02  0.67119665948E+02  0.35124037066E+03  0.36947613001E+03  0.91684943909E+02 0.  0.
          5    1    3    3  502    0 -0.45943934346E+02 -0.87061515196E+02  0.53418859053E+03  0.54319929600E+03  0.41800000000E+01 0. -1.
         -5    1    3    3    0  502  0.30724401995E+02  0.19941849248E+02  0.41950625704E+03  0.42112306791E+03  0.41800000000E+01 0. -1.
        -11    1    4    4    0    0 -0.28114954078E+02 -0.25724386187E+01  0.51806230160E+02  0.58999606496E+02  0.00000000000E+00 0.  1.
         11    1    4    4    0    0  0.43334486429E+02  0.69692104567E+02  0.29943414050E+03  0.31047652351E+03  0.00000000000E+00 0. -1.
</event>
<event>
 8    1  0.6869405E-009  0.1922452E+03  0.7561462E-02  0.1156452E+00
         -1   -1    0    0    0  501 -0.00000000000E+00  0.00000000000E+00  0.17198387096E+03  0.17198387096E+03  0.00000000000E+00 0.  1.
          1   -1    0    0  501    0  0.00000000000E+00 -0.00000000000E+00 -0.35871566353E+03  0.35871566353E+03  0.00000000000E+00 0. -1.
         25    2    1    2    0    0  0.16518601893E+03 -0.43339683559E+02  0.56117439354E+02  0.21900084159E+03  0.12508977815E+03 0.  0.
         23    2    1    2    0    0 -0.16518601893E+03  0.43339683559E+02 -0.24284923192E+03  0.31169869291E+03  0.94950390702E+02 0.  0.
          5    1    3    3  502    0  0.16062335337E+03 -0.11733026493E+02  0.82622077865E+01  0.16131727135E+03  0.41800000000E+01 0.  1.
         -5    1    3    3    0  502  0.45626655604E+01 -0.31606657066E+02  0.47855231567E+02  0.57683570245E+02  0.41800000000E+01 0.  1.
        -11    1    4    4    0    0 -0.11259524362E+03 -0.13896212904E+02 -0.17481416928E+03  0.20840054559E+03  0.00000000000E+00 0.  1.
         11    1    4    4    0    0 -0.52590775305E+02  0.57235896463E+02 -0.68035062640E+02  0.10329814732E+03  0.00000000000E+00 0. -1.
</event>
<event>
 8    1  0.6869405E-009  0.1058070E+03  0.7561462E-02  0.1268538E+00
          2   -1    0    0  501    0  0.00000000000E+00  0.00000000000E+00  0.90465772268E+02  0.90465772268E+02  0.00000000000E+00 0. -1.
         -2   -1    0    0    0  501 -0.00000000000E+00 -0.00000000000E+00 -0.15646338346E+03  0.15646338346E+03  0.00000000000E+00 0.  1.
         25    2    1    2    0    0  0.73434894803E+01 -0.43633788469E+02 -0.61819596104E+02  0.14638083993E+03  0.12509138061E+03 0.  0.
         23    2    1    2    0    0 -0.73434894803E+01  0.43633788469E+02 -0.41780150832E+01  0.10054831579E+03  0.90192425762E+02 0.  0.
          5    1    3    3  502    0 -0.47545710188E+02  0.38000088960E+01 -0.55711204687E+02  0.73459140701E+02  0.41800000000E+01 0.  1.
         -5    1    3    3    0  502  0.54889199669E+02 -0.47433797365E+02 -0.61083914173E+01  0.72921699229E+02  0.41800000000E+01 0.  1.
        -11    1    4    4    0    0  0.31705746710E+02 -0.10541555797E+01  0.18839453382E+02  0.36895672133E+02  0.00000000000E+00 0. -1.
         11    1    4    4    0    0 -0.39049236190E+02  0.44687944049E+02 -0.23017468465E+02  0.63652643660E+02  0.00000000000E+00 0.  1.
</event>
<event>
 8    1  0.6869405E-009  0.9833644E+02  0.7561462E-02  0.1283834E+00
         -3   -1    0    0    0  501 -0.00000000000E+00  0.00000000000E+00  0.76724829737E+02  0.76724829737E+02  0.00000000000E+00 0.  1.
          3   -1    0    0  501    0  0.00000000000E+00 -0.00000000000E+00 -0.41103857844E+03  0.41103857844E+03  0.00000000000E+00 0. -1.
         25    2    1    2    0    0 -0.54411594806E+02 -0.23659993325E+02 -0.35159747785E+03  0.37787039773E+03  0.12507931133E+03 0.  0.
         23    2    1    2    0    0  0.54411594806E+02  0.23659993325E+02  0.17283729138E+02  0.10989301045E+03  0.90869849339E+02 0.  0.
          5    1    3    3  502    0  0.25073376511E+02 -0.40981306837E+01 -0.22872219874E+03  0.23016686443E+03  0.41800000000E+01 0.  1.
         -5    1    3    3    0  502 -0.79484971318E+02 -0.19561862642E+02 -0.12287527911E+03  0.14770353330E+03  0.41800000000E+01 0.  1.
        -11    1    4    4    0    0  0.45647987353E+02 -0.15980334821E+02  0.40538500653E+02  0.63106892536E+02  0.00000000000E+00 0.  1.
         11    1    4    4    0    0  0.87636074532E+01  0.39640328146E+02 -0.23254771514E+02  0.46786117912E+02  0.00000000000E+00 0. -1.
</event>
<event>
 8    1  0.6869405E-009  0.9724741E+02  0.7561462E-02  0.1286193E+00
         -2   -1    0    0    0  501 -0.00000000000E+00  0.00000000000E+00  0.54416449800E+02  0.54416449800E+02  0.00000000000E+00 0. -1.
          2   -1    0    0  501    0  0.00000000000E+00 -0.00000000000E+00 -0.27981995224E+03  0.27981995224E+03  0.00000000000E+00 0.  1.
         25    2    1    2    0    0 -0.14456380804E+02  0.55650449937E+02 -0.10730772390E+03  0.17455377517E+03  0.12509241901E+03 0.  0.
         23    2    1    2    0    0  0.14456380804E+02 -0.55650449937E+02 -0.11809577854E+03  0.15968262687E+03  0.90807317391E+02 0.  0.
          5    1    3    3  502    0  0.50085917358E+02 -0.26000557693E+00 -0.54153867975E+02  0.73883560669E+02  0.41800000000E+01 0.  1.
         -5    1    3    3    0  502 -0.64542298162E+02  0.55910455514E+02 -0.53153855929E+02  0.10067021450E+03  0.41800000000E+01 0.  1.
        -11    1    4    4    0    0  0.11395072378E+02 -0.20477030240E+02 -0.12193655014E+03  0.12416794555E+03  0.00000000000E+00 0.  1.
         11    1    4    4    0    0  0.30613084256E+01 -0.35173419697E+02  0.38407716074E+01  0.35514681316E+02  0.00000000000E+00 0. -1.
</event>
<event>
 8    1  0.6869405E-009  0.7985872E+02  0.7561462E-02  0.1329453E+00
          2   -1    0    0  501    0  0.00000000000E+00  0.00000000000E+00  0.48807325588E+03  0.48807325588E+03  0.00000000000E+00 0. -1.
         -2   -1    0    0    0  501 -0.00000000000E+00 -0.00000000000E+00 -0.25991298274E+02  0.25991298274E+02  0.00000000000E+00 0.  1.
         25    2    1    2    0    0  0.22112849902E+01 -0.33376279865E+01  0.19590653033E+03  0.23245781982E+03  0.12506494244E+03 0.  0.
         23    2    1    2    0    0 -0.22112849902E+01  0.33376279865E+01  0.26617542727E+03  0.28160673433E+03  0.91852954193E+02 0.  0.
          5    1    3    3  502    0  0.33822676530E+02 -0.24851812879E+02  0.18865741788E+03  0.19331497555E+03  0.41800000000E+01 0.  1.
         -5    1    3    3    0  502 -0.31611391540E+02  0.21514184892E+02  0.72491124551E+01  0.39142844276E+02  0.41800000000E+01 0.  1.
        -11    1    4    4    0    0  0.10976126200E+02 -0.35972436228E+02  0.56513487009E+02  0.67884208241E+02  0.00000000000E+00 0.  1.
         11    1    4    4    0    0 -0.13187411190E+02  0.39310064215E+02  0.20966194027E+03  0.21372252609E+03  0.00000000000E+00 0. -1.
</event>
<event>
 8    1  0.6869405E-009  0.7801398E+02  0.7561462E-02  0.1334784E+00
         -3   -1    0    0    0  501 -0.00000000000E+00  0.00000000000E+00  0.83693039480E+02  0.83693039480E+02  0.00000000000E+00 0.  1.
          3   -1    0    0  501    0  0.00000000000E+00 -0.00000000000E+00 -0.14250552196E+03  0.14250552196E+03  0.00000000000E+00 0. -1.
         25    2    1    2    0    0  0.12474508926E+02 -0.59135460997E+01 -0.35422897352E+02  0.13074094029E+03  0.12509128032E+03 0.  0.
         23    2    1    2    0    0 -0.12474508926E+02  0.59135460997E+01 -0.23389585130E+02  0.95457621149E+02  0.91512301590E+02 0.  0.
          5    1    3    3  502    0 -0.53735354222E+02 -0.17629935989E+02 -0.27132156140E+02  0.62864371731E+02  0.41800000000E+01 0.  1.
         -5    1    3    3    0  502  0.66209863147E+02  0.11716389889E+02 -0.82907412122E+01  0.67876568563E+02  0.41800000000E+01 0.  1.
        -11    1    4    4    0    0 -0.11323841646E+01  0.16439227348E+02  0.33052798636E+02  0.36932614142E+02  0.00000000000E+00 0.  1.
         11    1    4    4    0    0 -0.11342124761E+02 -0.10525681248E+02 -0.56442383766E+02  0.58525007006E+02  0.00000000000E+00 0. -1.
</event>
<event>
 8    1  0.6869405E-009  0.1720703E+03  0.7561462E-02  0.1175706E+00
          1   -1    0    0  501    0  0.00000000000E+00  0.00000000000E+00  0.82023108252E+03  0.82023108252E+03  0.00000000000E+00 0. -1.
         -1   -1    0    0    0  501 -0.00000000000E+00 -0.00000000000E+00 -0.45902272701E+02  0.45902272701E+02  0.00000000000E+00 0.  1.
         25    2    1    2    0    0  0.25818046629E+02  0.15558889620E+03  0.34848741532E+03  0.40244990588E+03  0.12509185406E+03 0.  0.
         23    2    1    2    0    0 -0.25818046629E+02 -0.15558889620E+03  0.42584139450E+03  0.46368344934E+03  0.93738848772E+02 0.  0.
          5    1    3    3  502    0 -0.29133641922E+02  0.31471170227E+02  0.21025879345E+02  0.47945423653E+02  0.41800000000E+01 0. -1.
         -5    1    3    3    0  502  0.54951688550E+02  0.12411772598E+03  0.32746153597E+03  0.35450448223E+03  0.41800000000E+01 0. -1.
        -11    1    4    4    0    0  0.57407062295E+01 -0.10796397798E+03  0.36297517932E+03  0.37873494300E+03  0.00000000000E+00 0. -1.
         11    1    4    4    0    0 -0.31558752858E+02 -0.47624918228E+02  0.62866215182E+02  0.84948506341E+02  0.00000000000E+00 0.  1.
</event>
<event>
 8    1  0.6869405E-009  0.3147079E+03  0.7561462E-02  0.1078111E+00
          1   -1    0    0  501    0  0.00000000000E+00  0.00000000000E+00  0.69327633948E+03  0.69327633948E+03  0.00000000000E+00 0. -1.
         -1   -1    0    0    0  501 -0.00000000000E+00 -0.00000000000E+00 -0.14539629113E+03  0.14539629113E+03  0.00000000000E+00 0.  1.
         25    2    1    2    0    0  0.89413556702E+02  0.28260347178E+03  0.32113059665E+03  0.45456853743E+03  0.12509272053E+03 0.  0.
         23    2    1    2    0    0 -0.89413556702E+02 -0.28260347178E+03  0.22674945169E+03  0.38410409318E+03  0.90890781518E+02 0.  0.
          5    1    3    3  502    0 -0.23835985525E+02  0.12626914514E+03  0.12372825197E+03  0.17843263142E+03  0.41800000000E+01 0. -1.
         -5    1    3    3    0  502  0.11324954223E+03  0.15633432664E+03  0.19740234468E+03  0.27613590601E+03  0.41800000000E+01 0. -1.
        -11    1    4    4    0    0 -0.60790109290E+02 -0.26951496259E+03  0.21648755794E+03  0.35099945184E+03  0.00000000000E+00 0. -1.
         11    1    4    4    0    0 -0.28623447412E+02 -0.13088509191E+02  0.10261893754E+02  0.33104641336E+02  0.00000000000E+00 0.  1.
</event>
<event>
 8    1  0.6869405E-009  0.1034354E+03  0.7561462E-02  0.1273233E+00
         -1   -1    0    0    0  501 -0.00000000000E+00  0.00000000000E+00  0.34596647683E+03  0.34596647683E+03  0.00000000000E+00 0.  1.
          1   -1    0    0  501    0  0.00000000000E+00 -0.00000000000E+00 -0.46062593892E+02  0.46062593892E+02  0.00000000000E+00 0. -1.
         25    2    1    2    0    0  0.49174213959E+02 -0.30040040258E+02  0.21407828426E+03  0.25455348675E+03  0.12508980168E+03 0.  0.
         23    2    1    2    0    0 -0.49174213959E+02  0.30040040258E+02  0.85825598673E+02  0.13747558397E+03  0.90625578422E+02 0.  0.
          5    1    3    3  502    0 -0.52518268441E+01  0.27998015988E+02  0.30105194953E+01  0.28948336949E+02  0.41800000000E+01 0. -1.
         -5    1    3    3    0  502  0.54426040803E+02 -0.58038056246E+02  0.21106776477E+03  0.22560514980E+03  0.41800000000E+01 0. -1.
        -11    1    4    4    0    0 -0.18772865981E+02 -0.27517638831E+02  0.49793959674E+01  0.33681379546E+02  0.00000000000E+00 0. -1.
         11    1    4    4    0    0 -0.30401347978E+02  0.57557679089E+02  0.80846202706E+02  0.10379420443E+03  0.00000000000E+00 0.  1.
</event>
<event>
 8    1  0.6869405E-009  0.1149330E+03  0.7561462E-02  0.1251698E+00
         -1   -1    0    0    0  501 -0.00000000000E+00  0.00000000000E+00  0.43843286583E+02  0.43843286583E+02  0.00000000000E+00 0.  1.
          1   -1    0    0  501    0  0.00000000000E+00 -0.00000000000E+00 -0.37485184763E+03  0.37485184763E+03  0.00000000000E+00 0. -1.
         25    2    1    2    0    0 -0.18279072331E+02 -0.34427228850E+02 -0.95907856762E+02  0.16237246117E+03  0.12508853100E+03 0.  0.
         23    2    1    2    0    0  0.18279072331E+02  0.34427228850E+02 -0.23510070428E+03  0.25632267304E+03  0.94390746300E+02 0.  0.
          5    1    3    3  502    0 -0.53230372999E+02 -0.65191523124E+02 -0.62354586892E+02  0.10482830822E+03  0.41800000000E+01 0. -1.
         -5    1    3    3    0  502  0.34951300668E+02  0.30764294275E+02 -0.33553269869E+02  0.57544152957E+02  0.41800000000E+01 0. -1.
        -11    1    4    4    0    0 -0.37075247680E+02  0.10404119688E+02 -0.61782005854E+02  0.72799972145E+02  0.00000000000E+00 0.  1.
         11    1    4    4    0    0  0.55354320010E+02  0.24023109161E+02 -0.17331869843E+03  0.18352270089E+03  0.00000000000E+00 0. -1.
</event>
<event>
 8    1  0.6869405E-009  0.1908225E+03  0.7561462E-02  0.1157722E+00
         -1   -1    0    0    0  501 -0.00000000000E+00  0.00000000000E+00  0.74278901089E+02  0.74278901089E+02  0.00000000000E+00 0.  1.
          1   -1    0    0  501    0  0.00000000000E+00 -0.00000000000E+00 -0.75273190675E+03  0.75273190675E+03  0.00000000000E+00 0. -1.
         25    2    1    2    0    0 -0.17349959350E+03  0.54295221275E+02 -0.53362306153E+03  0.57745230922E+03  0.12509003805E+03 0.  0.
         23    2    1    2    0    0  0.17349959350E+03 -0.54295221275E+02 -0.14482994413E+03  0.24955849862E+03  0.90849609354E+02 0.  0.
          5    1    3    3  502    0 -0.15684113692E+03  0.20876188929E+02 -0.50770789122E+03  0.53180798481E+03  0.41800000000E+01 0.  1.
         -5    1    3    3    0  502 -0.16658456578E+02  0.33419032346E+02 -0.25915170312E+02  0.45644324410E+02  0.41800000000E+01 0.  1.
        -11    1    4    4    0    0  0.64706166723E+02 -0.11624303626E+01 -0.54660683304E+01  0.64947033492E+02  0.00000000000E+00 0.  1.
         11    1    4    4    0    0  0.10879342678E+03 -0.53132790913E+02 -0.13936387580E+03  0.18461146513E+03  0.00000000000E+00 0. -1.
</event>
<event>
 8    1  0.6869405E-009  0.1671293E+03  0.7561462E-02  0.1180875E+00
          2   -1    0    0  501    0  0.00000000000E+00  0.00000000000E+00  0.28188676579E+03  0.28188676579E+03  0.00000000000E+00 0. -1.
         -2   -1    0    0    0  501 -0.00000000000E+00 -0.00000000000E+00 -0.11402260745E+03  0.11402260745E+03  0.00000000000E+00 0.  1.
         25    2    1    2    0    0 -0.58106967567E+02  0.12797056967E+03  0.61139806908E+02  0.19782911214E+03  0.12508155436E+03 0.  0.
         23    2    1    2    0    0  0.58106967567E+02 -0.12797056967E+03  0.10672435143E+03  0.19808026110E+03  0.89960081534E+02 0.  0.
          5    1    3    3  502    0  0.11124860432E+02 -0.15543289306E+02  0.29383065197E+02  0.35301462893E+02  0.41800000000E+01 0.  1.
         -5    1    3    3    0  502 -0.69231827999E+02  0.14351385897E+03  0.31756741712E+02  0.16252764925E+03  0.41800000000E+01 0.  1.
        -11    1    4    4    0    0  0.64513566524E+02 -0.63542581446E+02  0.96846324919E+02  0.13258533317E+03  0.00000000000E+00 0. -1.
         11    1    4    4    0    0 -0.64065989567E+01 -0.64427988223E+02  0.98780265075E+01  0.65494927928E+02  0.00000000000E+00 0.  1.
</event>
<event>
 8    1  0.6869405E-009  0.1692458E+03  0.7561462E-02  0.1178637E+00
         -1   -1    0    0    0  501 -0.00000000000E+00  0.00000000000E+00  0.82186295893E+02  0.82186295893E+02  0.00000000000E+00 0.  1.
          1   -1    0    0  501    0  0.00000000000E+00 -0.00000000000E+00 -0.42826875146E+03  0.42826875146E+03  0.00000000000E+00 0. -1.
         25    2    1    2    0    0 -0.12813696480E+03  0.68001076831E+02 -0.25158885346E+03  0.31620848085E+03  0.12509046316E+03 0.  0.
         23    2    1    2    0    0  0.12813696480E+03 -0.68001076831E+02 -0.94493602099E+02  0.19424656650E+03  0.88087794615E+02 0.  0.
          5    1    3    3  502    0 -0.13074605876E+03  0.96504006908E+02 -0.21057129464E+03  0.26601747642E+03  0.41800000000E+01 0.  1.
         -5    1    3    3    0  502  0.26090939593E+01 -0.28502930076E+02 -0.41017558819E+02  0.50191004430E+02  0.41800000000E+01 0.  1.
        -11    1    4    4    0    0  0.31371481755E+02 -0.28856860230E+02  0.12848782817E+02  0.44519428003E+02  0.00000000000E+00 0.  1.
         11    1    4    4    0    0  0.96765483049E+02 -0.39144216601E+02 -0.10734238492E+03  0.14972713850E+03  0.00000000000E+00 0. -1.
</event>
<event>
 8    1  0.6869405E-009  0.1454997E+03  0.7561462E-02  0.1206115E+00
         -1   -1    0    0    0  501 -0.00000000000E+00  0.00000000000E+00  0.17956413265E+03  0.17956413265E+03  0.00000000000E+00 0.  1.
          1   -1    0    0  501    0  0.00000000000E+00 -0.00000000000E+00 -0.15262319296E+03  0.15262319296E+03  0.00000000000E+00 0. -1.
         25    2    1    2    0    0 -0.10349912537E+03  0.37385118965E+02  0.75488151688E+02  0.18290863466E+03  0.12508953399E+03 0.  0.
         23    2    1    2    0    0  0.10349912537E+03 -0.37385118965E+02 -0.48547211998E+02  0.14927869095E+03  0.88417078134E+02 0.  0.
          5    1    3    3  502    0  0.15976933587E+02 -0.26353994487E+02  0.15317750720E+02  0.34668448471E+02  0.41800000000E+01 0.  1.
         -5    1    3    3    0  502 -0.11947605896E+03  0.63739113453E+02  0.60170400968E+02  0.14824018618E+03  0.41800000000E+01 0.  1.
        -11    1    4    4    0    0  0.87272141282E+02 -0.40755847053E+01 -0.64843654059E+02  0.10880136261E+03  0.00000000000E+00 0. -1.
         11    1    4    4    0    0  0.16226984087E+02 -0.33309534260E+02  0.16296442061E+02  0.40477328334E+02  0.00000000000E+00 0.  1.
</event>
<event>
 8    1  0.6869405E-009  0.6430466E+02  0.7561462E-02  0.1380606E+00
         -2   -1    0    0    0  501 -0.00000000000E+00  0.00000000000E+00  0.89912956145E+02  0.89912956145E+02  0.00000000000E+00 0.  1.
          2   -1    0    0  501    0  0.00000000000E+00 -0.00000000000E+00 -0.16281911020E+03  0.16281911020E+03  0.00000000000E+00 0. -1.
         25    2    1    2    0    0 -0.11095239294E+01 -0.18356909438E+02 -0.97225400243E+02  0.15949292523E+03  0.12508799934E+03 0.  0.
         23    2    1    2    0    0  0.11095239294E+01  0.18356909438E+02  0.24319246185E+02  0.93239141113E+02  0.88113021359E+02 0.  0.
          5    1    3    3  502    0  0.31411557052E+02 -0.13307872773E+02 -0.11626767422E+03  0.12124120530E+03  0.41800000000E+01 0. -1.
         -5    1    3    3    0  502 -0.32521080981E+02 -0.50490366657E+01  0.19042273979E+02  0.38251719932E+02  0.41800000000E+01 0. -1.
        -11    1    4    4    0    0  0.31297240121E+01 -0.21213371292E+02 -0.23051259828E+02  0.31482739296E+02  0.00000000000E+00 0. -1.
         11    1    4    4    0    0 -0.20202000827E+01  0.39570280730E+02  0.47370506013E+02  0.61756401817E+02  0.00000000000E+00 0.  1.
</event>
<event>
 8    1  0.6869405E-009  0.2297246E+03  0.7561462E-02  0.1126834E+00
          1   -1    0    0  501    0  0.00000000000E+00  0.00000000000E+00  0.75495176616E+02  0.75495176616E+02  0.00000000000E+00 0. -1.
         -1   -1    0    0    0  501 -0.00000000000E+00 -0.00000000000E+00 -0.74267867447E+03  0.74267867447E+03  0.00000000000E+00 0.  1.
         25    2    1    2    0    0 -0.14596465149E+01  0.21030986967E+03 -0.38067117760E+03  0.45253832596E+03  0.12509204274E+03 0.  0.
         23    2    1    2    0    0  0.14596465149E+01 -0.21030986967E+03 -0.28651232026E+03  0.36563552513E+03  0.85835049552E+02 0.  0.
          5    1    3    3  502    0 -0.51694104813E+02  0.11968664903E+03 -0.27561194968E+03  0.30492063498E+03  0.41800000000E+01 0.  1.
         -5    1    3    3    0  502  0.50234458298E+02  0.90623220637E+02 -0.10505922792E+03  0.14761769098E+03  0.41800000000E+01 0.  1.
        -11    1    4    4    0    0  0.39663189418E+02 -0.13722405448E+03 -0.20344818367E+03  0.24858554495E+03  0.00000000000E+00 0. -1.
         11    1    4    4    0    0 -0.38203542903E+02 -0.73085815193E+02 -0.83064136590E+02  0.11704998018E+03  0.00000000000E+00 0.  1.
</event>
<event>
 7    1  0.6869405E-009  0.9233851E+02  0.7561462E-02  0.1297285E+00
          2   -1    0    0  501    0  0.00000000000E+00  0.00000000000E+00  0.62614795706E+03  0.62614795706E+03  0.00000000000E+00 0. -1.
         -2   -1    0    0    0  501 -0.00000000000E+00 -0.00000000000E+00 -0.31687017367E+02  0.31687017367E+02  0.00000000000E+00 0.  1.
         23    2    1    2    0    0  0.81791671258E+02  0.35067734407E+02  0.28382721922E+03  0.31138859891E+03  0.92115936069E+02 0.  0.
          5    1    1    2  502    0 -0.74659984278E+02 -0.41163801198E+02  0.84601590654E+02  0.12018100234E+03  0.41800000000E+01 0.  1.
         -5    1    1    2    0  502 -0.71316869792E+01  0.60960667905E+01  0.22603212983E+03  0.22626537319E+03  0.41800000000E+01 0.  1.
        -11    1    3    3    0    0  0.14419011114E+02  0.48969507101E+01 -0.27344906779E+01  0.15471439720E+02  0.00000000000E+00 0.  1.
         11    1    3    3    0    0  0.67372660144E+02  0.30170783697E+02  0.28656170990E+03  0.29591715919E+03  0.00000000000E+00 0. -1.
</event>
<event>
 8    1  0.6869405E-009  0.1068896E+03  0.7561462E-02  0.1266441E+00
         -2   -1    0    0    0  501 -0.00000000000E+00  0.00000000000E+00  0.51985390972E+02  0.51985390972E+02  0.00000000000E+00 0.  1.
          2   -1    0    0  501    0  0.00000000000E+00 -0.00000000000E+00 -0.32970428564E+03  0.32970428564E+03  0.00000000000E+00 0. -1.
         25    2    1    2    0    0  0.21917377620E+02 -0.13200539906E+02 -0.25467559902E+03  0.28489002084E+03  0.12509211622E+03 0.  0.
         23    2    1    2    0    0 -0.21917377620E+02  0.13200539906E+02 -0.23043295653E+02  0.96799655779E+02  0.90468525957E+02 0.  0.
          5    1    3    3  502    0  0.71238501845E+02 -0.21143059549E+02 -0.12023367096E+03  0.14140566164E+03  0.41800000000E+01 0. -1.
         -5    1    3    3    0  502 -0.49321124225E+02  0.79425196432E+01 -0.13444192806E+03  0.14348435920E+03  0.41800000000E+01 0. -1.
        -11    1    4    4    0    0 -0.88050452304E+01 -0.36640574738E+02 -0.25005254795E+02  0.45225250757E+02  0.00000000000E+00 0. -1.
         11    1    4    4    0    0 -0.13112332389E+02  0.49841114644E+02  0.19619591426E+01  0.51574405022E+02  0.00000000000E+00 0.  1.
</event>
<event>
 8    1  0.6869405E-009  0.6120232E+02  0.7561462E-02  0.1392854E+00
          2   -1    0    0  501    0  0.00000000000E+00  0.00000000000E+00  0.75409037666E+03  0.75409037666E+03  0.00000000000E+00 0.  1.
         -2   -1    0    0    0  501 -0.00000000000E+00 -0.00000000000E+00 -0.21986665630E+02  0.21986665630E+02  0.00000000000E+00 0. -1.
         25    2    1    2    0    0 -0.11696400921E+02  0.16368058996E+02  0.55776911891E+03  0.57197798570E+03  0.12509079486E+03 0.  0.
         23    2    1    2    0    0  0.11696400921E+02 -0.16368058996E+02  0.17433459212E+03  0.20409905659E+03  0.10420727299E+03 0.  0.
          5    1    3    3  502    0 -0.33907882218E+02  0.15274552740E+02  0.54442257773E+03  0.54570731348E+03  0.41800000000E+01 0.  1.
         -5    1    3    3    0  502  0.22211481297E+02  0.10935062561E+01  0.13346541180E+02  0.26270672218E+02  0.41800000000E+01 0.  1.
        -11    1    4    4    0    0 -0.22364032375E+02 -0.17308825594E+02  0.16682879816E+03  0.16920872697E+03  0.00000000000E+00 0.  1.
         11    1    4    4    0    0  0.34060433296E+02  0.94076659717E+00  0.75057939536E+01  0.34890329620E+02  0.00000000000E+00 0. -1.
</event>
<event>
 8    1  0.6869405E-009  0.7285476E+02  0.7561462E-02  0.1350646E+00
          2   -1    0    0  501    0  0.00000000000E+00  0.00000000000E+00  0.42108691102E+03  0.42108691102E+03  0.00000000000E+00 0. -1.
         -2   -1    0    0    0  501 -0.00000000000E+00 -0.00000000000E+00 -0.31997282754E+02  0.31997282754E+02  0.00000000000E+00 0.  1.
         25    2    1    2    0    0  0.35542760740E+02  0.21348668462E+02  0.24626764971E+03  0.27930548797E+03  0.12507896238E+03 0.  0.
         23    2    1    2    0    0 -0.35542760740E+02 -0.21348668462E+02  0.14282197856E+03  0.17377870581E+03  0.89899207705E+02 0.  0.
          5    1    3    3  502    0  0.11700988637E+02  0.38118122427E+02  0.24661896531E+03  0.24985654052E+03  0.41800000000E+01 0. -1.
         -5    1    3    3    0  502  0.23841772103E+02 -0.16769453965E+02 -0.35131559616E+00  0.29448947450E+02  0.41800000000E+01 0. -1.
        -11    1    4    4    0    0 -0.63971884933E+01  0.22570983272E+02  0.10820115023E+03  0.11071523029E+03  0.00000000000E+00 0. -1.
         11    1    4    4    0    0 -0.29145572247E+02 -0.43919651734E+02  0.34620828324E+02  0.63063475514E+02  0.00000000000E+00 0.  1.
</event>
<event>
 8    1  0.6869405E-009  0.1137171E+03  0.7561462E-02  0.1253837E+00
          1   -1    0    0  501    0  0.00000000000E+00  0.00000000000E+00  0.56101918678E+02  0.56101918678E+02  0.00000000000E+00 0. -1.
         -1   -1    0    0    0  501 -0.00000000000E+00 -0.00000000000E+00 -0.42604638132E+03  0.42604638132E+03  0.00000000000E+00 0.  1.
         25    2    1    2    0    0  0.67057964600E+02 -0.76427849926E+02 -0.25816061906E+03  0.30437607375E+03  0.12513953084E+03 0.  0.
         23    2    1    2    0    0 -0.67057964600E+02  0.76427849926E+02 -0.11178384359E+03  0.17777222625E+03  0.93644807001E+02 0.  0.
          5    1    3    3  502    0  0.17069067411E+02 -0.11869001924E+02  0.10419760190E+02  0.23627739447E+02  0.41800000000E+01 0.  1.
         -5    1    3    3    0  502  0.49988897189E+02 -0.64558848003E+02 -0.26858037925E+03  0.28074833430E+03  0.41800000000E+01 0.  1.
        -11    1    4    4    0    0 -0.17104301927E+02  0.72357816160E+02 -0.26655236122E+02  0.78985519664E+02  0.00000000000E+00 0. -1.
         11    1    4    4    0    0 -0.49953662672E+02  0.40700337665E+01 -0.85128607464E+02  0.98786706585E+02  0.00000000000E+00 0.  1.
</event>
<event>
 8    1  0.6869405E-009  0.1173834E+03  0.7561462E-02  0.1247477E+00
         -2   -1    0    0    0  501 -0.00000000000E+00  0.00000000000E+00  0.94000622513E+02  0.94000622513E+02  0.00000000000E+00 0.  1.
          2   -1    0    0  501    0  0.00000000000E+00 -0.00000000000E+00 -0.25568762003E+03  0.25568762003E+03  0.00000000000E+00 0. -1.
         25    2    1    2    0    0  0.62590345155E+02  0.14340597935E+02  0.83884871016E+01  0.14085934837E+03  0.12509110780E+03 0.  0.
         23    2    1    2    0    0 -0.62590345155E+02 -0.14340597935E+02 -0.17007548462E+03  0.20882889418E+03  0.10276493818E+03 0.  0.
          5    1    3    3  502    0  0.12253609153E+01 -0.37532016662E+02 -0.33189613214E+02  0.50290919751E+02  0.41800000000E+01 0. -1.
         -5    1    3    3    0  502  0.61364984240E+02  0.51872614597E+02  0.41578100316E+02  0.90568428615E+02  0.41800000000E+01 0. -1.
        -11    1    4    4    0    0  0.10566407813E+02 -0.38151856265E+02 -0.87102090547E+02  0.95676471968E+02  0.00000000000E+00 0.  1.
         11    1    4    4    0    0 -0.73156752969E+02  0.23811258330E+02 -0.82973394074E+02  0.11315242221E+03  0.00000000000E+00 0. -1.
</event>
<event>
 8    1  0.6869405E-009  0.1404874E+03  0.7561462E-02  0.1212675E+00
          2   -1    0    0  501    0  0.00000000000E+00  0.00000000000E+00  0.55411027140E+03  0.55411027140E+03  0.00000000000E+00 0. -1.
         -2   -1    0    0    0  501 -0.00000000000E+00 -0.00000000000E+00 -0.44617814651E+02  0.44617814651E+02  0.00000000000E+00 0.  1.
         25    2    1    2    0    0 -0.10307999249E+03 -0.39277531234E+02  0.32161066151E+03  0.36228193189E+03  0.12508625531E+03 0.  0.
         23    2    1    2    0    0  0.10307999249E+03  0.39277531234E+02  0.18788179524E+03  0.23644615416E+03  0.91864060026E+02 0.  0.
          5    1    3    3  502    0 -0.11917758212E+02  0.42117267874E+02  0.72860390293E+02  0.85099977013E+02  0.41800000000E+01 0. -1.
         -5    1    3    3    0  502 -0.91162234273E+02 -0.81394799108E+02  0.24875027121E+03  0.27718195488E+03  0.41800000000E+01 0. -1.
        -11    1    4    4    0    0  0.69594883936E+02  0.10131170394E+02  0.17740033015E+03  0.19083229711E+03  0.00000000000E+00 0. -1.
         11    1    4    4    0    0  0.33485108549E+02  0.29146360839E+02  0.10481465094E+02  0.45613857053E+02  0.00000000000E+00 0.  1.
</event>
<event>
 8    1  0.6869405E-009  0.1057807E+03  0.7561462E-02  0.1268589E+00
         -2   -1    0    0    0  501 -0.00000000000E+00  0.00000000000E+00  0.11481965283E+04  0.11481965283E+04  0.00000000000E+00 0.  1.
          2   -1    0    0  501    0  0.00000000000E+00 -0.00000000000E+00 -0.12209400182E+02  0.12209400182E+02  0.00000000000E+00 0. -1.
         25    2    1    2    0    0 -0.21766540637E+01 -0.91495720395E+01  0.86934087260E+03  0.87834514709E+03  0.12509273420E+03 0.  0.
         23    2    1    2    0    0  0.21766540637E+01  0.91495720395E+01  0.26664625556E+03  0.28206078143E+03  0.91485552562E+02 0.  0.
          5    1    3    3  502    0 -0.61006883414E+02 -0.21156863122E+02  0.49134447951E+03  0.49558684670E+03  0.41800000000E+01 0. -1.
         -5    1    3    3    0  502  0.58830229350E+02  0.12007291082E+02  0.37799639309E+03  0.38275830039E+03  0.41800000000E+01 0. -1.
        -11    1    4    4    0    0  0.36716753455E+02  0.29036370960E+02  0.95769774048E+02  0.10659775065E+03  0.00000000000E+00 0. -1.
         11    1    4    4    0    0 -0.34540099392E+02 -0.19886798921E+02  0.17087648151E+03  0.17546303078E+03  0.00000000000E+00 0.  1.
</event>
<event>
 8    1  0.6869405E-009  0.1291139E+03  0.7561462E-02  0.1228776E+00
         -2   -1    0    0    0  501 -0.00000000000E+00  0.00000000000E+00  0.19388031884E+03  0.19388031884E+03  0.00000000000E+00 0.  1.
          2   -1    0    0  501    0  0.00000000000E+00 -0.00000000000E+00 -0.10378407081E+03  0.10378407081E+03  0.00000000000E+00 0. -1.
         25    2    1    2    0    0 -0.77438608549E+02  0.29736969831E+02  0.80376367695E+01  0.15030426253E+03  0.12508294153E+03 0.  0.
         23    2    1    2    0    0  0.77438608549E+02 -0.29736969831E+02  0.82058611259E+02  0.14736012712E+03  0.90002032842E+02 0.  0.
          5    1    3    3  502    0 -0.33279609629E+02 -0.49124302966E+02  0.16956390064E+00  0.59483028763E+02  0.41800000000E+01 0. -1.
         -5    1    3    3    0  502 -0.44158998920E+02  0.78861272797E+02  0.78680728689E+01  0.90821233770E+02  0.41800000000E+01 0. -1.
        -11    1    4    4    0    0  0.74992111338E+02  0.33702670745E+01  0.85740806428E+02  0.11395903365E+03  0.00000000000E+00 0.  1.
         11    1    4    4    0    0  0.24464972103E+01 -0.33107236905E+02 -0.36821951697E+01  0.33401093476E+02  0.00000000000E+00 0. -1.
</event>
<event>
 8    1  0.6869405E-009  0.1124929E+03  0.7561462E-02  0.1256022E+00
         -1   -1    0    0    0  501 -0.00000000000E+00  0.00000000000E+00  0.32246459889E+02  0.32246459889E+02  0.00000000000E+00 0.  1.
          1   -1    0    0  501    0  0.00000000000E+00 -0.00000000000E+00 -0.43606192657E+03  0.43606192657E+03  0.00000000000E+00 0. -1.
         25    2    1    2    0    0  0.37896729570E+02  0.30677835577E+02 -0.21777472661E+03  0.25582938746E+03  0.12508218191E+03 0.  0.
         23    2    1    2    0    0 -0.37896729570E+02 -0.30677835577E+02 -0.18604074008E+03  0.21247899900E+03  0.90326498549E+02 0.  0.
          5    1    3    3  502    0  0.78992203523E+02  0.64441849131E+01 -0.93474985626E+02  0.12262275920E+03  0.41800000000E+01 0. -1.
         -5    1    3    3    0  502 -0.41095473952E+02  0.24233650664E+02 -0.12429974098E+03  0.13320662826E+03  0.41800000000E+01 0. -1.
        -11    1    4    4    0    0 -0.70133033523E+00 -0.53884173891E+02 -0.13401844621E+03  0.14444701445E+03  0.00000000000E+00 0. -1.
         11    1    4    4    0    0 -0.37195399235E+02  0.23206338314E+02 -0.52022293867E+02  0.68031984547E+02  0.00000000000E+00 0.  1.
</event>
<event>
 8    1  0.6869405E-009  0.1442900E+03  0.7561462E-02  0.1207670E+00
         -1   -1    0    0    0  501 -0.00000000000E+00  0.00000000000E+00  0.40616041393E+02  0.40616041393E+02  0.00000000000E+00 0.  1.
          1   -1    0    0  501    0  0.00000000000E+00 -0.00000000000E+00 -0.86767161552E+03  0.86767161552E+03  0.00000000000E+00 0. -1.
         25    2    1    2    0    0 -0.50335553885E+02  0.83113269802E+02 -0.69491963160E+03  0.71274284395E+03  0.12509030183E+03 0.  0.
         23    2    1    2    0    0  0.50335553885E+02 -0.83113269802E+02 -0.13213594253E+03  0.19554481297E+03  0.10647245169E+03 0.  0.
          5    1    3    3  502    0 -0.87332503017E+02  0.45796326925E+02 -0.54401366630E+03  0.55289475596E+03  0.41800000000E+01 0.  1.
         -5    1    3    3    0  502  0.36996949132E+02  0.37316942877E+02 -0.15090596530E+03  0.15984808799E+03  0.41800000000E+01 0.  1.
        -11    1    4    4    0    0  0.33795587496E+02  0.15495816741E+02 -0.11621483765E+02  0.38952804207E+02  0.00000000000E+00 0.  1.
         11    1    4    4    0    0  0.16539966389E+02 -0.98609086543E+02 -0.12051445876E+03  0.15659200876E+03  0.00000000000E+00 0. -1.
</event>
<event>
 8    1  0.6869405E-009  0.9479486E+02  0.7561462E-02  0.1291639E+00
         -2   -1    0    0    0  501 -0.00000000000E+00  0.00000000000E+00  0.34844357915E+02  0.34844357915E+02  0.00000000000E+00 0.  1.
          2   -1    0    0  501    0  0.00000000000E+00 -0.00000000000E+00 -0.43813161707E+03  0.43813161707E+03  0.00000000000E+00 0. -1.
         25    2    1    2    0    0 -0.21223409005E+01 -0.39806998064E+02 -0.31739957408E+03  0.34348079424E+03  0.12508982757E+03 0.  0.
         23    2    1    2    0    0  0.21223409005E+01  0.39806998064E+02 -0.85887685080E+02  0.12949518075E+03  0.88335756992E+02 0.  0.
          5    1    3    3  502    0  0.45702872042E+02 -0.12996297202E+01 -0.45263069078E+02  0.64472159671E+02  0.41800000000E+01 0. -1.
         -5    1    3    3    0  502 -0.47825212943E+02 -0.38507368344E+02 -0.27213650500E+03  0.27900863457E+03  0.41800000000E+01 0. -1.
        -11    1    4    4    0    0 -0.28663348538E+02  0.42466158494E+02 -0.84182643999E+02  0.98547854961E+02  0.00000000000E+00 0. -1.
         11    1    4    4    0    0  0.30785689439E+02 -0.26591604298E+01 -0.17050410810E+01  0.30947325789E+02  0.00000000000E+00 0.  1.
</event>
<event>
 8    1  0.6869405E-009  0.9508791E+02  0.7561462E-02  0.1290978E+00
         -1   -1    0    0    0  501 -0.00000000000E+00  0.00000000000E+00  0.18701081741E+02  0.18701081741E+02  0.00000000000E+00 0.  1.
          1   -1    0    0  501    0  0.00000000000E+00 -0.00000000000E+00 -0.85474495692E+03  0.85474495692E+03  0.00000000000E+00 0. -1.
         25    2    1    2    0    0 -0.11932415454E+02  0.61310559605E+02 -0.55937079198E+03  0.57658015809E+03  0.12509048138E+03 0.  0.
         23    2    1    2    0    0  0.11932415454E+02 -0.61310559605E+02 -0.27667308320E+03  0.29686588057E+03  0.87635545415E+02 0.  0.
          5    1    3    3  502    0  0.96049203221E+01 -0.19467401424E+02 -0.17263672995E+02  0.28048904041E+02  0.41800000000E+01 0. -1.
         -5    1    3    3    0  502 -0.21537335776E+02  0.80777961029E+02 -0.54210711898E+03  0.54853125405E+03  0.41800000000E+01 0. -1.
        -11    1    4    4    0    0  0.88520938222E+01  0.97893880007E+01 -0.22794566227E+01  0.13393565805E+02  0.00000000000E+00 0.  1.
         11    1    4    4    0    0  0.30803216319E+01 -0.71099947606E+02 -0.27439362658E+03  0.28347231476E+03  0.00000000000E+00 0. -1.
</event>
<event>
 8    1  0.6869405E-009  0.1541589E+03  0.7561462E-02  0.1195454E+00
          1   -1    0    0  501    0  0.00000000000E+00  0.00000000000E+00  0.99419963758E+03  0.99419963758E+03  0.00000000000E+00 0. -1.
         -1   -1    0    0    0  501 -0.00000000000E+00 -0.00000000000E+00 -0.26964889353E+02  0.26964889353E+02  0.00000000000E+00 0.  1.
         25    2    1    2    0    0  0.15406787424E+02  0.11666230568E+03  0.66106504270E+03  0.68300912713E+03  0.12508802661E+03 0.  0.
         23    2    1    2    0    0 -0.15406787424E+02 -0.11666230568E+03  0.30616970553E+03  0.33815539980E+03  0.82229697606E+02 0.  0.
          5    1    3    3  502    0  0.68013600132E+02  0.41119574265E+02  0.30468054447E+03  0.31490375636E+03  0.41800000000E+01 0. -1.
         -5    1    3    3    0  502 -0.52606812708E+02  0.75542731411E+02  0.35638449823E+03  0.36810537077E+03  0.41800000000E+01 0. -1.
        -11    1    4    4    0    0 -0.29694762364E+02 -0.13825374183E+02  0.12623024745E+03  0.13041087092E+03  0.00000000000E+00 0.  1.
         11    1    4    4    0    0  0.14287974940E+02 -0.10283693149E+03  0.17993945807E+03  0.20774452888E+03  0.00000000000E+00 0. -1.
</event>
<event>
 8    1  0.6869405E-009  0.3453876E+03  0.7561462E-02  0.1064524E+00
          1   -1    0    0  501    0  0.00000000000E+00  0.00000000000E+00  0.31523140373E+03  0.31523140373E+03  0.00000000000E+00 0. -1.
         -1   -1    0    0    0  501 -0.00000000000E+00 -0.00000000000E+00 -0.41115215527E+03  0.41115215527E+03  0.00000000000E+00 0.  1.
         25    2    1    2    0    0  0.17342703590E+03  0.28510250234E+03 -0.12923210395E+03  0.37908940809E+03  0.12508984376E+03 0.  0.
         23    2    1    2    0    0 -0.17342703590E+03 -0.28510250234E+03  0.33311352422E+02  0.34729415091E+03  0.90239722043E+02 0.  0.
          5    1    3    3  502    0  0.13760410001E+03  0.28895871796E+03 -0.11451539258E+03  0.33994599065E+03  0.41800000000E+01 0. -1.
         -5    1    3    3    0  502  0.35822935891E+02 -0.38562156220E+01 -0.14716711376E+02  0.39143417435E+02  0.41800000000E+01 0. -1.
        -11    1    4    4    0    0 -0.10718776515E+03 -0.15529435469E+03 -0.24971956097E+02  0.19033957073E+03  0.00000000000E+00 0.  1.
         11    1    4    4    0    0 -0.66239270750E+02 -0.12980814765E+03  0.58283308518E+02  0.15695458017E+03  0.00000000000E+00 0. -1.
</event>
<event>
 8    1  0.6869405E-009  0.1706235E+03  0.7561462E-02  0.1177199E+00
         -2   -1    0    0    0  501 -0.00000000000E+00  0.00000000000E+00  0.24837951458E+03  0.24837951458E+03  0.00000000000E+00 0.  1.
          2   -1    0    0  501    0  0.00000000000E+00 -0.00000000000E+00 -0.15694422414E+03  0.15694422414E+03  0.00000000000E+00 0. -1.
         25    2    1    2    0    0  0.55046894984E+01  0.16105796017E+03  0.81910299568E+02  0.21983558163E+03  0.12509363547E+03 0.  0.
         23    2    1    2    0    0 -0.55046894984E+01 -0.16105796017E+03  0.95249908776E+01  0.18548815709E+03  0.91351862764E+02 0.  0.
          5    1    3    3  502    0  0.28101464971E+02  0.68654738048E+02 -0.23364147154E+02  0.77887875579E+02  0.41800000000E+01 0. -1.
         -5    1    3    3    0  502 -0.22596775472E+02  0.92403222121E+02  0.10527444672E+03  0.14194770605E+03  0.41800000000E+01 0. -1.
        -11    1    4    4    0    0 -0.32546992943E+02 -0.87901390811E+02  0.39787335976E+02  0.10182825423E+03  0.00000000000E+00 0.  1.
         11    1    4    4    0    0  0.27042303444E+02 -0.73156569358E+02 -0.30262345098E+02  0.83659902861E+02  0.00000000000E+00 0. -1.
</event>
<event>
 8    1  0.6869405E-009  0.2044073E+03  0.7561462E-02  0.1146073E+00
          4   -1    0    0  501    0  0.00000000000E+00  0.00000000000E+00  0.20906688475E+02  0.20906688475E+02  0.00000000000E+00 0. -1.
         -4   -1    0    0    0  501 -0.00000000000E+00 -0.00000000000E+00 -0.20384328165E+04  0.20384328165E+04  0.00000000000E+00 0.  1.
         25    2    1    2    0    0  0.29392694274E+02  0.17314724364E+03 -0.10292442682E+04  0.10515870931E+04  0.12509097605E+03 0.  0.
         23    2    1    2    0    0 -0.29392694274E+02 -0.17314724364E+03 -0.98828185986E+03  0.10077524119E+04  0.89554400961E+02 0.  0.
          5    1    3    3  502    0  0.49348099535E+00  0.18178950197E+03 -0.80482263107E+03  0.82510884520E+03  0.41800000000E+01 0. -1.
         -5    1    3    3    0  502  0.28899213279E+02 -0.86422583291E+01 -0.22442163714E+03  0.22647824791E+03  0.41800000000E+01 0. -1.
        -11    1    4    4    0    0 -0.59215608150E+02 -0.85995587639E+02 -0.48518390975E+03  0.49629140193E+03  0.00000000000E+00 0. -1.
         11    1    4    4    0    0  0.29822913875E+02 -0.87151655998E+02 -0.50309795010E+03  0.51146100998E+03  0.00000000000E+00 0.  1.
</event>
<event>
 8    1  0.6869405E-009  0.1226300E+03  0.7561462E-02  0.1238820E+00
          1   -1    0    0  501    0  0.00000000000E+00  0.00000000000E+00  0.32814507611E+03  0.32814507611E+03  0.00000000000E+00 0. -1.
         -1   -1    0    0    0  501 -0.00000000000E+00 -0.00000000000E+00 -0.76951364338E+02  0.76951364338E+02  0.00000000000E+00 0.  1.
         25    2    1    2    0    0  0.11477606342E+03 -0.88744557540E+01  0.12795257779E+03  0.21276990724E+03  0.12508745167E+03 0.  0.
         23    2    1    2    0    0 -0.11477606342E+03  0.88744557540E+01  0.12324113399E+03  0.19232653321E+03  0.92459815972E+02 0.  0.
          5    1    3    3  502    0  0.32134140548E+02 -0.21077290175E+02 -0.19461871228E+02  0.43279232682E+02  0.41800000000E+01 0. -1.
         -5    1    3    3    0  502  0.82641922873E+02  0.12202834421E+02  0.14741444901E+03  0.16949067456E+03  0.41800000000E+01 0. -1.
        -11    1    4    4    0    0 -0.64382417126E+02 -0.16609285530E+02  0.11988607723E+02  0.67562494891E+02  0.00000000000E+00 0.  1.
         11    1    4    4    0    0 -0.50393646296E+02  0.25483741284E+02  0.11125252626E+03  0.12476403831E+03  0.00000000000E+00 0. -1.
</event>
<event>
 8    1  0.6869405E-009  0.1310714E+03  0.7561462E-02  0.1225875E+00
         -1   -1    0    0    0  501 -0.00000000000E+00  0.00000000000E+00  0.36560444016E+02  0.36560444016E+02  0.00000000000E+00 0.  1.
          1   -1    0    0  501    0  0.00000000000E+00 -0.00000000000E+00 -0.58498276757E+03  0.58498276757E+03  0.00000000000E+00 0. -1.
         25    2    1    2    0    0 -0.38847352667E+02  0.85930321458E+02 -0.35622974353E+03  0.38915322902E+03  0.12508984180E+03 0.  0.
         23    2    1    2    0    0  0.38847352667E+02 -0.85930321458E+02 -0.19219258002E+03  0.23238998257E+03  0.90410061549E+02 0.  0.
          5    1    3    3  502    0  0.75240458625E+01 -0.30269039548E+02 -0.72846683256E+02  0.79353246201E+02  0.41800000000E+01 0. -1.
         -5    1    3    3    0  502 -0.46371398529E+02  0.11619936101E+03 -0.28338306028E+03  0.30979998282E+03  0.41800000000E+01 0. -1.
        -11    1    4    4    0    0 -0.11087008946E+02 -0.12695007110E+02  0.38067302445E+01  0.17279356702E+02  0.00000000000E+00 0.  1.
         11    1    4    4    0    0  0.49934361612E+02 -0.73235314348E+02 -0.19599931026E+03  0.21511062587E+03  0.00000000000E+00 0. -1.
</event>
<event>
 8    1  0.6869405E-009  0.1151099E+03  0.7561462E-02  0.1251389E+00
         -1   -1    0    0    0  501 -0.00000000000E+00  0.00000000000E+00  0.45319634634E+02  0.45319634634E+02  0.00000000000E+00 0.  1.
          1   -1    0    0  501    0  0.00000000000E+00 -0.00000000000E+00 -0.32949745606E+03  0.32949745606E+03  0.00000000000E+00 0. -1.
         25    2    1    2    0    0  0.39542358110E+02 -0.24138257646E+02 -0.20347492494E+03  0.24330785807E+03  0.12510161929E+03 0.  0.
         23    2    1    2    0    0 -0.39542358110E+02  0.24138257646E+02 -0.80702896484E+02  0.13150923263E+03  0.92927214519E+02 0.  0.
          5    1    3    3  502    0  0.44535713762E+01  0.48233244471E+02 -0.10774070781E+03  0.11820242252E+03  0.41800000000E+01 0.  1.
         -5    1    3    3    0  502  0.35088786734E+02 -0.72371502118E+02 -0.95734217130E+02  0.12510543554E+03  0.41800000000E+01 0.  1.
        -11    1    4    4    0    0  0.11893886771E+02 -0.26398972298E+02 -0.37754507167E+02  0.47579124543E+02  0.00000000000E+00 0. -1.
         11    1    4    4    0    0 -0.51436244882E+02  0.50537229945E+02 -0.42948389317E+02  0.83930108084E+02  0.00000000000E+00 0.  1.
</event>
<event>
 8    1  0.6869405E-009  0.2088288E+03  0.7561462E-02  0.1142497E+00
         -1   -1    0    0    0  501 -0.00000000000E+00  0.00000000000E+00  0.41780009915E+02  0.41780009915E+02  0.00000000000E+00 0.  1.
          1   -1    0    0  501    0  0.00000000000E+00 -0.00000000000E+00 -0.22400207050E+04  0.22400207050E+04  0.00000000000E+00 0. -1.
         25    2    1    2    0    0  0.84564028151E+01 -0.20082106495E+03 -0.18719184989E+04  0.18868303053E+04  0.12509645745E+03 0.  0.
         23    2    1    2    0    0 -0.84564028151E+01  0.20082106495E+03 -0.32632219627E+03  0.39497040968E+03  0.95471660032E+02 0.  0.
          5    1    3    3  502    0  0.39788231220E+02 -0.14349499928E+03 -0.16091301563E+04  0.16160109067E+04  0.41800000000E+01 0.  1.
         -5    1    3    3    0  502 -0.31331828405E+02 -0.57326065674E+02 -0.26278834252E+03  0.27081939857E+03  0.41800000000E+01 0.  1.
        -11    1    4    4    0    0 -0.13560482332E+02  0.38375692397E+02 -0.14889054045E+03  0.15435340450E+03  0.00000000000E+00 0. -1.
         11    1    4    4    0    0  0.51040795166E+01  0.16244537255E+03 -0.17743165582E+03  0.24061700518E+03  0.00000000000E+00 0.  1.
</event>
<event>
 8    1  0.6869405E-009  0.1131069E+03  0.7561462E-02  0.1254922E+00
          1   -1    0    0  501    0  0.00000000000E+00  0.00000000000E+00  0.13552673244E+03  0.13552673244E+03  0.00000000000E+00 0. -1.
         -1   -1    0    0    0  501 -0.00000000000E+00 -0.00000000000E+00 -0.11552559888E+03  0.11552559888E+03  0.00000000000E+00 0.  1.
         25    2    1    2    0    0  0.58621980674E+02  0.11281798971E+02  0.28458952703E+02  0.14149186290E+03  0.12508484989E+03 0.  0.
         23    2    1    2    0    0 -0.58621980674E+02 -0.11281798971E+02 -0.84578191414E+01  0.10956046843E+03  0.91477570644E+02 0.  0.
          5    1    3    3  502    0  0.83279069910E+02 -0.12768685972E+02  0.52428191125E+02  0.99320846005E+02  0.41800000000E+01 0. -1.
         -5    1    3    3    0  502 -0.24657089236E+02  0.24050484943E+02 -0.23969238422E+02  0.42171016897E+02  0.41800000000E+01 0. -1.
        -11    1    4    4    0    0  0.17533985348E+02  0.18407986231E+02  0.70100500974E+01  0.26371109222E+02  0.00000000000E+00 0. -1.
         11    1    4    4    0    0 -0.76155966022E+02 -0.29689785201E+02 -0.15467869239E+02  0.83189359204E+02  0.00000000000E+00 0.  1.
</event>
<event>
 8    1  0.6869405E-009  0.1498330E+03  0.7561462E-02  0.1200678E+00
          2   -1    0    0  501    0  0.00000000000E+00  0.00000000000E+00  0.33822957967E+03  0.33822957967E+03  0.00000000000E+00 0. -1.
         -2   -1    0    0    0  501 -0.00000000000E+00 -0.00000000000E+00 -0.22013558192E+03  0.22013558192E+03  0.00000000000E+00 0.  1.
         25    2    1    2    0    0  0.37258158203E+00 -0.12476794242E+03  0.28220835717E+03  0.33294941764E+03  0.12508628851E+03 0.  0.
         23    2    1    2    0    0 -0.37258158203E+00  0.12476794242E+03 -0.16411435942E+03  0.22541574396E+03  0.91167737619E+02 0.  0.
          5    1    3    3  502    0  0.24281863089E+01 -0.14957503368E+03  0.25620520408E+03  0.29671057580E+03  0.41800000000E+01 0. -1.
         -5    1    3    3    0  502 -0.20556047269E+01  0.24807091258E+02  0.26003153090E+02  0.36238841842E+02  0.41800000000E+01 0. -1.
        -11    1    4    4    0    0 -0.67298393632E+00  0.64233349561E+02 -0.17171949951E+02  0.66492495579E+02  0.00000000000E+00 0.  1.
         11    1    4    4    0    0  0.30040235429E+00  0.60534592861E+02 -0.14694240947E+03  0.15892324838E+03  0.00000000000E+00 0. -1.
</event>
<event>
 8    1  0.6869405E-009  0.8278521E+02  0.7561462E-02  0.1321328E+00
          1   -1    0    0  501    0  0.00000000000E+00  0.00000000000E+00  0.55153576956E+02  0.55153576956E+02  0.00000000000E+00 0. -1.
         -1   -1    0    0    0  501 -0.00000000000E+00 -0.00000000000E+00 -0.26171265998E+03  0.26171265998E+03  0.00000000000E+00 0.  1.
         25    2    1    2    0    0  0.12396520545E+01 -0.46248389107E+02 -0.14927224322E+03  0.20017470013E+03  0.12508899929E+03 0.  0.
         23    2    1    2    0    0 -0.12396520545E+01  0.46248389107E+02 -0.57286839804E+02  0.11669153681E+03  0.90524485723E+02 0.  0.
          5    1    3    3  502    0 -0.46581944312E+01 -0.65352747248E+02 -0.19049383428E+02  0.68359576923E+02  0.41800000000E+01 0.  1.
         -5    1    3    3    0  502  0.58978464857E+01  0.19104358141E+02 -0.13022285979E+03  0.13181512321E+03  0.41800000000E+01 0.  1.
        -11    1    4    4    0    0  0.74511336578E+01 -0.15466926740E+02 -0.51281093388E+02  0.54078607181E+02  0.00000000000E+00 0.  1.
         11    1    4    4    0    0 -0.86907857123E+01  0.61715315847E+02 -0.60057464162E+01  0.62612929626E+02  0.00000000000E+00 0. -1.
</event>
<event>
 8    1  0.6869405E-009  0.1621955E+03  0.7561462E-02  0.1186240E+00
         -1   -1    0    0    0  501 -0.00000000000E+00  0.00000000000E+00  0.10133065186E+03  0.10133065186E+03  0.00000000000E+00 0.  1.
          1   -1    0    0  501    0  0.00000000000E+00 -0.00000000000E+00 -0.70927719565E+03  0.70927719565E+03  0.00000000000E+00 0. -1.
         25    2    1    2    0    0 -0.13559169504E+03  0.46842599085E+02 -0.11767125499E+02  0.19069400433E+03  0.12508557548E+03 0.  0.
         23    2    1    2    0    0  0.13559169504E+03 -0.46842599085E+02 -0.59617941829E+03  0.61991384318E+03  0.91016137707E+02 0.  0.
          5    1    3    3  502    0 -0.15306660599E+03  0.36066917627E+02  0.13474584103E+02  0.15788997825E+03  0.41800000000E+01 0. -1.
         -5    1    3    3    0  502  0.17474910947E+02  0.10775681458E+02 -0.25241709602E+02  0.32804026081E+02  0.41800000000E+01 0. -1.
        -11    1    4    4    0    0  0.58177990242E+02 -0.34770056789E+02 -0.12432835094E+03  0.14160216893E+03  0.00000000000E+00 0.  1.
         11    1    4    4    0    0  0.77413704797E+02 -0.12072542296E+02 -0.47185106735E+03  0.47831167425E+03  0.00000000000E+00 0. -1.
</event>
<event>
 8    1  0.6869405E-009  0.5678556E+02  0.7561462E-02  0.1411839E+00
          1   -1    0    0  501    0  0.00000000000E+00  0.00000000000E+00  0.45275303829E+03  0.45275303829E+03  0.00000000000E+00 0. -1.
         -1   -1    0    0    0  501 -0.00000000000E+00 -0.00000000000E+00 -0.28987625325E+02  0.28987625325E+02  0.00000000000E+00 0.  1.
         25    2    1    2    0    0 -0.23086115691E+02  0.25360769417E+02  0.20418746184E+03  0.24190116821E+03  0.12509004055E+03 0.  0.
         23    2    1    2    0    0  0.23086115691E+02 -0.25360769417E+02  0.21957795112E+03  0.23983949540E+03  0.90179651657E+02 0.  0.
          5    1    3    3  502    0 -0.42878629587E+01  0.34918642839E+02 -0.11444255641E+01  0.35446854534E+02  0.41800000000E+01 0. -1.
         -5    1    3    3    0  502 -0.18798252732E+02 -0.95578734222E+01  0.20533188740E+03  0.20645431367E+03  0.41800000000E+01 0. -1.
        -11    1    4    4    0    0 -0.13763078282E+02 -0.59395616008E+01 -0.13205258463E+01  0.15048073110E+02  0.00000000000E+00 0.  1.
         11    1    4    4    0    0  0.36849193973E+02 -0.19421207816E+02  0.22089847697E+03  0.22479142229E+03  0.00000000000E+00 0. -1.
</event>
<event>
 8    1  0.6869405E-009  0.1038556E+03  0.7561462E-02  0.1272391E+00
         -2   -1    0    0    0  501 -0.00000000000E+00  0.00000000000E+00  0.20407920648E+03  0.20407920648E+03  0.00000000000E+00 0.  1.
          2   -1    0    0  501    0  0.00000000000E+00 -0.00000000000E+00 -0.96984153784E+02  0.96984153784E+02  0.00000000000E+00 0. -1.
         25    2    1    2    0    0  0.41619269966E+02 -0.24547105898E+02 -0.21632002965E+02  0.13583127547E+03  0.12508983892E+03 0.  0.
         23    2    1    2    0    0 -0.41619269966E+02  0.24547105898E+02  0.12872705567E+03  0.16523208480E+03  0.91631124335E+02 0.  0.
          5    1    3    3  502    0  0.58662782020E+02 -0.66288201127E+02 -0.17824363231E+02  0.90391525750E+02  0.41800000000E+01 0.  1.
         -5    1    3    3    0  502 -0.17043512053E+02  0.41741095228E+02 -0.38076397343E+01  0.45439749717E+02  0.41800000000E+01 0.  1.
        -11    1    4    4    0    0 -0.18457082574E+02  0.41294800890E+02  0.12894531825E+03  0.13664852570E+03  0.00000000000E+00 0.  1.
         11    1    4    4    0    0 -0.23162187393E+02 -0.16747694992E+02 -0.21826258342E+00  0.28583559101E+02  0.00000000000E+00 0. -1.
</event>
<event>
 8    1  0.6869405E-009  0.1198813E+03  0.7561462E-02  0.1243293E+00
          1   -1    0    0  501    0  0.00000000000E+00  0.00000000000E+00  0.15240710856E+03  0.15240710856E+03  0.00000000000E+00 0. -1.
         -1   -1    0    0    0  501 -0.00000000000E+00 -0.00000000000E+00 -0.11483892219E+03  0.11483892219E+03  0.00000000000E+00 0.  1.
         25    2    1    2    0    0  0.62602291578E+02 -0.33679591558E+02  0.45289169260E+02  0.15083635387E+03  0.12508850866E+03 0.  0.
         23    2    1    2    0    0 -0.62602291578E+02  0.33679591558E+02 -0.77209828945E+01  0.11640967688E+03  0.91859879688E+02 0.  0.
          5    1    3    3  502    0  0.77317361791E+02 -0.67853398144E+02  0.47387500806E+02  0.11333625063E+03  0.41800000000E+01 0. -1.
         -5    1    3    3    0  502 -0.14715070213E+02  0.34173806586E+02 -0.20983315464E+01  0.37500103243E+02  0.41800000000E+01 0. -1.
        -11    1    4    4    0    0 -0.47293679402E+02  0.55370142832E+02 -0.32821669950E+02  0.79873693084E+02  0.00000000000E+00 0. -1.
         11    1    4    4    0    0 -0.15308612176E+02 -0.21690551274E+02  0.25100687056E+02  0.36535983797E+02  0.00000000000E+00 0.  1.
</event>
<event>
 8    1  0.6869405E-009  0.1288602E+03  0.7561462E-02  0.1229157E+00
         -1   -1    0    0    0  501 -0.00000000000E+00  0.00000000000E+00  0.31627896856E+02  0.31627896856E+02  0.00000000000E+00 0.  1.
          1   -1    0    0  501    0  0.00000000000E+00 -0.00000000000E+00 -0.59230323575E+03  0.59230323575E+03  0.00000000000E+00 0. -1.
         25    2    1    2    0    0  0.10312838847E+02 -0.81694895529E+02 -0.32777531517E+03  0.36036203269E+03  0.12507488464E+03 0.  0.
         23    2    1    2    0    0 -0.10312838847E+02  0.81694895529E+02 -0.23290002372E+03  0.26356909992E+03  0.91901244718E+02 0.  0.
          5    1    3    3  502    0 -0.26494674715E+02  0.18374102885E+02 -0.14604839809E+03  0.14962346885E+03  0.41800000000E+01 0.  1.
         -5    1    3    3    0  502  0.36807513561E+02 -0.10006899841E+03 -0.18172691708E+03  0.21073856384E+03  0.41800000000E+01 0.  1.
        -11    1    4    4    0    0 -0.47446786567E+02  0.55727713571E+02 -0.10592578840E+03  0.12875188644E+03  0.00000000000E+00 0. -1.
         11    1    4    4    0    0  0.37133947720E+02  0.25967181959E+02 -0.12697423533E+03  0.13481721348E+03  0.00000000000E+00 0.  1.
</event>
<event>
 8    1  0.6869405E-009  0.1574386E+03  0.7561462E-02  0.1191619E+00
          2   -1    0    0  501    0  0.00000000000E+00  0.00000000000E+00  0.13721203841E+04  0.13721203841E+04  0.00000000000E+00 0.  1.
         -2   -1    0    0    0  501 -0.00000000000E+00 -0.00000000000E+00 -0.26907962476E+02  0.26907962476E+02  0.00000000000E+00 0. -1.
         25    2    1    2    0    0  0.11344487612E+03  0.10211606573E+03  0.55078870438E+03  0.58507486603E+03  0.12508785388E+03 0.  0.
         23    2    1    2    0    0 -0.11344487612E+03 -0.10211606573E+03  0.79442371724E+03  0.81395348055E+03  0.90076607267E+02 0.  0.
          5    1    3    3  502    0  0.58367832630E+02  0.53074989206E+02  0.46589318406E+03  0.47254384952E+03  0.41800000000E+01 0. -1.
         -5    1    3    3    0  502  0.55077043487E+02  0.49041076527E+02  0.84895520323E+02  0.11253101651E+03  0.41800000000E+01 0. -1.
        -11    1    4    4    0    0 -0.10855379151E+03 -0.69202024001E+02  0.73181043060E+03  0.74304734177E+03  0.00000000000E+00 0.  1.
         11    1    4    4    0    0 -0.48910846055E+01 -0.32914041733E+02  0.62613286643E+02  0.70906138775E+02  0.00000000000E+00 0. -1.
</event>
<event>
 8    1  0.6869405E-009  0.1482771E+03  0.7561462E-02  0.1202606E+00
          1   -1    0    0  501    0  0.00000000000E+00  0.00000000000E+00  0.45304713475E+03  0.45304713475E+03  0.00000000000E+00 0. -1.
         -1   -1    0    0    0  501 -0.00000000000E+00 -0.00000000000E+00 -0.69388685244E+02  0.69388685244E+02  0.00000000000E+00 0.  1.
         25    2    1    2    0    0  0.10007908911E+03  0.91623762671E+02  0.25576578881E+03  0.31539539208E+03  0.12508947460E+03 0.  0.
         23    2    1    2    0    0 -0.10007908911E+03 -0.91623762671E+02  0.12789266070E+03  0.20704042792E+03  0.89991489434E+02 0.  0.
          5    1    3    3  502    0  0.75391242503E+02  0.70899180296E+02  0.26250555589E+03  0.28220058910E+03  0.41800000000E+01 0.  1.
         -5    1    3    3    0  502  0.24687846603E+02  0.20724582374E+02 -0.67397670831E+01  0.33194802979E+02  0.41800000000E+01 0.  1.
        -11    1    4    4    0    0 -0.10819136051E+03 -0.10104740981E+03  0.10675742529E+03  0.18251875896E+03  0.00000000000E+00 0.  1.
         11    1    4    4    0    0  0.81122714011E+01  0.94236471409E+01  0.21135235412E+02  0.24521668961E+02  0.00000000000E+00 0. -1.
</event>
<event>
 8    1  0.6869405E-009  0.1117881E+03  0.7561462E-02  0.1257294E+00
         -1   -1    0    0    0  501 -0.00000000000E+00  0.00000000000E+00  0.13692329367E+03  0.13692329367E+03  0.00000000000E+00 0.  1.
          1   -1    0    0  501    0  0.00000000000E+00 -0.00000000000E+00 -0.12655481230E+03  0.12655481230E+03  0.00000000000E+00 0. -1.
         25    2    1    2    0    0  0.30415128041E+02  0.46962641633E+02  0.57500901962E+02  0.14861534615E+03  0.12509835196E+03 0.  0.
         23    2    1    2    0    0 -0.30415128041E+02 -0.46962641633E+02 -0.47132420597E+02  0.11486275982E+03  0.88551785972E+02 0.  0.
          5    1    3    3  502    0  0.74623577606E+02  0.14825458379E+02  0.54570372052E+02  0.93722305012E+02  0.41800000000E+01 0.  1.
         -5    1    3    3    0  502 -0.44208449564E+02  0.32137183254E+02  0.29305299096E+01  0.54893041143E+02  0.41800000000E+01 0.  1.
        -11    1    4    4    0    0 -0.49698132583E+02 -0.97396843923E+01 -0.52088466056E+02  0.72649667104E+02  0.00000000000E+00 0. -1.
         11    1    4    4    0    0  0.19283004541E+02 -0.37222957241E+02  0.49560454595E+01  0.42213092714E+02  0.00000000000E+00 0.  1.
</event>
<event>
 8    1  0.6869405E-009  0.1009899E+03  0.7561462E-02  0.1278228E+00
         -1   -1    0    0    0  501 -0.00000000000E+00  0.00000000000E+00  0.31715941104E+03  0.31715941104E+03  0.00000000000E+00 0.  1.
          1   -1    0    0  501    0  0.00000000000E+00 -0.00000000000E+00 -0.36696005604E+02  0.36696005604E+02  0.00000000000E+00 0. -1.
         25    2    1    2    0    0  0.15723061390E+02 -0.91306463494E+01  0.17130765660E+03  0.21289583816E+03  0.12509093226E+03 0.  0.
         23    2    1    2    0    0 -0.15723061390E+02  0.91306463494E+01  0.10915574884E+03  0.14095957848E+03  0.87315759744E+02 0.  0.
          5    1    3    3  502    0 -0.36063489584E+02 -0.39192762472E+02  0.34759002027E+02  0.63736241912E+02  0.41800000000E+01 0.  1.
         -5    1    3    3    0  502  0.51786550974E+02  0.30062116122E+02  0.13654865458E+03  0.14915959625E+03  0.41800000000E+01 0.  1.
        -11    1    4    4    0    0  0.24943433006E+02 -0.25091739394E+02  0.52159667612E+02  0.63026987563E+02  0.00000000000E+00 0.  1.
         11    1    4    4    0    0 -0.40666494396E+02  0.34222385743E+02  0.56996081225E+02  0.77932590919E+02  0.00000000000E+00 0. -1.
</event>
<event>
 8    1  0.6869405E-009  0.1365208E+03  0.7561462E-02  0.1218089E+00
          2   -1    0    0  501    0  0.00000000000E+00  0.00000000000E+00  0.12699135415E+04  0.12699135415E+04  0.00000000000E+00 0. -1.
         -2   -1    0    0    0  501 -0.00000000000E+00 -0.00000000000E+00 -0.15845654046E+02  0.15845654046E+02  0.00000000000E+00 0.  1.
         25    2    1    2    0    0  0.83838804101E+02  0.25716791613E+02  0.78798383559E+03  0.80265588908E+03  0.12509057795E+03 0.  0.
         23    2    1    2    0    0 -0.83838804101E+02 -0.25716791613E+02  0.46608405189E+03  0.48310330648E+03  0.92000885130E+02 0.  0.
          5    1    3    3  502    0 -0.28975812943E+02 -0.10785693314E+02  0.23682480994E+03  0.23887107803E+03  0.41800000000E+01 0. -1.
         -5    1    3    3    0  502  0.11281461704E+03  0.36502484927E+02  0.55115902565E+03  0.56378481106E+03  0.41800000000E+01 0. -1.
        -11    1    4    4    0    0 -0.36632691107E+02 -0.56140261937E+02  0.19317223583E+03  0.20447297074E+03  0.00000000000E+00 0.  1.
         11    1    4    4    0    0 -0.47206112994E+02  0.30423470324E+02  0.27291181606E+03  0.27863033574E+03  0.00000000000E+00 0. -1.
</event>
<event>
 8    1  0.6869405E-009  0.1632962E+03  0.7561462E-02  0.1185025E+00
          1   -1    0    0  501    0  0.00000000000E+00  0.00000000000E+00  0.12250827585E+03  0.12250827585E+03  0.00000000000E+00 0. -1.
         -1   -1    0    0    0  501 -0.00000000000E+00 -0.00000000000E+00 -0.28748284686E+03  0.28748284686E+03  0.00000000000E+00 0.  1.
         25    2    1    2    0    0 -0.13551880064E+03 -0.35152964899E+02 -0.15391856379E+03  0.24277263615E+03  0.12508617956E+03 0.  0.
         23    2    1    2    0    0  0.13551880064E+03  0.35152964899E+02 -0.11056007222E+02  0.16721848656E+03  0.90767343708E+02 0.  0.
          5    1    3    3  502    0  0.19955350999E+02 -0.22766767324E+02 -0.15829115235E+02  0.34417655600E+02  0.41800000000E+01 0.  1.
         -5    1    3    3    0  502 -0.15547415164E+03 -0.12386197575E+02 -0.13808944856E+03  0.20835498055E+03  0.41800000000E+01 0.  1.
        -11    1    4    4    0    0  0.49332937053E+02  0.12267059815E+02  0.39801055536E+02  0.64562709489E+02  0.00000000000E+00 0. -1.
         11    1    4    4    0    0  0.86185863588E+02  0.22885905084E+02 -0.50857062758E+02  0.10265577707E+03  0.00000000000E+00 0.  1.
</event>
<event>
 8    1  0.6869405E-009  0.8257393E+02  0.7561462E-02  0.1321902E+00
          2   -1    0    0  501    0  0.00000000000E+00  0.00000000000E+00  0.82238817764E+02  0.82238817764E+02  0.00000000000E+00 0. -1.
         -2   -1    0    0    0  501 -0.00000000000E+00 -0.00000000000E+00 -0.16605032465E+03  0.16605032465E+03  0.00000000000E+00 0.  1.
         25    2    1    2    0    0 -0.24847208210E+01  0.41258966713E+02 -0.61494817631E+02  0.14539063757E+03  0.12509336003E+03 0.  0.
         23    2    1    2    0    0  0.24847208210E+01 -0.41258966713E+02 -0.22316689258E+02  0.10289850485E+03  0.91551032268E+02 0.  0.
          5    1    3    3  502    0  0.51327278578E+02  0.28157785197E+01  0.46238918678E+01  0.51780989860E+02  0.41800000000E+01 0.  1.
         -5    1    3    3    0  502 -0.53811999399E+02  0.38443188193E+02 -0.66118709498E+02  0.93609647705E+02  0.41800000000E+01 0.  1.
        -11    1    4    4    0    0  0.11936297029E+02 -0.13682401702E+02  0.34530126727E+02  0.39012984440E+02  0.00000000000E+00 0. -1.
         11    1    4    4    0    0 -0.94515762079E+01 -0.27576565011E+02 -0.56846815985E+02  0.63885520411E+02  0.00000000000E+00 0.  1.
</event>
<event>
 8    1  0.6869405E-009  0.2483149E+03  0.7561462E-02  0.1114374E+00
          2   -1    0    0  501    0  0.00000000000E+00  0.00000000000E+00  0.22468294024E+04  0.22468294024E+04  0.00000000000E+00 0.  1.
         -2   -1    0    0    0  501 -0.00000000000E+00 -0.00000000000E+00 -0.33202939231E+02  0.33202939231E+02  0.00000000000E+00 0. -1.
         25    2    1    2    0    0 -0.20244961867E+03  0.11374115247E+03  0.14897876469E+04  0.15129571549E+04  0.12509685087E+03 0.  0.
         23    2    1    2    0    0  0.20244961867E+03 -0.11374115247E+03  0.72383881630E+03  0.76707518668E+03  0.10265871695E+03 0.  0.
          5    1    3    3  502    0 -0.14542887700E+03  0.13765727501E+03  0.12018815213E+04  0.12184562969E+04  0.41800000000E+01 0. -1.
         -5    1    3    3    0  502 -0.57020741674E+02 -0.23916122546E+02  0.28790612552E+03  0.29450085808E+03  0.41800000000E+01 0. -1.
        -11    1    4    4    0    0  0.69494744943E+02 -0.22243340273E+02  0.38383492544E+03  0.39070901673E+03  0.00000000000E+00 0. -1.
         11    1    4    4    0    0  0.13295487373E+03 -0.91497812193E+02  0.34000389086E+03  0.37636616995E+03  0.00000000000E+00 0.  1.
</event>
<event>
 8    1  0.6869405E-009  0.1316380E+03  0.7561462E-02  0.1225045E+00
         -2   -1    0    0    0  501 -0.00000000000E+00  0.00000000000E+00  0.18064908373E+03  0.18064908373E+03  0.00000000000E+00 0.  1.
          2   -1    0    0  501    0  0.00000000000E+00 -0.00000000000E+00 -0.12332540586E+03  0.12332540586E+03  0.00000000000E+00 0. -1.
         25    2    1    2    0    0 -0.79048958662E+02 -0.54180550863E+02 -0.14136794362E+02  0.15821513009E+03  0.12509160035E+03 0.  0.
         23    2    1    2    0    0  0.79048958662E+02  0.54180550863E+02  0.71460472237E+02  0.14575935950E+03  0.83396173968E+02 0.  0.
          5    1    3    3  502    0 -0.88733994359E+02 -0.16794571984E+01  0.24520177851E+02  0.92169701384E+02  0.41800000000E+01 0. -1.
         -5    1    3    3    0  502  0.96850356970E+01 -0.52501093665E+02 -0.38656972212E+02  0.66045428707E+02  0.41800000000E+01 0. -1.
        -11    1    4    4    0    0 -0.14149639613E+02  0.26977438385E+01  0.26543008184E+02  0.30199692158E+02  0.00000000000E+00 0.  1.
         11    1    4    4    0    0  0.93198598275E+02  0.51482807025E+02  0.44917464053E+02  0.11555966734E+03  0.00000000000E+00 0. -1.
</event>
<event>
 8    1  0.6869405E-009  0.1311060E+03  0.7561462E-02  0.1225824E+00
         -2   -1    0    0    0  501 -0.00000000000E+00  0.00000000000E+00  0.34015442676E+02  0.34015442676E+02  0.00000000000E+00 0.  1.
          2   -1    0    0  501    0  0.00000000000E+00 -0.00000000000E+00 -0.66972580520E+03  0.66972580520E+03  0.00000000000E+00 0. -1.
         25    2    1    2    0    0 -0.54784833014E+02  0.85840126816E+02 -0.28178297952E+03  0.32468148776E+03  0.12508603299E+03 0.  0.
         23    2    1    2    0    0  0.54784833014E+02 -0.85840126816E+02 -0.35392738301E+03  0.37905976011E+03  0.89731844931E+02 0.  0.
          5    1    3    3  502    0  0.18942155111E+02  0.15035032007E+02 -0.17532315069E+03  0.17703258739E+03  0.41800000000E+01 0.  1.
         -5    1    3    3    0  502 -0.73726988125E+02  0.70805094809E+02 -0.10645982882E+03  0.14764890038E+03  0.41800000000E+01 0.  1.
        -11    1    4    4    0    0 -0.78312998881E+01  0.14851986184E+02 -0.35448696940E+02  0.39223983305E+02  0.00000000000E+00 0.  1.
         11    1    4    4    0    0  0.62616132902E+02 -0.10069211300E+03 -0.31847868607E+03  0.33983577681E+03  0.00000000000E+00 0. -1.
</event>
<event>
 8    1  0.6869405E-009  0.8043551E+02  0.7561462E-02  0.1327820E+00
         -1   -1    0    0    0  501 -0.00000000000E+00  0.00000000000E+00  0.21464819923E+02  0.21464819923E+02  0.00000000000E+00 0.  1.
          1   -1    0    0  501    0  0.00000000000E+00 -0.00000000000E+00 -0.61907353328E+03  0.61907353328E+03  0.00000000000E+00 0. -1.
         25    2    1    2    0    0 -0.24530186343E+02 -0.26415399995E+02 -0.31989335658E+03  0.34536782068E+03  0.12509064146E+03 0.  0.
         23    2    1    2    0    0  0.24530186343E+02  0.26415399995E+02 -0.27771535678E+03  0.29517053252E+03  0.93275508465E+02 0.  0.
          5    1    3    3  502    0 -0.38480856440E+01 -0.41191489168E+02 -0.23313023534E+02  0.47670913661E+02  0.41800000000E+01 0. -1.
         -5    1    3    3    0  502 -0.20682100699E+02  0.14776089173E+02 -0.29658033305E+03  0.29769690702E+03  0.41800000000E+01 0. -1.
        -11    1    4    4    0    0  0.47680908344E+02  0.43669563938E+02 -0.13656907471E+03  0.15110133025E+03  0.00000000000E+00 0.  1.
         11    1    4    4    0    0 -0.23150722001E+02 -0.17254163943E+02 -0.14114628207E+03  0.14406920227E+03  0.00000000000E+00 0. -1.
</event>
<event>
 8    1  0.6869405E-009  0.1681603E+03  0.7561462E-02  0.1179780E+00
          2   -1    0    0  501    0  0.00000000000E+00  0.00000000000E+00  0.48319662866E+03  0.48319662866E+03  0.00000000000E+00 0.  1.
         -2   -1    0    0    0  501 -0.00000000000E+00 -0.00000000000E+00 -0.97671528262E+02  0.97671528262E+02  0.00000000000E+00 0. -1.
         25    2    1    2    0    0  0.13043186812E+03  0.52812208459E+02  0.36513525526E+03  0.41081989468E+03  0.12509048584E+03 0.  0.
         23    2    1    2    0    0 -0.13043186812E+03 -0.52812208459E+02  0.20389845140E+02  0.17004826224E+03  0.93268773575E+02 0.  0.
          5    1    3    3  502    0  0.12496040092E+03  0.10410322600E+02  0.17159412482E+03  0.21256879519E+03  0.41800000000E+01 0.  1.
         -5    1    3    3    0  502  0.54714671945E+01  0.42401885859E+02  0.19354113044E+03  0.19825109949E+03  0.41800000000E+01 0.  1.
        -11    1    4    4    0    0 -0.11113940267E+03  0.56806249225E+00  0.50649109796E+01  0.11125620362E+03  0.00000000000E+00 0. -1.
         11    1    4    4    0    0 -0.19292465445E+02 -0.53380270951E+02  0.15324934161E+02  0.58792058620E+02  0.00000000000E+00 0.  1.
</event>
<event>
 8    1  0.6869405E-009  0.1115080E+03  0.7561462E-02  0.1257803E+00
         -1   -1    0    0    0  501 -0.00000000000E+00  0.00000000000E+00  0.32023617723E+02  0.32023617723E+02  0.00000000000E+00 0.  1.
          1   -1    0    0  501    0  0.00000000000E+00 -0.00000000000E+00 -0.42239316880E+03  0.42239316880E+03  0.00000000000E+00 0. -1.
         25    2    1    2    0    0 -0.99899164593E+01  0.39930201865E+02 -0.23637014940E+03  0.27057803225E+03  0.12508958613E+03 0.  0.
         23    2    1    2    0    0  0.99899164593E+01 -0.39930201865E+02 -0.15399940168E+03  0.18383875427E+03  0.91578667837E+02 0.  0.
          5    1    3    3  502    0 -0.54061319281E+02  0.57540870260E+02 -0.10952623402E+03  0.13508162840E+03  0.41800000000E+01 0.  1.
         -5    1    3    3    0  502  0.44071402822E+02 -0.17610668396E+02 -0.12684391538E+03  0.13549640385E+03  0.41800000000E+01 0.  1.
        -11    1    4    4    0    0  0.53907264911E+01 -0.67824296318E+02 -0.82396058063E+02  0.10685647143E+03  0.00000000000E+00 0. -1.
         11    1    4    4    0    0  0.45991899682E+01  0.27894094454E+02 -0.71603343614E+02  0.76982282834E+02  0.00000000000E+00 0.  1.
</event>
<event>
 8    1  0.6869405E-009  0.1346721E+03  0.7561462E-02  0.1220683E+00
         -1   -1    0    0    0  501 -0.00000000000E+00  0.00000000000E+00  0.19732959940E+02  0.19732959940E+02  0.00000000000E+00 0.  1.
          1   -1    0    0  501    0  0.00000000000E+00 -0.00000000000E+00 -0.12980854313E+04  0.12980854313E+04  0.00000000000E+00 0. -1.
         25    2    1    2    0    0 -0.74698767325E+02 -0.44435980019E+02 -0.10089143142E+04  0.10203470227E+04  0.12508193815E+03 0.  0.
         23    2    1    2    0    0  0.74698767325E+02  0.44435980019E+02 -0.26943815717E+03  0.29747136851E+03  0.91311731914E+02 0.  0.
          5    1    3    3  502    0 -0.88563168414E+02  0.89702525109E+01 -0.45275288377E+03  0.46143964545E+03  0.41800000000E+01 0.  1.
         -5    1    3    3    0  502  0.13864401089E+02 -0.53406232530E+02 -0.55616143041E+03  0.55890737727E+03  0.41800000000E+01 0.  1.
        -11    1    4    4    0    0  0.52563867998E+02  0.72250414450E+02 -0.20995928344E+03  0.22817971713E+03  0.00000000000E+00 0. -1.
         11    1    4    4    0    0  0.22134899327E+02 -0.27814434431E+02 -0.59478873729E+02  0.69291651381E+02  0.00000000000E+00 0.  1.
</event>
<event>
 8    1  0.6869405E-009  0.1785438E+03  0.7561462E-02  0.1169220E+00
         -2   -1    0    0    0  501 -0.00000000000E+00  0.00000000000E+00  0.57351500263E+02  0.57351500263E+02  0.00000000000E+00 0.  1.
          2   -1    0    0  501    0  0.00000000000E+00 -0.00000000000E+00 -0.78559286504E+03  0.78559286504E+03  0.00000000000E+00 0. -1.
         25    2    1    2    0    0 -0.10684194032E+03 -0.14212857695E+03 -0.30297137109E+03  0.37290028981E+03  0.12508893574E+03 0.  0.
         23    2    1    2    0    0  0.10684194032E+03  0.14212857695E+03 -0.42526999369E+03  0.47004407549E+03  0.92038756896E+02 0.  0.
          5    1    3    3  502    0 -0.44759556798E+02 -0.74392857682E+02 -0.25449715423E+03  0.26893119773E+03  0.41800000000E+01 0.  1.
         -5    1    3    3    0  502 -0.62082383525E+02 -0.67735719272E+02 -0.48474216856E+02  0.10396909209E+03  0.41800000000E+01 0.  1.
        -11    1    4    4    0    0  0.70652704315E+02  0.10286926919E+03 -0.17999963528E+03  0.21902913019E+03  0.00000000000E+00 0.  1.
         11    1    4    4    0    0  0.36189236008E+02  0.39259307760E+02 -0.24527035841E+03  0.25101494530E+03  0.00000000000E+00 0. -1.
</event>
<event>
 8    1  0.6869405E-009  0.2110006E+03  0.7561462E-02  0.1140776E+00
          1   -1    0    0  501    0  0.00000000000E+00  0.00000000000E+00  0.16563714687E+03  0.16563714687E+03  0.00000000000E+00 0. -1.
         -1   -1    0    0    0  501 -0.00000000000E+00 -0.00000000000E+00 -0.37527961509E+03  0.37527961509E+03  0.00000000000E+00 0.  1.
         25    2    1    2    0    0  0.75774352836E+02 -0.19319589677E+03 -0.15456746462E+02  0.24280214746E+03  0.12509022633E+03 0.  0.
         23    2    1    2    0    0 -0.75774352836E+02  0.19319589677E+03 -0.19418572176E+03  0.29811461450E+03  0.89987897893E+02 0.  0.
          5    1    3    3  502    0  0.31782869714E+02 -0.14210816263E+03 -0.64508959515E+02  0.15932281365E+03  0.41800000000E+01 0.  1.
         -5    1    3    3    0  502  0.43991483122E+02 -0.51087734142E+02  0.49052213054E+02  0.83479333805E+02  0.41800000000E+01 0.  1.
        -11    1    4    4    0    0 -0.19181788274E+02  0.79387445230E+02 -0.22900020828E+02  0.84821685998E+02  0.00000000000E+00 0. -1.
         11    1    4    4    0    0 -0.56592564562E+02  0.11380845154E+03 -0.17128570093E+03  0.21329292850E+03  0.00000000000E+00 0.  1.
</event>
<event>
 8    1  0.6869405E-009  0.9899833E+02  0.7561462E-02  0.1282417E+00
          1   -1    0    0  501    0  0.00000000000E+00  0.00000000000E+00  0.17948198253E+02  0.17948198253E+02  0.00000000000E+00 0. -1.
         -1   -1    0    0    0  501 -0.00000000000E+00 -0.00000000000E+00 -0.10961130882E+04  0.10961130882E+04  0.00000000000E+00 0.  1.
         25    2    1    2    0    0  0.31126204631E+02  0.81502654344E+02 -0.53180488968E+03  0.55324045734E+03  0.12508812760E+03 0.  0.
         23    2    1    2    0    0 -0.31126204631E+02 -0.81502654344E+02 -0.54636000024E+03  0.56082082909E+03  0.91647308735E+02 0.  0.
          5    1    3    3  502    0  0.21388606758E+02  0.57494894539E+02 -0.81105650722E+02  0.10177786781E+03  0.41800000000E+01 0. -1.
         -5    1    3    3    0  502  0.97375978726E+01  0.24007759805E+02 -0.45069923896E+03  0.45146258953E+03  0.41800000000E+01 0. -1.
        -11    1    4    4    0    0 -0.33295886780E+02 -0.92889109406E+02 -0.53680468618E+03  0.54579874847E+03  0.00000000000E+00 0.  1.
         11    1    4    4    0    0  0.21696821493E+01  0.11386455062E+02 -0.95553140641E+01  0.15022080627E+02  0.00000000000E+00 0. -1.
</event>
<event>
 8    1  0.6869405E-009  0.2343118E+03  0.7561462E-02  0.1123641E+00
         -1   -1    0    0    0  501 -0.00000000000E+00  0.00000000000E+00  0.69379083352E+03  0.69379083352E+03  0.00000000000E+00 0.  1.
          1   -1    0    0  501    0  0.00000000000E+00 -0.00000000000E+00 -0.10714411782E+03  0.10714411782E+03  0.00000000000E+00 0. -1.
         25    2    1    2    0    0  0.17720954617E+03 -0.13550519389E+03  0.13486243896E+03  0.28913729666E+03  0.12509043950E+03 0.  0.
         23    2    1    2    0    0 -0.17720954617E+03  0.13550519389E+03  0.45178427674E+03  0.51179765468E+03  0.89793795978E+02 0.  0.
          5    1    3    3  502    0  0.14858438453E+03 -0.88613065196E+02  0.37200882951E+02  0.17700557263E+03  0.41800000000E+01 0.  1.
         -5    1    3    3    0  502  0.28625161638E+02 -0.46892128695E+02  0.97661556006E+02  0.11213172403E+03  0.41800000000E+01 0.  1.
        -11    1    4    4    0    0 -0.13594019223E+03  0.48775100973E+02  0.27172737772E+03  0.30772473762E+03  0.00000000000E+00 0.  1.
         11    1    4    4    0    0 -0.41269353941E+02  0.86730092918E+02  0.18005689902E+03  0.20407291706E+03  0.00000000000E+00 0. -1.
</event>
<event>
 8    1  0.6869405E-009  0.9435632E+02  0.7561462E-02  0.1292632E+00
          1   -1    0    0  501    0  0.00000000000E+00  0.00000000000E+00  0.20224184493E+03  0.20224184493E+03  0.00000000000E+00 0. -1.
         -1   -1    0    0    0  501 -0.00000000000E+00 -0.00000000000E+00 -0.73606846395E+02  0.73606846395E+02  0.00000000000E+00 0.  1.
         25    2    1    2    0    0  0.20300409801E+02  0.54138333933E+02  0.69103373236E+02  0.15416158610E+03  0.12508977814E+03 0.  0.
         23    2    1    2    0    0 -0.20300409801E+02 -0.54138333933E+02  0.59531625298E+02  0.12168710523E+03  0.88998153515E+02 0.  0.
          5    1    3    3  502    0  0.50618597670E+02  0.40404187615E+02  0.92690578201E+02  0.11315368529E+03  0.41800000000E+01 0.  1.
         -5    1    3    3    0  502 -0.30318187869E+02  0.13734146318E+02 -0.23587204965E+02  0.41007900809E+02  0.41800000000E+01 0.  1.
        -11    1    4    4    0    0  0.24581425593E+02 -0.78825781612E+01  0.50354306432E+02  0.56585666903E+02  0.00000000000E+00 0. -1.
         11    1    4    4    0    0 -0.44881835394E+02 -0.46255755772E+02  0.91773188662E+01  0.65101438325E+02  0.00000000000E+00 0.  1.
</event>
<event>
 8    1  0.6869405E-009  0.9987251E+02  0.7561462E-02  0.1280564E+00
         -2   -1    0    0    0  501 -0.00000000000E+00  0.00000000000E+00  0.16644215874E+03  0.16644215874E+03  0.00000000000E+00 0.  1.
          2   -1    0    0  501    0  0.00000000000E+00 -0.00000000000E+00 -0.11423952362E+03  0.11423952362E+03  0.00000000000E+00 0. -1.
         25    2    1    2    0    0 -0.46516483209E+02  0.16443547946E+02 -0.43461625873E+02  0.14131981632E+03  0.12509278189E+03 0.  0.
         23    2    1    2    0    0  0.46516483209E+02 -0.16443547946E+02  0.95664260994E+02  0.13936186605E+03  0.88520649562E+02 0.  0.
          5    1    3    3  502    0 -0.44979480743E+02  0.53125856095E+02  0.15780420985E+02  0.71498282219E+02  0.41800000000E+01 0. -1.
         -5    1    3    3    0  502 -0.15370024656E+01 -0.36682308149E+02 -0.59242046859E+02  0.69821534097E+02  0.41800000000E+01 0. -1.
        -11    1    4    4    0    0 -0.12266042100E+02 -0.30279277891E+02  0.62357307033E+02  0.70396904753E+02  0.00000000000E+00 0. -1.
         11    1    4    4    0    0  0.58782525309E+02  0.13835729945E+02  0.33306953960E+02  0.68964961299E+02  0.00000000000E+00 0.  1.
</event>
<event>
 8    1  0.6869405E-009  0.1176714E+03  0.7561462E-02  0.1246989E+00
         -2   -1    0    0    0  501 -0.00000000000E+00  0.00000000000E+00  0.30042882430E+02  0.30042882430E+02  0.00000000000E+00 0.  1.
          2   -1    0    0  501    0  0.00000000000E+00 -0.00000000000E+00 -0.64345802449E+03  0.64345802449E+03  0.00000000000E+00 0. -1.
         25    2    1    2    0    0  0.12323712143E+02  0.64090540316E+02 -0.19679346476E+03  0.24214498206E+03  0.12508818219E+03 0.  0.
         23    2    1    2    0    0 -0.12323712143E+02 -0.64090540316E+02 -0.41662167730E+03  0.43135592487E+03  0.90746022946E+02 0.  0.
          5    1    3    3  502    0 -0.29873251381E+02  0.83160046785E+02 -0.92677882762E+02  0.12811973651E+03  0.41800000000E+01 0. -1.
         -5    1    3    3    0  502  0.42196963524E+02 -0.19069506468E+02 -0.10411558200E+03  0.11402524555E+03  0.41800000000E+01 0. -1.
        -11    1    4    4    0    0  0.27362359032E+02 -0.52235322919E+02 -0.33136275587E+03  0.33656872051E+03  0.00000000000E+00 0. -1.
         11    1    4    4    0    0 -0.39686071175E+02 -0.11855217397E+02 -0.85258921434E+02  0.94787204353E+02  0.00000000000E+00 0.  1.
</event>
<event>
 8    1  0.6869405E-009  0.9739752E+02  0.7561462E-02  0.1285866E+00
          2   -1    0    0  501    0  0.00000000000E+00  0.00000000000E+00  0.94402549357E+03  0.94402549357E+03  0.00000000000E+00 0.  1.
         -2   -1    0    0    0  501 -0.00000000000E+00 -0.00000000000E+00 -0.15088273481E+02  0.15088273481E+02  0.00000000000E+00 0. -1.
         25    2    1    2    0    0  0.33143508905E+02 -0.21867794082E+02  0.64401072774E+03  0.65724853712E+03  0.12509648078E+03 0.  0.
         23    2    1    2    0    0 -0.33143508905E+02  0.21867794082E+02  0.28492649235E+03  0.30186522993E+03  0.91448446670E+02 0.  0.
          5    1    3    3  502    0  0.39889020912E+02  0.25458245735E+02  0.95700504466E+02  0.10684247854E+03  0.41800000000E+01 0. -1.
         -5    1    3    3    0  502 -0.67455120065E+01 -0.47326039818E+02  0.54831022327E+03  0.55040605858E+03  0.41800000000E+01 0. -1.
        -11    1    4    4    0    0  0.85778586410E+01 -0.30880426178E+02  0.79817759698E+02  0.86011947676E+02  0.00000000000E+00 0.  1.
         11    1    4    4    0    0 -0.41721367547E+02  0.52748220260E+02  0.20510873265E+03  0.21585328225E+03  0.00000000000E+00 0. -1.
</event>
<event>
 8    1  0.6869405E-009  0.1386997E+03  0.7561462E-02  0.1215089E+00
          2   -1    0    0  501    0  0.00000000000E+00  0.00000000000E+00  0.16967535979E+03  0.16967535979E+03  0.00000000000E+00 0. -1.
         -2   -1    0    0    0  501 -0.00000000000E+00 -0.00000000000E+00 -0.15399768815E+03  0.15399768815E+03  0.00000000000E+00 0.  1.
         25    2    1    2    0    0 -0.11379014861E+03 -0.18773132875E+02 -0.19104012250E+02  0.17121291042E+03  0.12509304127E+03 0.  0.
         23    2    1    2    0    0  0.11379014861E+03  0.18773132875E+02  0.34781683889E+02  0.15246013752E+03  0.93454264533E+02 0.  0.
          5    1    3    3  502    0 -0.10388692347E+03 -0.59595576785E+02  0.95075605276E+01  0.12021643710E+03  0.41800000000E+01 0. -1.
         -5    1    3    3    0  502 -0.99032251317E+01  0.40822443910E+02 -0.28611572778E+02  0.50996473325E+02  0.41800000000E+01 0. -1.
        -11    1    4    4    0    0  0.24020355979E+02  0.31384706621E+01  0.54133717126E+02  0.59306718248E+02  0.00000000000E+00 0. -1.
         11    1    4    4    0    0  0.89769792626E+02  0.15634662213E+02 -0.19352033238E+02  0.93153419267E+02  0.00000000000E+00 0.  1.
</event>
<event>
 8    1  0.6869405E-009  0.8941432E+02  0.7561462E-02  0.1304276E+00
         -2   -1    0    0    0  501 -0.00000000000E+00  0.00000000000E+00  0.21053395885E+02  0.21053395885E+02  0.00000000000E+00 0.  1.
          2   -1    0    0  501    0  0.00000000000E+00 -0.00000000000E+00 -0.80643032090E+03  0.80643032090E+03  0.00000000000E+00 0. -1.
         25    2    1    2    0    0 -0.49356240677E+02  0.37796327624E+02 -0.55622624094E+03  0.57349759206E+03  0.12508899276E+03 0.  0.
         23    2    1    2    0    0  0.49356240677E+02 -0.37796327624E+02 -0.22915068408E+03  0.25398612473E+03  0.90190435564E+02 0.  0.
          5    1    3    3  502    0  0.38267014396E+01  0.12916539626E+02 -0.46318406209E+03  0.46339877904E+03  0.41800000000E+01 0. -1.
         -5    1    3    3    0  502 -0.53182942117E+02  0.24879787997E+02 -0.93042178853E+02  0.11009881302E+03  0.41800000000E+01 0. -1.
        -11    1    4    4    0    0  0.14578692674E+02 -0.61869302678E+02 -0.16808993572E+03  0.17970691523E+03  0.00000000000E+00 0. -1.
         11    1    4    4    0    0  0.34777548003E+02  0.24072975054E+02 -0.61060748361E+02  0.74279209496E+02  0.00000000000E+00 0.  1.
</event>
<event>
 8    1  0.6869405E-009  0.1530750E+03  0.7561462E-02  0.1196745E+00
         -2   -1    0    0    0  501 -0.00000000000E+00  0.00000000000E+00  0.23648796921E+02  0.23648796921E+02  0.00000000000E+00 0.  1.
          2   -1    0    0  501    0  0.00000000000E+00 -0.00000000000E+00 -0.14393661236E+04  0.14393661236E+04  0.00000000000E+00 0. -1.
         25    2    1    2    0    0  0.10316050251E+03  0.81817093555E+02 -0.10186047543E+04  0.10346685640E+04  0.12508903120E+03 0.  0.
         23    2    1    2    0    0 -0.10316050251E+03 -0.81817093555E+02 -0.39711257237E+03  0.42834635653E+03  0.91902556785E+02 0.  0.
          5    1    3    3  502    0  0.49343269812E+02  0.82066690475E+02 -0.32167790538E+03  0.33565435670E+03  0.41800000000E+01 0. -1.
         -5    1    3    3    0  502  0.53817232702E+02 -0.24959692050E+00 -0.69692684891E+03  0.69901420727E+03  0.41800000000E+01 0. -1.
        -11    1    4    4    0    0 -0.93984606166E+02 -0.22954990388E+02 -0.19569987746E+03  0.21830822206E+03  0.00000000000E+00 0.  1.
         11    1    4    4    0    0 -0.91758963486E+01 -0.58862103167E+02 -0.20141269491E+03  0.21003813447E+03  0.00000000000E+00 0. -1.
</event>
<event>
 8    1  0.6869405E-009  0.1182546E+03  0.7561462E-02  0.1246004E+00
         -1   -1    0    0    0  501 -0.00000000000E+00  0.00000000000E+00  0.14328690437E+03  0.14328690437E+03  0.00000000000E+00 0.  1.
          1   -1    0    0  501    0  0.00000000000E+00 -0.00000000000E+00 -0.15265910082E+03  0.15265910082E+03  0.00000000000E+00 0. -1.
         25    2    1    2    0    0 -0.88840344741E+02 -0.49650983135E+02  0.88809638274E+01  0.16150101187E+03  0.12508348546E+03 0.  0.
         23    2    1    2    0    0  0.88840344741E+02  0.49650983135E+02 -0.18253160281E+02  0.13444499333E+03  0.85932830692E+02 0.  0.
          5    1    3    3  502    0 -0.25224981663E+02  0.15501958359E+01  0.59882546640E+02  0.65131364173E+02  0.41800000000E+01 0. -1.
         -5    1    3    3    0  502 -0.63615363077E+02 -0.51201178971E+02 -0.51001582812E+02  0.96369647695E+02  0.41800000000E+01 0. -1.
        -11    1    4    4    0    0 -0.13268998641E+02  0.17725394095E+02 -0.16210603633E+02  0.27441566845E+02  0.00000000000E+00 0.  1.
         11    1    4    4    0    0  0.10210934338E+03  0.31925589040E+02 -0.20425566485E+01  0.10700342648E+03  0.00000000000E+00 0. -1.
</event>
<event>
 8    1  0.6869405E-009  0.9990875E+02  0.7561462E-02  0.1280488E+00
          3   -1    0    0  501    0  0.00000000000E+00  0.00000000000E+00  0.59010976758E+02  0.59010976758E+02  0.00000000000E+00 0. -1.
         -3   -1    0    0    0  501 -0.00000000000E+00 -0.00000000000E+00 -0.22180497741E+03  0.22180497741E+03  0.00000000000E+00 0.  1.
         25    2    1    2    0    0  0.33276634627E+02 -0.22247398060E+02 -0.10336453527E+03  0.16713355651E+03  0.12508843843E+03 0.  0.
         23    2    1    2    0    0 -0.33276634627E+02  0.22247398060E+02 -0.59429465390E+02  0.11368239766E+03  0.88258399306E+02 0.  0.
          5    1    3    3  502    0 -0.16979868902E+02 -0.58713334842E+02 -0.79765662791E+02  0.10057636401E+03  0.41800000000E+01 0.  1.
         -5    1    3    3    0  502  0.50256503530E+02  0.36465936782E+02 -0.23598872476E+02  0.66557192508E+02  0.41800000000E+01 0.  1.
        -11    1    4    4    0    0 -0.48788110809E+02 -0.49877301900E+00 -0.67283741058E+00  0.48795299374E+02  0.00000000000E+00 0. -1.
         11    1    4    4    0    0  0.15511476182E+02  0.22746171079E+02 -0.58756627980E+02  0.64887098283E+02  0.00000000000E+00 0.  1.
</event>
<event>
 8    1  0.6869405E-009  0.2097158E+03  0.7561462E-02  0.1141791E+00
         -1   -1    0    0    0  501 -0.00000000000E+00  0.00000000000E+00  0.65919533572E+02  0.65919533572E+02  0.00000000000E+00 0.  1.
          1   -1    0    0  501    0  0.00000000000E+00 -0.00000000000E+00 -0.69927277411E+03  0.69927277411E+03  0.00000000000E+00 0. -1.
         25    2    1    2    0    0 -0.96769692771E+02  0.15571685853E+03 -0.29057441422E+03  0.36564061159E+03  0.12508978047E+03 0.  0.
         23    2    1    2    0    0  0.96769692771E+02 -0.15571685853E+03 -0.34277882632E+03  0.39955169609E+03  0.92369478755E+02 0.  0.
          5    1    3    3  502    0  0.11234219780E+02  0.91104116045E+02 -0.15811345711E+03  0.18287565550E+03  0.41800000000E+01 0.  1.
         -5    1    3    3    0  502 -0.10800391255E+03  0.64612742488E+02 -0.13246095710E+03  0.18276495609E+03  0.41800000000E+01 0.  1.
        -11    1    4    4    0    0  0.46375895121E+02 -0.14201276095E+03 -0.21791889615E+03  0.26421013080E+03  0.00000000000E+00 0.  1.
         11    1    4    4    0    0  0.50393797649E+02 -0.13704097586E+02 -0.12485993018E+03  0.13534156529E+03  0.00000000000E+00 0. -1.
</event>
<event>
 8    1  0.6869405E-009  0.9715584E+02  0.7561462E-02  0.1286393E+00
          2   -1    0    0  501    0  0.00000000000E+00  0.00000000000E+00  0.27046293233E+03  0.27046293233E+03  0.00000000000E+00 0.  1.
         -2   -1    0    0    0  501 -0.00000000000E+00 -0.00000000000E+00 -0.59797819677E+02  0.59797819677E+02  0.00000000000E+00 0. -1.
         25    2    1    2    0    0  0.14122555167E+02 -0.21564290042E+02  0.38713423379E+02  0.13345748738E+03  0.12509079350E+03 0.  0.
         23    2    1    2    0    0 -0.14122555167E+02  0.21564290042E+02  0.17195168928E+03  0.19680326463E+03  0.92193689333E+02 0.  0.
          5    1    3    3  502    0  0.37243779982E+02 -0.60877278838E+02  0.48805125291E+02  0.86559545290E+02  0.41800000000E+01 0.  1.
         -5    1    3    3    0  502 -0.23121224815E+02  0.39312988796E+02 -0.10091701913E+02  0.46897942093E+02  0.41800000000E+01 0.  1.
        -11    1    4    4    0    0 -0.43321665033E+02  0.54217086046E+01  0.15150937432E+03  0.15767451314E+03  0.00000000000E+00 0.  1.
         11    1    4    4    0    0  0.29199109866E+02  0.16142581438E+02  0.20442314955E+02  0.39128751490E+02  0.00000000000E+00 0. -1.
</event>
<event>
 8    1  0.6869405E-009  0.2212100E+03  0.7561462E-02  0.1132984E+00
         -3   -1    0    0    0  501 -0.00000000000E+00  0.00000000000E+00  0.56980790595E+03  0.56980790595E+03  0.00000000000E+00 0.  1.
          3   -1    0    0  501    0  0.00000000000E+00 -0.00000000000E+00 -0.10085008685E+03  0.10085008685E+03  0.00000000000E+00 0. -1.
         25    2    1    2    0    0  0.17943563145E+03  0.10421596028E+03  0.16984387726E+03  0.29589291795E+03  0.12509022361E+03 0.  0.
         23    2    1    2    0    0 -0.17943563145E+03 -0.10421596028E+03  0.29911394184E+03  0.37476507485E+03  0.89003364635E+02 0.  0.
          5    1    3    3  502    0  0.16509514491E+03  0.12521884967E+03  0.11924615794E+03  0.23910935944E+03  0.41800000000E+01 0. -1.
         -5    1    3    3    0  502  0.14340486534E+02 -0.21002889396E+02  0.50597719322E+02  0.56783558515E+02  0.41800000000E+01 0. -1.
        -11    1    4    4    0    0 -0.13015020048E+03 -0.89519238790E+02  0.27680192002E+03  0.31870373661E+03  0.00000000000E+00 0.  1.
         11    1    4    4    0    0 -0.49285430968E+02 -0.14696721487E+02  0.22312021814E+02  0.56061338243E+02  0.00000000000E+00 0. -1.
</event>
<event>
 8    1  0.6869405E-009  0.1186517E+03  0.7561462E-02  0.1245338E+00
         -2   -1    0    0    0  501 -0.00000000000E+00  0.00000000000E+00  0.32532480273E+02  0.32532480273E+02  0.00000000000E+00 0.  1.
          2   -1    0    0  501    0  0.00000000000E+00 -0.00000000000E+00 -0.57294909846E+03  0.57294909846E+03  0.00000000000E+00 0. -1.
         25    2    1    2    0    0 -0.33708064451E+02 -0.44883396152E+02 -0.42141849354E+03  0.44316118190E+03  0.12509010189E+03 0.  0.
         23    2    1    2    0    0  0.33708064451E+02  0.44883396152E+02 -0.11899812465E+03  0.16232039683E+03  0.95061057733E+02 0.  0.
          5    1    3    3  502    0 -0.12862300827E+02 -0.87923812089E+02 -0.28326234909E+03  0.29690245254E+03  0.41800000000E+01 0. -1.
         -5    1    3    3    0  502 -0.20845763624E+02  0.43040415937E+02 -0.13815614445E+03  0.14625872936E+03  0.41800000000E+01 0. -1.
        -11    1    4    4    0    0  0.30066659554E+02 -0.19511335381E+02 -0.12778644456E+02  0.38052463510E+02  0.00000000000E+00 0.  1.
         11    1    4    4    0    0  0.36414048973E+01  0.64394731532E+02 -0.10621948019E+03  0.12426793332E+03  0.00000000000E+00 0. -1.
</event>
<event>
 8    1  0.6869405E-009  0.1410159E+03  0.7561462E-02  0.1211969E+00
          3   -1    0    0  501    0  0.00000000000E+00  0.00000000000E+00  0.71719742741E+02  0.71719742741E+02  0.00000000000E+00 0. -1.
         -3   -1    0    0    0  501 -0.00000000000E+00 -0.00000000000E+00 -0.46612088616E+03  0.46612088616E+03  0.00000000000E+00 0.  1.
         25    2    1    2    0    0  0.87413348280E+02 -0.36065695650E+02 -0.37437849850E+03  0.40589261395E+03  0.12509087119E+03 0.  0.
         23    2    1    2    0    0 -0.87413348280E+02  0.36065695650E+02 -0.20022644913E+02  0.13194801495E+03  0.89819510578E+02 0.  0.
          5    1    3    3  502    0 -0.18762642777E+02  0.23076933040E+02 -0.12342177340E+03  0.12702357321E+03  0.41800000000E+01 0.  1.
         -5    1    3    3    0  502  0.10617599106E+03 -0.59142628690E+02 -0.25095672511E+03  0.27886904074E+03  0.41800000000E+01 0.  1.
        -11    1    4    4    0    0 -0.15420317286E+02  0.54030764027E+02 -0.10056919068E+02  0.57081093785E+02  0.00000000000E+00 0.  1.
         11    1    4    4    0    0 -0.71993030994E+02 -0.17965068377E+02 -0.99657258450E+01  0.74866921168E+02  0.00000000000E+00 0. -1.
</event>
<event>
 7    1  0.6869405E-009  0.2012582E+03  0.7561462E-02  0.1148682E+00
          1   -1    0    0  501    0  0.00000000000E+00  0.00000000000E+00  0.12175557632E+04  0.12175557632E+04  0.00000000000E+00 0. -1.
         -1   -1    0    0    0  501 -0.00000000000E+00 -0.00000000000E+00 -0.44481063424E+02  0.44481063424E+02  0.00000000000E+00 0.  1.
         23    2    1    2    0    0 -0.13109002996E+03 -0.11654443544E+03  0.29365029167E+03  0.35659369621E+03  0.10080361597E+03 0.  0.
          5    1    1    2  502    0  0.10075503839E+03  0.14277751396E+03  0.73459282537E+03  0.75510336229E+03  0.41800000000E+01 0.  1.
         -5    1    1    2    0  502  0.30334991566E+02 -0.26233078527E+02  0.14483158274E+03  0.15033976813E+03  0.41800000000E+01 0.  1.
        -11    1    3    3    0    0 -0.40306188294E+02 -0.79909168238E+02  0.74053307168E+02  0.11616348947E+03  0.00000000000E+00 0.  1.
         11    1    3    3    0    0 -0.90783841665E+02 -0.36635267199E+02  0.21959698450E+03  0.24043020674E+03  0.00000000000E+00 0. -1.
</event>
<event>
 8    1  0.6869405E-009  0.1361885E+03  0.7561462E-02  0.1218552E+00
         -3   -1    0    0    0  501 -0.00000000000E+00  0.00000000000E+00  0.13884525686E+02  0.13884525686E+02  0.00000000000E+00 0.  1.
          3   -1    0    0  501    0  0.00000000000E+00 -0.00000000000E+00 -0.17727044230E+04  0.17727044230E+04  0.00000000000E+00 0. -1.
         25    2    1    2    0    0  0.40198047531E+02 -0.98332864228E+02 -0.11714455773E+04  0.11828853948E+04  0.12509149250E+03 0.  0.
         23    2    1    2    0    0 -0.40198047531E+02  0.98332864228E+02 -0.58737432006E+03  0.60370355391E+03  0.90355707759E+02 0.  0.
          5    1    3    3  502    0 -0.25374078158E+02 -0.35901816833E+02 -0.12593703926E+03  0.13345559018E+03  0.41800000000E+01 0. -1.
         -5    1    3    3    0  502  0.65572125689E+02 -0.62431047395E+02 -0.10455085380E+04  0.10494298046E+04  0.41800000000E+01 0. -1.
        -11    1    4    4    0    0 -0.68177804679E+02  0.71991938448E+02 -0.46432259035E+03  0.47479102789E+03  0.00000000000E+00 0.  1.
         11    1    4    4    0    0  0.27979757148E+02  0.26340925780E+02 -0.12305172971E+03  0.12891252603E+03  0.00000000000E+00 0. -1.
</event>
<event>
 8    1  0.6869405E-009  0.1077154E+03  0.7561462E-02  0.1264860E+00
         -2   -1    0    0    0  501 -0.00000000000E+00  0.00000000000E+00  0.36385290454E+03  0.36385290454E+03  0.00000000000E+00 0.  1.
          2   -1    0    0  501    0  0.00000000000E+00 -0.00000000000E+00 -0.39838820654E+02  0.39838820654E+02  0.00000000000E+00 0. -1.
         25    2    1    2    0    0  0.27494363237E+02  0.37092807126E+02  0.14234795014E+03  0.19504488205E+03  0.12509096993E+03 0.  0.
         23    2    1    2    0    0 -0.27494363237E+02 -0.37092807126E+02  0.18166613375E+03  0.20864684314E+03  0.91646629236E+02 0.  0.
          5    1    3    3  502    0  0.82483982485E+01  0.74042892992E+02  0.40443533573E+02  0.84873658365E+02  0.41800000000E+01 0. -1.
         -5    1    3    3    0  502  0.19245964989E+02 -0.36950085866E+02  0.10190441656E+03  0.11017122369E+03  0.41800000000E+01 0. -1.
        -11    1    4    4    0    0  0.27883480499E+02 -0.33302246493E+02  0.53039858230E+02  0.68554756708E+02  0.00000000000E+00 0.  1.
         11    1    4    4    0    0 -0.55377843736E+02 -0.37905606330E+01  0.12862627552E+03  0.14009208643E+03  0.00000000000E+00 0. -1.
</event>
<event>
 8    1  0.6869405E-009  0.8296046E+02  0.7561462E-02  0.1320854E+00
          1   -1    0    0  501    0  0.00000000000E+00  0.00000000000E+00  0.11294201788E+03  0.11294201788E+03  0.00000000000E+00 0. -1.
         -1   -1    0    0    0  501 -0.00000000000E+00 -0.00000000000E+00 -0.13165040266E+03  0.13165040266E+03  0.00000000000E+00 0.  1.
         25    2    1    2    0    0 -0.44365062551E+02  0.36317615662E+02 -0.16842698979E+02  0.13861793282E+03  0.12507608407E+03 0.  0.
         23    2    1    2    0    0  0.44365062551E+02 -0.36317615662E+02 -0.18656857991E+01  0.10597448771E+03  0.89106022693E+02 0.  0.
          5    1    3    3  502    0 -0.93960947642E+01  0.18487667820E+02  0.53735980697E+02  0.57750398091E+02  0.41800000000E+01 0. -1.
         -5    1    3    3    0  502 -0.34968967787E+02  0.17829947842E+02 -0.70578679676E+02  0.80867534727E+02  0.41800000000E+01 0. -1.
        -11    1    4    4    0    0  0.25231790638E+02 -0.65615263429E+02  0.43539964911E+01  0.70434106363E+02  0.00000000000E+00 0.  1.
         11    1    4    4    0    0  0.19133271913E+02  0.29297647767E+02 -0.62196822902E+01  0.35540381351E+02  0.00000000000E+00 0. -1.
</event>
<event>
 8    1  0.6869405E-009  0.1573802E+03  0.7561462E-02  0.1191687E+00
          1   -1    0    0  501    0  0.00000000000E+00  0.00000000000E+00  0.11716654165E+04  0.11716654165E+04  0.00000000000E+00 0. -1.
         -1   -1    0    0    0  501 -0.00000000000E+00 -0.00000000000E+00 -0.27151142947E+02  0.27151142947E+02  0.00000000000E+00 0.  1.
         25    2    1    2    0    0 -0.94545093611E+02 -0.90124465882E+02  0.78491305168E+03  0.80547902535E+03  0.12508703970E+03 0.  0.
         23    2    1    2    0    0  0.94545093611E+02  0.90124465882E+02  0.35960122185E+03  0.39333753408E+03  0.91324601729E+02 0.  0.
          5    1    3    3  502    0  0.19424554178E+02 -0.12733253799E+02  0.31200080747E+03  0.31289203460E+03  0.41800000000E+01 0. -1.
         -5    1    3    3    0  502 -0.11396964779E+03 -0.77391212083E+02  0.47291224421E+03  0.49258699074E+03  0.41800000000E+01 0. -1.
        -11    1    4    4    0    0  0.10216221770E+01  0.52528000767E+02  0.17854382427E+03  0.18611322297E+03  0.00000000000E+00 0. -1.
         11    1    4    4    0    0  0.93523471434E+02  0.37596465115E+02  0.18105739758E+03  0.20722431111E+03  0.00000000000E+00 0.  1.
</event>
<event>
 8    1  0.6869405E-009  0.1117937E+03  0.7561462E-02  0.1257284E+00
         -2   -1    0    0    0  501 -0.00000000000E+00  0.00000000000E+00  0.31341420587E+02  0.31341420587E+02  0.00000000000E+00 0.  1.
          2   -1    0    0  501    0  0.00000000000E+00 -0.00000000000E+00 -0.42966051505E+03  0.42966051505E+03  0.00000000000E+00 0. -1.
         25    2    1    2    0    0  0.21883884787E+02  0.34405385737E+02 -0.24317995779E+03  0.27648968391E+03  0.12508964168E+03 0.  0.
         23    2    1    2    0    0 -0.21883884787E+02 -0.34405385737E+02 -0.15513913667E+03  0.18451225172E+03  0.91181052463E+02 0.  0.
          5    1    3    3  502    0  0.28980349196E+01 -0.43317725165E+02 -0.44715901392E+02  0.62464455150E+02  0.41800000000E+01 0.  1.
         -5    1    3    3    0  502  0.18985849868E+02  0.77723110902E+02 -0.19846405640E+03  0.21402522876E+03  0.41800000000E+01 0.  1.
        -11    1    4    4    0    0  0.29687214808E+02  0.10483131759E+02 -0.50980532528E+02  0.59918623744E+02  0.00000000000E+00 0. -1.
         11    1    4    4    0    0 -0.51571099595E+02 -0.44888517496E+02 -0.10415860414E+03  0.12459362798E+03  0.00000000000E+00 0.  1.
</event>
<event>
 8    1  0.6869405E-009  0.1235919E+03  0.7561462E-02  0.1237286E+00
          1   -1    0    0  501    0  0.00000000000E+00  0.00000000000E+00  0.43511024212E+03  0.43511024212E+03  0.00000000000E+00 0. -1.
         -1   -1    0    0    0  501 -0.00000000000E+00 -0.00000000000E+00 -0.63198191727E+02  0.63198191727E+02  0.00000000000E+00 0.  1.
         25    2    1    2    0    0 -0.53608342642E+02  0.96567168525E+02  0.11026262432E+03  0.20001189384E+03  0.12509132232E+03 0.  0.
         23    2    1    2    0    0  0.53608342642E+02 -0.96567168525E+02  0.26164942607E+03  0.29829654000E+03  0.91221330694E+02 0.  0.
          5    1    3    3  502    0 -0.12562055544E+02 -0.96145096930E+00 -0.24952945949E+02  0.28263961842E+02  0.41800000000E+01 0. -1.
         -5    1    3    3    0  502 -0.41046287098E+02  0.97528619494E+02  0.13521557026E+03  0.17174793200E+03  0.41800000000E+01 0. -1.
        -11    1    4    4    0    0  0.98430750420E+01  0.92469888759E+01  0.92754336874E+00  0.13537107012E+02  0.00000000000E+00 0.  1.
         11    1    4    4    0    0  0.43765267600E+02 -0.10581415740E+03  0.26072188270E+03  0.28475943299E+03  0.00000000000E+00 0. -1.
</event>
<event>
 8    1  0.6869405E-009  0.8948312E+02  0.7561462E-02  0.1304108E+00
          2   -1    0    0  501    0  0.00000000000E+00  0.00000000000E+00  0.11398058196E+03  0.11398058196E+03  0.00000000000E+00 0. -1.
         -2   -1    0    0    0  501 -0.00000000000E+00 -0.00000000000E+00 -0.18140717196E+03  0.18140717196E+03  0.00000000000E+00 0.  1.
         25    2    1    2    0    0  0.65757900435E+02 -0.12990061168E+00 -0.10658198974E+03  0.17700732319E+03  0.12509098121E+03 0.  0.
         23    2    1    2    0    0 -0.65757900435E+02  0.12990061168E+00  0.39155399745E+02  0.11838043073E+03  0.90314244206E+02 0.  0.
          5    1    3    3  502    0  0.38524361772E+01  0.35184359836E+02  0.12831359499E+02  0.37880029411E+02  0.41800000000E+01 0.  1.
         -5    1    3    3    0  502  0.61905464258E+02 -0.35314260448E+02 -0.11941334924E+03  0.13912729378E+03  0.41800000000E+01 0.  1.
        -11    1    4    4    0    0 -0.18985895298E+02 -0.13406237178E+02 -0.27390866367E+02  0.35922847546E+02  0.00000000000E+00 0.  1.
         11    1    4    4    0    0 -0.46772005137E+02  0.13536137789E+02  0.66546266112E+02  0.82457583182E+02  0.00000000000E+00 0. -1.
</event>
<event>
 8    1  0.6869405E-009  0.1014098E+03  0.7561462E-02  0.1277359E+00
         -4   -1    0    0    0  501 -0.00000000000E+00  0.00000000000E+00  0.79300788589E+02  0.79300788589E+02  0.00000000000E+00 0. -1.
          4   -1    0    0  501    0  0.00000000000E+00 -0.00000000000E+00 -0.25686725033E+03  0.25686725033E+03  0.00000000000E+00 0.  1.
         25    2    1    2    0    0  0.16484082383E+02 -0.22275091218E+02  0.87731234932E+01  0.12842255940E+03  0.12508989330E+03 0.  0.
         23    2    1    2    0    0 -0.16484082383E+02  0.22275091218E+02 -0.18633958523E+03  0.20774547952E+03  0.87566195386E+02 0.  0.
          5    1    3    3  502    0  0.68770600547E+02  0.23211774350E+01  0.13681598841E+02  0.70281163274E+02  0.41800000000E+01 0. -1.
         -5    1    3    3    0  502 -0.52286518164E+02 -0.24596268653E+02 -0.49084753473E+01  0.58141396127E+02  0.41800000000E+01 0. -1.
        -11    1    4    4    0    0  0.19400147945E+02  0.33187965398E+02 -0.15236165206E+03  0.15713650055E+03  0.00000000000E+00 0.  1.
         11    1    4    4    0    0 -0.35884230329E+02 -0.10912874181E+02 -0.33977933174E+02  0.50608978965E+02  0.00000000000E+00 0. -1.
</event>
<event>
 8    1  0.6869405E-009  0.1886492E+03  0.7561462E-02  0.1159685E+00
         -2   -1    0    0    0  501 -0.00000000000E+00  0.00000000000E+00  0.18651322340E+02  0.18651322340E+02  0.00000000000E+00 0.  1.
          2   -1    0    0  501    0  0.00000000000E+00 -0.00000000000E+00 -0.28714861410E+04  0.28714861410E+04  0.00000000000E+00 0. -1.
         25    2    1    2    0    0 -0.89936094691E+02 -0.15887951006E+03 -0.19514729598E+04  0.19639820856E+04  0.12509084538E+03 0.  0.
         23    2    1    2    0    0  0.89936094691E+02  0.15887951006E+03 -0.90136185881E+03  0.92615537777E+03  0.10945036956E+03 0.  0.
          5    1    3    3  502    0 -0.66905841812E+02 -0.79154828251E+02 -0.15767254866E+04  0.15801337320E+04  0.41800000000E+01 0. -1.
         -5    1    3    3    0  502 -0.23030252879E+02 -0.79724681810E+02 -0.37474747320E+03  0.38384835353E+03  0.41800000000E+01 0. -1.
        -11    1    4    4    0    0  0.83741808069E+02  0.96391010218E+02 -0.77048494314E+03  0.78099357543E+03  0.00000000000E+00 0. -1.
         11    1    4    4    0    0  0.61942866215E+01  0.62488499843E+02 -0.13087691568E+03  0.14516180234E+03  0.00000000000E+00 0.  1.
</event>
<event>
 8    1  0.6869405E-009  0.1661630E+03  0.7561462E-02  0.1181909E+00
          1   -1    0    0  501    0  0.00000000000E+00  0.00000000000E+00  0.16493464116E+03  0.16493464116E+03  0.00000000000E+00 0. -1.
         -1   -1    0    0    0  501 -0.00000000000E+00 -0.00000000000E+00 -0.18612010507E+03  0.18612010507E+03  0.00000000000E+00 0.  1.
         25    2    1    2    0    0  0.10822795559E+03  0.79700594733E+02  0.15813057954E+02  0.18429192507E+03  0.12509190890E+03 0.  0.
         23    2    1    2    0    0 -0.10822795559E+03 -0.79700594733E+02 -0.36998521861E+02  0.16676282117E+03  0.91517608858E+02 0.  0.
          5    1    3    3  502    0 -0.17711140669E+02  0.28335394323E+02 -0.25323319033E+02  0.42134569680E+02  0.41800000000E+01 0.  1.
         -5    1    3    3    0  502  0.12593909626E+03  0.51365200410E+02  0.41136376987E+02  0.14215735539E+03  0.41800000000E+01 0.  1.
        -11    1    4    4    0    0 -0.29109135253E+02  0.19983728253E+02 -0.66805914002E+01  0.35934961410E+02  0.00000000000E+00 0.  1.
         11    1    4    4    0    0 -0.79118820337E+02 -0.99684322987E+02 -0.30317930461E+02  0.13082785976E+03  0.00000000000E+00 0. -1.
</event>
<event>
 8    1  0.6869405E-009  0.1013242E+03  0.7561462E-02  0.1277536E+00
         -2   -1    0    0    0  501 -0.00000000000E+00  0.00000000000E+00  0.11360924396E+03  0.11360924396E+03  0.00000000000E+00 0.  1.
          2   -1    0    0  501    0  0.00000000000E+00 -0.00000000000E+00 -0.11032824860E+03  0.11032824860E+03  0.00000000000E+00 0. -1.
         25    2    1    2    0    0  0.20228496089E+02  0.45413316806E+01  0.35382637308E+02  0.13164243520E+03  0.12509190211E+03 0.  0.
         23    2    1    2    0    0 -0.20228496089E+02 -0.45413316806E+01 -0.32101641948E+02  0.92295057369E+02  0.84012180376E+02 0.  0.
          5    1    3    3  502    0 -0.40280036600E+02  0.30219402084E+02  0.41648024470E+02  0.65480714360E+02  0.41800000000E+01 0. -1.
         -5    1    3    3    0  502  0.60508532689E+02 -0.25678070404E+02 -0.62653871617E+01  0.66161720837E+02  0.41800000000E+01 0. -1.
        -11    1    4    4    0    0 -0.29630010238E+02  0.34858124328E+02 -0.20704474371E+02  0.50216547047E+02  0.00000000000E+00 0.  1.
         11    1    4    4    0    0  0.94015141493E+01 -0.39399456009E+02 -0.11397167577E+02  0.42078510321E+02  0.00000000000E+00 0. -1.
</event>
<event>
 8    1  0.6869405E-009  0.1081923E+03  0.7561462E-02  0.1263955E+00
         -1   -1    0    0    0  501 -0.00000000000E+00  0.00000000000E+00  0.22321751595E+02  0.22321751595E+02  0.00000000000E+00 0.  1.
          1   -1    0    0  501    0  0.00000000000E+00 -0.00000000000E+00 -0.77645652056E+03  0.77645652056E+03  0.00000000000E+00 0. -1.
         25    2    1    2    0    0  0.23038684967E+01 -0.19325133589E+02 -0.63433425357E+03  0.64684290311E+03  0.12508807878E+03 0.  0.
         23    2    1    2    0    0 -0.23038684967E+01  0.19325133589E+02 -0.11980051539E+03  0.15193536904E+03  0.91397069317E+02 0.  0.
          5    1    3    3  502    0 -0.44525174099E+02 -0.50415364647E+02 -0.41198974481E+03  0.41746523490E+03  0.41800000000E+01 0. -1.
         -5    1    3    3    0  502  0.46829042596E+02  0.31090231058E+02 -0.22234450876E+03  0.22937766821E+03  0.41800000000E+01 0. -1.
        -11    1    4    4    0    0 -0.24827605787E+02  0.49261331823E+02 -0.61294736906E+02  0.82462922544E+02  0.00000000000E+00 0. -1.
         11    1    4    4    0    0  0.22523737290E+02 -0.29936198234E+02 -0.58505778488E+02  0.69472446500E+02  0.00000000000E+00 0.  1.
</event>
<event>
 8    1  0.6869405E-009  0.2404267E+03  0.7561462E-02  0.1119509E+00
          1   -1    0    0  501    0  0.00000000000E+00  0.00000000000E+00  0.51171161352E+02  0.51171161352E+02  0.00000000000E+00 0. -1.
         -1   -1    0    0    0  501 -0.00000000000E+00 -0.00000000000E+00 -0.13673430131E+04  0.13673430131E+04  0.00000000000E+00 0.  1.
         25    2    1    2    0    0 -0.44155235322E+02  0.23529537710E+03 -0.60085100691E+03  0.65877383504E+03  0.12508970357E+03 0.  0.
         23    2    1    2    0    0  0.44155235322E+02 -0.23529537710E+03 -0.71532084489E+03  0.75974033946E+03  0.90597312228E+02 0.  0.
          5    1    3    3  502    0 -0.36147128964E+02  0.15771805397E+03 -0.52695700714E+03  0.55125562061E+03  0.41800000000E+01 0.  1.
         -5    1    3    3    0  502 -0.80081063577E+01  0.77577323135E+02 -0.73893999764E+02  0.10751821443E+03  0.41800000000E+01 0.  1.
        -11    1    4    4    0    0  0.26889041426E+02 -0.75120058430E+02 -0.37254244959E+03  0.38099070917E+03  0.00000000000E+00 0.  1.
         11    1    4    4    0    0  0.17266193896E+02 -0.16017531867E+03 -0.34277839529E+03  0.37874963029E+03  0.00000000000E+00 0. -1.
</event>
<event>
 8    1  0.6869405E-009  0.6559464E+02  0.7561462E-02  0.1375749E+00
         -2   -1    0    0    0  501 -0.00000000000E+00  0.00000000000E+00  0.12177123545E+03  0.12177123545E+03  0.00000000000E+00 0.  1.
          2   -1    0    0  501    0  0.00000000000E+00 -0.00000000000E+00 -0.11506622507E+03  0.11506622507E+03  0.00000000000E+00 0. -1.
         25    2    1    2    0    0 -0.24692342806E+02 -0.16595694520E+02 -0.45525506601E+02  0.13639409305E+03  0.12508256473E+03 0.  0.
         23    2    1    2    0    0  0.24692342806E+02  0.16595694520E+02  0.52230516979E+02  0.10044336747E+03  0.80471822990E+02 0.  0.
          5    1    3    3  502    0  0.31490625956E+02 -0.99487481497E+01 -0.67734773325E+02  0.75472571377E+02  0.41800000000E+01 0.  1.
         -5    1    3    3    0  502 -0.56182968762E+02 -0.66469463698E+01  0.22209266724E+02  0.60921521677E+02  0.41800000000E+01 0.  1.
        -11    1    4    4    0    0 -0.20117233321E+01  0.14220951042E+02  0.67891992501E+02  0.69394561207E+02  0.00000000000E+00 0.  1.
         11    1    4    4    0    0  0.26704066138E+02  0.23747434773E+01 -0.15661475523E+02  0.31048806265E+02  0.00000000000E+00 0. -1.
</event>
<event>
 8    1  0.6869405E-009  0.9477948E+02  0.7561462E-02  0.1291674E+00
         -3   -1    0    0    0  501 -0.00000000000E+00  0.00000000000E+00  0.40542601016E+03  0.40542601016E+03  0.00000000000E+00 0.  1.
          3   -1    0    0  501    0  0.00000000000E+00 -0.00000000000E+00 -0.37721444989E+02  0.37721444989E+02  0.00000000000E+00 0. -1.
         25    2    1    2    0    0  0.55857951099E+02  0.22970688397E+01  0.18185137832E+03  0.22768741438E+03  0.12508496171E+03 0.  0.
         23    2    1    2    0    0 -0.55857951099E+02 -0.22970688397E+01  0.18585318685E+03  0.21546004077E+03  0.93574755562E+02 0.  0.
          5    1    3    3  502    0 -0.33070057363E+02 -0.17759767315E+02  0.22243250123E+02  0.43832323748E+02  0.41800000000E+01 0. -1.
         -5    1    3    3    0  502  0.88928008462E+02  0.20056836155E+02  0.15960812820E+03  0.18385509063E+03  0.41800000000E+01 0. -1.
        -11    1    4    4    0    0 -0.82375365509E+01  0.83571553098E+01 -0.88737273999E+01  0.14711971019E+02  0.00000000000E+00 0. -1.
         11    1    4    4    0    0 -0.47620414548E+02 -0.10654224149E+02  0.19472691425E+03  0.20074806975E+03  0.00000000000E+00 0.  1.
</event>
<event>
 8    1  0.6869405E-009  0.1520277E+03  0.7561462E-02  0.1198003E+00
         -1   -1    0    0    0  501 -0.00000000000E+00  0.00000000000E+00  0.14362607545E+03  0.14362607545E+03  0.00000000000E+00 0.  1.
          1   -1    0    0  501    0  0.00000000000E+00 -0.00000000000E+00 -0.25410798331E+03  0.25410798331E+03  0.00000000000E+00 0. -1.
         25    2    1    2    0    0 -0.78557846948E+02  0.89588340882E+02 -0.16688318021E+03  0.24019978942E+03  0.12509411201E+03 0.  0.
         23    2    1    2    0    0  0.78557846948E+02 -0.89588340882E+02  0.56401272354E+02  0.15753426934E+03  0.86246949830E+02 0.  0.
          5    1    3    3  502    0 -0.50164649662E+02  0.11122032585E+03 -0.79421901371E+02  0.14564258915E+03  0.41800000000E+01 0.  1.
         -5    1    3    3    0  502 -0.28393197286E+02 -0.21631984967E+02 -0.87461278838E+02  0.94557200264E+02  0.41800000000E+01 0.  1.
        -11    1    4    4    0    0 -0.12416445476E+02 -0.41122827184E+02  0.25356921788E+02  0.49882146269E+02  0.00000000000E+00 0.  1.
         11    1    4    4    0    0  0.90974292424E+02 -0.48465513698E+02  0.31044350566E+02  0.10765212307E+03  0.00000000000E+00 0. -1.
</event>
<event>
 8    1  0.6869405E-009  0.2179281E+03  0.7561462E-02  0.1135437E+00
         -1   -1    0    0    0  501 -0.00000000000E+00  0.00000000000E+00  0.11456546395E+03  0.11456546395E+03  0.00000000000E+00 0.  1.
          1   -1    0    0  501    0  0.00000000000E+00 -0.00000000000E+00 -0.48275853647E+03  0.48275853647E+03  0.00000000000E+00 0. -1.
         25    2    1    2    0    0 -0.19525362111E+03 -0.43335922585E+02 -0.26418518511E+03  0.35417866405E+03  0.12508691095E+03 0.  0.
         23    2    1    2    0    0  0.19525362111E+03  0.43335922585E+02 -0.10400788741E+03  0.24314533637E+03  0.91104529032E+02 0.  0.
          5    1    3    3  502    0 -0.20246149232E+03 -0.37605170183E+02 -0.19294209607E+03  0.28222141934E+03  0.41800000000E+01 0.  1.
         -5    1    3    3    0  502  0.72078712060E+01 -0.57307524014E+01 -0.71243089045E+02  0.71957244716E+02  0.41800000000E+01 0.  1.
        -11    1    4    4    0    0  0.15236282454E+03  0.71664325049E+02 -0.79891354571E+02  0.18636747120E+03  0.00000000000E+00 0.  1.
         11    1    4    4    0    0  0.42890796577E+02 -0.28328402464E+02 -0.24116532834E+02  0.56777865169E+02  0.00000000000E+00 0. -1.
</event>
<event>
 8    1  0.6869405E-009  0.1153988E+03  0.7561462E-02  0.1250887E+00
         -1   -1    0    0    0  501 -0.00000000000E+00  0.00000000000E+00  0.21254339102E+02  0.21254339102E+02  0.00000000000E+00 0.  1.
          1   -1    0    0  501    0  0.00000000000E+00 -0.00000000000E+00 -0.72454092953E+03  0.72454092953E+03  0.00000000000E+00 0. -1.
         25    2    1    2    0    0  0.33214599146E+02  0.34818796879E+02 -0.28432094839E+03  0.31432702262E+03  0.12509003655E+03 0.  0.
         23    2    1    2    0    0 -0.33214599146E+02 -0.34818796879E+02 -0.41896564204E+03  0.43146824601E+03  0.91198025711E+02 0.  0.
          5    1    3    3  502    0  0.15221378096E+02  0.78710273597E+02 -0.22078172620E+03  0.23492347806E+03  0.41800000000E+01 0. -1.
         -5    1    3    3    0  502  0.17993221050E+02 -0.43891476717E+02 -0.63539222188E+02  0.79403544558E+02  0.41800000000E+01 0. -1.
        -11    1    4    4    0    0 -0.19297897908E+02 -0.65994980410E+02 -0.29277201714E+03  0.30073776005E+03  0.00000000000E+00 0.  1.
         11    1    4    4    0    0 -0.13916701238E+02  0.31176183531E+02 -0.12619362490E+03  0.13073048596E+03  0.00000000000E+00 0. -1.
</event>
<event>
 8    1  0.6869405E-009  0.1338294E+03  0.7561462E-02  0.1221882E+00
         -2   -1    0    0    0  501 -0.00000000000E+00  0.00000000000E+00  0.93262703516E+03  0.93262703516E+03  0.00000000000E+00 0.  1.
          2   -1    0    0  501    0  0.00000000000E+00 -0.00000000000E+00 -0.34816580837E+02  0.34816580837E+02  0.00000000000E+00 0. -1.
         25    2    1    2    0    0 -0.12551075790E+03  0.27288768046E+02  0.64527310009E+03  0.66971806188E+03  0.12508909425E+03 0.  0.
         23    2    1    2    0    0  0.12551075790E+03 -0.27288768046E+02  0.25253735423E+03  0.29772555412E+03  0.91475478026E+02 0.  0.
          5    1    3    3  502    0 -0.13015050346E+03  0.25433717284E+02  0.64885669852E+03  0.66228280601E+03  0.41800000000E+01 0. -1.
         -5    1    3    3    0  502  0.46397455612E+01  0.18550507620E+01 -0.35835984264E+01  0.74352558722E+01  0.41800000000E+01 0. -1.
        -11    1    4    4    0    0  0.78439122359E+02 -0.15849872867E+02  0.23144863284E+03  0.24489259692E+03  0.00000000000E+00 0. -1.
         11    1    4    4    0    0  0.47071635541E+02 -0.11438895179E+02  0.21088721397E+02  0.52832957191E+02  0.00000000000E+00 0.  1.
</event>
<event>
 8    1  0.6869405E-009  0.1109364E+03  0.7561462E-02  0.1258846E+00
          2   -1    0    0  501    0  0.00000000000E+00  0.00000000000E+00  0.77952766806E+03  0.77952766806E+03  0.00000000000E+00 0. -1.
         -2   -1    0    0    0  501 -0.00000000000E+00 -0.00000000000E+00 -0.16616548497E+02  0.16616548497E+02  0.00000000000E+00 0.  1.
         25    2    1    2    0    0 -0.54919410616E+01  0.21706389006E+02  0.51558706987E+03  0.53101693069E+03  0.12509046856E+03 0.  0.
         23    2    1    2    0    0  0.54919410616E+01 -0.21706389006E+02  0.24732404970E+03  0.26512728587E+03  0.92854528232E+02 0.  0.
          5    1    3    3  502    0  0.13591250540E+02  0.71860170479E+02  0.29815735399E+03  0.30702424388E+03  0.41800000000E+01 0.  1.
         -5    1    3    3    0  502 -0.19083191602E+02 -0.50153781473E+02  0.21742971588E+03  0.22399268681E+03  0.41800000000E+01 0.  1.
        -11    1    4    4    0    0  0.48742261903E+02 -0.77894056486E+01  0.14494976080E+03  0.15312385866E+03  0.00000000000E+00 0.  1.
         11    1    4    4    0    0 -0.43250320842E+02 -0.13916983357E+02  0.10237428890E+03  0.11200342721E+03  0.00000000000E+00 0. -1.
</event>
<event>
 8    1  0.6869405E-009  0.1198836E+03  0.7561462E-02  0.1243289E+00
         -2   -1    0    0    0  501 -0.00000000000E+00  0.00000000000E+00  0.28774341473E+02  0.28774341473E+02  0.00000000000E+00 0. -1.
          2   -1    0    0  501    0  0.00000000000E+00 -0.00000000000E+00 -0.74228059807E+03  0.74228059807E+03  0.00000000000E+00 0.  1.
         25    2    1    2    0    0  0.85008736514E+02 -0.46472646437E+02 -0.39744725184E+03  0.42778368181E+03  0.12509343817E+03 0.  0.
         23    2    1    2    0    0 -0.85008736514E+02  0.46472646437E+02 -0.31605900476E+03  0.34327125774E+03  0.92496863459E+02 0.  0.
          5    1    3    3  502    0  0.75968828169E+02  0.92464841275E+01 -0.33433591662E+03  0.34300836413E+03  0.41800000000E+01 0.  1.
         -5    1    3    3    0  502  0.90399083455E+01 -0.55719130565E+02 -0.63111335223E+02  0.84775317678E+02  0.41800000000E+01 0.  1.
        -11    1    4    4    0    0 -0.47313491521E+02  0.49784602371E+02 -0.28822883319E+03  0.29629872325E+03  0.00000000000E+00 0.  1.
         11    1    4    4    0    0 -0.37695244993E+02 -0.33119559335E+01 -0.27830171562E+02  0.46972534490E+02  0.00000000000E+00 0. -1.
</event>
<event>
 8    1  0.6869405E-009  0.1400447E+03  0.7561462E-02  0.1213269E+00
          2   -1    0    0  501    0  0.00000000000E+00  0.00000000000E+00  0.93742323735E+03  0.93742323735E+03  0.00000000000E+00 0. -1.
         -2   -1    0    0    0  501 -0.00000000000E+00 -0.00000000000E+00 -0.29049888491E+02  0.29049888491E+02  0.00000000000E+00 0.  1.
         25    2    1    2    0    0 -0.69333368339E+02  0.70208570556E+02  0.69894009521E+03  0.71686903404E+03  0.12509035103E+03 0.  0.
         23    2    1    2    0    0  0.69333368339E+02 -0.70208570556E+02  0.20943325365E+03  0.24960409180E+03  0.93292848426E+02 0.  0.
          5    1    3    3  502    0 -0.83268409614E+02  0.43989289337E+01  0.26839925224E+03  0.28108470186E+03  0.41800000000E+01 0. -1.
         -5    1    3    3    0  502  0.13935041275E+02  0.65809641622E+02  0.43054084297E+03  0.43578433218E+03  0.41800000000E+01 0. -1.
        -11    1    4    4    0    0  0.49449444453E+02 -0.89018159300E+02  0.12722569070E+03  0.16295967788E+03  0.00000000000E+00 0.  1.
         11    1    4    4    0    0  0.19883923886E+02  0.18809588744E+02  0.82207562949E+02  0.86644413921E+02  0.00000000000E+00 0. -1.
</event>
<event>
 8    1  0.6869405E-009  0.1039332E+03  0.7561462E-02  0.1272236E+00
         -1   -1    0    0    0  501 -0.00000000000E+00  0.00000000000E+00  0.39918844478E+02  0.39918844478E+02  0.00000000000E+00 0.  1.
          1   -1    0    0  501    0  0.00000000000E+00 -0.00000000000E+00 -0.36631441670E+03  0.36631441670E+03  0.00000000000E+00 0. -1.
         25    2    1    2    0    0 -0.28616864043E+02 -0.87778410569E+00 -0.26211306149E+03  0.29184240903E+03  0.12509612021E+03 0.  0.
         23    2    1    2    0    0  0.28616864043E+02  0.87778410569E+00 -0.64282510726E+02  0.11439085214E+03  0.90184979104E+02 0.  0.
          5    1    3    3  502    0 -0.33789119281E+02 -0.55269823673E+02 -0.19310573932E+03  0.20372470873E+03  0.41800000000E+01 0.  1.
         -5    1    3    3    0  502  0.51722552376E+01  0.54392039567E+02 -0.69007322178E+02  0.88117700303E+02  0.41800000000E+01 0.  1.
        -11    1    4    4    0    0 -0.24531667881E+02  0.20019983861E+02 -0.42321132940E+01  0.31945473322E+02  0.00000000000E+00 0. -1.
         11    1    4    4    0    0  0.53148531924E+02 -0.19142199755E+02 -0.60050397432E+02  0.82445378821E+02  0.00000000000E+00 0.  1.
</event>
<event>
 7    1  0.6869405E-009  0.5973230E+02  0.7561462E-02  0.1398959E+00
         -2   -1    0    0    0  501 -0.00000000000E+00  0.00000000000E+00  0.47500523505E+02  0.47500523505E+02  0.00000000000E+00 0.  1.
          2   -1    0    0  501    0  0.00000000000E+00 -0.00000000000E+00 -0.33975547814E+03  0.33975547814E+03  0.00000000000E+00 0. -1.
         23    2    1    2    0    0  0.49409258314E+02 -0.19422169413E+02 -0.18898050418E+03  0.21662907941E+03  0.91629862015E+02 0.  0.
          5    1    1    2  502    0 -0.15297821836E+02 -0.12472868997E+01  0.28634505066E+02  0.32756470474E+02  0.41800000000E+01 0.  1.
         -5    1    1    2    0  502 -0.34111436478E+02  0.20669456313E+02 -0.13190895552E+03  0.13787045176E+03  0.41800000000E+01 0.  1.
        -11    1    3    3    0    0  0.98344682955E+01  0.10087202577E+02  0.61348109571E+01  0.15365686707E+02  0.00000000000E+00 0.  1.
         11    1    3    3    0    0  0.39574790019E+02 -0.29509371991E+02 -0.19511531514E+03  0.20126339270E+03  0.00000000000E+00 0. -1.
</event>
<event>
 8    1  0.6869405E-009  0.1062767E+03  0.7561462E-02  0.1267624E+00
         -2   -1    0    0    0  501 -0.00000000000E+00  0.00000000000E+00  0.35176602576E+02  0.35176602576E+02  0.00000000000E+00 0.  1.
          2   -1    0    0  501    0  0.00000000000E+00 -0.00000000000E+00 -0.38917325976E+03  0.38917325976E+03  0.00000000000E+00 0. -1.
         25    2    1    2    0    0 -0.14344762863E+02 -0.26712995502E+02 -0.14715237270E+03  0.19550071331E+03  0.12508937510E+03 0.  0.
         23    2    1    2    0    0  0.14344762863E+02  0.26712995502E+02 -0.20684428448E+03  0.22884914903E+03  0.93102194584E+02 0.  0.
          5    1    3    3  502    0  0.32094066705E+02  0.28512894453E+02 -0.10079123922E+03  0.10963284440E+03  0.41800000000E+01 0.  1.
         -5    1    3    3    0  502 -0.46438829568E+02 -0.55225889955E+02 -0.46361133475E+02  0.85867868904E+02  0.41800000000E+01 0.  1.
        -11    1    4    4    0    0  0.38741428400E+02 -0.20624102695E+02 -0.10788271681E+03  0.11646859007E+03  0.00000000000E+00 0. -1.
         11    1    4    4    0    0 -0.24396665537E+02  0.47337098197E+02 -0.98961567671E+02  0.11238055895E+03  0.00000000000E+00 0.  1.
</event>
<event>
 8    1  0.6869405E-009  0.1912955E+03  0.7561462E-02  0.1157298E+00
          2   -1    0    0  501    0  0.00000000000E+00  0.00000000000E+00  0.22159758231E+04  0.22159758231E+04  0.00000000000E+00 0. -1.
         -2   -1    0    0    0  501 -0.00000000000E+00 -0.00000000000E+00 -0.20568670807E+02  0.20568670807E+02  0.00000000000E+00 0.  1.
         25    2    1    2    0    0  0.13948866535E+03  0.71226796259E+02  0.16355918954E+04  0.16478285621E+04  0.12509107667E+03 0.  0.
         23    2    1    2    0    0 -0.13948866535E+03 -0.71226796259E+02  0.55981525685E+03  0.58871593177E+03  0.93075143069E+02 0.  0.
          5    1    3    3  502    0  0.14025208490E+03  0.11781113805E+02  0.11341319956E+04  0.11428395766E+04  0.41800000000E+01 0. -1.
         -5    1    3    3    0  502 -0.76341954910E+00  0.59445682454E+02  0.50145989981E+03  0.50498898552E+03  0.41800000000E+01 0. -1.
        -11    1    4    4    0    0 -0.14718466030E+03 -0.43599727354E+02  0.47011813837E+03  0.49454557371E+03  0.00000000000E+00 0. -1.
         11    1    4    4    0    0  0.76959949451E+01 -0.27627068905E+02  0.89697118473E+02  0.94170358058E+02  0.00000000000E+00 0.  1.
</event>
<event>
 8    1  0.6869405E-009  0.1067749E+03  0.7561462E-02  0.1266662E+00
         -1   -1    0    0    0  501 -0.00000000000E+00  0.00000000000E+00  0.43723578886E+03  0.43723578886E+03  0.00000000000E+00 0.  1.
          1   -1    0    0  501    0  0.00000000000E+00 -0.00000000000E+00 -0.33051203307E+02  0.33051203307E+02  0.00000000000E+00 0. -1.
         25    2    1    2    0    0 -0.47333422667E+02  0.29160137973E+02  0.24911005772E+03  0.28424271232E+03  0.12508929650E+03 0.  0.
         23    2    1    2    0    0  0.47333422667E+02 -0.29160137973E+02  0.15507452783E+03  0.18604427985E+03  0.86449975907E+02 0.  0.
          5    1    3    3  502    0 -0.48055586380E+02 -0.35992090236E+02  0.17706786851E+03  0.18701677037E+03  0.41800000000E+01 0.  1.
         -5    1    3    3    0  502  0.72216371269E+00  0.65152228209E+02  0.72042189216E+02  0.97225941950E+02  0.41800000000E+01 0.  1.
        -11    1    4    4    0    0  0.64525358951E+02 -0.29337674798E+02  0.15313291109E+03  0.16874213928E+03  0.00000000000E+00 0.  1.
         11    1    4    4    0    0 -0.17191936284E+02  0.17753682452E+00  0.19416167359E+01  0.17302140563E+02  0.00000000000E+00 0. -1.
</event>
<event>
 8    1  0.6869405E-009  0.1383426E+03  0.7561462E-02  0.1215577E+00
          1   -1    0    0  501    0  0.00000000000E+00  0.00000000000E+00  0.55870221039E+03  0.55870221039E+03  0.00000000000E+00 0. -1.
         -1   -1    0    0    0  501 -0.00000000000E+00 -0.00000000000E+00 -0.47543625635E+02  0.47543625635E+02  0.00000000000E+00 0.  1.
         25    2    1    2    0    0 -0.87481871079E+02 -0.72816268411E+02  0.34818901938E+03  0.38708939868E+03  0.12508925871E+03 0.  0.
         23    2    1    2    0    0  0.87481871079E+02  0.72816268411E+02  0.16296956537E+03  0.21915643734E+03  0.92277722536E+02 0.  0.
          5    1    3    3  502    0  0.22618459430E+02 -0.42506418116E+02  0.15783946628E+03  0.16507319529E+03  0.41800000000E+01 0.  1.
         -5    1    3    3    0  502 -0.11010033051E+03 -0.30309850295E+02  0.19034955310E+03  0.22201620339E+03  0.41800000000E+01 0.  1.
        -11    1    4    4    0    0  0.12977758637E+02  0.14570682069E+02 -0.10072500698E+02  0.21958648991E+02  0.00000000000E+00 0.  1.
         11    1    4    4    0    0  0.74504112443E+02  0.58245586342E+02  0.17304206607E+03  0.19719778835E+03  0.00000000000E+00 0. -1.
</event>
<event>
 8    1  0.6869405E-009  0.1122806E+03  0.7561462E-02  0.1256404E+00
         -2   -1    0    0    0  501 -0.00000000000E+00  0.00000000000E+00  0.12791550534E+03  0.12791550534E+03  0.00000000000E+00 0. -1.
          2   -1    0    0  501    0  0.00000000000E+00 -0.00000000000E+00 -0.12234828772E+03  0.12234828772E+03  0.00000000000E+00 0.  1.
         25    2    1    2    0    0  0.48000994603E+02 -0.30339331842E+02 -0.24417209443E+02  0.13952837278E+03  0.12508955254E+03 0.  0.
         23    2    1    2    0    0 -0.48000994603E+02  0.30339331842E+02  0.29984427058E+02  0.11073542028E+03  0.90214726615E+02 0.  0.
          5    1    3    3  502    0  0.65702371373E+02  0.20277354130E+02 -0.44618236153E+02  0.82074552036E+02  0.41800000000E+01 0.  1.
         -5    1    3    3    0  502 -0.17701376770E+02 -0.50616685972E+02  0.20201026710E+02  0.57453820747E+02  0.41800000000E+01 0.  1.
        -11    1    4    4    0    0 -0.72399192297E+02  0.18271554773E+02  0.35945461943E+02  0.82870796988E+02  0.00000000000E+00 0. -1.
         11    1    4    4    0    0  0.24398197694E+02  0.12067777069E+02 -0.59610348852E+01  0.27864623288E+02  0.00000000000E+00 0.  1.
</event>
<event>
 8    1  0.6869405E-009  0.9543601E+02  0.7561462E-02  0.1290197E+00
         -1   -1    0    0    0  501 -0.00000000000E+00  0.00000000000E+00  0.28158218188E+02  0.28158218188E+02  0.00000000000E+00 0.  1.
          1   -1    0    0  501    0  0.00000000000E+00 -0.00000000000E+00 -0.53021379225E+03  0.53021379225E+03  0.00000000000E+00 0. -1.
         25    2    1    2    0    0 -0.29861861874E+02  0.89093106730E+01 -0.37809539806E+03  0.39946783176E+03  0.12508921603E+03 0.  0.
         23    2    1    2    0    0  0.29861861874E+02 -0.89093106730E+01 -0.12396017600E+03  0.15890417868E+03  0.94410307465E+02 0.  0.
          5    1    3    3  502    0 -0.49586909602E+02  0.33705880007E+02 -0.35496172564E+03  0.36001423169E+03  0.41800000000E+01 0. -1.
         -5    1    3    3    0  502  0.19725047728E+02 -0.24796569334E+02 -0.23133672414E+02  0.39453600063E+02  0.41800000000E+01 0. -1.
        -11    1    4    4    0    0  0.62823170236E+02  0.50238764287E+01 -0.70395007685E+02  0.94485168995E+02  0.00000000000E+00 0.  1.
         11    1    4    4    0    0 -0.32961308362E+02 -0.13933187102E+02 -0.53565168317E+02  0.64419009683E+02  0.00000000000E+00 0. -1.
</event>
<event>
 8    1  0.6869405E-009  0.1383626E+03  0.7561462E-02  0.1215549E+00
         -2   -1    0    0    0  501 -0.00000000000E+00  0.00000000000E+00  0.19782805996E+02  0.19782805996E+02  0.00000000000E+00 0.  1.
          2   -1    0    0  501    0  0.00000000000E+00 -0.00000000000E+00 -0.13340142443E+04  0.13340142443E+04  0.00000000000E+00 0. -1.
         25    2    1    2    0    0 -0.96856021684E+02  0.48061952014E+02 -0.91557292318E+03  0.93038281938E+03  0.12508945909E+03 0.  0.
         23    2    1    2    0    0  0.96856021684E+02 -0.48061952014E+02 -0.39865851511E+03  0.42341423090E+03  0.93058901188E+02 0.  0.
          5    1    3    3  502    0 -0.12569870992E+03  0.41612661899E+02 -0.66733131992E+03  0.68035310115E+03  0.41800000000E+01 0. -1.
         -5    1    3    3    0  502  0.28842688239E+02  0.64492901150E+01 -0.24824160326E+03  0.25002971823E+03  0.41800000000E+01 0. -1.
        -11    1    4    4    0    0  0.55762994338E+02 -0.68124503696E+01 -0.70573934092E+02  0.90203110761E+02  0.00000000000E+00 0.  1.
         11    1    4    4    0    0  0.41093027346E+02 -0.41249501644E+02 -0.32808458102E+03  0.33321112014E+03  0.00000000000E+00 0. -1.
</event>
<event>
 8    1  0.6869405E-009  0.9259916E+02  0.7561462E-02  0.1296677E+00
          1   -1    0    0  501    0  0.00000000000E+00  0.00000000000E+00  0.26104057048E+03  0.26104057048E+03  0.00000000000E+00 0. -1.
         -1   -1    0    0    0  501 -0.00000000000E+00 -0.00000000000E+00 -0.48813780922E+02  0.48813780922E+02  0.00000000000E+00 0.  1.
         25    2    1    2    0    0 -0.36600291569E+01  0.31494219537E+02  0.13335320938E+03  0.18556847807E+03  0.12508916789E+03 0.  0.
         23    2    1    2    0    0  0.36600291569E+01 -0.31494219537E+02  0.78873580180E+02  0.12428587333E+03  0.90667827714E+02 0.  0.
          5    1    3    3  502    0  0.38662013013E+02  0.25151181728E+02  0.91077594851E+00  0.46321000695E+02  0.41800000000E+01 0. -1.
         -5    1    3    3    0  502 -0.42322042170E+02  0.63430378090E+01  0.13244243343E+03  0.13924747738E+03  0.41800000000E+01 0. -1.
        -11    1    4    4    0    0 -0.26603852964E+02  0.21936484743E+02  0.31883708251E+02  0.46963232505E+02  0.00000000000E+00 0.  1.
         11    1    4    4    0    0  0.30263882121E+02 -0.53430704280E+02  0.46989871929E+02  0.77322640830E+02  0.00000000000E+00 0. -1.
</event>
<event>
 7    1  0.6869405E-009  0.5550904E+02  0.7561462E-02  0.1417707E+00
          2   -1    0    0  501    0  0.00000000000E+00  0.00000000000E+00  0.15225230260E+03  0.15225230260E+03  0.00000000000E+00 0.  1.
         -2   -1    0    0    0  501 -0.00000000000E+00 -0.00000000000E+00 -0.76443182379E+02  0.76443182379E+02  0.00000000000E+00 0. -1.
         23    2    1    2    0    0  0.45596903062E+01 -0.18575895563E+02  0.13564175679E+02  0.87794291724E+02  0.84604941497E+02 0.  0.
          5    1    1    2  502    0  0.14065175162E+02  0.43373132560E+02 -0.22169888922E+02  0.50872725062E+02  0.41800000000E+01 0.  1.
         -5    1    1    2    0  502 -0.18624865468E+02 -0.24797236997E+02  0.84414833469E+02  0.90028468198E+02  0.41800000000E+01 0.  1.
        -11    1    3    3    0    0  0.15812936409E+02 -0.15784480985E+02  0.47197406874E+02  0.52218713249E+02  0.00000000000E+00 0.  1.
         11    1    3    3    0    0 -0.11253246103E+02 -0.27914145787E+01 -0.33633231195E+02  0.35575578474E+02  0.00000000000E+00 0. -1.
</event>
<event>
 8    1  0.6869405E-009  0.9525720E+02  0.7561462E-02  0.1290598E+00
         -1   -1    0    0    0  501 -0.00000000000E+00  0.00000000000E+00  0.59752220725E+02  0.59752220725E+02  0.00000000000E+00 0.  1.
          1   -1    0    0  501    0  0.00000000000E+00 -0.00000000000E+00 -0.24404167044E+03  0.24404167044E+03  0.00000000000E+00 0. -1.
         25    2    1    2    0    0 -0.32386763597E+02 -0.32042755265E+02 -0.73538350963E+02  0.15208754208E+03  0.12508833188E+03 0.  0.
         23    2    1    2    0    0  0.32386763597E+02  0.32042755265E+02 -0.11075109875E+03  0.15170634908E+03  0.93130928568E+02 0.  0.
          5    1    3    3  502    0  0.29621470871E+02  0.19996122835E+02  0.82711401848E+01  0.36921005199E+02  0.41800000000E+01 0. -1.
         -5    1    3    3    0  502 -0.62008234468E+02 -0.52038878101E+02 -0.81809491147E+02  0.11516653688E+03  0.41800000000E+01 0. -1.
        -11    1    4    4    0    0  0.41504638692E+02  0.42632119288E+02 -0.12068938405E+03  0.13455876058E+03  0.00000000000E+00 0. -1.
         11    1    4    4    0    0 -0.91178750944E+01 -0.10589364022E+02  0.99382852978E+01  0.17147588498E+02  0.00000000000E+00 0.  1.
</event>
<event>
 8    1  0.6869405E-009  0.2677399E+03  0.7561462E-02  0.1102580E+00
         -2   -1    0    0    0  501 -0.00000000000E+00  0.00000000000E+00  0.11345502804E+03  0.11345502804E+03  0.00000000000E+00 0.  1.
          2   -1    0    0  501    0  0.00000000000E+00 -0.00000000000E+00 -0.85937503937E+03  0.85937503937E+03  0.00000000000E+00 0. -1.
         25    2    1    2    0    0  0.25528098834E+03  0.52762468539E+02 -0.58758481606E+03  0.65487085198E+03  0.12509058967E+03 0.  0.
         23    2    1    2    0    0 -0.25528098834E+03 -0.52762468539E+02 -0.15833519527E+03  0.31795921543E+03  0.89865274290E+02 0.  0.
          5    1    3    3  502    0  0.26059586599E+02  0.71822344706E+01 -0.59050616542E+01  0.27982649961E+02  0.41800000000E+01 0. -1.
         -5    1    3    3    0  502  0.22922140174E+03  0.45580234069E+02 -0.58167975440E+03  0.62688820202E+03  0.41800000000E+01 0. -1.
        -11    1    4    4    0    0 -0.16143791057E+03  0.95720498954E+01 -0.10865322070E+03  0.19483158234E+03  0.00000000000E+00 0.  1.
         11    1    4    4    0    0 -0.93843077766E+02 -0.62334518435E+02 -0.49681974568E+02  0.12312763309E+03  0.00000000000E+00 0. -1.
</event>
<event>
 8    1  0.6869405E-009  0.1037938E+03  0.7561462E-02  0.1272514E+00
          1   -1    0    0  501    0  0.00000000000E+00  0.00000000000E+00  0.27057407363E+03  0.27057407363E+03  0.00000000000E+00 0. -1.
         -1   -1    0    0    0  501 -0.00000000000E+00 -0.00000000000E+00 -0.54887279816E+02  0.54887279816E+02  0.00000000000E+00 0.  1.
         25    2    1    2    0    0 -0.38186321181E+02  0.32904761126E+02  0.99154917631E+02  0.16738906028E+03  0.12508589602E+03 0.  0.
         23    2    1    2    0    0  0.38186321181E+02 -0.32904761126E+02  0.11653187619E+03  0.15807229317E+03  0.94160784134E+02 0.  0.
          5    1    3    3  502    0 -0.12422555620E+02 -0.46487959588E+02  0.53806241479E+02  0.72305147098E+02  0.41800000000E+01 0. -1.
         -5    1    3    3    0  502 -0.25763765561E+02  0.79392720713E+02  0.45348676152E+02  0.95083913187E+02  0.41800000000E+01 0. -1.
        -11    1    4    4    0    0 -0.14350492411E+02 -0.13517402219E+02 -0.81957181280E+01  0.21350095804E+02  0.00000000000E+00 0.  1.
         11    1    4    4    0    0  0.52536813591E+02 -0.19387358906E+02  0.12472759432E+03  0.13672219736E+03  0.00000000000E+00 0. -1.
</event>
<event>
 8    1  0.6869405E-009  0.1181040E+03  0.7561462E-02  0.1246258E+00
         -2   -1    0    0    0  501 -0.00000000000E+00  0.00000000000E+00  0.35142327011E+02  0.35142327011E+02  0.00000000000E+00 0.  1.
          2   -1    0    0  501    0  0.00000000000E+00 -0.00000000000E+00 -0.45273914192E+03  0.45273914192E+03  0.00000000000E+00 0. -1.
         25    2    1    2    0    0 -0.22978092323E+02  0.43247754243E+02 -0.31779360445E+03  0.34502110237E+03  0.12509366521E+03 0.  0.
         23    2    1    2    0    0  0.22978092323E+02 -0.43247754243E+02 -0.99803210466E+02  0.14286036657E+03  0.89722029306E+02 0.  0.
          5    1    3    3  502    0  0.22596704356E+02  0.74970882344E+02 -0.17559611347E+03  0.19230889661E+03  0.41800000000E+01 0. -1.
         -5    1    3    3    0  502 -0.45574796679E+02 -0.31723128100E+02 -0.14219749098E+03  0.15271220576E+03  0.41800000000E+01 0. -1.
        -11    1    4    4    0    0 -0.25432686566E+02  0.12446753260E+02 -0.30674598839E+02  0.41745349760E+02  0.00000000000E+00 0.  1.
         11    1    4    4    0    0  0.48410778889E+02 -0.55694507503E+02 -0.69128611627E+02  0.10111501681E+03  0.00000000000E+00 0. -1.
</event>
<event>
 8    1  0.6869405E-009  0.1031335E+03  0.7561462E-02  0.1273841E+00
          2   -1    0    0  501    0  0.00000000000E+00  0.00000000000E+00  0.31047591646E+03  0.31047591646E+03  0.00000000000E+00 0. -1.
         -2   -1    0    0    0  501 -0.00000000000E+00 -0.00000000000E+00 -0.11858448949E+03  0.11858448949E+03  0.00000000000E+00 0.  1.
         25    2    1    2    0    0 -0.76952341740E+02 -0.25246219378E+02 -0.47903680132E+02  0.15653198370E+03  0.12509382422E+03 0.  0.
         23    2    1    2    0    0  0.76952341740E+02  0.25246219378E+02  0.23979510710E+03  0.27252842225E+03  0.10104955741E+03 0.  0.
          5    1    3    3  502    0 -0.32580432184E+02  0.22600887145E+02 -0.75638859494E+02  0.85504351507E+02  0.41800000000E+01 0.  1.
         -5    1    3    3    0  502 -0.44371909556E+02 -0.47847106523E+02  0.27735179362E+02  0.71027632190E+02  0.41800000000E+01 0.  1.
        -11    1    4    4    0    0  0.11806609703E+02 -0.18919300090E+02  0.24039783505E+01  0.22430226492E+02  0.00000000000E+00 0.  1.
         11    1    4    4    0    0  0.65145732038E+02  0.44165519469E+02  0.23739112875E+03  0.25009819576E+03  0.00000000000E+00 0. -1.
</event>
<event>
 8    1  0.6869405E-009  0.1157963E+03  0.7561462E-02  0.1250197E+00
          2   -1    0    0  501    0  0.00000000000E+00  0.00000000000E+00  0.50599675801E+02  0.50599675801E+02  0.00000000000E+00 0.  1.
         -2   -1    0    0    0  501 -0.00000000000E+00 -0.00000000000E+00 -0.34996851624E+03  0.34996851624E+03  0.00000000000E+00 0. -1.
         25    2    1    2    0    0  0.62536594326E+02 -0.46390698203E+02 -0.16692009205E+03  0.22263882971E+03  0.12507121512E+03 0.  0.
         23    2    1    2    0    0 -0.62536594326E+02  0.46390698203E+02 -0.13244874839E+03  0.17792936234E+03  0.89739982849E+02 0.  0.
          5    1    3    3  502    0 -0.37989576037E+02 -0.75505820542E+01 -0.52843364465E+02  0.65651448916E+02  0.41800000000E+01 0. -1.
         -5    1    3    3    0  502  0.10052617036E+03 -0.38840116149E+02 -0.11407672759E+03  0.15698738079E+03  0.41800000000E+01 0. -1.
        -11    1    4    4    0    0 -0.29738033835E+02  0.42336690304E+02 -0.13520565408E+03  0.14476641495E+03  0.00000000000E+00 0. -1.
         11    1    4    4    0    0 -0.32798560491E+02  0.40540078994E+01  0.27569056907E+01  0.33162947386E+02  0.00000000000E+00 0.  1.
</event>
<event>
 8    1  0.6869405E-009  0.1262799E+03  0.7561462E-02  0.1233082E+00
          2   -1    0    0  501    0  0.00000000000E+00  0.00000000000E+00  0.61601148421E+03  0.61601148421E+03  0.00000000000E+00 0. -1.
         -2   -1    0    0    0  501 -0.00000000000E+00 -0.00000000000E+00 -0.29479112913E+02  0.29479112913E+02  0.00000000000E+00 0.  1.
         25    2    1    2    0    0  0.72449418435E+02 -0.30399827513E+02  0.35872700261E+03  0.38795093112E+03  0.12509114604E+03 0.  0.
         23    2    1    2    0    0 -0.72449418435E+02  0.30399827513E+02  0.22780536869E+03  0.25753966600E+03  0.90875331159E+02 0.  0.
          5    1    3    3  502    0  0.72979447508E+02  0.35728954742E+02  0.20451204140E+03  0.22010271566E+03  0.41800000000E+01 0. -1.
         -5    1    3    3    0  502 -0.53002907222E+00 -0.66128782256E+02  0.15421496121E+03  0.16784821546E+03  0.41800000000E+01 0. -1.
        -11    1    4    4    0    0  0.11772582357E+02  0.15402708377E+02  0.67822330648E+01  0.20538641777E+02  0.00000000000E+00 0.  1.
         11    1    4    4    0    0 -0.84222000792E+02  0.14997119137E+02  0.22102313562E+03  0.23700102422E+03  0.00000000000E+00 0. -1.
</event>
<event>
 8    1  0.6869405E-009  0.1378886E+03  0.7561462E-02  0.1216199E+00
          1   -1    0    0  501    0  0.00000000000E+00  0.00000000000E+00  0.34587234692E+03  0.34587234692E+03  0.00000000000E+00 0. -1.
         -1   -1    0    0    0  501 -0.00000000000E+00 -0.00000000000E+00 -0.90272150624E+02  0.90272150624E+02  0.00000000000E+00 0.  1.
         25    2    1    2    0    0  0.91386260710E+01 -0.91176198287E+02  0.44761791208E+01  0.15513011018E+03  0.12509476922E+03 0.  0.
         23    2    1    2    0    0 -0.91386260710E+01  0.91176198287E+02  0.25112401717E+03  0.28101438736E+03  0.86655641947E+02 0.  0.
          5    1    3    3  502    0 -0.46394619928E+02 -0.45431932818E+01 -0.17238042188E+02  0.49877087545E+02  0.41800000000E+01 0. -1.
         -5    1    3    3    0  502  0.55533245999E+02 -0.86633005005E+02  0.21714221309E+02  0.10525302264E+03  0.41800000000E+01 0. -1.
        -11    1    4    4    0    0 -0.34548127819E+02  0.94257254724E+02  0.19474541559E+03  0.21909764968E+03  0.00000000000E+00 0.  1.
         11    1    4    4    0    0  0.25409501747E+02 -0.30810564374E+01  0.56378601584E+02  0.61916737676E+02  0.00000000000E+00 0. -1.
</event>
<event>
 8    1  0.6869405E-009  0.1276622E+03  0.7561462E-02  0.1230966E+00
          2   -1    0    0  501    0  0.00000000000E+00  0.00000000000E+00  0.28520557738E+03  0.28520557738E+03  0.00000000000E+00 0. -1.
         -2   -1    0    0    0  501 -0.00000000000E+00 -0.00000000000E+00 -0.87257400238E+02  0.87257400238E+02  0.00000000000E+00 0.  1.
         25    2    1    2    0    0  0.24159944657E+02  0.88426731913E+02  0.26719074630E+02  0.15736428159E+03  0.12508644342E+03 0.  0.
         23    2    1    2    0    0 -0.24159944657E+02 -0.88426731913E+02  0.17122910252E+03  0.21509869603E+03  0.92439459344E+02 0.  0.
          5    1    3    3  502    0 -0.30872954141E+02 -0.16840044910E+02  0.12965101727E+02  0.37713295703E+02  0.41800000000E+01 0. -1.
         -5    1    3    3    0  502  0.55032898798E+02  0.10526677682E+03  0.13753972902E+02  0.11965098589E+03  0.41800000000E+01 0. -1.
        -11    1    4    4    0    0  0.12219725740E+02 -0.27455912028E+02  0.12907674875E+03  0.13252907557E+03  0.00000000000E+00 0. -1.
         11    1    4    4    0    0 -0.36379670397E+02 -0.60970819885E+02  0.42152353762E+02  0.82569620463E+02  0.00000000000E+00 0.  1.
</event>
<event>
 8    1  0.6869405E-009  0.1362764E+03  0.7561462E-02  0.1218429E+00
         -1   -1    0    0    0  501 -0.00000000000E+00  0.00000000000E+00  0.44144572709E+02  0.44144572709E+02  0.00000000000E+00 0.  1.
          1   -1    0    0  501    0  0.00000000000E+00 -0.00000000000E+00 -0.62772445863E+03  0.62772445863E+03  0.00000000000E+00 0. -1.
         25    2    1    2    0    0 -0.52714219804E+02 -0.99161361174E+02 -0.20291497988E+03  0.26350348230E+03  0.12509129307E+03 0.  0.
         23    2    1    2    0    0  0.52714219804E+02  0.99161361174E+02 -0.38066490604E+03  0.40836554904E+03  0.96150332483E+02 0.  0.
          5    1    3    3  502    0 -0.77785630495E+02 -0.98054828745E+02 -0.10841950793E+03  0.16564303744E+03  0.41800000000E+01 0.  1.
         -5    1    3    3    0  502  0.25071410691E+02 -0.11065324292E+01 -0.94495471956E+02  0.97860444860E+02  0.41800000000E+01 0.  1.
        -11    1    4    4    0    0  0.54063773584E+02  0.53033827137E+02 -0.10850414884E+03  0.13232017515E+03  0.00000000000E+00 0.  1.
         11    1    4    4    0    0 -0.13495537803E+01  0.46127534038E+02 -0.27216075720E+03  0.27604537390E+03  0.00000000000E+00 0. -1.
</event>
<event>
 8    1  0.6869405E-009  0.1005355E+03  0.7561462E-02  0.1279174E+00
          1   -1    0    0  501    0  0.00000000000E+00  0.00000000000E+00  0.99446206957E+03  0.99446206957E+03  0.00000000000E+00 0. -1.
         -1   -1    0    0    0  501 -0.00000000000E+00 -0.00000000000E+00 -0.13699203437E+02  0.13699203437E+02  0.00000000000E+00 0.  1.
         25    2    1    2    0    0 -0.10053737545E+02 -0.24213041578E+02  0.70515775640E+03  0.71664669665E+03  0.12509067663E+03 0.  0.
         23    2    1    2    0    0  0.10053737545E+02  0.24213041578E+02  0.27560510973E+03  0.29151457636E+03  0.91297440817E+02 0.  0.
          5    1    3    3  502    0  0.13158910590E+02  0.46374117672E+02  0.18640356768E+03  0.19258109503E+03  0.41800000000E+01 0. -1.
         -5    1    3    3    0  502 -0.23212648135E+02 -0.70587159250E+02  0.51875418872E+03  0.52406560162E+03  0.41800000000E+01 0. -1.
        -11    1    4    4    0    0  0.24206329518E+02 -0.20275777471E+02  0.38192222754E+02  0.49555014072E+02  0.00000000000E+00 0.  1.
         11    1    4    4    0    0 -0.14152591974E+02  0.44488819049E+02  0.23741288698E+03  0.24195956229E+03  0.00000000000E+00 0. -1.
</event>
<event>
 8    1  0.6869405E-009  0.8379970E+02  0.7561462E-02  0.1318602E+00
         -2   -1    0    0    0  501 -0.00000000000E+00  0.00000000000E+00  0.20315061410E+03  0.20315061410E+03  0.00000000000E+00 0.  1.
          2   -1    0    0  501    0  0.00000000000E+00 -0.00000000000E+00 -0.65775042544E+02  0.65775042544E+02  0.00000000000E+00 0. -1.
         25    2    1    2    0    0  0.26769657283E+02  0.26272671976E+02  0.90511201869E+02  0.15889342199E+03  0.12509186242E+03 0.  0.
         23    2    1    2    0    0 -0.26769657283E+02 -0.26272671976E+02  0.46864369683E+02  0.11003223465E+03  0.92216894722E+02 0.  0.
          5    1    3    3  502    0 -0.36730454131E+02  0.16873811328E+01  0.82227313258E+02  0.90170821008E+02  0.41800000000E+01 0. -1.
         -5    1    3    3    0  502  0.63500111414E+02  0.24585290843E+02  0.82838886117E+01  0.68722600983E+02  0.41800000000E+01 0. -1.
        -11    1    4    4    0    0 -0.17114245603E+02 -0.41189121350E+02 -0.13903444361E+02  0.46719876768E+02  0.00000000000E+00 0. -1.
         11    1    4    4    0    0 -0.96554116802E+01  0.14916449374E+02  0.60767814044E+02  0.63312357880E+02  0.00000000000E+00 0.  1.
</event>
<event>
 8    1  0.6869405E-009  0.9535507E+02  0.7561462E-02  0.1290378E+00
         -2   -1    0    0    0  501 -0.00000000000E+00  0.00000000000E+00  0.40312896779E+03  0.40312896779E+03  0.00000000000E+00 0.  1.
          2   -1    0    0  501    0  0.00000000000E+00 -0.00000000000E+00 -0.35414285934E+02  0.35414285934E+02  0.00000000000E+00 0. -1.
         25    2    1    2    0    0 -0.29832533373E+02 -0.12223690433E+02  0.26839012690E+03  0.29785958585E+03  0.12509066315E+03 0.  0.
         23    2    1    2    0    0  0.29832533373E+02  0.12223690433E+02  0.99324554951E+02  0.14068366787E+03  0.94271568007E+02 0.  0.
          5    1    3    3  502    0  0.47959970849E+02 -0.12401168904E+02  0.82742208969E+02  0.96528199709E+02  0.41800000000E+01 0. -1.
         -5    1    3    3    0  502 -0.77792504222E+02  0.17747847153E+00  0.18564791793E+03  0.20133138614E+03  0.41800000000E+01 0. -1.
        -11    1    4    4    0    0 -0.84981481621E+00  0.28395691385E+02 -0.66512684829E+01  0.29176649001E+02  0.00000000000E+00 0. -1.
         11    1    4    4    0    0  0.30682348189E+02 -0.16172000953E+02  0.10597582343E+03  0.11150701887E+03  0.00000000000E+00 0.  1.
</event>
<event>
 8    1  0.6869405E-009  0.2087499E+03  0.7561462E-02  0.1142560E+00
         -2   -1    0    0    0  501 -0.00000000000E+00  0.00000000000E+00  0.79473261229E+02  0.79473261229E+02  0.00000000000E+00 0. -1.
          2   -1    0    0  501    0  0.00000000000E+00 -0.00000000000E+00 -0.66387639204E+03  0.66387639204E+03  0.00000000000E+00 0.  1.
         25    2    1    2    0    0  0.21070353366E+02  0.19399617479E+03 -0.21976345362E+03  0.31940720768E+03  0.12508602300E+03 0.  0.
         23    2    1    2    0    0 -0.21070353366E+02 -0.19399617479E+03 -0.36463967719E+03  0.42394244558E+03  0.93202078076E+02 0.  0.
          5    1    3    3  502    0  0.54022177605E+02  0.13851995878E+03 -0.88488315597E+02  0.17307174539E+03  0.41800000000E+01 0. -1.
         -5    1    3    3    0  502 -0.32951824239E+02  0.55476216011E+02 -0.13127513802E+03  0.14633546230E+03  0.41800000000E+01 0. -1.
        -11    1    4    4    0    0 -0.38219982687E+02 -0.78197836566E+02 -0.89050436964E+02  0.12452168102E+03  0.00000000000E+00 0. -1.
         11    1    4    4    0    0  0.17149629321E+02 -0.11579833823E+03 -0.27558924023E+03  0.29942076456E+03  0.00000000000E+00 0.  1.
</event>
<event>
 8    1  0.6869405E-009  0.1191359E+03  0.7561462E-02  0.1244529E+00
         -2   -1    0    0    0  501 -0.00000000000E+00  0.00000000000E+00  0.85637876736E+02  0.85637876736E+02  0.00000000000E+00 0.  1.
          2   -1    0    0  501    0  0.00000000000E+00 -0.00000000000E+00 -0.18793364138E+03  0.18793364138E+03  0.00000000000E+00 0. -1.
         25    2    1    2    0    0 -0.50006974508E+02  0.22414449113E+02 -0.17736561427E+02  0.13772345348E+03  0.12510019583E+03 0.  0.
         23    2    1    2    0    0  0.50006974508E+02 -0.22414449113E+02 -0.84559203219E+02  0.13584806464E+03  0.91111650129E+02 0.  0.
          5    1    3    3  502    0  0.38790258592E+02 -0.53547124397E+01 -0.20810083754E+02  0.44540869916E+02  0.41800000000E+01 0.  1.
         -5    1    3    3    0  502 -0.88797233100E+02  0.27769161553E+02  0.30735223272E+01  0.93182583561E+02  0.41800000000E+01 0.  1.
        -11    1    4    4    0    0  0.10131435349E+02 -0.53967398261E+02 -0.36910769525E+02  0.66162912301E+02  0.00000000000E+00 0. -1.
         11    1    4    4    0    0  0.39875539159E+02  0.31552949148E+02 -0.47648433694E+02  0.69685152340E+02  0.00000000000E+00 0.  1.
</event>
<event>
 8    1  0.6869405E-009  0.1565939E+03  0.7561462E-02  0.1192597E+00
         -1   -1    0    0    0  501 -0.00000000000E+00  0.00000000000E+00  0.45128148136E+03  0.45128148136E+03  0.00000000000E+00 0.  1.
          1   -1    0    0  501    0  0.00000000000E+00 -0.00000000000E+00 -0.87465514447E+02  0.87465514447E+02  0.00000000000E+00 0. -1.
         25    2    1    2    0    0 -0.14737722252E+03  0.50628243687E+02  0.11498483013E+03  0.23053403612E+03  0.12506464677E+03 0.  0.
         23    2    1    2    0    0  0.14737722252E+03 -0.50628243687E+02  0.24883113678E+03  0.30821295969E+03  0.93781816547E+02 0.  0.
          5    1    3    3  502    0 -0.91055228712E+02  0.39976757902E+02  0.13669967384E+03  0.16909603507E+03  0.41800000000E+01 0. -1.
         -5    1    3    3    0  502 -0.56321993803E+02  0.10651485786E+02 -0.21714843708E+02  0.61438001047E+02  0.41800000000E+01 0. -1.
        -11    1    4    4    0    0  0.12391597282E+03 -0.46544395510E+02  0.25154264756E+03  0.28424505732E+03  0.00000000000E+00 0.  1.
         11    1    4    4    0    0  0.23461249700E+02 -0.40838481778E+01 -0.27115107734E+01  0.23967902371E+02  0.00000000000E+00 0. -1.
</event>
<event>
 7    1  0.6869405E-009  0.1450441E+03  0.7561462E-02  0.1206699E+00
         -1   -1    0    0    0  501 -0.00000000000E+00  0.00000000000E+00  0.86799821690E+02  0.86799821690E+02  0.00000000000E+00 0.  1.
          1   -1    0    0  501    0  0.00000000000E+00 -0.00000000000E+00 -0.30207009656E+03  0.30207009656E+03  0.00000000000E+00 0. -1.
         23    2    1    2    0    0  0.10099414730E+03  0.64100288320E+02 -0.81781166760E+02  0.17036033930E+03  0.89586947812E+02 0.  0.
          5    1    1    2  502    0  0.95917716969E+00 -0.33982055508E+02  0.13704715513E+02  0.36891621605E+02  0.41800000000E+01 0. -1.
         -5    1    1    2    0  502 -0.10195332447E+03 -0.30118232812E+02 -0.14719382362E+03  0.18161795734E+03  0.41800000000E+01 0. -1.
        -11    1    3    3    0    0  0.83342939500E+02  0.87035673686E+02 -0.66276444383E+02  0.13752752866E+03  0.00000000000E+00 0.  1.
         11    1    3    3    0    0  0.17651207797E+02 -0.22935385367E+02 -0.15504722377E+02  0.32832810641E+02  0.00000000000E+00 0. -1.
</event>
<event>
 8    1  0.6869405E-009  0.1471213E+03  0.7561462E-02  0.1204056E+00
          1   -1    0    0  501    0  0.00000000000E+00  0.00000000000E+00  0.58258622582E+03  0.58258622582E+03  0.00000000000E+00 0. -1.
         -1   -1    0    0    0  501 -0.00000000000E+00 -0.00000000000E+00 -0.53251787123E+02  0.53251787123E+02  0.00000000000E+00 0.  1.
         25    2    1    2    0    0  0.11660106804E+03 -0.57996904964E+02  0.19393490519E+03  0.26498646753E+03  0.12509048912E+03 0.  0.
         23    2    1    2    0    0 -0.11660106804E+03  0.57996904964E+02  0.33539953351E+03  0.37085154541E+03  0.89880874536E+02 0.  0.
          5    1    3    3  502    0  0.25793092348E+02 -0.50798008873E+02  0.15616526553E+03  0.16628524852E+03  0.41800000000E+01 0.  1.
         -5    1    3    3    0  502  0.90807975688E+02 -0.71988960918E+01  0.37769639664E+02  0.98701219009E+02  0.41800000000E+01 0.  1.
        -11    1    4    4    0    0 -0.11464012560E+03  0.69631944701E+02  0.33273858215E+03  0.35875608730E+03  0.00000000000E+00 0. -1.
         11    1    4    4    0    0 -0.19609424321E+01 -0.11635039737E+02  0.26609513533E+01  0.12095458115E+02  0.00000000000E+00 0.  1.
</event>
<event>
 8    1  0.6869405E-009  0.1058831E+03  0.7561462E-02  0.1268389E+00
          1   -1    0    0  501    0  0.00000000000E+00  0.00000000000E+00  0.31897137432E+02  0.31897137432E+02  0.00000000000E+00 0. -1.
         -1   -1    0    0    0  501 -0.00000000000E+00 -0.00000000000E+00 -0.44836931649E+03  0.44836931649E+03  0.00000000000E+00 0.  1.
         25    2    1    2    0    0  0.43813788824E+02 -0.15090904499E+01 -0.26329464633E+03  0.29477701124E+03  0.12508992815E+03 0.  0.
         23    2    1    2    0    0 -0.43813788824E+02  0.15090904499E+01 -0.15317753273E+03  0.18548944269E+03  0.94979215456E+02 0.  0.
          5    1    3    3  502    0  0.45333047066E+02  0.49948884543E+02 -0.20980249083E+03  0.22041899596E+03  0.41800000000E+01 0. -1.
         -5    1    3    3    0  502 -0.15192582414E+01 -0.51457974993E+02 -0.53492155499E+02  0.74358015276E+02  0.41800000000E+01 0. -1.
        -11    1    4    4    0    0  0.16240779108E+02 -0.22591650099E+02 -0.93178356078E+02  0.97243774102E+02  0.00000000000E+00 0.  1.
         11    1    4    4    0    0 -0.60054567932E+02  0.24100740549E+02 -0.59999176656E+02  0.88245668585E+02  0.00000000000E+00 0. -1.
</event>
<event>
 8    1  0.6869405E-009  0.1109433E+03  0.7561462E-02  0.1258833E+00
          2   -1    0    0  501    0  0.00000000000E+00  0.00000000000E+00  0.16185842519E+04  0.16185842519E+04  0.00000000000E+00 0. -1.
         -2   -1    0    0    0  501 -0.00000000000E+00 -0.00000000000E+00 -0.21866074366E+02  0.21866074366E+02  0.00000000000E+00 0.  1.
         25    2    1    2    0    0 -0.88486139824E+02  0.51357947585E+02  0.13443288348E+04  0.13540067677E+04  0.12508747004E+03 0.  0.
         23    2    1    2    0    0  0.88486139824E+02 -0.51357947585E+02  0.25238934272E+03  0.28644355856E+03  0.88781170307E+02 0.  0.
          5    1    3    3  502    0 -0.61158708465E+02  0.11127873663E+01  0.11437083613E+04  0.11453505639E+04  0.41800000000E+01 0. -1.
         -5    1    3    3    0  502 -0.27327431360E+02  0.50245160218E+02  0.20062047349E+03  0.20865620387E+03  0.41800000000E+01 0. -1.
        -11    1    4    4    0    0  0.58324930986E+02 -0.41168703314E+02  0.24297349044E+03  0.25324449997E+03  0.00000000000E+00 0. -1.
         11    1    4    4    0    0  0.30161208839E+02 -0.10189244271E+02  0.94158522821E+01  0.33199058595E+02  0.00000000000E+00 0.  1.
</event>
<event>
 8    1  0.6869405E-009  0.1013564E+03  0.7561462E-02  0.1277469E+00
          2   -1    0    0  501    0  0.00000000000E+00  0.00000000000E+00  0.41356264105E+03  0.41356264105E+03  0.00000000000E+00 0. -1.
         -2   -1    0    0    0  501 -0.00000000000E+00 -0.00000000000E+00 -0.45034827778E+02  0.45034827778E+02  0.00000000000E+00 0.  1.
         25    2    1    2    0    0 -0.10886437985E+02  0.76538685504E+02  0.15434855228E+03  0.21318206032E+03  0.12508569199E+03 0.  0.
         23    2    1    2    0    0  0.10886437985E+02 -0.76538685504E+02  0.21417926100E+03  0.24541540851E+03  0.91538418073E+02 0.  0.
          5    1    3    3  502    0 -0.40661829352E+02  0.48777177184E+02  0.11606989487E+02  0.64689968196E+02  0.41800000000E+01 0. -1.
         -5    1    3    3    0  502  0.29775391367E+02  0.27761508320E+02  0.14274156279E+03  0.14849209212E+03  0.41800000000E+01 0. -1.
        -11    1    4    4    0    0  0.35846954914E+02 -0.38059721969E+02  0.18206788549E+03  0.18942613742E+03  0.00000000000E+00 0. -1.
         11    1    4    4    0    0 -0.24960516929E+02 -0.38478963535E+02  0.32111375512E+02  0.55989271091E+02  0.00000000000E+00 0.  1.
</event>
<event>
 8    1  0.6869405E-009  0.1778647E+03  0.7561462E-02  0.1169886E+00
          4   -1    0    0  501    0  0.00000000000E+00  0.00000000000E+00  0.30675929574E+03  0.30675929574E+03  0.00000000000E+00 0. -1.
         -4   -1    0    0    0  501 -0.00000000000E+00 -0.00000000000E+00 -0.11331821126E+03  0.11331821126E+03  0.00000000000E+00 0.  1.
         25    2    1    2    0    0  0.70818474027E+02  0.12500520657E+03  0.48957313620E+02  0.19668705600E+03  0.12508965388E+03 0.  0.
         23    2    1    2    0    0 -0.70818474027E+02 -0.12500520657E+03  0.14448377086E+03  0.22339045100E+03  0.91576064676E+02 0.  0.
          5    1    3    3  502    0  0.10271425953E+03  0.11538670806E+03  0.27846782521E+02  0.15702619910E+03  0.41800000000E+01 0. -1.
         -5    1    3    3    0  502 -0.31895785505E+02  0.96184985129E+01  0.21110531099E+02  0.39660856898E+02  0.41800000000E+01 0. -1.
        -11    1    4    4    0    0 -0.69394247142E+02 -0.35221093840E+02  0.87216863684E+02  0.11688827272E+03  0.00000000000E+00 0. -1.
         11    1    4    4    0    0 -0.14242268848E+01 -0.89784112732E+02  0.57266907179E+02  0.10650217828E+03  0.00000000000E+00 0.  1.
</event>
<event>
 8    1  0.6869405E-009  0.1219705E+03  0.7561462E-02  0.1239881E+00
         -2   -1    0    0    0  501 -0.00000000000E+00  0.00000000000E+00  0.27291593759E+03  0.27291593759E+03  0.00000000000E+00 0. -1.
          2   -1    0    0  501    0  0.00000000000E+00 -0.00000000000E+00 -0.69860814272E+02  0.69860814272E+02  0.00000000000E+00 0.  1.
         25    2    1    2    0    0  0.65889579655E+02  0.15445350579E+02  0.17385031640E+03  0.22461346055E+03  0.12508908260E+03 0.  0.
         23    2    1    2    0    0 -0.65889579655E+02 -0.15445350579E+02  0.29204806919E+02  0.11816329131E+03  0.92356088619E+02 0.  0.
          5    1    3    3  502    0  0.13288093050E+02 -0.51596696907E+02  0.43918575719E+02  0.69174462353E+02  0.41800000000E+01 0. -1.
         -5    1    3    3    0  502  0.52601486605E+02  0.67042047486E+02  0.12993174068E+03  0.15543899820E+03  0.41800000000E+01 0. -1.
        -11    1    4    4    0    0 -0.57046228378E+02  0.26078681679E+02 -0.59995175824E+01  0.63010824638E+02  0.00000000000E+00 0.  1.
         11    1    4    4    0    0 -0.88433512767E+01 -0.41524032258E+02  0.35204324501E+02  0.55152466675E+02  0.00000000000E+00 0. -1.
</event>
<event>
 8    1  0.6869405E-009  0.1627733E+03  0.7561462E-02  0.1185601E+00
         -2   -1    0    0    0  501 -0.00000000000E+00  0.00000000000E+00  0.35088727011E+03  0.35088727011E+03  0.00000000000E+00 0.  1.
          2   -1    0    0  501    0  0.00000000000E+00 -0.00000000000E+00 -0.12372650306E+03  0.12372650306E+03  0.00000000000E+00 0. -1.
         25    2    1    2    0    0  0.92146770348E+02 -0.92097485966E+02 -0.18914813250E+02  0.18161750918E+03  0.12511664666E+03 0.  0.
         23    2    1    2    0    0 -0.92146770348E+02  0.92097485966E+02  0.24607558031E+03  0.29299626399E+03  0.91217571131E+02 0.  0.
          5    1    3    3  502    0  0.47393148213E+02  0.26006730792E+02 -0.74403244472E+01  0.54729255174E+02  0.41800000000E+01 0. -1.
         -5    1    3    3    0  502  0.44753622135E+02 -0.11810421676E+03 -0.11474488803E+02  0.12688825400E+03  0.41800000000E+01 0. -1.
        -11    1    4    4    0    0 -0.51107283969E+02  0.90443310975E+02  0.22269835784E+03  0.24573665896E+03  0.00000000000E+00 0.  1.
         11    1    4    4    0    0 -0.41039486379E+02  0.16541749911E+01  0.23377222470E+02  0.47259605029E+02  0.00000000000E+00 0. -1.
</event>
<event>
 8    1  0.6869405E-009  0.1225257E+03  0.7561462E-02  0.1238988E+00
         -1   -1    0    0    0  501 -0.00000000000E+00  0.00000000000E+00  0.11034465621E+04  0.11034465621E+04  0.00000000000E+00 0.  1.
          1   -1    0    0  501    0  0.00000000000E+00 -0.00000000000E+00 -0.21673672782E+02  0.21673672782E+02  0.00000000000E+00 0. -1.
         25    2    1    2    0    0 -0.18237993993E+02  0.85386684848E+02  0.82478456316E+03  0.83877310686E+03  0.12508892353E+03 0.  0.
         23    2    1    2    0    0  0.18237993993E+02 -0.85386684848E+02  0.25698832617E+03  0.28634712803E+03  0.91258794490E+02 0.  0.
          5    1    3    3  502    0  0.38429140258E+02  0.50549427739E+02  0.62353723379E+03  0.62677603479E+03  0.41800000000E+01 0. -1.
         -5    1    3    3    0  502 -0.56667134251E+02  0.34837257109E+02  0.20124732937E+03  0.21199707207E+03  0.41800000000E+01 0. -1.
        -11    1    4    4    0    0  0.35095444566E+02 -0.85781201246E+01  0.14548622736E+03  0.14990502568E+03  0.00000000000E+00 0.  1.
         11    1    4    4    0    0 -0.16857450574E+02 -0.76808564723E+02  0.11150209881E+03  0.13644210235E+03  0.00000000000E+00 0. -1.
</event>
<event>
 8    1  0.6869405E-009  0.1269385E+03  0.7561462E-02  0.1232071E+00
         -1   -1    0    0    0  501 -0.00000000000E+00  0.00000000000E+00  0.27242288566E+02  0.27242288566E+02  0.00000000000E+00 0.  1.
          1   -1    0    0  501    0  0.00000000000E+00 -0.00000000000E+00 -0.76352738093E+03  0.76352738093E+03  0.00000000000E+00 0. -1.
         25    2    1    2    0    0 -0.85492544635E+02 -0.12127373059E+02 -0.28974675506E+03  0.32719674741E+03  0.12509388907E+03 0.  0.
         23    2    1    2    0    0  0.85492544635E+02  0.12127373059E+02 -0.44653833731E+03  0.46357292209E+03  0.89706850604E+02 0.  0.
          5    1    3    3  502    0  0.26606537754E+02 -0.21128994938E+02 -0.36335521287E+02  0.49920785106E+02  0.41800000000E+01 0. -1.
         -5    1    3    3    0  502 -0.11209908239E+03  0.90016218787E+01 -0.25341123377E+03  0.27727596230E+03  0.41800000000E+01 0. -1.
        -11    1    4    4    0    0  0.85666090593E+02  0.28842764931E+02 -0.43219555085E+03  0.44154680198E+03  0.00000000000E+00 0. -1.
         11    1    4    4    0    0 -0.17354595822E+00 -0.16715391872E+02 -0.14342786455E+02  0.22026120106E+02  0.00000000000E+00 0.  1.
</event>
<event>
 8    1  0.6869405E-009  0.9143324E+02  0.7561462E-02  0.1299418E+00
         -2   -1    0    0    0  501 -0.00000000000E+00  0.00000000000E+00  0.25294072231E+03  0.25294072231E+03  0.00000000000E+00 0.  1.
          2   -1    0    0  501    0  0.00000000000E+00 -0.00000000000E+00 -0.71112521226E+02  0.71112521226E+02  0.00000000000E+00 0. -1.
         25    2    1    2    0    0  0.43077344906E+02  0.43670966226E+02  0.43561381069E+02  0.14598586036E+03  0.12510582148E+03 0.  0.
         23    2    1    2    0    0 -0.43077344906E+02 -0.43670966226E+02  0.13826682001E+03  0.17806738318E+03  0.93954608719E+02 0.  0.
          5    1    3    3  502    0 -0.32743788214E+01  0.45795026123E+02  0.76229020725E+02  0.89085587919E+02  0.41800000000E+01 0.  1.
         -5    1    3    3    0  502  0.46351723727E+02 -0.21240598968E+01 -0.32667639656E+02  0.56900272439E+02  0.41800000000E+01 0.  1.
        -11    1    4    4    0    0 -0.30689495745E+02  0.12142786464E+02  0.10890539675E+03  0.11379665133E+03  0.00000000000E+00 0.  1.
         11    1    4    4    0    0 -0.12387849161E+02 -0.55813752690E+02  0.29361423262E+02  0.64270731847E+02  0.00000000000E+00 0. -1.
</event>
<event>
 8    1  0.6869405E-009  0.1253640E+03  0.7561462E-02  0.1234502E+00
          1   -1    0    0  501    0  0.00000000000E+00  0.00000000000E+00  0.50988224510E+03  0.50988224510E+03  0.00000000000E+00 0. -1.
         -1   -1    0    0    0  501 -0.00000000000E+00 -0.00000000000E+00 -0.40104042715E+02  0.40104042715E+02  0.00000000000E+00 0.  1.
         25    2    1    2    0    0 -0.89319623173E+02 -0.98109523017E+01  0.20848923794E+03  0.25920967298E+03  0.12509053666E+03 0.  0.
         23    2    1    2    0    0  0.89319623173E+02  0.98109523017E+01  0.26128896444E+03  0.29077661483E+03  0.90580720492E+02 0.  0.
          5    1    3    3  502    0 -0.11061514570E+02  0.47143941549E+02  0.32979622623E+02  0.58737009098E+02  0.41800000000E+01 0.  1.
         -5    1    3    3    0  502 -0.78258108603E+02 -0.56954893851E+02  0.17550961532E+03  0.20047266389E+03  0.41800000000E+01 0.  1.
        -11    1    4    4    0    0  0.26220914555E+01  0.17972828810E+02  0.32648967673E+01  0.18454199791E+02  0.00000000000E+00 0.  1.
         11    1    4    4    0    0  0.86697531717E+02 -0.81618765079E+01  0.25802406768E+03  0.27232241504E+03  0.00000000000E+00 0. -1.
</event>
<event>
 8    1  0.6869405E-009  0.1866878E+03  0.7561462E-02  0.1161483E+00
          2   -1    0    0  501    0  0.00000000000E+00  0.00000000000E+00  0.84829988389E+03  0.84829988389E+03  0.00000000000E+00 0. -1.
         -2   -1    0    0    0  501 -0.00000000000E+00 -0.00000000000E+00 -0.43856633867E+02  0.43856633867E+02  0.00000000000E+00 0.  1.
         25    2    1    2    0    0 -0.12827462549E+03  0.91816434584E+02  0.45537618579E+03  0.49789517477E+03  0.12508995670E+03 0.  0.
         23    2    1    2    0    0  0.12827462549E+03 -0.91816434584E+02  0.34906706423E+03  0.39426134299E+03  0.93324991503E+02 0.  0.
          5    1    3    3  502    0 -0.11727296623E+02 -0.25088050914E+02  0.27458800072E+02  0.39222415608E+02  0.41800000000E+01 0. -1.
         -5    1    3    3    0  502 -0.11654732886E+03  0.11690448550E+03  0.42791738572E+03  0.45867275916E+03  0.41800000000E+01 0. -1.
        -11    1    4    4    0    0  0.12894467645E+02 -0.58844690472E+02  0.84733684194E+02  0.10396519672E+03  0.00000000000E+00 0. -1.
         11    1    4    4    0    0  0.11538015784E+03 -0.32971744113E+02  0.26433338004E+03  0.29029614626E+03  0.00000000000E+00 0.  1.
</event>
<event>
 8    1  0.6869405E-009  0.1119877E+03  0.7561462E-02  0.1256933E+00
          1   -1    0    0  501    0  0.00000000000E+00  0.00000000000E+00  0.25045793647E+03  0.25045793647E+03  0.00000000000E+00 0. -1.
         -1   -1    0    0    0  501 -0.00000000000E+00 -0.00000000000E+00 -0.77005196302E+02  0.77005196302E+02  0.00000000000E+00 0.  1.
         25    2    1    2    0    0 -0.80808889566E+02  0.16537022497E+02  0.70229892148E+02  0.16547978517E+03  0.12509105405E+03 0.  0.
         23    2    1    2    0    0  0.80808889566E+02 -0.16537022497E+02  0.10322284802E+03  0.16198334760E+03  0.93702181408E+02 0.  0.
          5    1    3    3  502    0  0.72622181820E+01  0.62987805179E+01 -0.29892080333E+02  0.31676857729E+02  0.41800000000E+01 0.  1.
         -5    1    3    3    0  502 -0.88071107748E+02  0.10238241979E+02  0.10012197248E+03  0.13380292744E+03  0.41800000000E+01 0.  1.
        -11    1    4    4    0    0  0.92172277565E+02 -0.38587582123E+02  0.85288583684E+02  0.13137302901E+03  0.00000000000E+00 0. -1.
         11    1    4    4    0    0 -0.11363387999E+02  0.22050559626E+02  0.17934264333E+02  0.30610318584E+02  0.00000000000E+00 0.  1.
</event>
<event>
 8    1  0.6869405E-009  0.1503044E+03  0.7561462E-02  0.1200099E+00
         -2   -1    0    0    0  501 -0.00000000000E+00  0.00000000000E+00  0.37278323066E+02  0.37278323066E+02  0.00000000000E+00 0.  1.
          2   -1    0    0  501    0  0.00000000000E+00 -0.00000000000E+00 -0.87534346592E+03  0.87534346592E+03  0.00000000000E+00 0. -1.
         25    2    1    2    0    0 -0.13415108594E+03 -0.52706479016E+02 -0.42912933868E+03  0.46966305882E+03  0.12512758575E+03 0.  0.
         23    2    1    2    0    0  0.13415108594E+03  0.52706479016E+02 -0.40893580418E+03  0.44295873017E+03  0.90606058862E+02 0.  0.
          5    1    3    3  502    0 -0.49975007597E+02 -0.11565238328E+02 -0.32691885377E+03  0.33094510945E+03  0.41800000000E+01 0. -1.
         -5    1    3    3    0  502 -0.84176078346E+02 -0.41141240688E+02 -0.10221048491E+03  0.13871794936E+03  0.41800000000E+01 0. -1.
        -11    1    4    4    0    0  0.39566057127E+02 -0.11303503634E+02 -0.20621208054E+03  0.21027758851E+03  0.00000000000E+00 0. -1.
         11    1    4    4    0    0  0.94585028817E+02  0.64009982650E+02 -0.20272372364E+03  0.23268114166E+03  0.00000000000E+00 0.  1.
</event>
<event>
 8    1  0.6869405E-009  0.8555714E+02  0.7561462E-02  0.1313982E+00
          1   -1    0    0  501    0  0.00000000000E+00  0.00000000000E+00  0.67735323476E+02  0.67735323476E+02  0.00000000000E+00 0.  1.
         -1   -1    0    0    0  501 -0.00000000000E+00 -0.00000000000E+00 -0.18535387613E+03  0.18535387613E+03  0.00000000000E+00 0. -1.
         25    2    1    2    0    0 -0.78591849787E+01  0.27392957954E+02 -0.68865775936E+02  0.14560853094E+03  0.12508880148E+03 0.  0.
         23    2    1    2    0    0  0.78591849787E+01 -0.27392957954E+02 -0.48752776716E+02  0.10748066866E+03  0.91450095482E+02 0.  0.
          5    1    3    3  502    0  0.30685434309E+02  0.32509827115E+02  0.19518961557E+02  0.48958625369E+02  0.41800000000E+01 0.  1.
         -5    1    3    3    0  502 -0.38544619287E+02 -0.51168691607E+01 -0.88384737493E+02  0.96649905575E+02  0.41800000000E+01 0.  1.
        -11    1    4    4    0    0  0.26931183310E+02  0.21606839840E+02  0.17542163148E+01  0.34571974737E+02  0.00000000000E+00 0.  1.
         11    1    4    4    0    0 -0.19071998332E+02 -0.48999797794E+02 -0.50506993031E+02  0.72908693921E+02  0.00000000000E+00 0. -1.
</event>
<event>
 8    1  0.6869405E-009  0.1688367E+03  0.7561462E-02  0.1179066E+00
         -2   -1    0    0    0  501 -0.00000000000E+00  0.00000000000E+00  0.38839588184E+03  0.38839588184E+03  0.00000000000E+00 0.  1.
          2   -1    0    0  501    0  0.00000000000E+00 -0.00000000000E+00 -0.87121512640E+02  0.87121512640E+02  0.00000000000E+00 0. -1.
         25    2    1    2    0    0 -0.12200459489E+03  0.80833612947E+02  0.12477885189E+03  0.22942576903E+03  0.12508887823E+03 0.  0.
         23    2    1    2    0    0  0.12200459489E+03 -0.80833612947E+02  0.17649551731E+03  0.24609162545E+03  0.89393659336E+02 0.  0.
          5    1    3    3  502    0 -0.13017725444E+03  0.59714850819E+02  0.50919616786E+02  0.15206005641E+03  0.41800000000E+01 0.  1.
         -5    1    3    3    0  502  0.81726595501E+01  0.21118762128E+02  0.73859235107E+02  0.77365712616E+02  0.41800000000E+01 0.  1.
        -11    1    4    4    0    0 -0.13977742523E+02 -0.14232953707E+02  0.23721325939E+02  0.30994444043E+02  0.00000000000E+00 0. -1.
         11    1    4    4    0    0  0.13598233742E+03 -0.66600659240E+02  0.15277419137E+03  0.21509718141E+03  0.00000000000E+00 0.  1.
</event>
<event>
 8    1  0.6869405E-009  0.1142489E+03  0.7561462E-02  0.1252898E+00
         -2   -1    0    0    0  501 -0.00000000000E+00  0.00000000000E+00  0.40507808100E+02  0.40507808100E+02  0.00000000000E+00 0.  1.
          2   -1    0    0  501    0  0.00000000000E+00 -0.00000000000E+00 -0.50464392870E+03  0.50464392870E+03  0.00000000000E+00 0. -1.
         25    2    1    2    0    0  0.90799209888E+02  0.15489576635E+02 -0.23833597046E+03  0.28449354290E+03  0.12509243637E+03 0.  0.
         23    2    1    2    0    0 -0.90799209888E+02 -0.15489576635E+02 -0.22580015014E+03  0.26065819390E+03  0.92046524881E+02 0.  0.
          5    1    3    3  502    0  0.34867381878E+01  0.15285114386E+02  0.11447018112E+02  0.19856955674E+02  0.41800000000E+01 0. -1.
         -5    1    3    3    0  502  0.87312471700E+02  0.20446224945E+00 -0.24978298857E+03  0.26463658723E+03  0.41800000000E+01 0. -1.
        -11    1    4    4    0    0 -0.10066287902E+02 -0.39395941007E+02 -0.11158257582E+03  0.11876043763E+03  0.00000000000E+00 0.  1.
         11    1    4    4    0    0 -0.80732921986E+02  0.23906364372E+02 -0.11421757432E+03  0.14189775627E+03  0.00000000000E+00 0. -1.
</event>
<event>
 8    1  0.6869405E-009  0.1124218E+03  0.7561462E-02  0.1256150E+00
         -1   -1    0    0    0  501 -0.00000000000E+00  0.00000000000E+00  0.15746695558E+03  0.15746695558E+03  0.00000000000E+00 0.  1.
          1   -1    0    0  501    0  0.00000000000E+00 -0.00000000000E+00 -0.82351408071E+02  0.82351408071E+02  0.00000000000E+00 0. -1.
         25    2    1    2    0    0 -0.27291441654E+02  0.24475808114E+02  0.43492331412E+02  0.13741356894E+03  0.12508804126E+03 0.  0.
         23    2    1    2    0    0  0.27291441654E+02 -0.24475808114E+02  0.31623216096E+02  0.10240479471E+03  0.90237609749E+02 0.  0.
          5    1    3    3  502    0  0.33918823668E+02  0.52255576738E+02  0.27295790036E+02  0.68144438166E+02  0.41800000000E+01 0. -1.
         -5    1    3    3    0  502 -0.61210265322E+02 -0.27779768624E+02  0.16196541377E+02  0.69269130774E+02  0.41800000000E+01 0. -1.
        -11    1    4    4    0    0 -0.31800638474E+02 -0.21025890342E+01  0.21422812512E+02  0.38401020611E+02  0.00000000000E+00 0.  1.
         11    1    4    4    0    0  0.59092080128E+02 -0.22373219080E+02  0.10200403583E+02  0.64003774100E+02  0.00000000000E+00 0. -1.
</event>
<event>
 8    1  0.6869405E-009  0.1350370E+03  0.7561462E-02  0.1220167E+00
         -2   -1    0    0    0  501 -0.00000000000E+00  0.00000000000E+00  0.77935863714E+02  0.77935863714E+02  0.00000000000E+00 0.  1.
          2   -1    0    0  501    0  0.00000000000E+00 -0.00000000000E+00 -0.33558992711E+03  0.33558992711E+03  0.00000000000E+00 0. -1.
         25    2    1    2    0    0 -0.36099126711E+02  0.80905927791E+02 -0.24059562922E+03  0.28527753836E+03  0.12509236984E+03 0.  0.
         23    2    1    2    0    0  0.36099126711E+02 -0.80905927791E+02 -0.17058434176E+02  0.12824825247E+03  0.91146629027E+02 0.  0.
          5    1    3    3  502    0 -0.21789777698E+02  0.11424201796E+03 -0.19152588569E+03  0.22411084393E+03  0.41800000000E+01 0. -1.
         -5    1    3    3    0  502 -0.14309349013E+02 -0.33336090167E+02 -0.49069743526E+02  0.61166694422E+02  0.41800000000E+01 0. -1.
        -11    1    4    4    0    0  0.59567872644E+02 -0.46673534659E+02  0.13287691024E+02  0.76833020386E+02  0.00000000000E+00 0. -1.
         11    1    4    4    0    0 -0.23468745933E+02 -0.34232393132E+02 -0.30346125200E+02  0.51415232080E+02  0.00000000000E+00 0.  1.
</event>
<event>
 8    1  0.6869405E-009  0.9646177E+02  0.7561462E-02  0.1287917E+00
          3   -1    0    0  501    0  0.00000000000E+00  0.00000000000E+00  0.33968314437E+03  0.33968314437E+03  0.00000000000E+00 0. -1.
         -3   -1    0    0    0  501 -0.00000000000E+00 -0.00000000000E+00 -0.46898397337E+02  0.46898397337E+02  0.00000000000E+00 0.  1.
         25    2    1    2    0    0 -0.31193055590E+02 -0.53625360458E+02  0.14081664939E+03  0.19830654346E+03  0.12508984943E+03 0.  0.
         23    2    1    2    0    0  0.31193055590E+02  0.53625360458E+02  0.15196809764E+03  0.18827499825E+03  0.92219771548E+02 0.  0.
          5    1    3    3  502    0  0.42709627350E+02 -0.11304844592E+02  0.16056148900E+02  0.47193051365E+02  0.41800000000E+01 0. -1.
         -5    1    3    3    0  502 -0.73902682940E+02 -0.42320515866E+02  0.12476050049E+03  0.15111349209E+03  0.41800000000E+01 0. -1.
        -11    1    4    4    0    0  0.74674459920E+01  0.25052730372E+02 -0.53063102720E+01  0.26675062838E+02  0.00000000000E+00 0.  1.
         11    1    4    4    0    0  0.23725609598E+02  0.28572630086E+02  0.15727440792E+03  0.16159993541E+03  0.00000000000E+00 0. -1.
</event>
<event>
 8    1  0.6869405E-009  0.1000383E+03  0.7561462E-02  0.1280215E+00
          1   -1    0    0  501    0  0.00000000000E+00  0.00000000000E+00  0.13963030489E+03  0.13963030489E+03  0.00000000000E+00 0. -1.
         -1   -1    0    0    0  501 -0.00000000000E+00 -0.00000000000E+00 -0.10943796198E+03  0.10943796198E+03  0.00000000000E+00 0.  1.
         25    2    1    2    0    0 -0.17642189931E+02 -0.14254474444E+02 -0.31845724393E+02  0.13106129871E+03  0.12509387256E+03 0.  0.
         23    2    1    2    0    0  0.17642189931E+02  0.14254474444E+02  0.62038067303E+02  0.11800696815E+03  0.97787963620E+02 0.  0.
          5    1    3    3  502    0 -0.31244306693E+02 -0.61241737795E+02  0.59044046443E+01  0.69130973833E+02  0.41800000000E+01 0.  1.
         -5    1    3    3    0  502  0.13602116762E+02  0.46987263351E+02 -0.37750129037E+02  0.61930324882E+02  0.41800000000E+01 0.  1.
        -11    1    4    4    0    0 -0.52221419499E+01  0.44155062190E+02 -0.11269714594E+01  0.44477076660E+02  0.00000000000E+00 0.  1.
         11    1    4    4    0    0  0.22864331881E+02 -0.29900587746E+02  0.63165038763E+02  0.73529891485E+02  0.00000000000E+00 0. -1.
</event>
<event>
 8    1  0.6869405E-009  0.1391468E+03  0.7561462E-02  0.1214482E+00
          2   -1    0    0  501    0  0.00000000000E+00  0.00000000000E+00  0.34855073878E+03  0.34855073878E+03  0.00000000000E+00 0. -1.
         -2   -1    0    0    0  501 -0.00000000000E+00 -0.00000000000E+00 -0.76708506813E+02  0.76708506813E+02  0.00000000000E+00 0.  1.
         25    2    1    2    0    0  0.12154488158E+03 -0.77192311279E+00  0.15248788604E+03  0.23167693375E+03  0.12509153504E+03 0.  0.
         23    2    1    2    0    0 -0.12154488158E+03  0.77192311279E+00  0.11935434593E+03  0.19358231185E+03  0.91950516390E+02 0.  0.
          5    1    3    3  502    0  0.21007463953E+02 -0.29291636948E+02 -0.10715759324E+02  0.37836667860E+02  0.41800000000E+01 0. -1.
         -5    1    3    3    0  502  0.10053741762E+03  0.28519713835E+02  0.16320364536E+03  0.19384026589E+03  0.41800000000E+01 0. -1.
        -11    1    4    4    0    0 -0.10031021528E+03  0.26798348000E+02  0.12162535936E+03  0.15991566147E+03  0.00000000000E+00 0. -1.
         11    1    4    4    0    0 -0.21234666301E+02 -0.26026424888E+02 -0.22710134323E+01  0.33666650373E+02  0.00000000000E+00 0.  1.
</event>
<event>
 8    1  0.6869405E-009  0.1146616E+03  0.7561462E-02  0.1252173E+00
          2   -1    0    0  501    0  0.00000000000E+00  0.00000000000E+00  0.46705368334E+03  0.46705368334E+03  0.00000000000E+00 0. -1.
         -2   -1    0    0    0  501 -0.00000000000E+00 -0.00000000000E+00 -0.30009917416E+02  0.30009917416E+02  0.00000000000E+00 0.  1.
         25    2    1    2    0    0 -0.56484083847E+02 -0.79448447668E+01  0.27212534012E+03  0.30487951546E+03  0.12508295617E+03 0.  0.
         23    2    1    2    0    0  0.56484083847E+02  0.79448447668E+01  0.16491842580E+03  0.19218408529E+03  0.80517471304E+02 0.  0.
          5    1    3    3  502    0  0.26479096259E+02 -0.34892232564E+02  0.13786107362E+03  0.14471267551E+03  0.41800000000E+01 0.  1.
         -5    1    3    3    0  502 -0.82963180106E+02  0.26947387798E+02  0.13426426650E+03  0.16016683996E+03  0.41800000000E+01 0.  1.
        -11    1    4    4    0    0 -0.18601144871E+01  0.34031167021E+02  0.46954130765E+02  0.58019572134E+02  0.00000000000E+00 0.  1.
         11    1    4    4    0    0  0.58344198334E+02 -0.26086322254E+02  0.11796429503E+03  0.13416451316E+03  0.00000000000E+00 0. -1.
</event>
<event>
 8    1  0.6869405E-009  0.7687249E+02  0.7561462E-02  0.1338169E+00
          1   -1    0    0  501    0  0.00000000000E+00  0.00000000000E+00  0.67307269557E+03  0.67307269557E+03  0.00000000000E+00 0. -1.
         -1   -1    0    0    0  501 -0.00000000000E+00 -0.00000000000E+00 -0.21620969121E+02  0.21620969121E+02  0.00000000000E+00 0.  1.
         25    2    1    2    0    0 -0.19336251396E+02 -0.19616350361E+02  0.36728971555E+03  0.38897281587E+03  0.12505768475E+03 0.  0.
         23    2    1    2    0    0  0.19336251396E+02  0.19616350361E+02  0.28416201090E+03  0.30572084882E+03  0.10935491369E+03 0.  0.
          5    1    3    3  502    0 -0.26287099475E+02 -0.51179357402E+01  0.37096850740E+03  0.37195740448E+03  0.41800000000E+01 0. -1.
         -5    1    3    3    0  502  0.69508480791E+01 -0.14498414621E+02 -0.36787918427E+01  0.17015411395E+02  0.41800000000E+01 0. -1.
        -11    1    4    4    0    0 -0.25141874158E+01  0.62154415477E+02  0.19300035787E+03  0.20277729321E+03  0.00000000000E+00 0.  1.
         11    1    4    4    0    0  0.21850438811E+02 -0.42538065117E+02  0.91161653026E+02  0.10294355561E+03  0.00000000000E+00 0. -1.
</event>
<event>
 8    1  0.6869405E-009  0.1088484E+03  0.7561462E-02  0.1262717E+00
         -1   -1    0    0    0  501 -0.00000000000E+00  0.00000000000E+00  0.24829487217E+02  0.24829487217E+02  0.00000000000E+00 0.  1.
          1   -1    0    0  501    0  0.00000000000E+00 -0.00000000000E+00 -0.74135824550E+03  0.74135824550E+03  0.00000000000E+00 0. -1.
         25    2    1    2    0    0 -0.45555915390E+02 -0.25436157384E+02 -0.56159960709E+03  0.57772282961E+03  0.12508880702E+03 0.  0.
         23    2    1    2    0    0  0.45555915390E+02  0.25436157384E+02 -0.15492915119E+03  0.18846490311E+03  0.93774401002E+02 0.  0.
          5    1    3    3  502    0 -0.21394634752E+01 -0.61769843348E+02 -0.15093435467E+03  0.16315251353E+03  0.41800000000E+01 0. -1.
         -5    1    3    3    0  502 -0.43416451915E+02  0.36333685964E+02 -0.41066525242E+03  0.41457031608E+03  0.41800000000E+01 0. -1.
        -11    1    4    4    0    0 -0.15319921492E+02  0.34202731269E+02 -0.96947802527E+02  0.10393942099E+03  0.00000000000E+00 0. -1.
         11    1    4    4    0    0  0.60875836882E+02 -0.87665738848E+01 -0.57981348668E+02  0.84525482117E+02  0.00000000000E+00 0.  1.
</event>
<event>
 8    1  0.6869405E-009  0.1053461E+03  0.7561462E-02  0.1269439E+00
          3   -1    0    0  501    0  0.00000000000E+00  0.00000000000E+00  0.44280737717E+02  0.44280737717E+02  0.00000000000E+00 0. -1.
         -3   -1    0    0    0  501 -0.00000000000E+00 -0.00000000000E+00 -0.32861108212E+03  0.32861108212E+03  0.00000000000E+00 0.  1.
         25    2    1    2    0    0  0.45308069723E+02 -0.99651351042E+01 -0.19464944665E+03  0.23598279149E+03  0.12508935087E+03 0.  0.
         23    2    1    2    0    0 -0.45308069723E+02  0.99651351042E+01 -0.89680897762E+02  0.13690902835E+03  0.92462389762E+02 0.  0.
          5    1    3    3  502    0 -0.17303308970E+02  0.45827712225E+02 -0.79415996252E+02  0.93402122941E+02  0.41800000000E+01 0. -1.
         -5    1    3    3    0  502  0.62611378693E+02 -0.55792847329E+02 -0.11523345039E+03  0.14258066855E+03  0.41800000000E+01 0. -1.
        -11    1    4    4    0    0 -0.58176886331E+02  0.19703684148E+02 -0.10028367614E+03  0.11759932386E+03  0.00000000000E+00 0.  1.
         11    1    4    4    0    0  0.12868816609E+02 -0.97385490434E+01  0.10602778373E+02  0.19309704493E+02  0.00000000000E+00 0. -1.
</event>
<event>
 8    1  0.6869405E-009  0.8864650E+02  0.7561462E-02  0.1306163E+00
          3   -1    0    0  501    0  0.00000000000E+00  0.00000000000E+00  0.53012652344E+03  0.53012652344E+03  0.00000000000E+00 0. -1.
         -3   -1    0    0    0  501 -0.00000000000E+00 -0.00000000000E+00 -0.29133471842E+02  0.29133471842E+02  0.00000000000E+00 0.  1.
         25    2    1    2    0    0  0.36932289076E+02 -0.48140131115E+02  0.27133434387E+03  0.30487967171E+03  0.12509125414E+03 0.  0.
         23    2    1    2    0    0 -0.36932289076E+02  0.48140131115E+02  0.22965870774E+03  0.25438032357E+03  0.91020661287E+02 0.  0.
          5    1    3    3  502    0  0.26030984699E+02  0.55154374908E+00 -0.25153669143E+01  0.26489919510E+02  0.41800000000E+01 0.  1.
         -5    1    3    3    0  502  0.10901304377E+02 -0.48691674864E+02  0.27384971078E+03  0.27838975220E+03  0.41800000000E+01 0.  1.
        -11    1    4    4    0    0 -0.41689139888E+02 -0.97104555083E+01  0.51294449088E+02  0.66808665890E+02  0.00000000000E+00 0. -1.
         11    1    4    4    0    0  0.47568508114E+01  0.57850586623E+02  0.17836425865E+03  0.18757165768E+03  0.00000000000E+00 0.  1.
</event>
<event>
 8    1  0.6869405E-009  0.1436143E+03  0.7561462E-02  0.1208547E+00
         -1   -1    0    0    0  501 -0.00000000000E+00  0.00000000000E+00  0.13044881324E+03  0.13044881324E+03  0.00000000000E+00 0.  1.
          1   -1    0    0  501    0  0.00000000000E+00 -0.00000000000E+00 -0.15936762992E+03  0.15936762992E+03  0.00000000000E+00 0. -1.
         25    2    1    2    0    0 -0.63755957603E+02 -0.69340711261E+02 -0.56877245358E+01  0.15669872928E+03  0.12509670331E+03 0.  0.
         23    2    1    2    0    0  0.63755957603E+02  0.69340711261E+02 -0.23231092144E+02  0.13311771387E+03  0.91146506986E+02 0.  0.
          5    1    3    3  502    0 -0.68851218636E+02  0.15865896914E+02 -0.78287968725E+01  0.71210809945E+02  0.41800000000E+01 0. -1.
         -5    1    3    3    0  502  0.50952610324E+01 -0.85206608176E+02  0.21410723367E+01  0.85487919337E+02  0.41800000000E+01 0. -1.
        -11    1    4    4    0    0  0.65075894477E+02  0.89570990296E+02 -0.21375433409E+02  0.11275967142E+03  0.00000000000E+00 0.  1.
         11    1    4    4    0    0 -0.13199368736E+01 -0.20230279035E+02 -0.18556587349E+01  0.20358042453E+02  0.00000000000E+00 0. -1.
</event>
<event>
 7    1  0.6869405E-009  0.4301590E+03  0.7561462E-02  0.1033810E+00
         -1   -1    0    0    0  501 -0.00000000000E+00  0.00000000000E+00  0.49122525914E+03  0.49122525914E+03  0.00000000000E+00 0.  1.
          1   -1    0    0  501    0  0.00000000000E+00 -0.00000000000E+00 -0.41066423493E+03  0.41066423493E+03  0.00000000000E+00 0. -1.
         25    2    1    2    0    0 -0.36101553668E+03 -0.22279159630E+03 -0.26103241430E+02  0.44305359734E+03  0.12508716079E+03 0.  0.
          5    1    3    3  502    0 -0.63939409422E+02  0.32487753333E+00  0.23400550520E+02  0.68215920336E+02  0.41800000000E+01 0. -1.
         -5    1    3    3    0  502 -0.29707612726E+03 -0.22311647383E+03 -0.49503791951E+02  0.37483767700E+03  0.41800000000E+01 0. -1.
        -11    1    1    2    0    0  0.34103493105E+02  0.14507109092E+02 -0.30147916475E+02  0.47774484026E+02  0.00000000000E+00 0. -1.
         11    1    1    2    0    0  0.32691204358E+03  0.20828448720E+03  0.13681218212E+03  0.41106141271E+03  0.00000000000E+00 0.  1.
</event>
<event>
 8    1  0.6869405E-009  0.8583094E+02  0.7561462E-02  0.1313274E+00
         -2   -1    0    0    0  501 -0.00000000000E+00  0.00000000000E+00  0.34063214591E+02  0.34063214591E+02  0.00000000000E+00 0.  1.
          2   -1    0    0  501    0  0.00000000000E+00 -0.00000000000E+00 -0.62858899717E+03  0.62858899717E+03  0.00000000000E+00 0. -1.
         25    2    1    2    0    0 -0.63608725485E+02  0.44227010816E+02 -0.46973083149E+03  0.49223701849E+03  0.12509248526E+03 0.  0.
         23    2    1    2    0    0  0.63608725485E+02 -0.44227010816E+02 -0.12479495108E+03  0.17041519327E+03  0.86402892536E+02 0.  0.
          5    1    3    3  502    0 -0.57877945843E+02  0.38306465989E+02 -0.47601275700E+03  0.48106429839E+03  0.41800000000E+01 0. -1.
         -5    1    3    3    0  502 -0.57307796416E+01  0.59205448277E+01  0.62819255083E+01  0.11172720101E+02  0.41800000000E+01 0. -1.
        -11    1    4    4    0    0 -0.63532498434E+01 -0.16417484894E+02  0.67467160355E+01  0.18852473871E+02  0.00000000000E+00 0.  1.
         11    1    4    4    0    0  0.69961975328E+02 -0.27809525923E+02 -0.13154166712E+03  0.15156271940E+03  0.00000000000E+00 0. -1.
</event>
<event>
 8    1  0.6869405E-009  0.1029057E+03  0.7561462E-02  0.1274302E+00
          1   -1    0    0  501    0  0.00000000000E+00  0.00000000000E+00  0.43757099998E+03  0.43757099998E+03  0.00000000000E+00 0. -1.
         -1   -1    0    0    0  501 -0.00000000000E+00 -0.00000000000E+00 -0.40679025694E+02  0.40679025694E+02  0.00000000000E+00 0.  1.
         25    2    1    2    0    0 -0.40812449467E+02  0.52374275786E+02  0.28677303087E+03  0.31983599312E+03  0.12509024928E+03 0.  0.
         23    2    1    2    0    0  0.40812449467E+02 -0.52374275786E+02  0.11011894341E+03  0.15841403255E+03  0.92520825846E+02 0.  0.
          5    1    3    3  502    0 -0.44686275091E+02  0.65098991659E+02  0.29377768300E+03  0.30423270916E+03  0.41800000000E+01 0.  1.
         -5    1    3    3    0  502  0.38738256235E+01 -0.12724715873E+02 -0.70046521224E+01  0.15603283961E+02  0.41800000000E+01 0.  1.
        -11    1    4    4    0    0  0.70218064671E+02 -0.33019404181E+02  0.65245873854E+02  0.10137988811E+03  0.00000000000E+00 0.  1.
         11    1    4    4    0    0 -0.29405615204E+02 -0.19354871605E+02  0.44873069555E+02  0.57034144437E+02  0.00000000000E+00 0. -1.
</event>
<event>
 8    1  0.6869405E-009  0.1009806E+03  0.7561462E-02  0.1278247E+00
         -2   -1    0    0    0  501 -0.00000000000E+00  0.00000000000E+00  0.10904886876E+03  0.10904886876E+03  0.00000000000E+00 0.  1.
          2   -1    0    0  501    0  0.00000000000E+00 -0.00000000000E+00 -0.15914062385E+03  0.15914062385E+03  0.00000000000E+00 0. -1.
         25    2    1    2    0    0  0.35030960620E+02  0.61984489204E+02  0.42336683725E-01  0.14393136969E+03  0.12508793821E+03 0.  0.
         23    2    1    2    0    0 -0.35030960620E+02 -0.61984489204E+02 -0.50134091770E+02  0.12425812292E+03  0.88642026427E+02 0.  0.
          5    1    3    3  502    0 -0.35755646271E+01  0.74353805925E+02 -0.41838486581E+02  0.85493885614E+02  0.41800000000E+01 0. -1.
         -5    1    3    3    0  502  0.38606525247E+02 -0.12369316720E+02  0.41880823265E+02  0.58437484076E+02  0.41800000000E+01 0. -1.
        -11    1    4    4    0    0 -0.19299471945E+02 -0.67324730977E+02  0.14638270521E+01  0.70051636727E+02  0.00000000000E+00 0.  1.
         11    1    4    4    0    0 -0.15731488675E+02  0.53402417729E+01 -0.51597918822E+02  0.54206486188E+02  0.00000000000E+00 0. -1.
</event>
<event>
 8    1  0.6869405E-009  0.7897215E+02  0.7561462E-02  0.1331994E+00
         -1   -1    0    0    0  501 -0.00000000000E+00  0.00000000000E+00  0.29692073516E+03  0.29692073516E+03  0.00000000000E+00 0.  1.
          1   -1    0    0  501    0  0.00000000000E+00 -0.00000000000E+00 -0.59491877827E+02  0.59491877827E+02  0.00000000000E+00 0. -1.
         25    2    1    2    0    0  0.45658452376E+02 -0.25216595920E+02  0.20735385087E+03  0.24771617761E+03  0.12508842550E+03 0.  0.
         23    2    1    2    0    0 -0.45658452376E+02  0.25216595920E+02  0.30075006461E+02  0.10869643538E+03  0.90497724102E+02 0.  0.
          5    1    3    3  502    0  0.21017476263E+02  0.49939825021E+00  0.21061955124E+03  0.21170746673E+03  0.41800000000E+01 0. -1.
         -5    1    3    3    0  502  0.24640976113E+02 -0.25715994171E+02 -0.32657003642E+01  0.36008710875E+02  0.41800000000E+01 0. -1.
        -11    1    4    4    0    0 -0.24197561465E+02  0.57214300885E+02  0.41526630539E+01  0.62259479737E+02  0.00000000000E+00 0. -1.
         11    1    4    4    0    0 -0.21460890912E+02 -0.31997704965E+02  0.25922343408E+02  0.46436955644E+02  0.00000000000E+00 0.  1.
</event>
<event>
 8    1  0.6869405E-009  0.8809591E+02  0.7561462E-02  0.1307529E+00
         -1   -1    0    0    0  501 -0.00000000000E+00  0.00000000000E+00  0.61328778134E+02  0.61328778134E+02  0.00000000000E+00 0.  1.
          1   -1    0    0  501    0  0.00000000000E+00 -0.00000000000E+00 -0.35875376501E+03  0.35875376501E+03  0.00000000000E+00 0. -1.
         25    2    1    2    0    0  0.24573777792E+01  0.28326600736E+02 -0.29257636175E+03  0.31946087564E+03  0.12508352647E+03 0.  0.
         23    2    1    2    0    0 -0.24573777792E+01 -0.28326600736E+02 -0.48486251278E+01  0.10062166751E+03  0.96399044557E+02 0.  0.
          5    1    3    3  502    0  0.48112864025E+02  0.15543977430E+02 -0.46486921980E+02  0.68811112724E+02  0.41800000000E+01 0.  1.
         -5    1    3    3    0  502 -0.45655486246E+02  0.12782623307E+02 -0.24608943977E+03  0.25064976291E+03  0.41800000000E+01 0.  1.
        -11    1    4    4    0    0 -0.37482742509E+02 -0.15539380608E+02 -0.34280675987E+02  0.53118669804E+02  0.00000000000E+00 0. -1.
         11    1    4    4    0    0  0.35025364730E+02 -0.12787220129E+02  0.29432050859E+02  0.47502997703E+02  0.00000000000E+00 0.  1.
</event>
<event>
 8    1  0.6869405E-009  0.1237865E+03  0.7561462E-02  0.1236978E+00
          2   -1    0    0  501    0  0.00000000000E+00  0.00000000000E+00  0.73215884418E+02  0.73215884418E+02  0.00000000000E+00 0. -1.
         -2   -1    0    0    0  501 -0.00000000000E+00 -0.00000000000E+00 -0.28759583651E+03  0.28759583651E+03  0.00000000000E+00 0.  1.
         25    2    1    2    0    0 -0.43421180347E+02  0.79797541454E+02 -0.15814088830E+03  0.22115956867E+03  0.12509983109E+03 0.  0.
         23    2    1    2    0    0  0.43421180347E+02 -0.79797541454E+02 -0.56239063795E+02  0.13965215226E+03  0.89926885907E+02 0.  0.
          5    1    3    3  502    0  0.24318371448E+02  0.96393911361E+01  0.86816198443E+01  0.27877302138E+02  0.41800000000E+01 0.  1.
         -5    1    3    3    0  502 -0.67739551795E+02  0.70158150318E+02 -0.16682250815E+03  0.19328226654E+03  0.41800000000E+01 0.  1.
        -11    1    4    4    0    0 -0.19183545953E+02 -0.51134967828E+02 -0.71283707665E+01  0.55078190238E+02  0.00000000000E+00 0. -1.
         11    1    4    4    0    0  0.62604726301E+02 -0.28662573626E+02 -0.49110693029E+02  0.84573962020E+02  0.00000000000E+00 0.  1.
</event>
<event>
 8    1  0.6869405E-009  0.1506539E+03  0.7561462E-02  0.1199672E+00
         -1   -1    0    0    0  501 -0.00000000000E+00  0.00000000000E+00  0.88117610541E+02  0.88117610541E+02  0.00000000000E+00 0.  1.
          1   -1    0    0  501    0  0.00000000000E+00 -0.00000000000E+00 -0.49000253494E+03  0.49000253494E+03  0.00000000000E+00 0. -1.
         25    2    1    2    0    0 -0.10103619845E+03 -0.57388362975E+02 -0.24145930043E+02  0.17243019377E+03  0.12508960062E+03 0.  0.
         23    2    1    2    0    0  0.10103619845E+03  0.57388362975E+02 -0.37773899436E+03  0.40568995172E+03  0.91628878994E+02 0.  0.
          5    1    3    3  502    0 -0.12224945636E+03 -0.66960050614E+02 -0.11602267779E+01  0.13945392244E+03  0.41800000000E+01 0.  1.
         -5    1    3    3    0  502  0.21213257915E+02  0.95716876391E+01 -0.22985703265E+02  0.32976271321E+02  0.41800000000E+01 0.  1.
        -11    1    4    4    0    0 -0.57180023791E+01 -0.10319906718E+02 -0.63987673553E+01  0.13421633639E+02  0.00000000000E+00 0.  1.
         11    1    4    4    0    0  0.10675420082E+03  0.67708269693E+02 -0.37134022700E+03  0.39226831808E+03  0.00000000000E+00 0. -1.
</event>
<event>
 8    1  0.6869405E-009  0.1054372E+03  0.7561462E-02  0.1269261E+00
          1   -1    0    0  501    0  0.00000000000E+00  0.00000000000E+00  0.92657679826E+02  0.92657679826E+02  0.00000000000E+00 0. -1.
         -1   -1    0    0    0  501 -0.00000000000E+00 -0.00000000000E+00 -0.13622504755E+03  0.13622504755E+03  0.00000000000E+00 0.  1.
         25    2    1    2    0    0 -0.19940807173E+02  0.22739557030E+02 -0.23363472199E+02  0.13079451299E+03  0.12508648828E+03 0.  0.
         23    2    1    2    0    0  0.19940807173E+02 -0.22739557030E+02 -0.20203895522E+02  0.98088214385E+02  0.91095428877E+02 0.  0.
          5    1    3    3  502    0  0.39171954103E+02  0.44029637236E+02 -0.32075159337E+02  0.67226030597E+02  0.41800000000E+01 0. -1.
         -5    1    3    3    0  502 -0.59112761275E+02 -0.21290080206E+02  0.87116871379E+01  0.63568482392E+02  0.41800000000E+01 0. -1.
        -11    1    4    4    0    0 -0.22852055177E+02 -0.37197135582E+02 -0.28538738476E+02  0.52156523227E+02  0.00000000000E+00 0. -1.
         11    1    4    4    0    0  0.42792862349E+02  0.14457578552E+02  0.83348429533E+01  0.45931691158E+02  0.00000000000E+00 0.  1.
</event>
<event>
 8    1  0.6869405E-009  0.1417973E+03  0.7561462E-02  0.1210931E+00
          2   -1    0    0  501    0  0.00000000000E+00  0.00000000000E+00  0.74730568550E+02  0.74730568550E+02  0.00000000000E+00 0. -1.
         -2   -1    0    0    0  501 -0.00000000000E+00 -0.00000000000E+00 -0.57478082667E+03  0.57478082667E+03  0.00000000000E+00 0.  1.
         25    2    1    2    0    0 -0.88655741947E+02 -0.91987837978E+02 -0.70080558365E+02  0.19204211684E+03  0.12508911649E+03 0.  0.
         23    2    1    2    0    0  0.88655741947E+02  0.91987837978E+02 -0.42996969975E+03  0.45746927838E+03  0.89903253761E+02 0.  0.
          5    1    3    3  502    0  0.48900569041E+01 -0.50607519411E+01  0.29143184311E+02  0.30270802079E+02  0.41800000000E+01 0. -1.
         -5    1    3    3    0  502 -0.93545798851E+02 -0.86927086037E+02 -0.99223742676E+02  0.16177131476E+03  0.41800000000E+01 0. -1.
        -11    1    4    4    0    0  0.74266574224E+02  0.23851534078E+02 -0.30050280750E+03  0.31046152264E+03  0.00000000000E+00 0.  1.
         11    1    4    4    0    0  0.14389167723E+02  0.68136303900E+02 -0.12946689225E+03  0.14700775573E+03  0.00000000000E+00 0. -1.
</event>
<event>
 8    1  0.6869405E-009  0.1225277E+03  0.7561462E-02  0.1238985E+00
          2   -1    0    0  501    0  0.00000000000E+00  0.00000000000E+00  0.69312996172E+03  0.69312996172E+03  0.00000000000E+00 0. -1.
         -2   -1    0    0    0  501 -0.00000000000E+00 -0.00000000000E+00 -0.26857427937E+02  0.26857427937E+02  0.00000000000E+00 0.  1.
         25    2    1    2    0    0 -0.27989740062E+02  0.68350812697E+02  0.26867177174E+03  0.30542903612E+03  0.12508843285E+03 0.  0.
         23    2    1    2    0    0  0.27989740062E+02 -0.68350812697E+02  0.39760076204E+03  0.41455835353E+03  0.91197606117E+02 0.  0.
          5    1    3    3  502    0  0.44704720329E+02  0.19022222620E+02  0.14994524587E+03  0.15767500161E+03  0.41800000000E+01 0. -1.
         -5    1    3    3    0  502 -0.72694460391E+02  0.49328590076E+02  0.11872652587E+03  0.14775403452E+03  0.41800000000E+01 0. -1.
        -11    1    4    4    0    0 -0.20474718977E+02 -0.54070746267E+02  0.28971525120E+03  0.29542814101E+03  0.00000000000E+00 0. -1.
         11    1    4    4    0    0  0.48464459039E+02 -0.14280066429E+02  0.10788551084E+03  0.11913021252E+03  0.00000000000E+00 0.  1.
</event>
<event>
 8    1  0.6869405E-009  0.6456712E+02  0.7561462E-02  0.1379607E+00
          2   -1    0    0  501    0  0.00000000000E+00  0.00000000000E+00  0.66363146284E+03  0.66363146284E+03  0.00000000000E+00 0.  1.
         -2   -1    0    0    0  501 -0.00000000000E+00 -0.00000000000E+00 -0.17732834152E+02  0.17732834152E+02  0.00000000000E+00 0. -1.
         25    2    1    2    0    0  0.12333285536E+02 -0.44763148202E+01  0.38031574857E+03  0.40057217009E+03  0.12508336227E+03 0.  0.
         23    2    1    2    0    0 -0.12333285536E+02  0.44763148202E+01  0.26558288012E+03  0.28079212690E+03  0.90209783224E+02 0.  0.
          5    1    3    3  502    0  0.23464463271E+02 -0.22110247434E+02  0.17097936683E+02  0.36732219059E+02  0.41800000000E+01 0. -1.
         -5    1    3    3    0  502 -0.11131177735E+02  0.17633932614E+02  0.36321781188E+03  0.36383995103E+03  0.41800000000E+01 0. -1.
        -11    1    4    4    0    0  0.14386731690E+02  0.33165195433E+02  0.20807467154E+03  0.21119180186E+03  0.00000000000E+00 0.  1.
         11    1    4    4    0    0 -0.26720017227E+02 -0.28688880613E+02  0.57508208584E+02  0.69600325042E+02  0.00000000000E+00 0. -1.
</event>
<event>
 8    1  0.6869405E-009  0.1061391E+03  0.7561462E-02  0.1267891E+00
          2   -1    0    0  501    0  0.00000000000E+00  0.00000000000E+00  0.61634210585E+03  0.61634210585E+03  0.00000000000E+00 0. -1.
         -2   -1    0    0    0  501 -0.00000000000E+00 -0.00000000000E+00 -0.22200097633E+02  0.22200097633E+02  0.00000000000E+00 0.  1.
         25    2    1    2    0    0 -0.30711082008E+02  0.31151766697E+02  0.35268892579E+03  0.37676330323E+03  0.12508998825E+03 0.  0.
         23    2    1    2    0    0  0.30711082008E+02 -0.31151766697E+02  0.24145308243E+03  0.26177890026E+03  0.91186613473E+02 0.  0.
          5    1    3    3  502    0  0.37505709848E+02  0.17283166266E+01  0.38714182053E+02  0.54091826015E+02  0.41800000000E+01 0. -1.
         -5    1    3    3    0  502 -0.68216791856E+02  0.29423450070E+02  0.31397474374E+03  0.32267147722E+03  0.41800000000E+01 0. -1.
        -11    1    4    4    0    0  0.54904058927E+02  0.65516866207E+01  0.15179234318E+03  0.16154966955E+03  0.00000000000E+00 0.  1.
         11    1    4    4    0    0 -0.24192976919E+02 -0.37703453318E+02  0.89660739255E+02  0.10022923071E+03  0.00000000000E+00 0. -1.
</event>
<event>
 8    1  0.6869405E-009  0.1341946E+03  0.7561462E-02  0.1221361E+00
         -2   -1    0    0    0  501 -0.00000000000E+00  0.00000000000E+00  0.10773066917E+03  0.10773066917E+03  0.00000000000E+00 0.  1.
          2   -1    0    0  501    0  0.00000000000E+00 -0.00000000000E+00 -0.20837738290E+03  0.20837738290E+03  0.00000000000E+00 0. -1.
         25    2    1    2    0    0  0.10238154841E+03 -0.83351166874E+01 -0.63798379718E+02  0.17398005966E+03  0.12508945711E+03 0.  0.
         23    2    1    2    0    0 -0.10238154841E+03  0.83351166874E+01 -0.36848334011E+02  0.14212799241E+03  0.91055537353E+02 0.  0.
          5    1    3    3  502    0 -0.13108976582E+02  0.62875764114E+01 -0.55132809000E+02  0.57170603569E+02  0.41800000000E+01 0. -1.
         -5    1    3    3    0  502  0.11549052499E+03 -0.14622693099E+02 -0.86655707182E+01  0.11680945609E+03  0.41800000000E+01 0. -1.
        -11    1    4    4    0    0 -0.76443397615E+02  0.47352521176E+02 -0.18461986539E+02  0.91797054679E+02  0.00000000000E+00 0.  1.
         11    1    4    4    0    0 -0.25938150790E+02 -0.39017404489E+02 -0.18386347472E+02  0.50330937730E+02  0.00000000000E+00 0. -1.
</event>
<event>
 8    1  0.6869405E-009  0.1255591E+03  0.7561462E-02  0.1234198E+00
          1   -1    0    0  501    0  0.00000000000E+00  0.00000000000E+00  0.22235160247E+03  0.22235160247E+03  0.00000000000E+00 0. -1.
         -1   -1    0    0    0  501 -0.00000000000E+00 -0.00000000000E+00 -0.93505014881E+02  0.93505014881E+02  0.00000000000E+00 0.  1.
         25    2    1    2    0    0  0.77723555238E+02  0.52139642706E+02  0.83064685792E+02  0.17693833345E+03  0.12509172010E+03 0.  0.
         23    2    1    2    0    0 -0.77723555238E+02 -0.52139642706E+02  0.45781901792E+02  0.13891828390E+03  0.91884784859E+02 0.  0.
          5    1    3    3  502    0  0.98197820191E+02  0.26949682727E+02  0.97614198260E+02  0.14112087511E+03  0.41800000000E+01 0.  1.
         -5    1    3    3    0  502 -0.20474264953E+02  0.25189959979E+02 -0.14549512467E+02  0.35817458343E+02  0.41800000000E+01 0.  1.
        -11    1    4    4    0    0  0.12898824012E+02 -0.10994919663E+02  0.34902332468E+02  0.38800009420E+02  0.00000000000E+00 0.  1.
         11    1    4    4    0    0 -0.90622379250E+02 -0.41144723043E+02  0.10879569323E+02  0.10011827448E+03  0.00000000000E+00 0. -1.
</event>
<event>
 8    1  0.6869405E-009  0.1577893E+03  0.7561462E-02  0.1191215E+00
         -1   -1    0    0    0  501 -0.00000000000E+00  0.00000000000E+00  0.33686057789E+03  0.33686057789E+03  0.00000000000E+00 0.  1.
          1   -1    0    0  501    0  0.00000000000E+00 -0.00000000000E+00 -0.87266036826E+02  0.87266036826E+02  0.00000000000E+00 0. -1.
         25    2    1    2    0    0 -0.11747479398E+03  0.53712327808E+02  0.10127907874E+03  0.20637383660E+03  0.12508943706E+03 0.  0.
         23    2    1    2    0    0  0.11747479398E+03 -0.53712327808E+02  0.14831546232E+03  0.21775277811E+03  0.93452954109E+02 0.  0.
          5    1    3    3  502    0  0.13400722623E+02  0.12715373350E+02 -0.16825449752E+02  0.25334329389E+02  0.41800000000E+01 0.  1.
         -5    1    3    3    0  502 -0.13087551661E+03  0.40996954459E+02  0.11810452849E+03  0.18103950721E+03  0.41800000000E+01 0.  1.
        -11    1    4    4    0    0  0.73643916736E+02 -0.79665592915E+02  0.10169540945E+03  0.14870100695E+03  0.00000000000E+00 0.  1.
         11    1    4    4    0    0  0.43830877247E+02  0.25953265106E+02  0.46620052875E+02  0.69051771158E+02  0.00000000000E+00 0. -1.
</event>
<event>
 8    1  0.6869405E-009  0.1974845E+03  0.7561462E-02  0.1151879E+00
          1   -1    0    0  501    0  0.00000000000E+00  0.00000000000E+00  0.43815477991E+03  0.43815477991E+03  0.00000000000E+00 0. -1.
         -1   -1    0    0    0  501 -0.00000000000E+00 -0.00000000000E+00 -0.15203057216E+03  0.15203057216E+03  0.00000000000E+00 0.  1.
         25    2    1    2    0    0  0.82289781529E+02  0.17440693457E+03 -0.67796213516E+01  0.22996332978E+03  0.12509109802E+03 0.  0.
         23    2    1    2    0    0 -0.82289781529E+02 -0.17440693457E+03  0.29290382910E+03  0.36022202230E+03  0.82327791630E+02 0.  0.
          5    1    3    3  502    0  0.27973267877E+02  0.67312621835E+02 -0.63804808032E+02  0.96964007251E+02  0.41800000000E+01 0. -1.
         -5    1    3    3    0  502  0.54316513652E+02  0.10709431274E+03  0.57025186681E+02  0.13299932253E+03  0.41800000000E+01 0. -1.
        -11    1    4    4    0    0 -0.31746188524E+02 -0.13218301441E+03  0.23966552041E+03  0.27553535427E+03  0.00000000000E+00 0. -1.
         11    1    4    4    0    0 -0.50543593005E+02 -0.42223920168E+02  0.53238308692E+02  0.84686668022E+02  0.00000000000E+00 0.  1.
</event>
<event>
 8    1  0.6869405E-009  0.1030695E+03  0.7561462E-02  0.1273971E+00
          2   -1    0    0  501    0  0.00000000000E+00  0.00000000000E+00  0.85017104733E+03  0.85017104733E+03  0.00000000000E+00 0. -1.
         -2   -1    0    0    0  501 -0.00000000000E+00 -0.00000000000E+00 -0.20359069879E+02  0.20359069879E+02  0.00000000000E+00 0.  1.
         25    2    1    2    0    0  0.31401511368E+02  0.53377749536E+02  0.32755387109E+03  0.35605330966E+03  0.12508869569E+03 0.  0.
         23    2    1    2    0    0 -0.31401511368E+02 -0.53377749536E+02  0.50225810636E+03  0.51447680755E+03  0.92671144601E+02 0.  0.
          5    1    3    3  502    0 -0.92822128785E+01  0.63346400343E+02  0.29747685593E+03  0.30431706841E+03  0.41800000000E+01 0. -1.
         -5    1    3    3    0  502  0.40683724246E+02 -0.99686508070E+01  0.30077015163E+02  0.51736241249E+02  0.41800000000E+01 0. -1.
        -11    1    4    4    0    0 -0.29540148194E+02 -0.73740276092E+02  0.46708776695E+03  0.47379450262E+03  0.00000000000E+00 0. -1.
         11    1    4    4    0    0 -0.18613631737E+01  0.20362526556E+02  0.35170339401E+02  0.40682304927E+02  0.00000000000E+00 0.  1.
</event>
<event>
 8    1  0.6869405E-009  0.3017190E+03  0.7561462E-02  0.1084384E+00
         -1   -1    0    0    0  501 -0.00000000000E+00  0.00000000000E+00  0.28420567104E+02  0.28420567104E+02  0.00000000000E+00 0. -1.
          1   -1    0    0  501    0  0.00000000000E+00 -0.00000000000E+00 -0.39699964825E+04  0.39699964825E+04  0.00000000000E+00 0.  1.
         25    2    1    2    0    0  0.17038562729E+02  0.30060687587E+03 -0.26004329378E+04  0.26207926542E+04  0.12509143025E+03 0.  0.
         23    2    1    2    0    0 -0.17038562729E+02 -0.30060687587E+03 -0.13411429777E+04  0.13776243955E+04  0.92356277517E+02 0.  0.
          5    1    3    3  502    0  0.45782063479E+01  0.13041408310E+03 -0.16495985436E+04  0.16547572693E+04  0.41800000000E+01 0.  1.
         -5    1    3    3    0  502  0.12460356381E+02  0.17019279277E+03 -0.95083439421E+03  0.96603538486E+03  0.41800000000E+01 0.  1.
        -11    1    4    4    0    0 -0.23334807242E+02 -0.19661878891E+03 -0.10475034225E+04  0.10660520070E+04  0.00000000000E+00 0.  1.
         11    1    4    4    0    0  0.62962445131E+01 -0.10398808695E+03 -0.29363955515E+03  0.31157238850E+03  0.00000000000E+00 0. -1.
</event>
<event>
 8    1  0.6869405E-009  0.1648952E+03  0.7561462E-02  0.1183278E+00
         -1   -1    0    0    0  501 -0.00000000000E+00  0.00000000000E+00  0.66898863592E+02  0.66898863592E+02  0.00000000000E+00 0.  1.
          1   -1    0    0  501    0  0.00000000000E+00 -0.00000000000E+00 -0.47331346360E+03  0.47331346360E+03  0.00000000000E+00 0. -1.
         25    2    1    2    0    0 -0.69610545560E+02 -0.11510972423E+03 -0.27291885130E+03  0.32897943332E+03  0.12508753530E+03 0.  0.
         23    2    1    2    0    0  0.69610545560E+02  0.11510972423E+03 -0.13349574871E+03  0.21123289387E+03  0.93286354111E+02 0.  0.
          5    1    3    3  502    0 -0.99689817433E+02 -0.10100423227E+03 -0.25273192630E+03  0.28988068857E+03  0.41800000000E+01 0. -1.
         -5    1    3    3    0  502  0.30079271873E+02 -0.14105491961E+02 -0.20186925000E+02  0.39098744748E+02  0.41800000000E+01 0. -1.
        -11    1    4    4    0    0 -0.14250665989E+02  0.37304056821E+02 -0.69493656290E+02  0.80150124148E+02  0.00000000000E+00 0. -1.
         11    1    4    4    0    0  0.83861211549E+02  0.77805667411E+02 -0.64002092416E+02  0.13108276972E+03  0.00000000000E+00 0.  1.
</event>
<event>
 8    1  0.6869405E-009  0.9530251E+02  0.7561462E-02  0.1290496E+00
         -3   -1    0    0    0  501 -0.00000000000E+00  0.00000000000E+00  0.63317078103E+02  0.63317078103E+02  0.00000000000E+00 0.  1.
          3   -1    0    0  501    0  0.00000000000E+00 -0.00000000000E+00 -0.27170484540E+03  0.27170484540E+03  0.00000000000E+00 0. -1.
         25    2    1    2    0    0 -0.11571540905E+01 -0.64685139295E+02 -0.70337297740E+02  0.15742445369E+03  0.12509842891E+03 0.  0.
         23    2    1    2    0    0  0.11571540905E+01  0.64685139295E+02 -0.13805046955E+03  0.17759746981E+03  0.91090190953E+02 0.  0.
          5    1    3    3  502    0 -0.14730148052E+02  0.19830631504E+01 -0.86090203604E+02  0.87463737387E+02  0.41800000000E+01 0. -1.
         -5    1    3    3    0  502  0.13572993962E+02 -0.66668202446E+02  0.15752905864E+02  0.69960716303E+02  0.41800000000E+01 0. -1.
        -11    1    4    4    0    0 -0.42011624116E+02  0.33828324906E+02 -0.95094981351E+02  0.10932697565E+03  0.00000000000E+00 0. -1.
         11    1    4    4    0    0  0.43168778206E+02  0.30856814389E+02 -0.42955488202E+02  0.68270494159E+02  0.00000000000E+00 0.  1.
</event>
<event>
 8    1  0.6869405E-009  0.1263587E+03  0.7561462E-02  0.1232961E+00
         -1   -1    0    0    0  501 -0.00000000000E+00  0.00000000000E+00  0.26122407071E+02  0.26122407071E+02  0.00000000000E+00 0.  1.
          1   -1    0    0  501    0  0.00000000000E+00 -0.00000000000E+00 -0.75563802523E+03  0.75563802523E+03  0.00000000000E+00 0. -1.
         25    2    1    2    0    0  0.12926312373E+02  0.70456796230E+02 -0.24748159317E+03  0.28640005048E+03  0.12508637124E+03 0.  0.
         23    2    1    2    0    0 -0.12926312373E+02 -0.70456796230E+02 -0.48203402499E+03  0.49536038182E+03  0.88847380069E+02 0.  0.
          5    1    3    3  502    0 -0.10671302890E+02  0.10113372921E+03 -0.20438072690E+03  0.22832183824E+03  0.41800000000E+01 0. -1.
         -5    1    3    3    0  502  0.23597615263E+02 -0.30676932984E+02 -0.43100866268E+02  0.58078212236E+02  0.41800000000E+01 0. -1.
        -11    1    4    4    0    0 -0.49620406423E+02 -0.33118998144E+02 -0.30357509388E+03  0.30938146420E+03  0.00000000000E+00 0. -1.
         11    1    4    4    0    0  0.36694094050E+02 -0.37337798086E+02 -0.17845893112E+03  0.18597891762E+03  0.00000000000E+00 0.  1.
</event>
<event>
 8    1  0.6869405E-009  0.9860777E+02  0.7561462E-02  0.1283251E+00
          2   -1    0    0  501    0  0.00000000000E+00  0.00000000000E+00  0.17227467375E+03  0.17227467375E+03  0.00000000000E+00 0. -1.
         -2   -1    0    0    0  501 -0.00000000000E+00 -0.00000000000E+00 -0.13669887028E+03  0.13669887028E+03  0.00000000000E+00 0.  1.
         25    2    1    2    0    0  0.39028265734E+02 -0.27355892074E+02 -0.80128094426E+02  0.15601035843E+03  0.12508864882E+03 0.  0.
         23    2    1    2    0    0 -0.39028265734E+02  0.27355892074E+02  0.11570389789E+03  0.15296318560E+03  0.87970414373E+02 0.  0.
          5    1    3    3  502    0  0.98239640974E+01 -0.58729295776E+02  0.57205966175E+01  0.59965307291E+02  0.41800000000E+01 0.  1.
         -5    1    3    3    0  502  0.29204301636E+02  0.31373403702E+02 -0.85848691044E+02  0.96045051136E+02  0.41800000000E+01 0.  1.
        -11    1    4    4    0    0 -0.43527960039E+02  0.52908235623E+02  0.58270244678E+02  0.89941014653E+02  0.00000000000E+00 0. -1.
         11    1    4    4    0    0  0.44996943059E+01 -0.25552343549E+02  0.57433653213E+02  0.63022170949E+02  0.00000000000E+00 0.  1.
</event>
<event>
 8    1  0.6869405E-009  0.9856864E+02  0.7561462E-02  0.1283335E+00
          1   -1    0    0  501    0  0.00000000000E+00  0.00000000000E+00  0.97622308010E+02  0.97622308010E+02  0.00000000000E+00 0. -1.
         -1   -1    0    0    0  501 -0.00000000000E+00 -0.00000000000E+00 -0.21323194750E+03  0.21323194750E+03  0.00000000000E+00 0.  1.
         25    2    1    2    0    0 -0.15203065076E+02  0.66058669588E+02  0.11557007949E+02  0.14274589091E+03  0.12509174202E+03 0.  0.
         23    2    1    2    0    0  0.15203065076E+02 -0.66058669588E+02 -0.12716664744E+03  0.16810836460E+03  0.86568961029E+02 0.  0.
          5    1    3    3  502    0 -0.45407289500E+02  0.18949438121E+02  0.53411096991E+02  0.72740090917E+02  0.41800000000E+01 0.  1.
         -5    1    3    3    0  502  0.30204224425E+02  0.47109231466E+02 -0.41854089042E+02  0.70005799988E+02  0.41800000000E+01 0.  1.
        -11    1    4    4    0    0 -0.13803729867E+02 -0.60565526788E+02 -0.12365107917E+03  0.13837743810E+03  0.00000000000E+00 0.  1.
         11    1    4    4    0    0  0.29006794943E+02 -0.54931428000E+01 -0.35155682627E+01  0.29730926506E+02  0.00000000000E+00 0. -1.
</event>
<event>
 8    1  0.6869405E-009  0.8701523E+02  0.7561462E-02  0.1310245E+00
          3   -1    0    0  501    0  0.00000000000E+00  0.00000000000E+00  0.56412989096E+03  0.56412989096E+03  0.00000000000E+00 0. -1.
         -3   -1    0    0    0  501 -0.00000000000E+00 -0.00000000000E+00 -0.25809374990E+02  0.25809374990E+02  0.00000000000E+00 0.  1.
         25    2    1    2    0    0  0.35247177382E+02 -0.12862201307E+02  0.37689655608E+03  0.39888118011E+03  0.12508949646E+03 0.  0.
         23    2    1    2    0    0 -0.35247177382E+02  0.12862201307E+02  0.16142395989E+03  0.19105808584E+03  0.95066805999E+02 0.  0.
          5    1    3    3  502    0  0.76109254557E+02 -0.25920002822E+02  0.30119446308E+03  0.31176921299E+03  0.41800000000E+01 0.  1.
         -5    1    3    3    0  502 -0.40862077176E+02  0.13057801515E+02  0.75702092994E+02  0.87111967118E+02  0.41800000000E+01 0.  1.
        -11    1    4    4    0    0 -0.67526594622E+01  0.19945316702E+02 -0.53441404461E+01  0.21724960420E+02  0.00000000000E+00 0.  1.
         11    1    4    4    0    0 -0.28494517919E+02 -0.70831153942E+01  0.16676810034E+03  0.16933312542E+03  0.00000000000E+00 0. -1.
</event>
<event>
 8    1  0.6869405E-009  0.1133318E+03  0.7561462E-02  0.1254521E+00
          1   -1    0    0  501    0  0.00000000000E+00  0.00000000000E+00  0.11618210182E+03  0.11618210182E+03  0.00000000000E+00 0. -1.
         -1   -1    0    0    0  501 -0.00000000000E+00 -0.00000000000E+00 -0.17953915001E+03  0.17953915001E+03  0.00000000000E+00 0.  1.
         25    2    1    2    0    0  0.45570609817E+02  0.32031401432E+02  0.44332215020E+02  0.14393012807E+03  0.12509134791E+03 0.  0.
         23    2    1    2    0    0 -0.45570609817E+02 -0.32031401432E+02 -0.10768926321E+03  0.15179112376E+03  0.91328400201E+02 0.  0.
          5    1    3    3  502    0 -0.54274958803E+01 -0.44239243697E+02  0.19188755068E+02  0.48705740067E+02  0.41800000000E+01 0. -1.
         -5    1    3    3    0  502  0.50998105698E+02  0.76270645129E+02  0.25143459952E+02  0.95224388008E+02  0.41800000000E+01 0. -1.
        -11    1    4    4    0    0  0.18912514770E+02 -0.23233435121E+01 -0.67648717119E+02  0.70281079018E+02  0.00000000000E+00 0.  1.
         11    1    4    4    0    0 -0.64483124587E+02 -0.29708057919E+02 -0.40040546091E+02  0.81510044738E+02  0.00000000000E+00 0. -1.
</event>
<event>
 8    1  0.6869405E-009  0.5410686E+02  0.7561462E-02  0.1424370E+00
         -2   -1    0    0    0  501 -0.00000000000E+00  0.00000000000E+00  0.13817846995E+03  0.13817846995E+03  0.00000000000E+00 0.  1.
          2   -1    0    0  501    0  0.00000000000E+00 -0.00000000000E+00 -0.92566114054E+02  0.92566114054E+02  0.00000000000E+00 0. -1.
         25    2    1    2    0    0 -0.10051774327E+02  0.31079077200E+02  0.57835903153E+02  0.14163064622E+03  0.12508917239E+03 0.  0.
         23    2    1    2    0    0  0.10051774327E+02 -0.31079077200E+02 -0.12223547252E+02  0.89113937786E+02  0.82005680252E+02 0.  0.
          5    1    3    3  502    0 -0.62242560583E+01  0.14220295208E+02  0.97154941433E+02  0.98475952415E+02  0.41800000000E+01 0. -1.
         -5    1    3    3    0  502 -0.38275182691E+01  0.16858781992E+02 -0.39319038280E+02  0.43154693808E+02  0.41800000000E+01 0. -1.
        -11    1    4    4    0    0  0.38550693228E+02 -0.13391597104E+02 -0.30470117219E+02  0.50930529790E+02  0.00000000000E+00 0. -1.
         11    1    4    4    0    0 -0.28498918900E+02 -0.17687480095E+02  0.18246569967E+02  0.38183407996E+02  0.00000000000E+00 0.  1.
</event>
<event>
 8    1  0.6869405E-009  0.2433947E+03  0.7561462E-02  0.1117552E+00
          1   -1    0    0  501    0  0.00000000000E+00  0.00000000000E+00  0.78494869191E+03  0.78494869191E+03  0.00000000000E+00 0. -1.
         -1   -1    0    0    0  501 -0.00000000000E+00 -0.00000000000E+00 -0.96306473307E+02  0.96306473307E+02  0.00000000000E+00 0.  1.
         25    2    1    2    0    0  0.10402294232E+02 -0.24231361912E+03  0.45758098376E+03  0.53277735319E+03  0.12508898287E+03 0.  0.
         23    2    1    2    0    0 -0.10402294232E+02  0.24231361912E+03  0.23106123484E+03  0.34847781203E+03  0.96038500040E+02 0.  0.
          5    1    3    3  502    0  0.17437006896E+02 -0.21094835262E+03  0.45301359232E+03  0.50004204214E+03  0.41800000000E+01 0.  1.
         -5    1    3    3    0  502 -0.70347126636E+01 -0.31365266499E+02  0.45673914399E+01  0.32735311047E+02  0.41800000000E+01 0.  1.
        -11    1    4    4    0    0  0.10884056991E+01  0.47840259330E+02  0.21634779544E+01  0.47901520609E+02  0.00000000000E+00 0.  1.
         11    1    4    4    0    0 -0.11490699931E+02  0.19447335979E+03  0.22889775689E+03  0.30057629142E+03  0.00000000000E+00 0. -1.
</event>
<event>
 8    1  0.6869405E-009  0.1922918E+03  0.7561462E-02  0.1156410E+00
          2   -1    0    0  501    0  0.00000000000E+00  0.00000000000E+00  0.10134571712E+04  0.10134571712E+04  0.00000000000E+00 0. -1.
         -2   -1    0    0    0  501 -0.00000000000E+00 -0.00000000000E+00 -0.38663001001E+02  0.38663001001E+02  0.00000000000E+00 0.  1.
         25    2    1    2    0    0  0.12820515383E+03 -0.10066179295E+03  0.43850467106E+03  0.48425625944E+03  0.12509364586E+03 0.  0.
         23    2    1    2    0    0 -0.12820515383E+03  0.10066179295E+03  0.53628949916E+03  0.56786391278E+03  0.91069415850E+02 0.  0.
          5    1    3    3  502    0  0.13678944625E+03 -0.12120289204E+03  0.38869296045E+03  0.42953600960E+03  0.41800000000E+01 0. -1.
         -5    1    3    3    0  502 -0.85842924161E+01  0.20541099089E+02  0.49811710613E+02  0.54720249837E+02  0.41800000000E+01 0. -1.
        -11    1    4    4    0    0 -0.32713722997E+02  0.72542705857E+02  0.16094809443E+03  0.17954643117E+03  0.00000000000E+00 0.  1.
         11    1    4    4    0    0 -0.95491430834E+02  0.28119087093E+02  0.37534140472E+03  0.38831748161E+03  0.00000000000E+00 0. -1.
</event>
<event>
 8    1  0.6869405E-009  0.9874901E+02  0.7561462E-02  0.1282949E+00
          2   -1    0    0  501    0  0.00000000000E+00  0.00000000000E+00  0.10456505319E+03  0.10456505319E+03  0.00000000000E+00 0. -1.
         -2   -1    0    0    0  501 -0.00000000000E+00 -0.00000000000E+00 -0.15796108238E+03  0.15796108238E+03  0.00000000000E+00 0.  1.
         25    2    1    2    0    0  0.13654609045E+02  0.39555128272E+02  0.20548839117E+02  0.13348712060E+03  0.12508197334E+03 0.  0.
         23    2    1    2    0    0 -0.13654609045E+02 -0.39555128272E+02 -0.73944868307E+02  0.12903901498E+03  0.97119345740E+02 0.  0.
          5    1    3    3  502    0  0.63277114584E+02  0.35198118084E+02  0.36260572602E+02  0.81087620955E+02  0.41800000000E+01 0.  1.
         -5    1    3    3    0  502 -0.49622505539E+02  0.43570101881E+01 -0.15711733485E+02  0.52399499643E+02  0.41800000000E+01 0.  1.
        -11    1    4    4    0    0 -0.26394331713E+02  0.65112279288E+01 -0.76488350814E+02  0.81175887097E+02  0.00000000000E+00 0.  1.
         11    1    4    4    0    0  0.12739722668E+02 -0.46066356201E+02  0.25434825076E+01  0.47863127881E+02  0.00000000000E+00 0. -1.
</event>
<event>
 8    1  0.6869405E-009  0.1129987E+03  0.7561462E-02  0.1255115E+00
         -1   -1    0    0    0  501 -0.00000000000E+00  0.00000000000E+00  0.12291699836E+03  0.12291699836E+03  0.00000000000E+00 0.  1.
          1   -1    0    0  501    0  0.00000000000E+00 -0.00000000000E+00 -0.16713658382E+03  0.16713658382E+03  0.00000000000E+00 0. -1.
         25    2    1    2    0    0  0.17042631406E+02  0.87951248488E+02 -0.54225279760E+02  0.16313048277E+03  0.12508117384E+03 0.  0.
         23    2    1    2    0    0 -0.17042631406E+02 -0.87951248488E+02  0.10005694299E+02  0.12692309940E+03  0.89350354489E+02 0.  0.
          5    1    3    3  502    0  0.41786783375E+02 -0.14176651650E+01 -0.56336639791E+02  0.70281109996E+02  0.41800000000E+01 0.  1.
         -5    1    3    3    0  502 -0.24744151969E+02  0.89368913653E+02  0.21113600304E+01  0.92849372778E+02  0.41800000000E+01 0.  1.
        -11    1    4    4    0    0 -0.20402525058E+02 -0.71074952249E+02 -0.32721048578E+02  0.80861479618E+02  0.00000000000E+00 0. -1.
         11    1    4    4    0    0  0.33598936527E+01 -0.16876296239E+02  0.42726742877E+02  0.46061619783E+02  0.00000000000E+00 0.  1.
</event>
<event>
 8    1  0.6869405E-009  0.2142455E+03  0.7561462E-02  0.1138247E+00
         -2   -1    0    0    0  501 -0.00000000000E+00  0.00000000000E+00  0.35808845292E+03  0.35808845292E+03  0.00000000000E+00 0.  1.
          2   -1    0    0  501    0  0.00000000000E+00 -0.00000000000E+00 -0.24324477313E+03  0.24324477313E+03  0.00000000000E+00 0. -1.
         25    2    1    2    0    0  0.56498923532E+02 -0.19084582395E+03 -0.13363797359E+03  0.27040638969E+03  0.12508497402E+03 0.  0.
         23    2    1    2    0    0 -0.56498923532E+02  0.19084582395E+03  0.24848165338E+03  0.33092683635E+03  0.90306046712E+02 0.  0.
          5    1    3    3  502    0  0.23766086484E+02 -0.19408216241E+03 -0.13429091597E+03  0.23724298755E+03  0.41800000000E+01 0.  1.
         -5    1    3    3    0  502  0.32732837048E+02  0.32363384594E+01  0.65294238375E+00  0.33163402141E+02  0.41800000000E+01 0.  1.
        -11    1    4    4    0    0 -0.31995171121E+02  0.78489035904E+02  0.17503041918E+03  0.19447330761E+03  0.00000000000E+00 0.  1.
         11    1    4    4    0    0 -0.24503752411E+02  0.11235678804E+03  0.73451234195E+02  0.13645352874E+03  0.00000000000E+00 0. -1.
</event>
<event>
 8    1  0.6869405E-009  0.9930185E+02  0.7561462E-02  0.1281771E+00
         -3   -1    0    0    0  501 -0.00000000000E+00  0.00000000000E+00  0.53406772487E+03  0.53406772487E+03  0.00000000000E+00 0.  1.
          3   -1    0    0  501    0  0.00000000000E+00 -0.00000000000E+00 -0.45782628379E+02  0.45782628379E+02  0.00000000000E+00 0. -1.
         25    2    1    2    0    0 -0.73644203152E+02 -0.48242095479E-02  0.42024405181E+03  0.44460715363E+03  0.12508792625E+03 0.  0.
         23    2    1    2    0    0  0.73644203152E+02  0.48242095479E-02  0.68041044681E+02  0.13524319962E+03  0.90761614140E+02 0.  0.
          5    1    3    3  502    0 -0.55642460265E+02  0.23227521182E+02  0.67457013703E+02  0.90573297513E+02  0.41800000000E+01 0.  1.
         -5    1    3    3    0  502 -0.18001742886E+02 -0.23232345391E+02  0.35278703811E+03  0.35403385612E+03  0.41800000000E+01 0.  1.
        -11    1    4    4    0    0  0.10230432543E+02 -0.34707529968E+02  0.48212563719E+02  0.60280392225E+02  0.00000000000E+00 0.  1.
         11    1    4    4    0    0  0.63413770609E+02  0.34712354178E+02  0.19828480963E+02  0.74962807396E+02  0.00000000000E+00 0. -1.
</event>
<event>
 8    1  0.6869405E-009  0.5383160E+02  0.7561462E-02  0.1425707E+00
          3   -1    0    0  501    0  0.00000000000E+00  0.00000000000E+00  0.29914750039E+03  0.29914750039E+03  0.00000000000E+00 0. -1.
         -3   -1    0    0    0  501 -0.00000000000E+00 -0.00000000000E+00 -0.44723964048E+02  0.44723964048E+02  0.00000000000E+00 0.  1.
         25    2    1    2    0    0  0.98009372918E+01 -0.45369030270E+00  0.83784696353E+02  0.15087700166E+03  0.12509088727E+03 0.  0.
         23    2    1    2    0    0 -0.98009372918E+01  0.45369030270E+00  0.17063883999E+03  0.19299446278E+03  0.89626919757E+02 0.  0.
          5    1    3    3  502    0  0.74239408222E-01 -0.22474545741E+02 -0.28174866202E+02  0.36282312540E+02  0.41800000000E+01 0.  1.
         -5    1    3    3    0  502  0.97266978835E+01  0.22020855439E+02  0.11195956255E+03  0.11459468912E+03  0.41800000000E+01 0.  1.
        -11    1    4    4    0    0  0.18608098932E+02  0.18879405776E+02  0.92257467810E+01  0.28067912498E+02  0.00000000000E+00 0.  1.
         11    1    4    4    0    0 -0.28409036224E+02 -0.18425715473E+02  0.16141309321E+03  0.16492655028E+03  0.00000000000E+00 0. -1.
</event>
<event>
 8    1  0.6869405E-009  0.1056901E+03  0.7561462E-02  0.1268766E+00
          2   -1    0    0  501    0  0.00000000000E+00  0.00000000000E+00  0.54590360100E+03  0.54590360100E+03  0.00000000000E+00 0. -1.
         -2   -1    0    0    0  501 -0.00000000000E+00 -0.00000000000E+00 -0.33612698009E+02  0.33612698009E+02  0.00000000000E+00 0.  1.
         25    2    1    2    0    0 -0.51945554167E+02  0.24793554750E+01  0.41498163601E+03  0.43653368533E+03  0.12508961747E+03 0.  0.
         23    2    1    2    0    0  0.51945554167E+02 -0.24793554750E+01  0.97309266986E+02  0.14298261369E+03  0.90941995657E+02 0.  0.
          5    1    3    3  502    0  0.84518056334E-01 -0.49633165965E+02  0.85979571065E+02  0.99365071064E+02  0.41800000000E+01 0. -1.
         -5    1    3    3    0  502 -0.52030072223E+02  0.52112521440E+02  0.32900206494E+03  0.33716861426E+03  0.41800000000E+01 0. -1.
        -11    1    4    4    0    0  0.69234629212E+02  0.39983952750E+01  0.34386415714E+02  0.77407019271E+02  0.00000000000E+00 0.  1.
         11    1    4    4    0    0 -0.17289075045E+02 -0.64777507501E+01  0.62922851272E+02  0.65575594415E+02  0.00000000000E+00 0. -1.
</event>
<event>
 7    1  0.6869405E-009  0.1058984E+03  0.7561462E-02  0.1268360E+00
          2   -1    0    0  501    0  0.00000000000E+00  0.00000000000E+00  0.15870783155E+03  0.15870783155E+03  0.00000000000E+00 0. -1.
         -2   -1    0    0    0  501 -0.00000000000E+00 -0.00000000000E+00 -0.85549256408E+02  0.85549256408E+02  0.00000000000E+00 0.  1.
         23    2    1    2    0    0  0.40121989165E+02 -0.75261842112E+01  0.45900305921E+02  0.10994018593E+03  0.91178884261E+02 0.  0.
          5    1    1    2  502    0 -0.61912291497E+02 -0.29632275848E+02 -0.18625003917E+02  0.71243012158E+02  0.41800000000E+01 0.  1.
         -5    1    1    2    0  502  0.21790302332E+02  0.37158460059E+02  0.45883273140E+02  0.63073889873E+02  0.41800000000E+01 0.  1.
        -11    1    3    3    0    0 -0.29672090366E+02 -0.25529488404E+01  0.16462222250E+02  0.34028741615E+02  0.00000000000E+00 0. -1.
         11    1    3    3    0    0  0.69794079531E+02 -0.49732353708E+01  0.29438083671E+02  0.75911444314E+02  0.00000000000E+00 0.  1.
</event>
<event>
 8    1  0.6869405E-009  0.2144076E+03  0.7561462E-02  0.1138122E+00
         -1   -1    0    0    0  501 -0.00000000000E+00  0.00000000000E+00  0.91767296617E+02  0.91767296617E+02  0.00000000000E+00 0.  1.
          1   -1    0    0  501    0  0.00000000000E+00 -0.00000000000E+00 -0.51021765804E+03  0.51021765804E+03  0.00000000000E+00 0. -1.
         25    2    1    2    0    0  0.86284620955E+02 -0.16545406334E+03 -0.23373104397E+03  0.32418797748E+03  0.12509021119E+03 0.  0.
         23    2    1    2    0    0 -0.86284620955E+02  0.16545406334E+03 -0.18471931745E+03  0.27779697718E+03  0.90718528436E+02 0.  0.
          5    1    3    3  502    0 -0.56128031280E+01  0.16449915288E+02 -0.67442452333E+01  0.19106556877E+02  0.41800000000E+01 0. -1.
         -5    1    3    3    0  502  0.91897424083E+02 -0.18190397863E+03 -0.22698679874E+03  0.30508142060E+03  0.41800000000E+01 0. -1.
        -11    1    4    4    0    0 -0.27286500105E+02  0.14035214620E+03 -0.13525870746E+03  0.19682021231E+03  0.00000000000E+00 0.  1.
         11    1    4    4    0    0 -0.58998120850E+02  0.25101917143E+02 -0.49460609994E+02  0.80976764872E+02  0.00000000000E+00 0. -1.
</event>
<event>
 8    1  0.6869405E-009  0.1202928E+03  0.7561462E-02  0.1242615E+00
         -1   -1    0    0    0  501 -0.00000000000E+00  0.00000000000E+00  0.37168512647E+02  0.37168512647E+02  0.00000000000E+00 0.  1.
          1   -1    0    0  501    0  0.00000000000E+00 -0.00000000000E+00 -0.54481225398E+03  0.54481225398E+03  0.00000000000E+00 0. -1.
         25    2    1    2    0    0  0.39733019455E+02  0.41980884639E+02 -0.41934273088E+03  0.44140197393E+03  0.12508504760E+03 0.  0.
         23    2    1    2    0    0 -0.39733019455E+02 -0.41980884639E+02 -0.88301010446E+02  0.14057879270E+03  0.92866684016E+02 0.  0.
          5    1    3    3  502    0  0.43521135407E+02 -0.35025084313E+02 -0.12284600485E+03  0.13501651405E+03  0.41800000000E+01 0.  1.
         -5    1    3    3    0  502 -0.37881159528E+01  0.77005968952E+02 -0.29649672604E+03  0.30638545988E+03  0.41800000000E+01 0.  1.
        -11    1    4    4    0    0 -0.43638014239E+02  0.18029104849E+02 -0.52427964916E+02  0.70555059447E+02  0.00000000000E+00 0. -1.
         11    1    4    4    0    0  0.39049947843E+01 -0.60009989487E+02 -0.35873045530E+02  0.70023733249E+02  0.00000000000E+00 0.  1.
</event>
<event>
 8    1  0.6869405E-009  0.1226402E+03  0.7561462E-02  0.1238804E+00
          4   -1    0    0  501    0  0.00000000000E+00  0.00000000000E+00  0.12105072084E+03  0.12105072084E+03  0.00000000000E+00 0.  1.
         -4   -1    0    0    0  501 -0.00000000000E+00 -0.00000000000E+00 -0.14556724214E+03  0.14556724214E+03  0.00000000000E+00 0. -1.
         25    2    1    2    0    0  0.19078946737E+02 -0.69767064569E+02 -0.32005093983E+02  0.14800467030E+03  0.12509838881E+03 0.  0.
         23    2    1    2    0    0 -0.19078946737E+02  0.69767064569E+02  0.74885726866E+01  0.11861329268E+03  0.93710111367E+02 0.  0.
          5    1    3    3  502    0 -0.51320197871E+02 -0.11326103544E+02 -0.15366853505E+02  0.54914988097E+02  0.41800000000E+01 0.  1.
         -5    1    3    3    0  502  0.70399144607E+02 -0.58440961025E+02 -0.16638240478E+02  0.93089682206E+02  0.41800000000E+01 0.  1.
        -11    1    4    4    0    0  0.95568105746E+01 -0.11413103587E+02  0.26556530667E+02  0.30444061538E+02  0.00000000000E+00 0.  1.
         11    1    4    4    0    0 -0.28635757311E+02  0.81180168157E+02 -0.19067957980E+02  0.88169231143E+02  0.00000000000E+00 0. -1.
</event>
<event>
 8    1  0.6869405E-009  0.9780136E+02  0.7561462E-02  0.1284989E+00
         -1   -1    0    0    0  501 -0.00000000000E+00  0.00000000000E+00  0.31940293072E+02  0.31940293072E+02  0.00000000000E+00 0.  1.
          1   -1    0    0  501    0  0.00000000000E+00 -0.00000000000E+00 -0.39046688658E+03  0.39046688658E+03  0.00000000000E+00 0. -1.
         25    2    1    2    0    0  0.13532217478E+02 -0.22577812384E+02 -0.19753079189E+03  0.23528556757E+03  0.12509199030E+03 0.  0.
         23    2    1    2    0    0 -0.13532217478E+02  0.22577812384E+02 -0.16099580161E+03  0.18712161208E+03  0.91662266220E+02 0.  0.
          5    1    3    3  502    0  0.14363159217E+02  0.37317444656E+02 -0.15884972595E+03  0.16385847507E+03  0.41800000000E+01 0. -1.
         -5    1    3    3    0  502 -0.83094173908E+00 -0.59895257041E+02 -0.38681065943E+02  0.71427092498E+02  0.41800000000E+01 0. -1.
        -11    1    4    4    0    0  0.38090421193E+02  0.21454795911E+02 -0.75465302899E+02  0.87213533330E+02  0.00000000000E+00 0.  1.
         11    1    4    4    0    0 -0.51622638671E+02  0.11230164730E+01 -0.85530498715E+02  0.99908078751E+02  0.00000000000E+00 0. -1.
</event>
<event>
 8    1  0.6869405E-009  0.1313047E+03  0.7561462E-02  0.1225533E+00
         -1   -1    0    0    0  501 -0.00000000000E+00  0.00000000000E+00  0.26887239879E+02  0.26887239879E+02  0.00000000000E+00 0.  1.
          1   -1    0    0  501    0  0.00000000000E+00 -0.00000000000E+00 -0.13105532504E+04  0.13105532504E+04  0.00000000000E+00 0. -1.
         25    2    1    2    0    0 -0.68383200087E+02 -0.10465184992E+03 -0.97931733483E+03  0.99515703634E+03  0.12508722128E+03 0.  0.
         23    2    1    2    0    0  0.68383200087E+02  0.10465184992E+03 -0.30434867566E+03  0.34228345391E+03  0.94348156841E+02 0.  0.
          5    1    3    3  502    0 -0.57528072676E+02 -0.50768306951E+02 -0.20578535462E+03  0.21966334403E+03  0.41800000000E+01 0.  1.
         -5    1    3    3    0  502 -0.10855127411E+02 -0.53883542969E+02 -0.77353198021E+03  0.77549369230E+03  0.41800000000E+01 0.  1.
        -11    1    4    4    0    0  0.56780427207E+02  0.52887126159E+02 -0.26529309808E+03  0.27640819979E+03  0.00000000000E+00 0. -1.
         11    1    4    4    0    0  0.11602772880E+02  0.51764723761E+02 -0.39055577588E+02  0.65875254120E+02  0.00000000000E+00 0.  1.
</event>
<event>
 8    1  0.6869405E-009  0.6855829E+02  0.7561462E-02  0.1365065E+00
         -2   -1    0    0    0  501 -0.00000000000E+00  0.00000000000E+00  0.82565361895E+02  0.82565361895E+02  0.00000000000E+00 0.  1.
          2   -1    0    0  501    0  0.00000000000E+00 -0.00000000000E+00 -0.21082447454E+03  0.21082447454E+03  0.00000000000E+00 0. -1.
         25    2    1    2    0    0  0.62793379416E+02 -0.55146525813E+01 -0.11609879375E+03  0.18193297497E+03  0.12508899864E+03 0.  0.
         23    2    1    2    0    0 -0.62793379416E+02  0.55146525813E+01 -0.12160318900E+02  0.11145686146E+03  0.91111682677E+02 0.  0.
          5    1    3    3  502    0  0.62137777803E+00  0.51465993302E+01 -0.11848321316E+03  0.11867020602E+03  0.41800000000E+01 0. -1.
         -5    1    3    3    0  502  0.62172001638E+02 -0.10661251912E+02  0.23844194147E+01  0.63262768955E+02  0.41800000000E+01 0. -1.
        -11    1    4    4    0    0 -0.40225418865E+02  0.14764535184E+02 -0.50367572741E+02  0.66128422073E+02  0.00000000000E+00 0. -1.
         11    1    4    4    0    0 -0.22567960551E+02 -0.92498826023E+01  0.38207253841E+02  0.45328439391E+02  0.00000000000E+00 0.  1.
</event>
<event>
 8    1  0.6869405E-009  0.2183785E+03  0.7561462E-02  0.1135098E+00
          1   -1    0    0  501    0  0.00000000000E+00  0.00000000000E+00  0.11287693774E+04  0.11287693774E+04  0.00000000000E+00 0. -1.
         -1   -1    0    0    0  501 -0.00000000000E+00 -0.00000000000E+00 -0.53742953892E+02  0.53742953892E+02  0.00000000000E+00 0.  1.
         25    2    1    2    0    0 -0.13930437949E+03 -0.14336557878E+03  0.78176222001E+03  0.81655359424E+03  0.12509278279E+03 0.  0.
         23    2    1    2    0    0  0.13930437949E+03  0.14336557878E+03  0.29326420345E+03  0.36595873701E+03  0.89232868624E+02 0.  0.
          5    1    3    3  502    0 -0.69293701461E+02 -0.14054259024E+03  0.63213665944E+03  0.65128186321E+03  0.41800000000E+01 0.  1.
         -5    1    3    3    0  502 -0.70010678027E+02 -0.28229885341E+01  0.14962556057E+03  0.16527173103E+03  0.41800000000E+01 0.  1.
        -11    1    4    4    0    0  0.12034958858E+03  0.14754363461E+03  0.28900327466E+03  0.34608675263E+03  0.00000000000E+00 0.  1.
         11    1    4    4    0    0  0.18954790905E+02 -0.41780558297E+01  0.42609287941E+01  0.19871984374E+02  0.00000000000E+00 0. -1.
</event>
<event>
 8    1  0.6869405E-009  0.1086064E+03  0.7561462E-02  0.1263173E+00
          2   -1    0    0  501    0  0.00000000000E+00  0.00000000000E+00  0.44019826859E+03  0.44019826859E+03  0.00000000000E+00 0. -1.
         -2   -1    0    0    0  501 -0.00000000000E+00 -0.00000000000E+00 -0.53149914948E+02  0.53149914948E+02  0.00000000000E+00 0.  1.
         25    2    1    2    0    0 -0.30962651408E+02 -0.50382241851E+02  0.35472752008E+03  0.38075722070E+03  0.12508953406E+03 0.  0.
         23    2    1    2    0    0  0.30962651408E+02  0.50382241851E+02  0.32320833559E+02  0.11259096284E+03  0.90194415325E+02 0.  0.
          5    1    3    3  502    0 -0.64968950493E+02  0.35159523153E+01  0.24756756791E+03  0.25600878800E+03  0.41800000000E+01 0. -1.
         -5    1    3    3    0  502  0.34006299085E+02 -0.53898194167E+02  0.10715995217E+03  0.12474843270E+03  0.41800000000E+01 0. -1.
        -11    1    4    4    0    0  0.41623496969E+02  0.60510001742E+02  0.50558599731E+02  0.89163601416E+02  0.00000000000E+00 0. -1.
         11    1    4    4    0    0 -0.10660845561E+02 -0.10127759891E+02 -0.18237766172E+02  0.23427361427E+02  0.00000000000E+00 0.  1.
</event>
<event>
 8    1  0.6869405E-009  0.8665136E+02  0.7561462E-02  0.1311170E+00
          1   -1    0    0  501    0  0.00000000000E+00  0.00000000000E+00  0.62409687157E+02  0.62409687157E+02  0.00000000000E+00 0. -1.
         -1   -1    0    0    0  501 -0.00000000000E+00 -0.00000000000E+00 -0.21935869996E+03  0.21935869996E+03  0.00000000000E+00 0.  1.
         25    2    1    2    0    0 -0.89356949967E+01 -0.25124095399E+02 -0.47869402413E+02  0.13656530671E+03  0.12509011350E+03 0.  0.
         23    2    1    2    0    0  0.89356949967E+01  0.25124095399E+02 -0.10907961039E+03  0.14520308041E+03  0.92057081976E+02 0.  0.
          5    1    3    3  502    0 -0.65079415411E+01  0.43074104839E+02  0.12333548168E+02  0.45467797628E+02  0.41800000000E+01 0. -1.
         -5    1    3    3    0  502 -0.24277534556E+01 -0.68198200238E+02 -0.60202950581E+02  0.91097509083E+02  0.41800000000E+01 0. -1.
        -11    1    4    4    0    0  0.74893966759E+01  0.42792466023E+02 -0.10038093637E+02  0.44587549100E+02  0.00000000000E+00 0. -1.
         11    1    4    4    0    0  0.14462983208E+01 -0.17668370624E+02 -0.99041516754E+02  0.10061553131E+03  0.00000000000E+00 0.  1.
</event>
<event>
 8    1  0.6869405E-009  0.8856350E+02  0.7561462E-02  0.1306368E+00
         -1   -1    0    0    0  501 -0.00000000000E+00  0.00000000000E+00  0.43193458310E+02  0.43193458310E+02  0.00000000000E+00 0.  1.
          1   -1    0    0  501    0  0.00000000000E+00 -0.00000000000E+00 -0.48424815713E+03  0.48424815713E+03  0.00000000000E+00 0. -1.
         25    2    1    2    0    0 -0.18809709262E+02  0.84891740588E+01 -0.40915984590E+03  0.42835142339E+03  0.12508913296E+03 0.  0.
         23    2    1    2    0    0  0.18809709262E+02 -0.84891740588E+01 -0.31894852916E+02  0.99090192046E+02  0.91518923062E+02 0.  0.
          5    1    3    3  502    0  0.32914628776E+02  0.28472847652E+01 -0.34038897146E+03  0.34201404081E+03  0.41800000000E+01 0.  1.
         -5    1    3    3    0  502 -0.51724338038E+02  0.56418892936E+01 -0.68770874443E+02  0.86337382586E+02  0.41800000000E+01 0.  1.
        -11    1    4    4    0    0  0.34248641380E+02  0.32876401627E+02 -0.27133501189E+02  0.54681387209E+02  0.00000000000E+00 0. -1.
         11    1    4    4    0    0 -0.15438932118E+02 -0.41365575686E+02 -0.47613517267E+01  0.44408804837E+02  0.00000000000E+00 0.  1.
</event>
<event>
 8    1  0.6869405E-009  0.1364961E+03  0.7561462E-02  0.1218123E+00
          3   -1    0    0  501    0  0.00000000000E+00  0.00000000000E+00  0.27755336650E+03  0.27755336650E+03  0.00000000000E+00 0. -1.
         -3   -1    0    0    0  501 -0.00000000000E+00 -0.00000000000E+00 -0.95966061336E+02  0.95966061336E+02  0.00000000000E+00 0.  1.
         25    2    1    2    0    0  0.80547713417E+02 -0.91779114288E+02  0.94443554938E+02  0.19869312982E+03  0.12509210531E+03 0.  0.
         23    2    1    2    0    0 -0.80547713417E+02  0.91779114288E+02  0.87143750224E+02  0.17482629802E+03  0.89771160843E+02 0.  0.
          5    1    3    3  502    0  0.60287089904E+02 -0.10555633943E+03  0.23977508557E+02  0.12397204250E+03  0.41800000000E+01 0.  1.
         -5    1    3    3    0  502  0.20260623513E+02  0.13777225147E+02  0.70466046381E+02  0.74721087321E+02  0.41800000000E+01 0.  1.
        -11    1    4    4    0    0 -0.27793327879E+02  0.10714351386E+02  0.70701258149E+02  0.76719842962E+02  0.00000000000E+00 0. -1.
         11    1    4    4    0    0 -0.52754385538E+02  0.81064762902E+02  0.16442492075E+02  0.98106455055E+02  0.00000000000E+00 0.  1.
</event>
<event>
 8    1  0.6869405E-009  0.1131459E+03  0.7561462E-02  0.1254853E+00
          1   -1    0    0  501    0  0.00000000000E+00  0.00000000000E+00  0.10349959948E+04  0.10349959948E+04  0.00000000000E+00 0. -1.
         -1   -1    0    0    0  501 -0.00000000000E+00 -0.00000000000E+00 -0.24905497473E+02  0.24905497473E+02  0.00000000000E+00 0.  1.
         25    2    1    2    0    0  0.62261869900E+01 -0.10533738731E+03  0.71511866577E+03  0.73360579326E+03  0.12509205891E+03 0.  0.
         23    2    1    2    0    0 -0.62261869900E+01  0.10533738731E+03  0.29497183154E+03  0.32629569900E+03  0.91245664076E+02 0.  0.
          5    1    3    3  502    0  0.18018865891E+02 -0.44803114598E+01  0.43842597212E+03  0.43883887493E+03  0.41800000000E+01 0.  1.
         -5    1    3    3    0  502 -0.11792678901E+02 -0.10085707585E+03  0.27669269365E+03  0.29476691833E+03  0.41800000000E+01 0.  1.
        -11    1    4    4    0    0 -0.47433694461E+01  0.40780584642E+02  0.23617581167E+02  0.47363971304E+02  0.00000000000E+00 0.  1.
         11    1    4    4    0    0 -0.14828175438E+01  0.64556802663E+02  0.27135425038E+03  0.27893172770E+03  0.00000000000E+00 0. -1.
</event>
<event>
 8    1  0.6869405E-009  0.1096463E+03  0.7561462E-02  0.1261226E+00
          2   -1    0    0  501    0  0.00000000000E+00  0.00000000000E+00  0.18629831541E+03  0.18629831541E+03  0.00000000000E+00 0. -1.
         -2   -1    0    0    0  501 -0.00000000000E+00 -0.00000000000E+00 -0.11904577778E+03  0.11904577778E+03  0.00000000000E+00 0.  1.
         25    2    1    2    0    0 -0.74292310039E+02  0.56016710479E+02 -0.50215124197E+01  0.15598486831E+03  0.12509534112E+03 0.  0.
         23    2    1    2    0    0  0.74292310039E+02 -0.56016710479E+02  0.72274050044E+02  0.14935922488E+03  0.91800983450E+02 0.  0.
          5    1    3    3  502    0 -0.52993359077E+01  0.49631143342E+02 -0.51975245752E+02  0.72181936255E+02  0.41800000000E+01 0.  1.
         -5    1    3    3    0  502 -0.68992974131E+02  0.63855671370E+01  0.46953733332E+02  0.83802932055E+02  0.41800000000E+01 0.  1.
        -11    1    4    4    0    0  0.16302873676E+02 -0.34102253365E+02 -0.16368143909E+02  0.41190575496E+02  0.00000000000E+00 0.  1.
         11    1    4    4    0    0  0.57989436362E+02 -0.21914457114E+02  0.88642193952E+02  0.10816864938E+03  0.00000000000E+00 0. -1.
</event>
<event>
 8    1  0.6869405E-009  0.1926984E+03  0.7561462E-02  0.1156050E+00
         -2   -1    0    0    0  501 -0.00000000000E+00  0.00000000000E+00  0.14888577563E+03  0.14888577563E+03  0.00000000000E+00 0.  1.
          2   -1    0    0  501    0  0.00000000000E+00 -0.00000000000E+00 -0.26079607136E+03  0.26079607136E+03  0.00000000000E+00 0. -1.
         25    2    1    2    0    0 -0.98505132782E+02 -0.13052759045E+03 -0.46158512532E+02  0.21099469511E+03  0.12508972791E+03 0.  0.
         23    2    1    2    0    0  0.98505132782E+02  0.13052759045E+03 -0.65751783202E+02  0.19868715188E+03  0.91720086542E+02 0.  0.
          5    1    3    3  502    0 -0.12068301992E+03 -0.77245997213E+02 -0.52772307783E+02  0.15275380274E+03  0.41800000000E+01 0. -1.
         -5    1    3    3    0  502  0.22177887136E+02 -0.53281593242E+02  0.66137952509E+01  0.58240892369E+02  0.41800000000E+01 0. -1.
        -11    1    4    4    0    0  0.29939789657E+02  0.10790736729E+03 -0.57884419070E+02  0.12605949742E+03  0.00000000000E+00 0. -1.
         11    1    4    4    0    0  0.68565343125E+02  0.22620223167E+02 -0.78673641318E+01  0.72627654460E+02  0.00000000000E+00 0.  1.
</event>
<event>
 8    1  0.6869405E-009  0.1345924E+03  0.7561462E-02  0.1220796E+00
         -1   -1    0    0    0  501 -0.00000000000E+00  0.00000000000E+00  0.30991169404E+02  0.30991169404E+02  0.00000000000E+00 0.  1.
          1   -1    0    0  501    0  0.00000000000E+00 -0.00000000000E+00 -0.67653551509E+03  0.67653551509E+03  0.00000000000E+00 0. -1.
         25    2    1    2    0    0  0.94813655017E+02 -0.11760502418E+02 -0.39550395238E+03  0.42567475986E+03  0.12509071204E+03 0.  0.
         23    2    1    2    0    0 -0.94813655017E+02  0.11760502418E+02 -0.25004039330E+03  0.28185192463E+03  0.88274404785E+02 0.  0.
          5    1    3    3  502    0  0.36633730441E+02  0.44817025332E+02 -0.73905152836E+02  0.93968292425E+02  0.41800000000E+01 0. -1.
         -5    1    3    3    0  502  0.58179924577E+02 -0.56577527749E+02 -0.32159879954E+03  0.33170646744E+03  0.41800000000E+01 0. -1.
        -11    1    4    4    0    0 -0.24410148293E+02 -0.36944176170E+02 -0.92568391669E+02  0.10261400796E+03  0.00000000000E+00 0. -1.
         11    1    4    4    0    0 -0.70403506725E+02  0.48704678588E+02 -0.15747200163E+03  0.17923791667E+03  0.00000000000E+00 0.  1.
</event>
<event>
 8    1  0.6869405E-009  0.1751294E+03  0.7561462E-02  0.1172602E+00
         -2   -1    0    0    0  501 -0.00000000000E+00  0.00000000000E+00  0.76021662859E+02  0.76021662859E+02  0.00000000000E+00 0.  1.
          2   -1    0    0  501    0  0.00000000000E+00 -0.00000000000E+00 -0.44396928326E+03  0.44396928326E+03  0.00000000000E+00 0. -1.
         25    2    1    2    0    0 -0.13055683572E+03 -0.58931997884E+02 -0.14315605839E+03  0.23803159481E+03  0.12508922953E+03 0.  0.
         23    2    1    2    0    0  0.13055683572E+03  0.58931997884E+02 -0.22479156200E+03  0.28195935131E+03  0.91933463517E+02 0.  0.
          5    1    3    3  502    0 -0.13988855731E+03 -0.15575576336E+02 -0.83954637324E+02  0.16394285765E+03  0.41800000000E+01 0. -1.
         -5    1    3    3    0  502  0.93317215970E+01 -0.43356421549E+02 -0.59201421070E+02  0.74088737161E+02  0.41800000000E+01 0. -1.
        -11    1    4    4    0    0  0.96177014122E+02  0.79547310824E+02 -0.19689485749E+03  0.23312095060E+03  0.00000000000E+00 0. -1.
         11    1    4    4    0    0  0.34379821594E+02 -0.20615312940E+02 -0.27896704516E+02  0.48838400704E+02  0.00000000000E+00 0.  1.
</event>
<event>
 8    1  0.6869405E-009  0.2455187E+03  0.7561462E-02  0.1116170E+00
         -2   -1    0    0    0  501 -0.00000000000E+00  0.00000000000E+00  0.21216883320E+03  0.21216883320E+03  0.00000000000E+00 0. -1.
          2   -1    0    0  501    0  0.00000000000E+00 -0.00000000000E+00 -0.34435761309E+03  0.34435761309E+03  0.00000000000E+00 0.  1.
         25    2    1    2    0    0  0.21142595936E+03  0.89564930718E+02 -0.16131781418E+03  0.30723674355E+03  0.12509263091E+03 0.  0.
         23    2    1    2    0    0 -0.21142595936E+03 -0.89564930718E+02  0.29129034290E+02  0.24928970274E+03  0.92596123824E+02 0.  0.
          5    1    3    3  502    0  0.15274724634E+03  0.12029229493E+03 -0.11073430755E+03  0.22378900052E+03  0.41800000000E+01 0.  1.
         -5    1    3    3    0  502  0.58678713023E+02 -0.30727364215E+02 -0.50583506630E+02  0.83447743029E+02  0.41800000000E+01 0.  1.
        -11    1    4    4    0    0 -0.30269753517E+02 -0.19251037816E+02  0.41154555219E+02  0.54594485530E+02  0.00000000000E+00 0.  1.
         11    1    4    4    0    0 -0.18115620584E+03 -0.70313892901E+02 -0.12025520929E+02  0.19469521721E+03  0.00000000000E+00 0. -1.
</event>
<event>
 8    1  0.6869405E-009  0.9870693E+02  0.7561462E-02  0.1283039E+00
         -1   -1    0    0    0  501 -0.00000000000E+00  0.00000000000E+00  0.48261219413E+02  0.48261219413E+02  0.00000000000E+00 0.  1.
          1   -1    0    0  501    0  0.00000000000E+00 -0.00000000000E+00 -0.44296571292E+03  0.44296571292E+03  0.00000000000E+00 0. -1.
         25    2    1    2    0    0 -0.79110503976E+00  0.55329262126E+02 -0.33443535759E+03  0.36132920428E+03  0.12509929003E+03 0.  0.
         23    2    1    2    0    0  0.79110503976E+00 -0.55329262126E+02 -0.60269135922E+02  0.12989772805E+03  0.10089151557E+03 0.  0.
          5    1    3    3  502    0  0.59855088619E+02  0.44036835280E+02 -0.16667283923E+03  0.18253542734E+03  0.41800000000E+01 0. -1.
         -5    1    3    3    0  502 -0.60646193658E+02  0.11292426846E+02 -0.16776251836E+03  0.17879377694E+03  0.41800000000E+01 0. -1.
        -11    1    4    4    0    0  0.11429771106E+02 -0.12128175331E+02  0.27121940377E+02  0.31832875368E+02  0.00000000000E+00 0.  1.
         11    1    4    4    0    0 -0.10638666066E+02 -0.43201086795E+02 -0.87391076299E+02  0.98064852687E+02  0.00000000000E+00 0. -1.
</event>
<event>
 8    1  0.6869405E-009  0.1583100E+03  0.7561462E-02  0.1190618E+00
          1   -1    0    0  501    0  0.00000000000E+00  0.00000000000E+00  0.28796071708E+03  0.28796071708E+03  0.00000000000E+00 0. -1.
         -1   -1    0    0    0  501 -0.00000000000E+00 -0.00000000000E+00 -0.90664959774E+02  0.90664959774E+02  0.00000000000E+00 0.  1.
         25    2    1    2    0    0  0.11590166677E+03  0.60530999280E+01  0.73841037811E+02  0.18592463537E+03  0.12508251194E+03 0.  0.
         23    2    1    2    0    0 -0.11590166677E+03 -0.60530999280E+01  0.12345471950E+03  0.19270104149E+03  0.91775744325E+02 0.  0.
          5    1    3    3  502    0 -0.67236223643E+01 -0.37729601321E+02  0.28662522169E+02  0.48038968459E+02  0.41800000000E+01 0. -1.
         -5    1    3    3    0  502  0.12262528913E+03  0.43782701249E+02  0.45178515642E+02  0.13788566691E+03  0.41800000000E+01 0. -1.
        -11    1    4    4    0    0 -0.13009651638E+02  0.34751439952E+02  0.35035915044E+02  0.51033606158E+02  0.00000000000E+00 0. -1.
         11    1    4    4    0    0 -0.10289201513E+03 -0.40804539880E+02  0.88418804455E+02  0.14166743533E+03  0.00000000000E+00 0.  1.
</event>
<event>
 8    1  0.6869405E-009  0.1508313E+03  0.7561462E-02  0.1199455E+00
         -2   -1    0    0    0  501 -0.00000000000E+00  0.00000000000E+00  0.26796191255E+03  0.26796191255E+03  0.00000000000E+00 0.  1.
          2   -1    0    0  501    0  0.00000000000E+00 -0.00000000000E+00 -0.95643920553E+02  0.95643920553E+02  0.00000000000E+00 0. -1.
         25    2    1    2    0    0  0.84402968571E+02  0.71830510157E+02  0.50405354065E+02  0.17456106270E+03  0.12508949437E+03 0.  0.
         23    2    1    2    0    0 -0.84402968571E+02 -0.71830510157E+02  0.12191263793E+03  0.18904477039E+03  0.92691696682E+02 0.  0.
          5    1    3    3  502    0  0.11477379132E+03  0.53133939663E+02  0.55705390941E+02  0.13826352266E+03  0.41800000000E+01 0.  1.
         -5    1    3    3    0  502 -0.30370822748E+02  0.18696570493E+02 -0.53000368759E+01  0.36297540047E+02  0.41800000000E+01 0.  1.
        -11    1    4    4    0    0 -0.82932455715E+02 -0.17374520196E+02  0.97999603435E+02  0.12955148952E+03  0.00000000000E+00 0.  1.
         11    1    4    4    0    0 -0.14705128555E+01 -0.54455989961E+02  0.23913034494E+02  0.59493280876E+02  0.00000000000E+00 0. -1.
</event>
<event>
 8    1  0.6869405E-009  0.9924024E+02  0.7561462E-02  0.1281902E+00
          1   -1    0    0  501    0  0.00000000000E+00  0.00000000000E+00  0.66108731019E+02  0.66108731019E+02  0.00000000000E+00 0. -1.
         -1   -1    0    0    0  501 -0.00000000000E+00 -0.00000000000E+00 -0.18870523110E+03  0.18870523110E+03  0.00000000000E+00 0.  1.
         25    2    1    2    0    0 -0.16162096157E+02 -0.10370479146E+02 -0.93620161004E+02  0.15741849280E+03  0.12508831736E+03 0.  0.
         23    2    1    2    0    0  0.16162096157E+02  0.10370479146E+02 -0.28976339078E+02  0.97395469316E+02  0.90980706895E+02 0.  0.
          5    1    3    3  502    0 -0.70605443983E+02 -0.57542840077E+00 -0.46654102374E+02  0.84732151550E+02  0.41800000000E+01 0. -1.
         -5    1    3    3    0  502  0.54443347827E+02 -0.97950507452E+01 -0.46966058630E+02  0.72686341254E+02  0.41800000000E+01 0. -1.
        -11    1    4    4    0    0 -0.24783847793E+02 -0.97732471349E+01  0.17805429960E+02  0.32043545482E+02  0.00000000000E+00 0. -1.
         11    1    4    4    0    0  0.40945943950E+02  0.20143726281E+02 -0.46781769038E+02  0.65351923834E+02  0.00000000000E+00 0.  1.
</event>
<event>
 8    1  0.6869405E-009  0.1345877E+03  0.7561462E-02  0.1220803E+00
          1   -1    0    0  501    0  0.00000000000E+00  0.00000000000E+00  0.12003447774E+03  0.12003447774E+03  0.00000000000E+00 0. -1.
         -1   -1    0    0    0  501 -0.00000000000E+00 -0.00000000000E+00 -0.19349436033E+03  0.19349436033E+03  0.00000000000E+00 0.  1.
         25    2    1    2    0    0  0.60801091473E+01 -0.10034359110E+03 -0.12936177356E+02  0.16099915386E+03  0.12509028283E+03 0.  0.
         23    2    1    2    0    0 -0.60801091473E+01  0.10034359110E+03 -0.60523705233E+02  0.15252968421E+03  0.97449380038E+02 0.  0.
          5    1    3    3  502    0  0.40881729090E+01  0.22104562548E+02 -0.29527570548E+02  0.37345343293E+02  0.41800000000E+01 0. -1.
         -5    1    3    3    0  502  0.19919362383E+01 -0.12244815364E+03  0.16591393192E+02  0.12365381057E+03  0.41800000000E+01 0. -1.
        -11    1    4    4    0    0 -0.28985147583E+02  0.96233689794E+02 -0.74750498072E+02  0.12525453602E+03  0.00000000000E+00 0. -1.
         11    1    4    4    0    0  0.22905038436E+02  0.41099013023E+01  0.14226792838E+02  0.27275148193E+02  0.00000000000E+00 0.  1.
</event>
<event>
 8    1  0.6869405E-009  0.1022532E+03  0.7561462E-02  0.1275628E+00
          2   -1    0    0  501    0  0.00000000000E+00  0.00000000000E+00  0.53617166161E+03  0.53617166161E+03  0.00000000000E+00 0. -1.
         -2   -1    0    0    0  501 -0.00000000000E+00 -0.00000000000E+00 -0.25087624550E+02  0.25087624550E+02  0.00000000000E+00 0.  1.
         25    2    1    2    0    0  0.11168956815E+02  0.23733454864E+02  0.20634307335E+03  0.24271727842E+03  0.12508473467E+03 0.  0.
         23    2    1    2    0    0 -0.11168956815E+02 -0.23733454864E+02  0.30474096371E+03  0.31854200775E+03  0.88960290346E+02 0.  0.
          5    1    3    3  502    0 -0.56267168302E+02  0.90704473202E+01  0.75025110035E+02  0.94310692814E+02  0.41800000000E+01 0. -1.
         -5    1    3    3    0  502  0.67436125117E+02  0.14663007544E+02  0.13131796331E+03  0.14840658560E+03  0.41800000000E+01 0. -1.
        -11    1    4    4    0    0  0.51415902487E+01 -0.48387781856E+02  0.26257642179E+03  0.26704716936E+03  0.00000000000E+00 0. -1.
         11    1    4    4    0    0 -0.16310547064E+02  0.24654326992E+02  0.42164541928E+02  0.51494838391E+02  0.00000000000E+00 0.  1.
</event>
<event>
 8    1  0.6869405E-009  0.1324014E+03  0.7561462E-02  0.1223935E+00
          2   -1    0    0  501    0  0.00000000000E+00  0.00000000000E+00  0.35908446663E+03  0.35908446663E+03  0.00000000000E+00 0. -1.
         -2   -1    0    0    0  501 -0.00000000000E+00 -0.00000000000E+00 -0.51668414685E+02  0.51668414685E+02  0.00000000000E+00 0.  1.
         25    2    1    2    0    0 -0.60613967635E+02 -0.54780088317E+02  0.14980836395E+03  0.21157722502E+03  0.12508982807E+03 0.  0.
         23    2    1    2    0    0  0.60613967635E+02  0.54780088317E+02  0.15760768799E+03  0.19917565629E+03  0.90309731470E+02 0.  0.
          5    1    3    3  502    0  0.86450490523E+01 -0.71409774623E+02  0.10493035060E+03  0.12728685581E+03  0.41800000000E+01 0. -1.
         -5    1    3    3    0  502 -0.69259016687E+02  0.16629686306E+02  0.44878013358E+02  0.84290369213E+02  0.41800000000E+01 0. -1.
        -11    1    4    4    0    0  0.37523977244E+02  0.79293727273E+02  0.10661060431E+03  0.13806290234E+03  0.00000000000E+00 0.  1.
         11    1    4    4    0    0  0.23089990391E+02 -0.24513638956E+02  0.50997083682E+02  0.61112753949E+02  0.00000000000E+00 0. -1.
</event>
<event>
 8    1  0.6869405E-009  0.7636658E+02  0.7561462E-02  0.1339691E+00
         -2   -1    0    0    0  501 -0.00000000000E+00  0.00000000000E+00  0.26083576328E+02  0.26083576328E+02  0.00000000000E+00 0. -1.
          2   -1    0    0  501    0  0.00000000000E+00 -0.00000000000E+00 -0.56820969250E+03  0.56820969250E+03  0.00000000000E+00 0.  1.
         25    2    1    2    0    0 -0.54433802173E+01 -0.14255841382E+02 -0.36332887272E+03  0.38455938445E+03  0.12508073798E+03 0.  0.
         23    2    1    2    0    0  0.54433802173E+01  0.14255841382E+02 -0.17879724345E+03  0.20973388438E+03  0.10856789852E+03 0.  0.
          5    1    3    3  502    0  0.23656956694E+02 -0.50310025162E+01 -0.35021241266E+03  0.35107145849E+03  0.41800000000E+01 0. -1.
         -5    1    3    3    0  502 -0.29100336911E+02 -0.92248388659E+01 -0.13116460064E+02  0.33487925959E+02  0.41800000000E+01 0. -1.
        -11    1    4    4    0    0 -0.15765550963E+02  0.51860017313E+02 -0.14532778136E+03  0.15510698898E+03  0.00000000000E+00 0.  1.
         11    1    4    4    0    0  0.21208931180E+02 -0.37604175931E+02 -0.33469462086E+02  0.54626895405E+02  0.00000000000E+00 0. -1.
</event>
<event>
 8    1  0.6869405E-009  0.1384542E+03  0.7561462E-02  0.1215424E+00
          1   -1    0    0  501    0  0.00000000000E+00  0.00000000000E+00  0.50905215027E+02  0.50905215027E+02  0.00000000000E+00 0. -1.
         -1   -1    0    0    0  501 -0.00000000000E+00 -0.00000000000E+00 -0.40228329384E+03  0.40228329384E+03  0.00000000000E+00 0.  1.
         25    2    1    2    0    0  0.95087004374E+02  0.59674987320E+01 -0.24575714564E+03  0.29175603101E+03  0.12509139681E+03 0.  0.
         23    2    1    2    0    0 -0.95087004374E+02 -0.59674987320E+01 -0.10562093317E+03  0.16143247786E+03  0.76338155212E+02 0.  0.
          5    1    3    3  502    0  0.11940347753E+03 -0.18556871480E+02 -0.17245190675E+03  0.21061500532E+03  0.41800000000E+01 0.  1.
         -5    1    3    3    0  502 -0.24316473154E+02  0.24524370212E+02 -0.73305238887E+02  0.81141025685E+02  0.41800000000E+01 0.  1.
        -11    1    4    4    0    0 -0.43440994294E+02  0.34600973945E+02 -0.38851859897E+02  0.67777683647E+02  0.00000000000E+00 0.  1.
         11    1    4    4    0    0 -0.51646010080E+02 -0.40568472677E+02 -0.66769073272E+02  0.93654794208E+02  0.00000000000E+00 0. -1.
</event>
<event>
 8    1  0.6869405E-009  0.1204725E+03  0.7561462E-02  0.1242320E+00
          1   -1    0    0  501    0  0.00000000000E+00  0.00000000000E+00  0.12087778466E+03  0.12087778466E+03  0.00000000000E+00 0. -1.
         -1   -1    0    0    0  501 -0.00000000000E+00 -0.00000000000E+00 -0.14970091209E+03  0.14970091209E+03  0.00000000000E+00 0.  1.
         25    2    1    2    0    0 -0.17301788554E+02  0.71478140283E+02  0.12895568933E+02  0.14566598097E+03  0.12507520094E+03 0.  0.
         23    2    1    2    0    0  0.17301788554E+02 -0.71478140283E+02 -0.41718696358E+02  0.12491271577E+03  0.91947052754E+02 0.  0.
          5    1    3    3  502    0  0.39159772034E+02  0.48566970511E+02 -0.31639743484E+02  0.70076987222E+02  0.41800000000E+01 0. -1.
         -5    1    3    3    0  502 -0.56461560588E+02  0.22911169771E+02  0.44535312417E+02  0.75588993752E+02  0.41800000000E+01 0. -1.
        -11    1    4    4    0    0 -0.23132251110E+02  0.10902377985E+02 -0.49234347066E+01  0.26042332777E+02  0.00000000000E+00 0. -1.
         11    1    4    4    0    0  0.40434039664E+02 -0.82380518267E+02 -0.36795261651E+02  0.98870382995E+02  0.00000000000E+00 0.  1.
</event>
<event>
 8    1  0.6869405E-009  0.1554401E+03  0.7561462E-02  0.1193943E+00
          1   -1    0    0  501    0  0.00000000000E+00  0.00000000000E+00  0.80805231159E+03  0.80805231159E+03  0.00000000000E+00 0. -1.
         -1   -1    0    0    0  501 -0.00000000000E+00 -0.00000000000E+00 -0.37480669654E+02  0.37480669654E+02  0.00000000000E+00 0.  1.
         25    2    1    2    0    0 -0.30946621553E+02 -0.12919756513E+03  0.34177502742E+03  0.38743611327E+03  0.12508744252E+03 0.  0.
         23    2    1    2    0    0  0.30946621553E+02  0.12919756513E+03  0.42879661452E+03  0.45809686798E+03  0.91304433666E+02 0.  0.
          5    1    3    3  502    0  0.44400126032E+02 -0.47394933535E+02  0.17711129007E+03  0.18868898321E+03  0.41800000000E+01 0.  1.
         -5    1    3    3    0  502 -0.75346747585E+02 -0.81802631592E+02  0.16466373735E+03  0.19874713005E+03  0.41800000000E+01 0.  1.
        -11    1    4    4    0    0  0.26852883507E+02  0.67061161371E+02  0.99461294610E+02  0.12292609911E+03  0.00000000000E+00 0.  1.
         11    1    4    4    0    0  0.40937380463E+01  0.62136403756E+02  0.32933531991E+03  0.33517076886E+03  0.00000000000E+00 0. -1.
</event>
<event>
 8    1  0.6869405E-009  0.1516519E+03  0.7561462E-02  0.1198458E+00
         -2   -1    0    0    0  501 -0.00000000000E+00  0.00000000000E+00  0.12369958362E+03  0.12369958362E+03  0.00000000000E+00 0. -1.
          2   -1    0    0  501    0  0.00000000000E+00 -0.00000000000E+00 -0.22667661735E+03  0.22667661735E+03  0.00000000000E+00 0.  1.
         25    2    1    2    0    0 -0.86458727448E+02  0.92984498960E+02 -0.37170696892E+02  0.18207144072E+03  0.12508844959E+03 0.  0.
         23    2    1    2    0    0  0.86458727448E+02 -0.92984498960E+02 -0.65806336839E+02  0.16830476025E+03  0.88740012144E+02 0.  0.
          5    1    3    3  502    0  0.68079158450E+01  0.58462141402E+02  0.25679372867E+02  0.64351163830E+02  0.41800000000E+01 0. -1.
         -5    1    3    3    0  502 -0.93266643293E+02  0.34522357558E+02 -0.62850069760E+02  0.11772027689E+03  0.41800000000E+01 0. -1.
        -11    1    4    4    0    0  0.97931092982E+02 -0.74678642237E+02 -0.30440062479E+02  0.12686211406E+03  0.00000000000E+00 0. -1.
         11    1    4    4    0    0 -0.11472365534E+02 -0.18305856723E+02 -0.35366274360E+02  0.41442646192E+02  0.00000000000E+00 0.  1.
</event>
<event>
 8    1  0.6869405E-009  0.9776102E+02  0.7561462E-02  0.1285076E+00
         -2   -1    0    0    0  501 -0.00000000000E+00  0.00000000000E+00  0.28395354520E+02  0.28395354520E+02  0.00000000000E+00 0.  1.
          2   -1    0    0  501    0  0.00000000000E+00 -0.00000000000E+00 -0.64350133991E+03  0.64350133991E+03  0.00000000000E+00 0. -1.
         25    2    1    2    0    0  0.13184543057E+02  0.36054659148E+02 -0.51162354346E+03  0.52808846972E+03  0.12508001841E+03 0.  0.
         23    2    1    2    0    0 -0.13184543057E+02 -0.36054659148E+02 -0.10348244193E+03  0.14380822471E+03  0.92186870458E+02 0.  0.
          5    1    3    3  502    0 -0.15408181677E+02  0.57690001395E+02 -0.46639404116E+03  0.47021954697E+03  0.41800000000E+01 0.  1.
         -5    1    3    3    0  502  0.28592724734E+02 -0.21635342247E+02 -0.45229502304E+02  0.57868922752E+02  0.41800000000E+01 0.  1.
        -11    1    4    4    0    0  0.37652505354E+02 -0.30441881201E+02 -0.55859813610E+02  0.73923866694E+02  0.00000000000E+00 0.  1.
         11    1    4    4    0    0 -0.50837048411E+02 -0.56127779476E+01 -0.47622628320E+02  0.69884358017E+02  0.00000000000E+00 0. -1.
</event>
<event>
 8    1  0.6869405E-009  0.1134427E+03  0.7561462E-02  0.1254324E+00
         -2   -1    0    0    0  501 -0.00000000000E+00  0.00000000000E+00  0.16494741836E+03  0.16494741836E+03  0.00000000000E+00 0.  1.
          2   -1    0    0  501    0  0.00000000000E+00 -0.00000000000E+00 -0.28326909934E+03  0.28326909934E+03  0.00000000000E+00 0. -1.
         25    2    1    2    0    0  0.10512844948E+03  0.25941698963E+01 -0.22182119460E+03  0.27550654241E+03  0.12506195236E+03 0.  0.
         23    2    1    2    0    0 -0.10512844948E+03 -0.25941698963E+01  0.10349951363E+03  0.17270997529E+03  0.89765615004E+02 0.  0.
          5    1    3    3  502    0  0.82960889754E+02 -0.12678712453E+02 -0.42568499659E+02  0.94195586635E+02  0.41800000000E+01 0.  1.
         -5    1    3    3    0  502  0.22167559724E+02  0.15272882349E+02 -0.17925269494E+03  0.18131095577E+03  0.41800000000E+01 0.  1.
        -11    1    4    4    0    0 -0.79984503465E+02 -0.23007746357E+02  0.11170313933E+03  0.13929992291E+03  0.00000000000E+00 0.  1.
         11    1    4    4    0    0 -0.25143946014E+02  0.20413576461E+02 -0.82036257078E+01  0.33410052377E+02  0.00000000000E+00 0. -1.
</event>
<event>
 8    1  0.6869405E-009  0.1086362E+03  0.7561462E-02  0.1263116E+00
          1   -1    0    0  501    0  0.00000000000E+00  0.00000000000E+00  0.51124823938E+03  0.51124823938E+03  0.00000000000E+00 0. -1.
         -1   -1    0    0    0  501 -0.00000000000E+00 -0.00000000000E+00 -0.26999403640E+02  0.26999403640E+02  0.00000000000E+00 0.  1.
         25    2    1    2    0    0  0.34177712379E+02  0.96211973852E+01  0.37145149752E+03  0.39355813520E+03  0.12510438565E+03 0.  0.
         23    2    1    2    0    0 -0.34177712379E+02 -0.96211973852E+01  0.11279733821E+03  0.14468950781E+03  0.83373441221E+02 0.  0.
          5    1    3    3  502    0 -0.46824545473E+02  0.93589120315E+01  0.11513933981E+03  0.12471835175E+03  0.41800000000E+01 0.  1.
         -5    1    3    3    0  502  0.81002257851E+02  0.26228535372E+00  0.25631215772E+03  0.26883978345E+03  0.41800000000E+01 0.  1.
        -11    1    4    4    0    0 -0.79470537199E+01 -0.44153841077E+02  0.40801704347E+02  0.60642364913E+02  0.00000000000E+00 0.  1.
         11    1    4    4    0    0 -0.26230658659E+02  0.34532643692E+02  0.71995633866E+02  0.84047142901E+02  0.00000000000E+00 0. -1.
</event>
<event>
 8    1  0.6869405E-009  0.1348674E+03  0.7561462E-02  0.1220407E+00
         -1   -1    0    0    0  501 -0.00000000000E+00  0.00000000000E+00  0.56780053105E+02  0.56780053105E+02  0.00000000000E+00 0.  1.
          1   -1    0    0  501    0  0.00000000000E+00 -0.00000000000E+00 -0.89928183692E+03  0.89928183692E+03  0.00000000000E+00 0. -1.
         25    2    1    2    0    0  0.69229683158E+02  0.94087652930E+02 -0.77404721467E+03  0.79273735807E+03  0.12505276039E+03 0.  0.
         23    2    1    2    0    0 -0.69229683158E+02 -0.94087652930E+02 -0.68454569142E+02  0.16332453195E+03  0.91343523231E+02 0.  0.
          5    1    3    3  502    0 -0.18952047866E+02  0.29476209635E+02 -0.43606575189E+03  0.43749153069E+03  0.41800000000E+01 0. -1.
         -5    1    3    3    0  502  0.88181731024E+02  0.64611443295E+02 -0.33798146278E+03  0.35524582739E+03  0.41800000000E+01 0. -1.
        -11    1    4    4    0    0 -0.70756869282E+02 -0.65512828541E+02 -0.83913049640E+01  0.96792971093E+02  0.00000000000E+00 0.  1.
         11    1    4    4    0    0  0.15271861237E+01 -0.28574824388E+02 -0.60063264178E+02  0.66531560857E+02  0.00000000000E+00 0. -1.
</event>
<event>
 8    1  0.6869405E-009  0.8214081E+02  0.7561462E-02  0.1323084E+00
          1   -1    0    0  501    0  0.00000000000E+00  0.00000000000E+00  0.16713767067E+03  0.16713767067E+03  0.00000000000E+00 0. -1.
         -1   -1    0    0    0  501 -0.00000000000E+00 -0.00000000000E+00 -0.88839306561E+02  0.88839306561E+02  0.00000000000E+00 0.  1.
         25    2    1    2    0    0 -0.22540236120E+02  0.39015747983E+02  0.99421402792E+01  0.13332737551E+03  0.12508817719E+03 0.  0.
         23    2    1    2    0    0  0.22540236120E+02 -0.39015747983E+02  0.68356223834E+02  0.12264960172E+03  0.91323932413E+02 0.  0.
          5    1    3    3  502    0  0.20203081218E+02  0.49364074305E+02 -0.39888050170E+02  0.66734588251E+02  0.41800000000E+01 0.  1.
         -5    1    3    3    0  502 -0.42743317338E+02 -0.10348326321E+02  0.49830190450E+02  0.66592787259E+02  0.41800000000E+01 0.  1.
        -11    1    4    4    0    0  0.35492155938E+02 -0.13470744615E+02 -0.99710689795E+01  0.39250175926E+02  0.00000000000E+00 0.  1.
         11    1    4    4    0    0 -0.12951919818E+02 -0.25545003368E+02  0.78327292813E+02  0.83399425798E+02  0.00000000000E+00 0. -1.
</event>
<event>
 8    1  0.6869405E-009  0.7558788E+02  0.7561462E-02  0.1342060E+00
         -3   -1    0    0    0  501 -0.00000000000E+00  0.00000000000E+00  0.78942471260E+02  0.78942471260E+02  0.00000000000E+00 0.  1.
          3   -1    0    0  501    0  0.00000000000E+00 -0.00000000000E+00 -0.18204551382E+03  0.18204551382E+03  0.00000000000E+00 0. -1.
         25    2    1    2    0    0 -0.31763014376E+02 -0.38386193266E+02 -0.70876651059E+02  0.15216234960E+03  0.12508993587E+03 0.  0.
         23    2    1    2    0    0  0.31763014376E+02  0.38386193266E+02 -0.32226391497E+02  0.10882563547E+03  0.91225488276E+02 0.  0.
          5    1    3    3  502    0 -0.14990843456E+02 -0.51717119966E+02 -0.10125293499E+03  0.11475632937E+03  0.41800000000E+01 0.  1.
         -5    1    3    3    0  502 -0.16772170920E+02  0.13330926700E+02  0.30376283936E+02  0.37406020235E+02  0.41800000000E+01 0.  1.
        -11    1    4    4    0    0 -0.15426361911E+02  0.16070522839E+01  0.22776170367E+02  0.27555565598E+02  0.00000000000E+00 0.  1.
         11    1    4    4    0    0  0.47189376287E+02  0.36779140982E+02 -0.55002561864E+02  0.81270069873E+02  0.00000000000E+00 0. -1.
</event>
<event>
 8    1  0.6869405E-009  0.2575760E+03  0.7561462E-02  0.1108608E+00
          2   -1    0    0  501    0  0.00000000000E+00  0.00000000000E+00  0.13523403719E+04  0.13523403719E+04  0.00000000000E+00 0. -1.
         -2   -1    0    0    0  501 -0.00000000000E+00 -0.00000000000E+00 -0.64485675188E+02  0.64485675188E+02  0.00000000000E+00 0.  1.
         25    2    1    2    0    0  0.11212977566E+03 -0.21026732580E+03  0.97695012118E+03  0.10133434085E+04  0.12509152376E+03 0.  0.
         23    2    1    2    0    0 -0.11212977566E+03  0.21026732580E+03  0.31090457556E+03  0.40348263865E+03  0.96701342809E+02 0.  0.
          5    1    3    3  502    0  0.99152982719E+02 -0.80014226659E+02  0.34103169923E+03  0.36407922590E+03  0.41800000000E+01 0.  1.
         -5    1    3    3    0  502  0.12976792941E+02 -0.13025309914E+03  0.63591842195E+03  0.64926418256E+03  0.41800000000E+01 0.  1.
        -11    1    4    4    0    0  0.97552843197E+01  0.70871474189E+02  0.97741933250E+02  0.12112562463E+03  0.00000000000E+00 0. -1.
         11    1    4    4    0    0 -0.12188505998E+03  0.13939585161E+03  0.21316264231E+03  0.28235701402E+03  0.00000000000E+00 0.  1.
</event>
<event>
 8    1  0.6869405E-009  0.8746476E+02  0.7561462E-02  0.1309110E+00
         -2   -1    0    0    0  501 -0.00000000000E+00  0.00000000000E+00  0.72123232796E+02  0.72123232796E+02  0.00000000000E+00 0.  1.
          2   -1    0    0  501    0  0.00000000000E+00 -0.00000000000E+00 -0.17161438205E+03  0.17161438205E+03  0.00000000000E+00 0. -1.
         25    2    1    2    0    0  0.17462645844E+02 -0.40265316617E+01 -0.67370753320E+02  0.14320455561E+03  0.12509024497E+03 0.  0.
         23    2    1    2    0    0 -0.17462645844E+02  0.40265316617E+01 -0.32120395932E+02  0.10053305924E+03  0.93562915775E+02 0.  0.
          5    1    3    3  502    0 -0.22203893078E+02 -0.53944313376E+02 -0.14461473810E+02  0.60246231734E+02  0.41800000000E+01 0.  1.
         -5    1    3    3    0  502  0.39666538922E+02  0.49917781714E+02 -0.52909279510E+02  0.82958323871E+02  0.41800000000E+01 0.  1.
        -11    1    4    4    0    0 -0.23886386009E+02 -0.17804706949E+02  0.25098358465E+02  0.38955033356E+02  0.00000000000E+00 0.  1.
         11    1    4    4    0    0  0.64237401653E+01  0.21831238611E+02 -0.57218754398E+02  0.61578025884E+02  0.00000000000E+00 0. -1.
</event>
<event>
 8    1  0.6869405E-009  0.8376755E+02  0.7561462E-02  0.1318687E+00
         -1   -1    0    0    0  501 -0.00000000000E+00  0.00000000000E+00  0.39248208573E+03  0.39248208573E+03  0.00000000000E+00 0.  1.
          1   -1    0    0  501    0  0.00000000000E+00 -0.00000000000E+00 -0.34070351400E+02  0.34070351400E+02  0.00000000000E+00 0. -1.
         25    2    1    2    0    0 -0.15790709180E+02  0.32077314961E+02  0.15791410522E+03  0.20460425043E+03  0.12509090308E+03 0.  0.
         23    2    1    2    0    0  0.15790709180E+02 -0.32077314961E+02  0.20049762910E+03  0.22194818670E+03  0.88223566419E+02 0.  0.
          5    1    3    3  502    0 -0.41238788995E+02  0.34496523141E+02  0.10509972777E+02  0.54941603129E+02  0.41800000000E+01 0. -1.
         -5    1    3    3    0  502  0.25448079815E+02 -0.24192081799E+01  0.14740413245E+03  0.14966264730E+03  0.41800000000E+01 0. -1.
        -11    1    4    4    0    0  0.17597620787E+02  0.25015084619E+02  0.11593122803E+03  0.11989779126E+03  0.00000000000E+00 0.  1.
         11    1    4    4    0    0 -0.18069116075E+01 -0.57092399580E+02  0.84566401070E+02  0.10205039544E+03  0.00000000000E+00 0. -1.
</event>
<event>
 8    1  0.6869405E-009  0.1508466E+03  0.7561462E-02  0.1199437E+00
         -3   -1    0    0    0  501 -0.00000000000E+00  0.00000000000E+00  0.14343266359E+03  0.14343266359E+03  0.00000000000E+00 0.  1.
          3   -1    0    0  501    0  0.00000000000E+00 -0.00000000000E+00 -0.16351109270E+03  0.16351109270E+03  0.00000000000E+00 0. -1.
         25    2    1    2    0    0  0.66401255478E+02  0.80855135801E+02 -0.27300154701E+02  0.16534564615E+03  0.12508878662E+03 0.  0.
         23    2    1    2    0    0 -0.66401255478E+02 -0.80855135801E+02  0.72217255835E+01  0.14159811015E+03  0.95137751508E+02 0.  0.
          5    1    3    3  502    0 -0.33078929350E+02  0.98411844457E+00 -0.16584827011E+02  0.37252019315E+02  0.41800000000E+01 0. -1.
         -5    1    3    3    0  502  0.99480184829E+02  0.79871017356E+02 -0.10715327690E+02  0.12809362683E+03  0.41800000000E+01 0. -1.
        -11    1    4    4    0    0  0.52469561675E+01 -0.67630287716E+02 -0.36564138285E+01  0.67931993403E+02  0.00000000000E+00 0. -1.
         11    1    4    4    0    0 -0.71648211646E+02 -0.13224848084E+02  0.10878139412E+02  0.73666116743E+02  0.00000000000E+00 0.  1.
</event>
<event>
 8    1  0.6869405E-009  0.8810231E+02  0.7561462E-02  0.1307513E+00
          2   -1    0    0  501    0  0.00000000000E+00  0.00000000000E+00  0.68340365597E+03  0.68340365597E+03  0.00000000000E+00 0. -1.
         -2   -1    0    0    0  501 -0.00000000000E+00 -0.00000000000E+00 -0.27771738908E+02  0.27771738908E+02  0.00000000000E+00 0.  1.
         25    2    1    2    0    0  0.55327778193E+02  0.38424349863E+02  0.48753477950E+03  0.50781392366E+03  0.12508887295E+03 0.  0.
         23    2    1    2    0    0 -0.55327778193E+02 -0.38424349863E+02  0.16809713756E+03  0.20336147122E+03  0.92529166311E+02 0.  0.
          5    1    3    3  502    0  0.26897510686E+02  0.52060650554E+02  0.46532769365E+03  0.46902145185E+03  0.41800000000E+01 0.  1.
         -5    1    3    3    0  502  0.28430267507E+02 -0.13636300692E+02  0.22207085851E+02  0.38792471809E+02  0.41800000000E+01 0.  1.
        -11    1    4    4    0    0  0.10085594199E+02 -0.10397025754E+02 -0.56941643730E+01  0.15564088884E+02  0.00000000000E+00 0.  1.
         11    1    4    4    0    0 -0.65413372392E+02 -0.28027324109E+02  0.17379130193E+03  0.18779738233E+03  0.00000000000E+00 0. -1.
</event>
<event>
 8    1  0.6869405E-009  0.3936740E+03  0.7561462E-02  0.1045992E+00
         -2   -1    0    0    0  501 -0.00000000000E+00  0.00000000000E+00  0.11650028731E+03  0.11650028731E+03  0.00000000000E+00 0.  1.
          2   -1    0    0  501    0  0.00000000000E+00 -0.00000000000E+00 -0.20813230818E+04  0.20813230818E+04  0.00000000000E+00 0. -1.
         25    2    1    2    0    0 -0.36966910233E+03  0.10946653076E+03 -0.16288042570E+04  0.16784783807E+04  0.12509276655E+03 0.  0.
         23    2    1    2    0    0  0.36966910233E+03 -0.10946653076E+03 -0.33601853742E+03  0.51934498835E+03  0.90402394083E+02 0.  0.
          5    1    3    3  502    0 -0.14744054376E+03 -0.37780796482E+01 -0.77758701574E+03  0.79146195567E+03  0.41800000000E+01 0. -1.
         -5    1    3    3    0  502 -0.22222855857E+03  0.11324461041E+03 -0.85121724130E+03  0.88701642506E+03  0.41800000000E+01 0. -1.
        -11    1    4    4    0    0  0.27240515374E+03 -0.51845094074E+02 -0.27646285896E+03  0.39156633403E+03  0.00000000000E+00 0.  1.
         11    1    4    4    0    0  0.97263948593E+02 -0.57621436688E+02 -0.59555678461E+02  0.12777865432E+03  0.00000000000E+00 0. -1.
</event>
<event>
 8    1  0.6869405E-009  0.7318023E+02  0.7561462E-02  0.1349601E+00
         -2   -1    0    0    0  501 -0.00000000000E+00  0.00000000000E+00  0.30177667987E+02  0.30177667987E+02  0.00000000000E+00 0.  1.
          2   -1    0    0  501    0  0.00000000000E+00 -0.00000000000E+00 -0.37202205615E+03  0.37202205615E+03  0.00000000000E+00 0. -1.
         25    2    1    2    0    0 -0.37421957239E+01  0.40876208620E+01 -0.18419947394E+03  0.22272391566E+03  0.12508310730E+03 0.  0.
         23    2    1    2    0    0  0.37421957239E+01 -0.40876208620E+01 -0.15764491422E+03  0.17947580848E+03  0.85609194459E+02 0.  0.
          5    1    3    3  502    0 -0.13796731730E+01  0.37700173695E+02 -0.18490729752E+03  0.18876278147E+03  0.41800000000E+01 0.  1.
         -5    1    3    3    0  502 -0.23625225509E+01 -0.33612552833E+02  0.70782357696E+00  0.33961134183E+02  0.41800000000E+01 0.  1.
        -11    1    4    4    0    0  0.38406338295E+02 -0.89814662053E+01 -0.12688491991E+03  0.13287398713E+03  0.00000000000E+00 0. -1.
         11    1    4    4    0    0 -0.34664142571E+02  0.48938453433E+01 -0.30759994308E+02  0.46601821341E+02  0.00000000000E+00 0.  1.
</event>
<event>
 8    1  0.6869405E-009  0.2681984E+03  0.7561462E-02  0.1102315E+00
          2   -1    0    0  501    0  0.00000000000E+00  0.00000000000E+00  0.82340504227E+03  0.82340504227E+03  0.00000000000E+00 0. -1.
         -2   -1    0    0    0  501 -0.00000000000E+00 -0.00000000000E+00 -0.90437999149E+02  0.90437999149E+02  0.00000000000E+00 0.  1.
         25    2    1    2    0    0 -0.60038880634E+02 -0.24281866604E+03  0.38243741109E+03  0.47378027611E+03  0.12507519682E+03 0.  0.
         23    2    1    2    0    0  0.60038880634E+02  0.24281866604E+03  0.35052963202E+03  0.44006276531E+03  0.90656730156E+02 0.  0.
          5    1    3    3  502    0  0.31522231339E+02 -0.12976968646E+03  0.16873799701E+03  0.21522966019E+03  0.41800000000E+01 0. -1.
         -5    1    3    3    0  502 -0.91561111973E+02 -0.11304897958E+03  0.21369941408E+03  0.25855061591E+03  0.41800000000E+01 0. -1.
        -11    1    4    4    0    0  0.10460790426E+02  0.11205959863E+01  0.50635977331E+02  0.51717367218E+02  0.00000000000E+00 0. -1.
         11    1    4    4    0    0  0.49578090208E+02  0.24169807005E+03  0.29989365469E+03  0.38834539809E+03  0.00000000000E+00 0.  1.
</event>
<event>
 8    1  0.6869405E-009  0.1244419E+03  0.7561462E-02  0.1235944E+00
         -1   -1    0    0    0  501 -0.00000000000E+00  0.00000000000E+00  0.14113375301E+03  0.14113375301E+03  0.00000000000E+00 0.  1.
          1   -1    0    0  501    0  0.00000000000E+00 -0.00000000000E+00 -0.16905490479E+03  0.16905490479E+03  0.00000000000E+00 0. -1.
         25    2    1    2    0    0  0.94444935019E+02 -0.55345950337E+02 -0.41766724329E+02  0.17138859806E+03  0.12508625950E+03 0.  0.
         23    2    1    2    0    0 -0.94444935019E+02  0.55345950337E+02  0.13845572549E+02  0.13880005973E+03  0.84206512418E+02 0.  0.
          5    1    3    3  502    0  0.16140949154E+02 -0.23472668348E+01 -0.70495599682E+02  0.72478561490E+02  0.41800000000E+01 0. -1.
         -5    1    3    3    0  502  0.78303985865E+02 -0.52998683502E+02  0.28728875353E+02  0.98910036570E+02  0.41800000000E+01 0. -1.
        -11    1    4    4    0    0 -0.87757139621E+02  0.63900463868E+01  0.15584051030E+02  0.89358888163E+02  0.00000000000E+00 0.  1.
         11    1    4    4    0    0 -0.66877953978E+01  0.48955903950E+02 -0.17384784810E+01  0.49441171571E+02  0.00000000000E+00 0. -1.
</event>
<event>
 8    1  0.6869405E-009  0.1057252E+03  0.7561462E-02  0.1268697E+00
          2   -1    0    0  501    0  0.00000000000E+00  0.00000000000E+00  0.12417049735E+03  0.12417049735E+03  0.00000000000E+00 0.  1.
         -2   -1    0    0    0  501 -0.00000000000E+00 -0.00000000000E+00 -0.11328838571E+03  0.11328838571E+03  0.00000000000E+00 0. -1.
         25    2    1    2    0    0 -0.40363629285E+02  0.44414789201E+02  0.29146885681E+01  0.13877793192E+03  0.12509565504E+03 0.  0.
         23    2    1    2    0    0  0.40363629285E+02 -0.44414789201E+02  0.79674230657E+01  0.98680951143E+02  0.77926595071E+02 0.  0.
          5    1    3    3  502    0  0.22069688087E+02  0.46179626285E+02  0.40818055505E+02  0.65598895351E+02  0.41800000000E+01 0.  1.
         -5    1    3    3    0  502 -0.62433317372E+02 -0.17648370838E+01 -0.37903366937E+02  0.73179036569E+02  0.41800000000E+01 0.  1.
        -11    1    4    4    0    0  0.55652820247E+02 -0.57830646647E+01  0.10998947857E+02  0.57023303064E+02  0.00000000000E+00 0. -1.
         11    1    4    4    0    0 -0.15289190962E+02 -0.38631724537E+02 -0.30315247916E+01  0.41657648079E+02  0.00000000000E+00 0.  1.
</event>
<event>
 8    1  0.6869405E-009  0.8049741E+02  0.7561462E-02  0.1327646E+00
          1   -1    0    0  501    0  0.00000000000E+00  0.00000000000E+00  0.14636356807E+03  0.14636356807E+03  0.00000000000E+00 0. -1.
         -1   -1    0    0    0  501 -0.00000000000E+00 -0.00000000000E+00 -0.83244495488E+02  0.83244495488E+02  0.00000000000E+00 0.  1.
         25    2    1    2    0    0 -0.91744657591E+01  0.26688079986E+01  0.46719252839E+02  0.13387435937E+03  0.12509341371E+03 0.  0.
         23    2    1    2    0    0  0.91744657591E+01 -0.26688079986E+01  0.16399819746E+02  0.95733704188E+02  0.93833334544E+02 0.  0.
          5    1    3    3  502    0  0.46008796016E+02 -0.21049718748E+01  0.60973570314E+02  0.76527700176E+02  0.41800000000E+01 0. -1.
         -5    1    3    3    0  502 -0.55183261775E+02  0.47737798734E+01 -0.14254317475E+02  0.57346659197E+02  0.41800000000E+01 0. -1.
        -11    1    4    4    0    0  0.28777019312E+02 -0.18323329197E+02  0.45784513952E+02  0.57097136103E+02  0.00000000000E+00 0. -1.
         11    1    4    4    0    0 -0.19602553553E+02  0.15654521198E+02 -0.29384694206E+02  0.38636568084E+02  0.00000000000E+00 0.  1.
</event>
<event>
 8    1  0.6869405E-009  0.1220586E+03  0.7561462E-02  0.1239739E+00
          2   -1    0    0  501    0  0.00000000000E+00  0.00000000000E+00  0.16126955199E+04  0.16126955199E+04  0.00000000000E+00 0. -1.
         -2   -1    0    0    0  501 -0.00000000000E+00 -0.00000000000E+00 -0.12519886753E+02  0.12519886753E+02  0.00000000000E+00 0.  1.
         25    2    1    2    0    0 -0.50418247611E+02 -0.60324173686E+02  0.11212618465E+04  0.11309539948E+04  0.12509118366E+03 0.  0.
         23    2    1    2    0    0  0.50418247611E+02  0.60324173686E+02  0.47891378660E+03  0.49426141184E+03  0.93567743473E+02 0.  0.
          5    1    3    3  502    0 -0.59108249333E+02 -0.85909843286E+02  0.10398326950E+04  0.10450568369E+04  0.41800000000E+01 0.  1.
         -5    1    3    3    0  502  0.86900017226E+01  0.25585669599E+02  0.81429151506E+02  0.85897157891E+02  0.41800000000E+01 0.  1.
        -11    1    4    4    0    0  0.99883021160E+01  0.70106502206E+02  0.38627318504E+03  0.39271065852E+03  0.00000000000E+00 0. -1.
         11    1    4    4    0    0  0.40429945495E+02 -0.97823285201E+01  0.92640601557E+02  0.10155075332E+03  0.00000000000E+00 0.  1.
</event>
<event>
 8    1  0.6869405E-009  0.3527289E+03  0.7561462E-02  0.1061501E+00
          2   -1    0    0  501    0  0.00000000000E+00  0.00000000000E+00  0.20169306553E+03  0.20169306553E+03  0.00000000000E+00 0. -1.
         -2   -1    0    0    0  501 -0.00000000000E+00 -0.00000000000E+00 -0.79118994841E+03  0.79118994841E+03  0.00000000000E+00 0.  1.
         25    2    1    2    0    0  0.21150085059E+03 -0.27600537416E+03 -0.50148360404E+03  0.62293196843E+03  0.12508739267E+03 0.  0.
         23    2    1    2    0    0 -0.21150085059E+03  0.27600537416E+03 -0.88013278845E+02  0.36995104551E+03  0.90586215607E+02 0.  0.
          5    1    3    3  502    0  0.70456866204E+02 -0.41810867320E+02 -0.52975296459E+02  0.97653331004E+02  0.41800000000E+01 0. -1.
         -5    1    3    3    0  502  0.14104398438E+03 -0.23419450684E+03 -0.44850830758E+03  0.52527863743E+03  0.41800000000E+01 0. -1.
        -11    1    4    4    0    0 -0.48910876700E+02  0.93914153344E+02 -0.66163606942E+02  0.12485898022E+03  0.00000000000E+00 0.  1.
         11    1    4    4    0    0 -0.16258997389E+03  0.18209122082E+03 -0.21849671902E+02  0.24509206529E+03  0.00000000000E+00 0. -1.
</event>
<event>
 8    1  0.6869405E-009  0.2002222E+03  0.7561462E-02  0.1149552E+00
          2   -1    0    0  501    0  0.00000000000E+00  0.00000000000E+00  0.80006693665E+03  0.80006693665E+03  0.00000000000E+00 0. -1.
         -2   -1    0    0    0  501 -0.00000000000E+00 -0.00000000000E+00 -0.65050063707E+02  0.65050063707E+02  0.00000000000E+00 0.  1.
         25    2    1    2    0    0 -0.80655697595E+02  0.16292718014E+03  0.22071552120E+03  0.31211103439E+03  0.12508936368E+03 0.  0.
         23    2    1    2    0    0  0.80655697595E+02 -0.16292718014E+03  0.51430135175E+03  0.55300596597E+03  0.90879647959E+02 0.  0.
          5    1    3    3  502    0 -0.90780429285E+02  0.82103039609E+02  0.18769369487E+03  0.22411691357E+03  0.41800000000E+01 0.  1.
         -5    1    3    3    0  502  0.10124731691E+02  0.80824140528E+02  0.33021826327E+02  0.87994120814E+02  0.41800000000E+01 0.  1.
        -11    1    4    4    0    0  0.34575514232E+02 -0.14136807984E+03  0.30994785007E+03  0.34241505508E+03  0.00000000000E+00 0.  1.
         11    1    4    4    0    0  0.46080183362E+02 -0.21559100298E+02  0.20435350167E+03  0.21059091089E+03  0.00000000000E+00 0. -1.
</event>
<event>
 8    1  0.6869405E-009  0.1166485E+03  0.7561462E-02  0.1248731E+00
          1   -1    0    0  501    0  0.00000000000E+00  0.00000000000E+00  0.98410997551E+03  0.98410997551E+03  0.00000000000E+00 0. -1.
         -1   -1    0    0    0  501 -0.00000000000E+00 -0.00000000000E+00 -0.29580383643E+02  0.29580383643E+02  0.00000000000E+00 0.  1.
         25    2    1    2    0    0  0.29007325304E+02 -0.75391971640E+02  0.81732240539E+03  0.83077613635E+03  0.12509076734E+03 0.  0.
         23    2    1    2    0    0 -0.29007325304E+02  0.75391971640E+02  0.13720718648E+03  0.18291422280E+03  0.90035696101E+02 0.  0.
          5    1    3    3  502    0  0.45369260825E+02  0.13143560186E+02  0.14796584696E+03  0.15537852898E+03  0.41800000000E+01 0.  1.
         -5    1    3    3    0  502 -0.16361935522E+02 -0.88535531826E+02  0.66935655843E+03  0.67539760737E+03  0.41800000000E+01 0.  1.
        -11    1    4    4    0    0 -0.42781912792E+02  0.43530574449E+02  0.25868603406E+02  0.66290177373E+02  0.00000000000E+00 0.  1.
         11    1    4    4    0    0  0.13774587488E+02  0.31861397192E+02  0.11133858307E+03  0.11662404543E+03  0.00000000000E+00 0. -1.
</event>
<event>
 8    1  0.6869405E-009  0.1293578E+03  0.7561462E-02  0.1228412E+00
         -3   -1    0    0    0  501 -0.00000000000E+00  0.00000000000E+00  0.42311562053E+02  0.42311562053E+02  0.00000000000E+00 0.  1.
          3   -1    0    0  501    0  0.00000000000E+00 -0.00000000000E+00 -0.43010533027E+03  0.43010533027E+03  0.00000000000E+00 0. -1.
         25    2    1    2    0    0 -0.70833712082E+02 -0.31626133799E+02 -0.25266013885E+03  0.29241243478E+03  0.12510099578E+03 0.  0.
         23    2    1    2    0    0  0.70833712082E+02  0.31626133799E+02 -0.13513362937E+03  0.18000445755E+03  0.90127020606E+02 0.  0.
          5    1    3    3  502    0  0.16722979828E+02 -0.48319176935E+02 -0.53219429532E+02  0.73920098713E+02  0.41800000000E+01 0. -1.
         -5    1    3    3    0  502 -0.87556691910E+02  0.16693043135E+02 -0.19944070931E+03  0.21849233607E+03  0.41800000000E+01 0. -1.
        -11    1    4    4    0    0  0.20930786505E+02  0.58054924007E+02 -0.60568350110E+02  0.86469630855E+02  0.00000000000E+00 0.  1.
         11    1    4    4    0    0  0.49902925577E+02 -0.26428790207E+02 -0.74565279263E+02  0.93534826694E+02  0.00000000000E+00 0. -1.
</event>
<event>
 8    1  0.6869405E-009  0.1010201E+03  0.7561462E-02  0.1278165E+00
          4   -1    0    0  501    0  0.00000000000E+00  0.00000000000E+00  0.27487419225E+02  0.27487419225E+02  0.00000000000E+00 0. -1.
         -4   -1    0    0    0  501 -0.00000000000E+00 -0.00000000000E+00 -0.55367940781E+03  0.55367940781E+03  0.00000000000E+00 0.  1.
         25    2    1    2    0    0  0.17570497190E+02 -0.39893602819E+02 -0.39071089031E+03  0.41255536109E+03  0.12508678683E+03 0.  0.
         23    2    1    2    0    0 -0.17570497190E+02  0.39893602819E+02 -0.13548109827E+03  0.16861146594E+03  0.90412811818E+02 0.  0.
          5    1    3    3  502    0 -0.48809718779E+02 -0.43739831071E+02 -0.18356260279E+03  0.19495707992E+03  0.41800000000E+01 0.  1.
         -5    1    3    3    0  502  0.66380215969E+02  0.38462282527E+01 -0.20714828752E+03  0.21759828117E+03  0.41800000000E+01 0.  1.
        -11    1    4    4    0    0 -0.31817513430E+02  0.52013343907E+01 -0.12581786667E+03  0.12988280723E+03  0.00000000000E+00 0.  1.
         11    1    4    4    0    0  0.14247016240E+02  0.34692268428E+02 -0.96632315969E+01  0.38728658708E+02  0.00000000000E+00 0. -1.
</event>
<event>
 8    1  0.6869405E-009  0.5573530E+02  0.7561462E-02  0.1416653E+00
          1   -1    0    0  501    0  0.00000000000E+00  0.00000000000E+00  0.42819691850E+03  0.42819691850E+03  0.00000000000E+00 0. -1.
         -1   -1    0    0    0  501 -0.00000000000E+00 -0.00000000000E+00 -0.29581355509E+02  0.29581355509E+02  0.00000000000E+00 0.  1.
         25    2    1    2    0    0 -0.25670920175E+02  0.10617483276E+02  0.21219442808E+03  0.24789795777E+03  0.12512072196E+03 0.  0.
         23    2    1    2    0    0  0.25670920175E+02 -0.10617483276E+02  0.18642113491E+03  0.20988031624E+03  0.92331904072E+02 0.  0.
          5    1    3    3  502    0 -0.19469223046E+02  0.17790400968E+02 -0.76756981670E+01  0.27783767832E+02  0.41800000000E+01 0.  1.
         -5    1    3    3    0  502 -0.62016971293E+01 -0.71729176919E+01  0.21987012625E+03  0.22011418994E+03  0.41800000000E+01 0.  1.
        -11    1    4    4    0    0  0.14377760452E+02 -0.40224996769E+02  0.16774352469E+03  0.17309725716E+03  0.00000000000E+00 0. -1.
         11    1    4    4    0    0  0.11293159724E+02  0.29607513493E+02  0.18677610223E+02  0.36783059082E+02  0.00000000000E+00 0.  1.
</event>
<event>
 7    1  0.6869405E-009  0.5726145E+02  0.7561462E-02  0.1409697E+00
         -1   -1    0    0    0  501 -0.00000000000E+00  0.00000000000E+00  0.50124007776E+02  0.50124007776E+02  0.00000000000E+00 0.  1.
          1   -1    0    0  501    0  0.00000000000E+00 -0.00000000000E+00 -0.31042230515E+03  0.31042230515E+03  0.00000000000E+00 0. -1.
         23    2    1    2    0    0  0.18305712004E+02  0.21576762380E+02 -0.38264187067E+02  0.10418465297E+03  0.92680300684E+02 0.  0.
          5    1    1    2  502    0 -0.33783969919E+01 -0.34225542002E+02 -0.12443979122E+01  0.34667307621E+02  0.41800000000E+01 0. -1.
         -5    1    1    2    0  502 -0.14927315012E+02  0.12648779621E+02 -0.22078971240E+03  0.22169435234E+03  0.41800000000E+01 0. -1.
        -11    1    3    3    0    0  0.21399052487E+01 -0.17474825456E+02 -0.55735974812E+02  0.58450385862E+02  0.00000000000E+00 0. -1.
         11    1    3    3    0    0  0.16165806755E+02  0.39051587836E+02  0.17471787745E+02  0.45734267104E+02  0.00000000000E+00 0.  1.
</event>
<event>
 8    1  0.6869405E-009  0.1169906E+03  0.7561462E-02  0.1248146E+00
          1   -1    0    0  501    0  0.00000000000E+00  0.00000000000E+00  0.42224724415E+02  0.42224724415E+02  0.00000000000E+00 0. -1.
         -1   -1    0    0    0  501 -0.00000000000E+00 -0.00000000000E+00 -0.41996205541E+03  0.41996205541E+03  0.00000000000E+00 0.  1.
         25    2    1    2    0    0 -0.76049631944E+02  0.32453056283E+02 -0.24359524547E+03  0.28604763924E+03  0.12509141024E+03 0.  0.
         23    2    1    2    0    0  0.76049631944E+02 -0.32453056283E+02 -0.13414208552E+03  0.17613914059E+03  0.78702924708E+02 0.  0.
          5    1    3    3  502    0 -0.80861298556E+02  0.69805050445E+02 -0.20892491858E+03  0.23468785370E+03  0.41800000000E+01 0.  1.
         -5    1    3    3    0  502  0.48116666120E+01 -0.37351994161E+02 -0.34670326898E+02  0.51359785539E+02  0.41800000000E+01 0.  1.
        -11    1    4    4    0    0  0.42987613895E+02 -0.35813775972E+02 -0.13137304511E+03  0.14279159106E+03  0.00000000000E+00 0.  1.
         11    1    4    4    0    0  0.33062018049E+02  0.33607196888E+01 -0.27690404126E+01  0.33347549522E+02  0.00000000000E+00 0. -1.
</event>
<event>
 8    1  0.6869405E-009  0.2278402E+03  0.7561462E-02  0.1128169E+00
         -2   -1    0    0    0  501 -0.00000000000E+00  0.00000000000E+00  0.28960348313E+03  0.28960348313E+03  0.00000000000E+00 0.  1.
          2   -1    0    0  501    0  0.00000000000E+00 -0.00000000000E+00 -0.29216148068E+03  0.29216148068E+03  0.00000000000E+00 0. -1.
         25    2    1    2    0    0  0.20510317778E+03 -0.89261384005E+02 -0.15310258600E+03  0.29853324353E+03  0.12508711941E+03 0.  0.
         23    2    1    2    0    0 -0.20510317778E+03  0.89261384005E+02  0.15054458844E+03  0.28323172029E+03  0.86727308603E+02 0.  0.
          5    1    3    3  502    0  0.40076552666E+02 -0.34097228533E+01  0.19357294927E+02  0.44832282458E+02  0.41800000000E+01 0. -1.
         -5    1    3    3    0  502  0.16502662511E+03 -0.85851661152E+02 -0.17245988092E+03  0.25370096107E+03  0.41800000000E+01 0. -1.
        -11    1    4    4    0    0 -0.15174419414E+03  0.40900620925E+02  0.13995510158E+03  0.21044379703E+03  0.00000000000E+00 0.  1.
         11    1    4    4    0    0 -0.53358983636E+02  0.48360763080E+02  0.10589486858E+02  0.72787923258E+02  0.00000000000E+00 0. -1.
</event>
<event>
 8    1  0.6869405E-009  0.9646195E+02  0.7561462E-02  0.1287917E+00
         -2   -1    0    0    0  501 -0.00000000000E+00  0.00000000000E+00  0.44485827781E+02  0.44485827781E+02  0.00000000000E+00 0.  1.
          2   -1    0    0  501    0  0.00000000000E+00 -0.00000000000E+00 -0.35717973898E+03  0.35717973898E+03  0.00000000000E+00 0. -1.
         25    2    1    2    0    0  0.23617038465E+01 -0.27219776306E+02 -0.82424079883E+02  0.15227612584E+03  0.12509114952E+03 0.  0.
         23    2    1    2    0    0 -0.23617038465E+01  0.27219776306E+02 -0.23026983132E+03  0.24938944093E+03  0.91784552967E+02 0.  0.
          5    1    3    3  502    0  0.15136065520E+02  0.40089162437E+02  0.24463416001E+01  0.43124220706E+02  0.41800000000E+01 0. -1.
         -5    1    3    3    0  502 -0.12774361674E+02 -0.67308938742E+02 -0.84870421483E+02  0.10915190513E+03  0.41800000000E+01 0. -1.
        -11    1    4    4    0    0  0.35269520128E+02  0.25571113589E+02 -0.55233390399E+02  0.70345918966E+02  0.00000000000E+00 0.  1.
         11    1    4    4    0    0 -0.37631223974E+02  0.16486627173E+01 -0.17503644092E+03  0.17904352196E+03  0.00000000000E+00 0. -1.
</event>
<event>
 8    1  0.6869405E-009  0.1215501E+03  0.7561462E-02  0.1240562E+00
          1   -1    0    0  501    0  0.00000000000E+00  0.00000000000E+00  0.15174519293E+03  0.15174519293E+03  0.00000000000E+00 0. -1.
         -1   -1    0    0    0  501 -0.00000000000E+00 -0.00000000000E+00 -0.11176248569E+03  0.11176248569E+03  0.00000000000E+00 0.  1.
         25    2    1    2    0    0 -0.41598461057E+02  0.57286867321E+02  0.14059856113E+02  0.14442006405E+03  0.12508900118E+03 0.  0.
         23    2    1    2    0    0  0.41598461057E+02 -0.57286867321E+02  0.25922851129E+02  0.11908761457E+03  0.92182691456E+02 0.  0.
          5    1    3    3  502    0 -0.22821035353E+02 -0.31388184251E+02 -0.24222617163E+02  0.45937189154E+02  0.41800000000E+01 0.  1.
         -5    1    3    3    0  502 -0.18777425705E+02  0.88675051572E+02  0.38282473276E+02  0.98482874894E+02  0.41800000000E+01 0.  1.
        -11    1    4    4    0    0  0.29411672652E+02 -0.81270229646E+02  0.80782323285E+01  0.86805268000E+02  0.00000000000E+00 0.  1.
         11    1    4    4    0    0  0.12186788405E+02  0.23983362326E+02  0.17844618800E+02  0.32282346572E+02  0.00000000000E+00 0. -1.
</event>
<event>
 8    1  0.6869405E-009  0.8256983E+02  0.7561462E-02  0.1321913E+00
         -1   -1    0    0    0  501 -0.00000000000E+00  0.00000000000E+00  0.93611324010E+02  0.93611324010E+02  0.00000000000E+00 0.  1.
          1   -1    0    0  501    0  0.00000000000E+00 -0.00000000000E+00 -0.17428658556E+03  0.17428658556E+03  0.00000000000E+00 0. -1.
         25    2    1    2    0    0  0.30080276718E+02  0.16161684004E+02 -0.10761104246E+03  0.16850808936E+03  0.12509523030E+03 0.  0.
         23    2    1    2    0    0 -0.30080276718E+02 -0.16161684004E+02  0.26935780911E+02  0.99389820210E+02  0.89368769662E+02 0.  0.
          5    1    3    3  502    0 -0.19546521761E+01 -0.33091633117E+02 -0.10428979334E+03  0.10951123341E+03  0.41800000000E+01 0.  1.
         -5    1    3    3    0  502  0.32034928894E+02  0.49253317121E+02 -0.33212491221E+01  0.58996855953E+02  0.41800000000E+01 0.  1.
        -11    1    4    4    0    0  0.20252942213E+02 -0.10857706032E+01  0.40351188250E+02  0.45161697922E+02  0.00000000000E+00 0.  1.
         11    1    4    4    0    0 -0.50333218930E+02 -0.15075913401E+02 -0.13415407339E+02  0.54228122288E+02  0.00000000000E+00 0. -1.
</event>
<event>
 7    1  0.6869405E-009  0.2121237E+03  0.7561462E-02  0.1139895E+00
         -1   -1    0    0    0  501 -0.00000000000E+00  0.00000000000E+00  0.23415602141E+03  0.23415602141E+03  0.00000000000E+00 0.  1.
          1   -1    0    0  501    0  0.00000000000E+00 -0.00000000000E+00 -0.23755511429E+03  0.23755511429E+03  0.00000000000E+00 0. -1.
         23    2    1    2    0    0 -0.14025993965E+03 -0.12682005126E+03 -0.86164235917E+02  0.23038525965E+03  0.99483246030E+02 0.  0.
          5    1    1    2  502    0 -0.94706712517E+01  0.53585855745E+02 -0.13145149801E+01  0.54592471088E+02  0.41800000000E+01 0. -1.
         -5    1    1    2    0  502  0.14973061090E+03  0.73234195519E+02  0.84079658017E+02  0.18673340496E+03  0.41800000000E+01 0. -1.
        -11    1    3    3    0    0 -0.59173763297E+02 -0.10237586318E+03 -0.85103863917E+02  0.14568808901E+03  0.00000000000E+00 0. -1.
         11    1    3    3    0    0 -0.81086176354E+02 -0.24444188084E+02 -0.10603720000E+01  0.84697170647E+02  0.00000000000E+00 0.  1.
</event>
<event>
 8    1  0.6869405E-009  0.2053245E+03  0.7561462E-02  0.1145323E+00
          1   -1    0    0  501    0  0.00000000000E+00  0.00000000000E+00  0.73284665487E+03  0.73284665487E+03  0.00000000000E+00 0. -1.
         -1   -1    0    0    0  501 -0.00000000000E+00 -0.00000000000E+00 -0.68353213636E+02  0.68353213636E+02  0.00000000000E+00 0.  1.
         25    2    1    2    0    0  0.14734659686E+03 -0.11282581171E+03  0.23479194689E+03  0.32436907785E+03  0.12508939582E+03 0.  0.
         23    2    1    2    0    0 -0.14734659686E+03  0.11282581171E+03  0.42970149435E+03  0.47683079066E+03  0.91013983988E+02 0.  0.
          5    1    3    3  502    0 -0.13297986136E+02  0.42772759323E+01  0.52940592049E+02  0.54911840355E+02  0.41800000000E+01 0.  1.
         -5    1    3    3    0  502  0.16064458299E+03 -0.11710308765E+03  0.18185135484E+03  0.26945723750E+03  0.41800000000E+01 0.  1.
        -11    1    4    4    0    0 -0.10554370888E+03  0.39248833115E+02  0.17192187647E+03  0.20551661002E+03  0.00000000000E+00 0.  1.
         11    1    4    4    0    0 -0.41802887980E+02  0.73576978598E+02  0.25777961788E+03  0.27131418064E+03  0.00000000000E+00 0. -1.
</event>
<event>
 8    1  0.6869405E-009  0.2302375E+03  0.7561462E-02  0.1126473E+00
         -1   -1    0    0    0  501 -0.00000000000E+00  0.00000000000E+00  0.39639517897E+03  0.39639517897E+03  0.00000000000E+00 0.  1.
          1   -1    0    0  501    0  0.00000000000E+00 -0.00000000000E+00 -0.13931696825E+03  0.13931696825E+03  0.00000000000E+00 0. -1.
         25    2    1    2    0    0  0.16868989338E+03 -0.11889081653E+03  0.16449619322E+03  0.29205808609E+03  0.12509045402E+03 0.  0.
         23    2    1    2    0    0 -0.16868989338E+03  0.11889081653E+03  0.92582017507E+02  0.24365406112E+03  0.90579054711E+02 0.  0.
          5    1    3    3  502    0  0.59857597043E+02  0.16603882752E+02  0.71848198412E+02  0.95069747350E+02  0.41800000000E+01 0. -1.
         -5    1    3    3    0  502  0.10883229633E+03 -0.13549469929E+03  0.92647994803E+02  0.19698833874E+03  0.41800000000E+01 0. -1.
        -11    1    4    4    0    0 -0.10007093118E+03  0.11935421826E+03  0.74700517233E+02  0.17274196930E+03  0.00000000000E+00 0.  1.
         11    1    4    4    0    0 -0.68618962200E+02 -0.46340172534E+00  0.17881500273E+02  0.70912091822E+02  0.00000000000E+00 0. -1.
</event>
<event>
 8    1  0.6869405E-009  0.9944236E+02  0.7561462E-02  0.1281473E+00
         -2   -1    0    0    0  501 -0.00000000000E+00  0.00000000000E+00  0.37784696059E+02  0.37784696059E+02  0.00000000000E+00 0.  1.
          2   -1    0    0  501    0  0.00000000000E+00 -0.00000000000E+00 -0.44384150565E+03  0.44384150565E+03  0.00000000000E+00 0. -1.
         25    2    1    2    0    0 -0.23304105903E+02 -0.29969666933E+02 -0.33629670941E+03  0.36079900636E+03  0.12505672292E+03 0.  0.
         23    2    1    2    0    0  0.23304105903E+02  0.29969666933E+02 -0.69760100183E+02  0.12082719535E+03  0.91057549217E+02 0.  0.
          5    1    3    3  502    0 -0.61810068583E+02 -0.22426429585E+02 -0.90991784395E+02  0.11234058283E+03  0.41800000000E+01 0. -1.
         -5    1    3    3    0  502  0.38505962680E+02 -0.75432373480E+01 -0.24530492501E+03  0.24845842354E+03  0.41800000000E+01 0. -1.
        -11    1    4    4    0    0 -0.33983664450E+01  0.56085779354E+02 -0.60042696239E+02  0.82233137553E+02  0.00000000000E+00 0. -1.
         11    1    4    4    0    0  0.26702472348E+02 -0.26116112420E+02 -0.97174039437E+01  0.38594057792E+02  0.00000000000E+00 0.  1.
</event>
<event>
 8    1  0.6869405E-009  0.1108748E+03  0.7561462E-02  0.1258958E+00
         -3   -1    0    0    0  501 -0.00000000000E+00  0.00000000000E+00  0.12658936625E+03  0.12658936625E+03  0.00000000000E+00 0.  1.
          3   -1    0    0  501    0  0.00000000000E+00 -0.00000000000E+00 -0.21329582151E+03  0.21329582151E+03  0.00000000000E+00 0. -1.
         25    2    1    2    0    0  0.11053824146E+03  0.55755421938E+01  0.11109239403E+02  0.16739974846E+03  0.12509784606E+03 0.  0.
         23    2    1    2    0    0 -0.11053824146E+03 -0.55755421938E+01 -0.97815694663E+02  0.17248543929E+03  0.89070349442E+02 0.  0.
          5    1    3    3  502    0  0.65308834914E+02  0.20803753638E+01  0.68078809295E+02  0.94455113967E+02  0.41800000000E+01 0. -1.
         -5    1    3    3    0  502  0.45229406548E+02  0.34951668299E+01 -0.56969569892E+02  0.72944634495E+02  0.41800000000E+01 0. -1.
        -11    1    4    4    0    0 -0.22053894786E+02  0.59885745096E-01 -0.78770279801E+02  0.81799357219E+02  0.00000000000E+00 0. -1.
         11    1    4    4    0    0 -0.88484346677E+02 -0.56354279389E+01 -0.19045414862E+02  0.90686082075E+02  0.00000000000E+00 0.  1.
</event>
<event>
 8    1  0.6869405E-009  0.1242594E+03  0.7561462E-02  0.1236231E+00
          2   -1    0    0  501    0  0.00000000000E+00  0.00000000000E+00  0.66482254902E+03  0.66482254902E+03  0.00000000000E+00 0. -1.
         -2   -1    0    0    0  501 -0.00000000000E+00 -0.00000000000E+00 -0.27816271003E+02  0.27816271003E+02  0.00000000000E+00 0.  1.
         25    2    1    2    0    0 -0.72032006659E+02  0.42722927152E+02  0.35596737745E+03  0.38648805571E+03  0.12508551040E+03 0.  0.
         23    2    1    2    0    0  0.72032006659E+02 -0.42722927152E+02  0.28103890057E+03  0.30615076431E+03  0.87929337361E+02 0.  0.
          5    1    3    3  502    0 -0.47293329346E+02  0.87071327472E+02  0.22141828840E+03  0.24261410904E+03  0.41800000000E+01 0.  1.
         -5    1    3    3    0  502 -0.24738677313E+02 -0.44348400320E+02  0.13454908904E+03  0.14387394666E+03  0.41800000000E+01 0.  1.
        -11    1    4    4    0    0  0.30148404307E+02  0.93492107176E+01  0.21610577894E+02  0.38253772366E+02  0.00000000000E+00 0.  1.
         11    1    4    4    0    0  0.41883602351E+02 -0.52072137870E+02  0.25942832268E+03  0.26789699195E+03  0.00000000000E+00 0. -1.
</event>
<event>
 8    1  0.6869405E-009  0.1120847E+03  0.7561462E-02  0.1256757E+00
          2   -1    0    0  501    0  0.00000000000E+00  0.00000000000E+00  0.11606592665E+03  0.11606592665E+03  0.00000000000E+00 0. -1.
         -2   -1    0    0    0  501 -0.00000000000E+00 -0.00000000000E+00 -0.11535683651E+03  0.11535683651E+03  0.00000000000E+00 0.  1.
         25    2    1    2    0    0  0.28787392655E+02 -0.22512591718E+02  0.25410406563E+02  0.13278485174E+03  0.12510234742E+03 0.  0.
         23    2    1    2    0    0 -0.28787392655E+02  0.22512591718E+02 -0.24701316422E+02  0.98637911408E+02  0.88225573233E+02 0.  0.
          5    1    3    3  502    0 -0.40689347491E+02  0.21869942383E+02 -0.10327126333E+00  0.46383191395E+02  0.41800000000E+01 0. -1.
         -5    1    3    3    0  502  0.69476740146E+02 -0.44382534101E+02  0.25513677826E+02  0.86401660347E+02  0.41800000000E+01 0. -1.
        -11    1    4    4    0    0 -0.53724150101E+02 -0.96047520822E+01 -0.10565516643E+02  0.55589258931E+02  0.00000000000E+00 0.  1.
         11    1    4    4    0    0  0.24936757445E+02  0.32117343800E+02 -0.14135799779E+02  0.43048652477E+02  0.00000000000E+00 0. -1.
</event>
<event>
 8    1  0.6869405E-009  0.1873925E+03  0.7561462E-02  0.1160834E+00
          1   -1    0    0  501    0  0.00000000000E+00  0.00000000000E+00  0.98724335587E+03  0.98724335587E+03  0.00000000000E+00 0. -1.
         -1   -1    0    0    0  501 -0.00000000000E+00 -0.00000000000E+00 -0.44315419174E+02  0.44315419174E+02  0.00000000000E+00 0.  1.
         25    2    1    2    0    0 -0.17816003762E+03 -0.80790043356E+01  0.51988160144E+03  0.56367628784E+03  0.12509120131E+03 0.  0.
         23    2    1    2    0    0  0.17816003762E+03  0.80790043356E+01  0.42304633525E+03  0.46788248720E+03  0.90219458751E+02 0.  0.
          5    1    3    3  502    0 -0.13519110887E+03 -0.34714957952E+01  0.20377865151E+03  0.24460559767E+03  0.41800000000E+01 0.  1.
         -5    1    3    3    0  502 -0.42968928753E+02 -0.46075085404E+01  0.31610294993E+03  0.31907069017E+03  0.41800000000E+01 0.  1.
        -11    1    4    4    0    0  0.11534802858E+03 -0.34248348047E+02  0.30204895442E+03  0.32513333865E+03  0.00000000000E+00 0.  1.
         11    1    4    4    0    0  0.62812009048E+02  0.42327352383E+02  0.12099738084E+03  0.14274914854E+03  0.00000000000E+00 0. -1.
</event>
<event>
 8    1  0.6869405E-009  0.4324313E+03  0.7561462E-02  0.1033095E+00
         -1   -1    0    0    0  501 -0.00000000000E+00  0.00000000000E+00  0.89537078012E+02  0.89537078012E+02  0.00000000000E+00 0.  1.
          1   -1    0    0  501    0  0.00000000000E+00 -0.00000000000E+00 -0.22291561491E+04  0.22291561491E+04  0.00000000000E+00 0. -1.
         25    2    1    2    0    0 -0.37910526334E+03 -0.18829310458E+03 -0.13199966599E+04  0.13918382856E+04  0.12509011635E+03 0.  0.
         23    2    1    2    0    0  0.37910526334E+03  0.18829310458E+03 -0.81962241120E+03  0.92685494151E+03  0.90022729048E+02 0.  0.
          5    1    3    3  502    0 -0.66740226373E+02  0.14190039367E+02 -0.23578061687E+03  0.24549050231E+03  0.41800000000E+01 0. -1.
         -5    1    3    3    0  502 -0.31236503697E+03 -0.20248314395E+03 -0.10842160430E+04  0.11463477833E+04  0.41800000000E+01 0. -1.
        -11    1    4    4    0    0  0.36935306967E+03  0.17785978030E+03 -0.74002317022E+03  0.84598468307E+03  0.00000000000E+00 0.  1.
         11    1    4    4    0    0  0.97521936744E+01  0.10433324275E+02 -0.79599240979E+02  0.80870258447E+02  0.00000000000E+00 0. -1.
</event>
<event>
 8    1  0.6869405E-009  0.9637644E+02  0.7561462E-02  0.1288106E+00
          3   -1    0    0  501    0  0.00000000000E+00  0.00000000000E+00  0.12303614011E+02  0.12303614011E+02  0.00000000000E+00 0. -1.
         -3   -1    0    0    0  501 -0.00000000000E+00 -0.00000000000E+00 -0.14846121207E+04  0.14846121207E+04  0.00000000000E+00 0.  1.
         25    2    1    2    0    0  0.28709299044E+02 -0.14606319656E+02 -0.12110938980E+04  0.12179626081E+04  0.12508763574E+03 0.  0.
         23    2    1    2    0    0 -0.28709299044E+02  0.14606319656E+02 -0.26121460867E+03  0.27895312655E+03  0.92434877657E+02 0.  0.
          5    1    3    3  502    0  0.46395882367E+02  0.43781322509E+02 -0.46617336284E+03  0.47053635218E+03  0.41800000000E+01 0. -1.
         -5    1    3    3    0  502 -0.17686583323E+02 -0.58387642165E+02 -0.74492053514E+03  0.74742625594E+03  0.41800000000E+01 0. -1.
        -11    1    4    4    0    0 -0.63349328617E+01 -0.23031944017E+02 -0.13580841228E+02  0.27478010627E+02  0.00000000000E+00 0. -1.
         11    1    4    4    0    0 -0.22374366182E+02  0.37638263673E+02 -0.24763376744E+03  0.25147511593E+03  0.00000000000E+00 0.  1.
</event>
<event>
 8    1  0.6869405E-009  0.1143981E+03  0.7561462E-02  0.1252635E+00
          1   -1    0    0  501    0  0.00000000000E+00  0.00000000000E+00  0.22680488575E+03  0.22680488575E+03  0.00000000000E+00 0. -1.
         -1   -1    0    0    0  501 -0.00000000000E+00 -0.00000000000E+00 -0.86770420350E+02  0.86770420350E+02  0.00000000000E+00 0.  1.
         25    2    1    2    0    0  0.95843083653E+01  0.61668286454E+02  0.11724392688E+02  0.14029270294E+03  0.12509893922E+03 0.  0.
         23    2    1    2    0    0 -0.95843083653E+01 -0.61668286454E+02  0.12831007271E+03  0.17328260316E+03  0.98328781530E+02 0.  0.
          5    1    3    3  502    0  0.48219488990E+02 -0.16213210214E+02 -0.62278621477E+01  0.51422232262E+02  0.41800000000E+01 0. -1.
         -5    1    3    3    0  502 -0.38635180624E+02  0.77881496668E+02  0.17952254836E+02  0.88870470679E+02  0.41800000000E+01 0. -1.
        -11    1    4    4    0    0 -0.38054168512E+02 -0.35810451272E+02  0.12402660853E+03  0.13458494635E+03  0.00000000000E+00 0. -1.
         11    1    4    4    0    0  0.28469860147E+02 -0.25857835181E+02  0.42834641855E+01  0.38697656809E+02  0.00000000000E+00 0.  1.
</event>
<event>
 8    1  0.6869405E-009  0.4448172E+02  0.7561462E-02  0.1477603E+00
         -2   -1    0    0    0  501 -0.00000000000E+00  0.00000000000E+00  0.51316395365E+02  0.51316395365E+02  0.00000000000E+00 0.  1.
          2   -1    0    0  501    0  0.00000000000E+00 -0.00000000000E+00 -0.29412983278E+03  0.29412983278E+03  0.00000000000E+00 0. -1.
         25    2    1    2    0    0 -0.30485578310E+02  0.26704343245E+02 -0.19313842500E+03  0.23365070548E+03  0.12509080112E+03 0.  0.
         23    2    1    2    0    0  0.30485578310E+02 -0.26704343245E+02 -0.49675012418E+02  0.11179552267E+03  0.91586787243E+02 0.  0.
          5    1    3    3  502    0 -0.30347254016E+02  0.23681217981E+02  0.16873298230E+01  0.38756617413E+02  0.41800000000E+01 0. -1.
         -5    1    3    3    0  502 -0.13832429349E+00  0.30231252642E+01 -0.19482575482E+03  0.19489408806E+03  0.41800000000E+01 0. -1.
        -11    1    4    4    0    0  0.17902417879E+02 -0.27116565360E+02 -0.75978113249E+02  0.82634607616E+02  0.00000000000E+00 0. -1.
         11    1    4    4    0    0  0.12583160431E+02  0.41222211484E+00  0.26303100831E+02  0.29160915055E+02  0.00000000000E+00 0.  1.
</event>
<event>
 8    1  0.6869405E-009  0.8707244E+02  0.7561462E-02  0.1310100E+00
         -2   -1    0    0    0  501 -0.00000000000E+00  0.00000000000E+00  0.14010969345E+03  0.14010969345E+03  0.00000000000E+00 0.  1.
          2   -1    0    0  501    0  0.00000000000E+00 -0.00000000000E+00 -0.11456091900E+03  0.11456091900E+03  0.00000000000E+00 0. -1.
         25    2    1    2    0    0  0.56621402150E+00  0.27225826888E+02  0.74862810428E+02  0.14830251526E+03  0.12509048485E+03 0.  0.
         23    2    1    2    0    0 -0.56621402150E+00 -0.27225826888E+02 -0.49314035982E+02  0.10636809719E+03  0.90226003500E+02 0.  0.
          5    1    3    3  502    0  0.18384938803E+02 -0.43718952916E+02  0.64236783458E+01  0.48042573436E+02  0.41800000000E+01 0. -1.
         -5    1    3    3    0  502 -0.17818724781E+02  0.70944779805E+02  0.68439132082E+02  0.10025994182E+03  0.41800000000E+01 0. -1.
        -11    1    4    4    0    0 -0.23104851082E+02 -0.11707487034E+02 -0.68310507709E+02  0.73056312935E+02  0.00000000000E+00 0. -1.
         11    1    4    4    0    0  0.22538637061E+02 -0.15518339854E+02  0.18996471727E+02  0.33311784258E+02  0.00000000000E+00 0.  1.
</event>
<event>
 8    1  0.6869405E-009  0.1534116E+03  0.7561462E-02  0.1196342E+00
         -2   -1    0    0    0  501 -0.00000000000E+00  0.00000000000E+00  0.94569769796E+02  0.94569769796E+02  0.00000000000E+00 0. -1.
          2   -1    0    0  501    0  0.00000000000E+00 -0.00000000000E+00 -0.31249028879E+03  0.31249028879E+03  0.00000000000E+00 0.  1.
         25    2    1    2    0    0  0.11894460030E+03 -0.50893737197E+02 -0.78533121412E+02  0.19634967525E+03  0.12509098044E+03 0.  0.
         23    2    1    2    0    0 -0.11894460030E+03  0.50893737197E+02 -0.13938739758E+03  0.21071038333E+03  0.90730527469E+02 0.  0.
          5    1    3    3  502    0  0.14614302771E+02 -0.66530118230E+02 -0.65304016155E+01  0.68556203384E+02  0.41800000000E+01 0. -1.
         -5    1    3    3    0  502  0.10433029753E+03  0.15636381033E+02 -0.72002719797E+02  0.12779347187E+03  0.41800000000E+01 0. -1.
        -11    1    4    4    0    0 -0.78808357020E+02  0.49041546915E+02 -0.14287616053E+03  0.17038024448E+03  0.00000000000E+00 0.  1.
         11    1    4    4    0    0 -0.40136243277E+02  0.18521902821E+01  0.34887629514E+01  0.40330138856E+02  0.00000000000E+00 0. -1.
</event>
<event>
 8    1  0.6869405E-009  0.1533392E+03  0.7561462E-02  0.1196429E+00
         -2   -1    0    0    0  501 -0.00000000000E+00  0.00000000000E+00  0.31701639008E+03  0.31701639008E+03  0.00000000000E+00 0.  1.
          2   -1    0    0  501    0  0.00000000000E+00 -0.00000000000E+00 -0.11028494772E+03  0.11028494772E+03  0.00000000000E+00 0. -1.
         25    2    1    2    0    0  0.70505408372E+02 -0.13482025261E+03  0.10956508997E+03  0.22538715625E+03  0.12508936061E+03 0.  0.
         23    2    1    2    0    0 -0.70505408372E+02  0.13482025261E+03  0.97166352395E+02  0.20191418155E+03  0.90446246731E+02 0.  0.
          5    1    3    3  502    0  0.19660705579E+02 -0.28799334609E+02 -0.27604569059E+02  0.44670232266E+02  0.41800000000E+01 0.  1.
         -5    1    3    3    0  502  0.50844702793E+02 -0.10602091800E+03  0.13716965903E+03  0.18071692398E+03  0.41800000000E+01 0.  1.
        -11    1    4    4    0    0 -0.40966889550E+02  0.53503968656E+02  0.93589167015E+02  0.11532516154E+03  0.00000000000E+00 0.  1.
         11    1    4    4    0    0 -0.29538518821E+02  0.81316283956E+02  0.35771853799E+01  0.86589020007E+02  0.00000000000E+00 0. -1.
</event>
<event>
 8    1  0.6869405E-009  0.1072305E+03  0.7561462E-02  0.1265786E+00
          2   -1    0    0  501    0  0.00000000000E+00  0.00000000000E+00  0.10673454886E+03  0.10673454886E+03  0.00000000000E+00 0.  1.
         -2   -1    0    0    0  501 -0.00000000000E+00 -0.00000000000E+00 -0.25692572017E+03  0.25692572017E+03  0.00000000000E+00 0. -1.
         25    2    1    2    0    0  0.75957941688E+01 -0.73689549189E+00  0.56258917359E+02  0.13738176935E+03  0.12510174125E+03 0.  0.
         23    2    1    2    0    0 -0.75957941688E+01  0.73689549189E+00 -0.20645008866E+03  0.22627849967E+03  0.92315119023E+02 0.  0.
          5    1    3    3  502    0  0.64167044917E+02 -0.76809380972E+01  0.45710640085E+02  0.79267531060E+02  0.41800000000E+01 0. -1.
         -5    1    3    3    0  502 -0.56571250748E+02  0.69440426054E+01  0.10548277274E+02  0.58114238293E+02  0.41800000000E+01 0. -1.
        -11    1    4    4    0    0 -0.23290617366E+02 -0.41447127372E+02 -0.11069010465E+03  0.12046832153E+03  0.00000000000E+00 0.  1.
         11    1    4    4    0    0  0.15694823198E+02  0.42184022864E+02 -0.95759984018E+02  0.10581017815E+03  0.00000000000E+00 0. -1.
</event>
<event>
 8    1  0.6869405E-009  0.1466118E+03  0.7561462E-02  0.1204699E+00
         -2   -1    0    0    0  501 -0.00000000000E+00  0.00000000000E+00  0.10505929854E+03  0.10505929854E+03  0.00000000000E+00 0.  1.
          2   -1    0    0  501    0  0.00000000000E+00 -0.00000000000E+00 -0.44280975411E+03  0.44280975411E+03  0.00000000000E+00 0. -1.
         25    2    1    2    0    0 -0.12362521593E+03 -0.16329540768E+02 -0.35070187849E+03  0.39266918198E+03  0.12508969175E+03 0.  0.
         23    2    1    2    0    0  0.12362521593E+03  0.16329540768E+02  0.12951422919E+02  0.15519987068E+03  0.91484493698E+02 0.  0.
          5    1    3    3  502    0 -0.55090257697E+02  0.31457262917E+02 -0.26649088309E+03  0.27396963163E+03  0.41800000000E+01 0. -1.
         -5    1    3    3    0  502 -0.68534958237E+02 -0.47786803685E+02 -0.84210995396E+02  0.11869955035E+03  0.41800000000E+01 0. -1.
        -11    1    4    4    0    0  0.44810558164E+02  0.43669957612E+02 -0.19725772338E+02  0.65606077578E+02  0.00000000000E+00 0.  1.
         11    1    4    4    0    0  0.78814657770E+02 -0.27340416844E+02  0.32677195257E+02  0.89593793103E+02  0.00000000000E+00 0. -1.
</event>
<event>
 8    1  0.6869405E-009  0.1305884E+03  0.7561462E-02  0.1226585E+00
         -2   -1    0    0    0  501 -0.00000000000E+00  0.00000000000E+00  0.93132099402E+02  0.93132099402E+02  0.00000000000E+00 0.  1.
          2   -1    0    0  501    0  0.00000000000E+00 -0.00000000000E+00 -0.30043752275E+03  0.30043752275E+03  0.00000000000E+00 0. -1.
         25    2    1    2    0    0  0.10606257813E+03  0.51176709820E+02 -0.55204055612E+02  0.18045324314E+03  0.12509020384E+03 0.  0.
         23    2    1    2    0    0 -0.10606257813E+03 -0.51176709820E+02 -0.15210136774E+03  0.21311637901E+03  0.91735700949E+02 0.  0.
          5    1    3    3  502    0  0.54435554220E+02  0.40237667041E+02 -0.93218384658E+02  0.11527982933E+03  0.41800000000E+01 0.  1.
         -5    1    3    3    0  502  0.51627023910E+02  0.10939042778E+02  0.38014329046E+02  0.65173413809E+02  0.41800000000E+01 0.  1.
        -11    1    4    4    0    0 -0.28047094543E+02 -0.55602483268E+02 -0.32486884979E+02  0.70240112141E+02  0.00000000000E+00 0.  1.
         11    1    4    4    0    0 -0.78015483587E+02  0.44257734486E+01 -0.11961448276E+03  0.14287626687E+03  0.00000000000E+00 0. -1.
</event>
<event>
 8    1  0.6869405E-009  0.1222940E+03  0.7561462E-02  0.1239360E+00
          2   -1    0    0  501    0  0.00000000000E+00  0.00000000000E+00  0.16362427746E+04  0.16362427746E+04  0.00000000000E+00 0. -1.
         -2   -1    0    0    0  501 -0.00000000000E+00 -0.00000000000E+00 -0.12139320229E+02  0.12139320229E+02  0.00000000000E+00 0.  1.
         25    2    1    2    0    0  0.65606010841E+02 -0.41526760888E+02  0.11193258643E+04  0.11289668011E+04  0.12508807719E+03 0.  0.
         23    2    1    2    0    0 -0.65606010841E+02  0.41526760888E+02  0.50477759010E+03  0.51941529371E+03  0.94674238064E+02 0.  0.
          5    1    3    3  502    0 -0.24609462163E+02 -0.11131871714E+02  0.67357579463E+02  0.72691540820E+02  0.41800000000E+01 0. -1.
         -5    1    3    3    0  502  0.90215473004E+02 -0.30394889174E+02  0.10519682848E+04  0.10562752603E+04  0.41800000000E+01 0. -1.
        -11    1    4    4    0    0 -0.85170430233E+01 -0.29577901746E+02  0.14822574195E+03  0.15138778970E+03  0.00000000000E+00 0. -1.
         11    1    4    4    0    0 -0.57088967818E+02  0.71104662634E+02  0.35655184814E+03  0.36802750401E+03  0.00000000000E+00 0.  1.
</event>
<event>
 8    1  0.6869405E-009  0.1238165E+03  0.7561462E-02  0.1236931E+00
         -2   -1    0    0    0  501 -0.00000000000E+00  0.00000000000E+00  0.17247839847E+03  0.17247839847E+03  0.00000000000E+00 0. -1.
          2   -1    0    0  501    0  0.00000000000E+00 -0.00000000000E+00 -0.29577761130E+03  0.29577761130E+03  0.00000000000E+00 0.  1.
         25    2    1    2    0    0 -0.38823614150E+02  0.10460311203E+03 -0.22959083774E+03  0.28426728616E+03  0.12508738204E+03 0.  0.
         23    2    1    2    0    0  0.38823614150E+02 -0.10460311203E+03  0.10629162492E+03  0.18398872361E+03  0.10052291692E+03 0.  0.
          5    1    3    3  502    0 -0.48202210612E+02  0.89845365158E+02 -0.70185225017E+02  0.12385104343E+03  0.41800000000E+01 0. -1.
         -5    1    3    3    0  502  0.93785964618E+01  0.14757746868E+02 -0.15940561273E+03  0.16041624273E+03  0.41800000000E+01 0. -1.
        -11    1    4    4    0    0 -0.16479621733E+02 -0.14831522984E+02 -0.12257815245E+02  0.25333891155E+02  0.00000000000E+00 0.  1.
         11    1    4    4    0    0  0.55303235883E+02 -0.89771589041E+02  0.11854944016E+03  0.15865483245E+03  0.00000000000E+00 0. -1.
</event>
<event>
 8    1  0.6869405E-009  0.6811340E+02  0.7561462E-02  0.1366629E+00
         -1   -1    0    0    0  501 -0.00000000000E+00  0.00000000000E+00  0.11489257264E+03  0.11489257264E+03  0.00000000000E+00 0.  1.
          1   -1    0    0  501    0  0.00000000000E+00 -0.00000000000E+00 -0.10654696691E+03  0.10654696691E+03  0.00000000000E+00 0. -1.
         25    2    1    2    0    0 -0.72907863114E+01  0.55711121282E+01  0.24834938306E+02  0.12786348106E+03  0.12509237696E+03 0.  0.
         23    2    1    2    0    0  0.72907863114E+01 -0.55711121282E+01 -0.16489332582E+02  0.93576058486E+02  0.91653629374E+02 0.  0.
          5    1    3    3  502    0 -0.46722808546E+02  0.12277038518E+02 -0.32104236894E+02  0.58154113696E+02  0.41800000000E+01 0. -1.
         -5    1    3    3    0  502  0.39432022234E+02 -0.67059263895E+01  0.56939175200E+02  0.69709367367E+02  0.41800000000E+01 0. -1.
        -11    1    4    4    0    0  0.15424907397E+02  0.17340828476E+02  0.31884073103E+02  0.39436356551E+02  0.00000000000E+00 0.  1.
         11    1    4    4    0    0 -0.81341210855E+01 -0.22911940604E+02 -0.48373405684E+02  0.54139701935E+02  0.00000000000E+00 0. -1.
</event>
<event>
 8    1  0.6869405E-009  0.9017468E+02  0.7561462E-02  0.1302429E+00
         -4   -1    0    0    0  501 -0.00000000000E+00  0.00000000000E+00  0.37117774325E+03  0.37117774325E+03  0.00000000000E+00 0.  1.
          4   -1    0    0  501    0  0.00000000000E+00 -0.00000000000E+00 -0.34460866917E+02  0.34460866917E+02  0.00000000000E+00 0. -1.
         25    2    1    2    0    0  0.16453979266E+01  0.34529951530E+02  0.14489808793E+03  0.19451983738E+03  0.12508991311E+03 0.  0.
         23    2    1    2    0    0 -0.16453979266E+01 -0.34529951530E+02  0.19181878840E+03  0.21111877279E+03  0.81127453753E+02 0.  0.
          5    1    3    3  502    0  0.23658411758E+02 -0.21660873402E+02 -0.51325780684E+01  0.32752551673E+02  0.41800000000E+01 0.  1.
         -5    1    3    3    0  502 -0.22013013832E+02  0.56190824933E+02  0.15003066600E+03  0.16176728571E+03  0.41800000000E+01 0.  1.
        -11    1    4    4    0    0  0.31057907484E+02 -0.43636413451E+02  0.10434387341E+03  0.11728757017E+03  0.00000000000E+00 0.  1.
         11    1    4    4    0    0 -0.32703305411E+02  0.91064619212E+01  0.87474914985E+02  0.93831202620E+02  0.00000000000E+00 0. -1.
</event>
<event>
 8    1  0.6869405E-009  0.1297464E+03  0.7561462E-02  0.1227833E+00
          2   -1    0    0  501    0  0.00000000000E+00  0.00000000000E+00  0.76333480620E+03  0.76333480620E+03  0.00000000000E+00 0. -1.
         -2   -1    0    0    0  501 -0.00000000000E+00 -0.00000000000E+00 -0.24442468803E+02  0.24442468803E+02  0.00000000000E+00 0.  1.
         25    2    1    2    0    0 -0.45465186013E+02  0.63990823918E+02  0.48653331042E+03  0.50845143473E+03  0.12508513361E+03 0.  0.
         23    2    1    2    0    0  0.45465186013E+02 -0.63990823918E+02  0.25235902698E+03  0.27932584027E+03  0.90420892831E+02 0.  0.
          5    1    3    3  502    0  0.35076861494E+02 -0.40476825253E+01  0.19937458923E+03  0.20252029325E+03  0.41800000000E+01 0.  1.
         -5    1    3    3    0  502 -0.80542047507E+02  0.68038506444E+02  0.28715872118E+03  0.30593114148E+03  0.41800000000E+01 0.  1.
        -11    1    4    4    0    0  0.13839542500E+02 -0.81230316403E+02  0.19358745532E+03  0.21039486708E+03  0.00000000000E+00 0. -1.
         11    1    4    4    0    0  0.31625643513E+02  0.17239492485E+02  0.58771571663E+02  0.68930973187E+02  0.00000000000E+00 0.  1.
</event>
<event>
 8    1  0.6869405E-009  0.1665127E+03  0.7561462E-02  0.1181534E+00
          2   -1    0    0  501    0  0.00000000000E+00  0.00000000000E+00  0.86383294179E+02  0.86383294179E+02  0.00000000000E+00 0. -1.
         -2   -1    0    0    0  501 -0.00000000000E+00 -0.00000000000E+00 -0.45150171902E+03  0.45150171902E+03  0.00000000000E+00 0.  1.
         25    2    1    2    0    0  0.70008266135E+02 -0.13317306847E+03 -0.28877134513E+03  0.34881444419E+03  0.12508558358E+03 0.  0.
         23    2    1    2    0    0 -0.70008266135E+02  0.13317306847E+03 -0.76347079711E+02  0.18907056900E+03  0.85338033663E+02 0.  0.
          5    1    3    3  502    0  0.82240791857E+02 -0.96562903533E+02 -0.28221933298E+03  0.30944008546E+03  0.41800000000E+01 0. -1.
         -5    1    3    3    0  502 -0.12232525723E+02 -0.36610164936E+02 -0.65520121447E+01  0.39374358729E+02  0.41800000000E+01 0. -1.
        -11    1    4    4    0    0 -0.28931056434E+01  0.84102300596E+02 -0.62411402355E+02  0.10476998697E+03  0.00000000000E+00 0.  1.
         11    1    4    4    0    0 -0.67115160491E+02  0.49070767872E+02 -0.13935677356E+02  0.84300582031E+02  0.00000000000E+00 0. -1.
</event>
<event>
 8    1  0.6869405E-009  0.9986875E+02  0.7561462E-02  0.1280572E+00
         -4   -1    0    0    0  501 -0.00000000000E+00  0.00000000000E+00  0.41858430071E+03  0.41858430071E+03  0.00000000000E+00 0.  1.
          4   -1    0    0  501    0  0.00000000000E+00 -0.00000000000E+00 -0.35876021486E+02  0.35876021486E+02  0.00000000000E+00 0. -1.
         25    2    1    2    0    0  0.12827831526E+02 -0.48119754616E+02  0.26519381765E+03  0.29741398780E+03  0.12508898902E+03 0.  0.
         23    2    1    2    0    0 -0.12827831526E+02  0.48119754616E+02  0.11751446157E+03  0.15704633439E+03  0.91508679488E+02 0.  0.
          5    1    3    3  502    0  0.61048491890E+02 -0.41772842698E+02  0.95687239689E+02  0.12101821759E+03  0.41800000000E+01 0.  1.
         -5    1    3    3    0  502 -0.48220660364E+02 -0.63469119180E+01  0.16950657796E+03  0.17639577021E+03  0.41800000000E+01 0.  1.
        -11    1    4    4    0    0  0.13319508061E+01 -0.13520377952E+02 -0.85178093777E+01  0.16035204692E+02  0.00000000000E+00 0. -1.
         11    1    4    4    0    0 -0.14159782332E+02  0.61640132568E+02  0.12603227095E+03  0.14101112970E+03  0.00000000000E+00 0.  1.
</event>
<event>
 8    1  0.6869405E-009  0.2035116E+03  0.7561462E-02  0.1146810E+00
          2   -1    0    0  501    0  0.00000000000E+00  0.00000000000E+00  0.38579570862E+03  0.38579570862E+03  0.00000000000E+00 0. -1.
         -2   -1    0    0    0  501 -0.00000000000E+00 -0.00000000000E+00 -0.11510305227E+03  0.11510305227E+03  0.00000000000E+00 0.  1.
         25    2    1    2    0    0 -0.17961897047E+03 -0.15060599821E+02  0.13997593619E+03  0.26024952426E+03  0.12508699352E+03 0.  0.
         23    2    1    2    0    0  0.17961897047E+03  0.15060599821E+02  0.13071672015E+03  0.24064923662E+03  0.91298400534E+02 0.  0.
          5    1    3    3  502    0 -0.18106946781E+02  0.34476514302E+02  0.63848990739E+02  0.74904322829E+02  0.41800000000E+01 0. -1.
         -5    1    3    3    0  502 -0.16151202369E+03 -0.49537114124E+02  0.76126945454E+02  0.18534520143E+03  0.41800000000E+01 0. -1.
        -11    1    4    4    0    0  0.12544255899E+02  0.28615154637E+02  0.37639692989E+02  0.48917603368E+02  0.00000000000E+00 0. -1.
         11    1    4    4    0    0  0.16707471457E+03 -0.13554554815E+02  0.93077027165E+02  0.19173163325E+03  0.00000000000E+00 0.  1.
</event>
<event>
 8    1  0.6869405E-009  0.1387647E+03  0.7561462E-02  0.1215001E+00
          2   -1    0    0  501    0  0.00000000000E+00  0.00000000000E+00  0.84380029546E+03  0.84380029546E+03  0.00000000000E+00 0. -1.
         -2   -1    0    0    0  501 -0.00000000000E+00 -0.00000000000E+00 -0.31323784113E+02  0.31323784113E+02  0.00000000000E+00 0.  1.
         25    2    1    2    0    0  0.40015201627E+02  0.10686065646E+03  0.35124306917E+03  0.38992249794E+03  0.12508974580E+03 0.  0.
         23    2    1    2    0    0 -0.40015201627E+02 -0.10686065646E+03  0.46123344217E+03  0.48520158162E+03  0.98304986501E+02 0.  0.
          5    1    3    3  502    0  0.47013194055E+02  0.17734394878E+02  0.35303821436E+02  0.61551453150E+02  0.41800000000E+01 0. -1.
         -5    1    3    3    0  502 -0.69979924279E+01  0.89126261582E+02  0.31593924773E+03  0.32837104479E+03  0.41800000000E+01 0. -1.
        -11    1    4    4    0    0 -0.74889072343E+01 -0.10474864809E+03  0.41839256916E+03  0.43137072795E+03  0.00000000000E+00 0. -1.
         11    1    4    4    0    0 -0.32526294392E+02 -0.21120083730E+01  0.42840873015E+02  0.53830853671E+02  0.00000000000E+00 0.  1.
</event>
<event>
 8    1  0.6869405E-009  0.1190925E+03  0.7561462E-02  0.1244602E+00
          1   -1    0    0  501    0  0.00000000000E+00  0.00000000000E+00  0.40302669453E+02  0.40302669453E+02  0.00000000000E+00 0. -1.
         -1   -1    0    0    0  501 -0.00000000000E+00 -0.00000000000E+00 -0.42771105743E+03  0.42771105743E+03  0.00000000000E+00 0.  1.
         25    2    1    2    0    0 -0.51129600203E+02 -0.27204668827E+02 -0.13303912265E+03  0.19157517340E+03  0.12508920371E+03 0.  0.
         23    2    1    2    0    0  0.51129600203E+02  0.27204668827E+02 -0.25436926533E+03  0.27643855348E+03  0.91434242414E+02 0.  0.
          5    1    3    3  502    0  0.20121132936E+02 -0.54802720816E+02 -0.38988439505E+02  0.70326161665E+02  0.41800000000E+01 0. -1.
         -5    1    3    3    0  502 -0.71250733140E+02  0.27598051989E+02 -0.94050683146E+02  0.12124901174E+03  0.41800000000E+01 0. -1.
        -11    1    4    4    0    0  0.72987268915E+02  0.69231817890E+01 -0.21428673862E+03  0.22648151849E+03  0.00000000000E+00 0.  1.
         11    1    4    4    0    0 -0.21857668712E+02  0.20281487038E+02 -0.40082526713E+02  0.49957034997E+02  0.00000000000E+00 0. -1.
</event>
<event>
 8    1  0.6869405E-009  0.1137038E+03  0.7561462E-02  0.1253861E+00
          2   -1    0    0  501    0  0.00000000000E+00  0.00000000000E+00  0.36575916837E+03  0.36575916837E+03  0.00000000000E+00 0.  1.
         -2   -1    0    0    0  501 -0.00000000000E+00 -0.00000000000E+00 -0.70565014008E+02  0.70565014008E+02  0.00000000000E+00 0. -1.
         25    2    1    2    0    0  0.78783128164E+02 -0.80747050006E+01  0.38935573855E+02  0.15308629789E+03  0.12508978194E+03 0.  0.
         23    2    1    2    0    0 -0.78783128164E+02  0.80747050006E+01  0.25625858051E+03  0.28323788449E+03  0.91012400152E+02 0.  0.
          5    1    3    3  502    0  0.16515485111E+02 -0.57292212739E+02 -0.87348980610E+01  0.60406371627E+02  0.41800000000E+01 0.  1.
         -5    1    3    3    0  502  0.62267643053E+02  0.49217507739E+02  0.47670471916E+02  0.92679926263E+02  0.41800000000E+01 0.  1.
        -11    1    4    4    0    0 -0.23605474291E+02 -0.15408129216E+02  0.10200546516E+02  0.29977992122E+02  0.00000000000E+00 0. -1.
         11    1    4    4    0    0 -0.55177653873E+02  0.23482834217E+02  0.24605803399E+03  0.25325989237E+03  0.00000000000E+00 0.  1.
</event>
<event>
 8    1  0.6869405E-009  0.1124284E+03  0.7561462E-02  0.1256138E+00
          2   -1    0    0  501    0  0.00000000000E+00  0.00000000000E+00  0.12386046275E+03  0.12386046275E+03  0.00000000000E+00 0. -1.
         -2   -1    0    0    0  501 -0.00000000000E+00 -0.00000000000E+00 -0.17679917584E+03  0.17679917584E+03  0.00000000000E+00 0.  1.
         25    2    1    2    0    0  0.89625119543E+02  0.28352824661E+02  0.68710267015E+01  0.15661938238E+03  0.12508347297E+03 0.  0.
         23    2    1    2    0    0 -0.89625119543E+02 -0.28352824661E+02 -0.59809739792E+02  0.14404025620E+03  0.91289899292E+02 0.  0.
          5    1    3    3  502    0  0.83462134495E+02  0.84410141738E+01 -0.48721951656E+02  0.97100358330E+02  0.41800000000E+01 0. -1.
         -5    1    3    3    0  502  0.61629850481E+01  0.19911810487E+02  0.55592978358E+02  0.59519024053E+02  0.41800000000E+01 0. -1.
        -11    1    4    4    0    0 -0.10290975261E+03 -0.25363148708E+02 -0.28282100156E+02  0.10969769224E+03  0.00000000000E+00 0. -1.
         11    1    4    4    0    0  0.13284633067E+02 -0.29896759523E+01 -0.31527639636E+02  0.34342563955E+02  0.00000000000E+00 0.  1.
</event>
<event>
 8    1  0.6869405E-009  0.1518781E+03  0.7561462E-02  0.1198184E+00
         -2   -1    0    0    0  501 -0.00000000000E+00  0.00000000000E+00  0.35694142769E+02  0.35694142769E+02  0.00000000000E+00 0.  1.
          2   -1    0    0  501    0  0.00000000000E+00 -0.00000000000E+00 -0.68114961122E+03  0.68114961122E+03  0.00000000000E+00 0. -1.
         25    2    1    2    0    0 -0.10874724394E+03 -0.15502147660E+02 -0.39256929464E+03  0.42640881075E+03  0.12509014008E+03 0.  0.
         23    2    1    2    0    0  0.10874724394E+03  0.15502147660E+02 -0.25288617381E+03  0.29043494324E+03  0.91294905126E+02 0.  0.
          5    1    3    3  502    0 -0.13392951760E+03 -0.74906961370E+01 -0.36035025705E+03  0.38452959102E+03  0.41800000000E+01 0.  1.
         -5    1    3    3    0  502  0.25182273658E+02 -0.80114515232E+01 -0.32219037591E+02  0.41879219732E+02  0.41800000000E+01 0.  1.
        -11    1    4    4    0    0  0.10558733896E+03  0.43809038690E+02 -0.19985738138E+03  0.23024094099E+03  0.00000000000E+00 0. -1.
         11    1    4    4    0    0  0.31599049874E+01 -0.28306891029E+02 -0.53028792433E+02  0.60194002244E+02  0.00000000000E+00 0.  1.
</event>
<event>
 8    1  0.6869405E-009  0.9415202E+02  0.7561462E-02  0.1293097E+00
          2   -1    0    0  501    0  0.00000000000E+00  0.00000000000E+00  0.31493382147E+03  0.31493382147E+03  0.00000000000E+00 0. -1.
         -2   -1    0    0    0  501 -0.00000000000E+00 -0.00000000000E+00 -0.46960319458E+02  0.46960319458E+02  0.00000000000E+00 0.  1.
         25    2    1    2    0    0  0.33655727840E+02 -0.45853731800E+02  0.15990796222E+03  0.21084198642E+03  0.12509402112E+03 0.  0.
         23    2    1    2    0    0 -0.33655727840E+02  0.45853731800E+02  0.10806553979E+03  0.15105215450E+03  0.88900617283E+02 0.  0.
          5    1    3    3  502    0  0.44071677646E+02 -0.96070958211E+01 -0.12101527236E+01  0.45316067021E+02  0.41800000000E+01 0.  1.
         -5    1    3    3    0  502 -0.10415949807E+02 -0.36246635979E+02  0.16111811495E+03  0.16552591940E+03  0.41800000000E+01 0.  1.
        -11    1    4    4    0    0 -0.35877003835E+02 -0.18706650043E+02  0.48734750353E+02  0.63341724416E+02  0.00000000000E+00 0. -1.
         11    1    4    4    0    0  0.22212759951E+01  0.64560381843E+02  0.59330789432E+02  0.87710430083E+02  0.00000000000E+00 0.  1.
</event>
<event>
 8    1  0.6869405E-009  0.9353487E+02  0.7561462E-02  0.1294510E+00
         -2   -1    0    0    0  501 -0.00000000000E+00  0.00000000000E+00  0.12471142705E+02  0.12471142705E+02  0.00000000000E+00 0.  1.
          2   -1    0    0  501    0  0.00000000000E+00 -0.00000000000E+00 -0.10425958605E+04  0.10425958605E+04  0.00000000000E+00 0. -1.
         25    2    1    2    0    0 -0.10832728100E+02  0.19766575757E+02 -0.70090014205E+03  0.71233169259E+03  0.12508943056E+03 0.  0.
         23    2    1    2    0    0  0.10832728100E+02 -0.19766575757E+02 -0.32922457576E+03  0.34273531062E+03  0.92577569355E+02 0.  0.
          5    1    3    3  502    0  0.24048599021E+02  0.43558586229E+02 -0.60974141460E+03  0.61178243733E+03  0.41800000000E+01 0. -1.
         -5    1    3    3    0  502 -0.34881327121E+02 -0.23792010472E+02 -0.91158727444E+02  0.10054925526E+03  0.41800000000E+01 0. -1.
        -11    1    4    4    0    0  0.37484776855E+02  0.23246578486E+02 -0.17218551971E+03  0.17774522526E+03  0.00000000000E+00 0.  1.
         11    1    4    4    0    0 -0.26652048754E+02 -0.43013154243E+02 -0.15703905605E+03  0.16499008536E+03  0.00000000000E+00 0. -1.
</event>
<event>
 8    1  0.6869405E-009  0.9811008E+02  0.7561462E-02  0.1284321E+00
         -1   -1    0    0    0  501 -0.00000000000E+00  0.00000000000E+00  0.21729426219E+03  0.21729426219E+03  0.00000000000E+00 0.  1.
          1   -1    0    0  501    0  0.00000000000E+00 -0.00000000000E+00 -0.98467466844E+02  0.98467466844E+02  0.00000000000E+00 0. -1.
         25    2    1    2    0    0 -0.14615222229E+02  0.44108159633E+02 -0.27163351198E+02  0.13617717561E+03  0.12508893253E+03 0.  0.
         23    2    1    2    0    0  0.14615222229E+02 -0.44108159633E+02  0.14599014654E+03  0.17958455343E+03  0.93692873124E+02 0.  0.
          5    1    3    3  502    0 -0.42794570910E+02  0.23728994071E+01  0.35406993583E+02  0.55750637176E+02  0.41800000000E+01 0.  1.
         -5    1    3    3    0  502  0.28179348681E+02  0.41735260226E+02 -0.62570344780E+02  0.80426538432E+02  0.41800000000E+01 0.  1.
        -11    1    4    4    0    0  0.52775360254E+02 -0.35206740516E+02  0.10642599434E+03  0.12390014325E+03  0.00000000000E+00 0. -1.
         11    1    4    4    0    0 -0.38160138025E+02 -0.89014191172E+01  0.39564152207E+02  0.55684410172E+02  0.00000000000E+00 0.  1.
</event>
<event>
 8    1  0.6869405E-009  0.1077397E+03  0.7561462E-02  0.1264814E+00
          1   -1    0    0  501    0  0.00000000000E+00  0.00000000000E+00  0.31693990505E+03  0.31693990505E+03  0.00000000000E+00 0. -1.
         -1   -1    0    0    0  501 -0.00000000000E+00 -0.00000000000E+00 -0.49087579388E+02  0.49087579388E+02  0.00000000000E+00 0.  1.
         25    2    1    2    0    0 -0.20913309590E+02 -0.65310203414E+02  0.15780679653E+03  0.21273670008E+03  0.12510447371E+03 0.  0.
         23    2    1    2    0    0  0.20913309590E+02  0.65310203414E+02  0.11004552914E+03  0.15329078436E+03  0.81763420297E+02 0.  0.
          5    1    3    3  502    0 -0.70051540200E+02 -0.46834533456E+02  0.12460522700E+03  0.15048131712E+03  0.41800000000E+01 0.  1.
         -5    1    3    3    0  502  0.49138230611E+02 -0.18475669958E+02  0.33201569532E+02  0.62255382959E+02  0.41800000000E+01 0.  1.
        -11    1    4    4    0    0  0.25668072834E+02  0.19104201754E+02 -0.19380026809E+01  0.32055831639E+02  0.00000000000E+00 0.  1.
         11    1    4    4    0    0 -0.47547632446E+01  0.46206001660E+02  0.11198353182E+03  0.12123495272E+03  0.00000000000E+00 0. -1.
</event>
<event>
 8    1  0.6869405E-009  0.1046393E+03  0.7561462E-02  0.1270832E+00
         -1   -1    0    0    0  501 -0.00000000000E+00  0.00000000000E+00  0.98712012538E+03  0.98712012538E+03  0.00000000000E+00 0.  1.
          1   -1    0    0  501    0  0.00000000000E+00 -0.00000000000E+00 -0.17427868855E+02  0.17427868855E+02  0.00000000000E+00 0. -1.
         25    2    1    2    0    0 -0.17184816946E+02 -0.59495237456E+02  0.67691627746E+03  0.69115699862E+03  0.12508936341E+03 0.  0.
         23    2    1    2    0    0  0.17184816946E+02  0.59495237456E+02  0.29277597907E+03  0.31339099562E+03  0.93065251308E+02 0.  0.
          5    1    3    3  502    0  0.11493217895E+02 -0.85382888954E+02  0.58557104582E+03  0.59188956224E+03  0.41800000000E+01 0.  1.
         -5    1    3    3    0  502 -0.28678034842E+02  0.25887651498E+02  0.91345231636E+02  0.99267436379E+02  0.41800000000E+01 0.  1.
        -11    1    4    4    0    0  0.21670967255E+02 -0.26725703596E+01  0.10340873776E+02  0.24160031551E+02  0.00000000000E+00 0.  1.
         11    1    4    4    0    0 -0.44861503084E+01  0.62167807815E+02  0.28243510529E+03  0.28923096407E+03  0.00000000000E+00 0. -1.
</event>
<event>
 8    1  0.6869405E-009  0.8301774E+02  0.7561462E-02  0.1320699E+00
         -2   -1    0    0    0  501 -0.00000000000E+00  0.00000000000E+00  0.25245991952E+02  0.25245991952E+02  0.00000000000E+00 0.  1.
          2   -1    0    0  501    0  0.00000000000E+00 -0.00000000000E+00 -0.46175536416E+03  0.46175536416E+03  0.00000000000E+00 0. -1.
         25    2    1    2    0    0  0.23159125281E+01  0.36270763704E+01 -0.26353902845E+03  0.29175097732E+03  0.12508914466E+03 0.  0.
         23    2    1    2    0    0 -0.23159125281E+01 -0.36270763704E+01 -0.17297034375E+03  0.19525037879E+03  0.90473484888E+02 0.  0.
          5    1    3    3  502    0 -0.54386135223E+02 -0.80823604562E+01 -0.19124348736E+03  0.19903446966E+03  0.41800000000E+01 0.  1.
         -5    1    3    3    0  502  0.56702047751E+02  0.11709436827E+02 -0.72295541095E+02  0.92716507658E+02  0.41800000000E+01 0.  1.
        -11    1    4    4    0    0  0.20979564187E+02  0.12583122245E+02 -0.50895495132E+01  0.24987608792E+02  0.00000000000E+00 0.  1.
         11    1    4    4    0    0 -0.23295476715E+02 -0.16210198615E+02 -0.16788079424E+03  0.17026277000E+03  0.00000000000E+00 0. -1.
</event>
<event>
 8    1  0.6869405E-009  0.1158805E+03  0.7561462E-02  0.1250052E+00
          1   -1    0    0  501    0  0.00000000000E+00  0.00000000000E+00  0.11710560031E+03  0.11710560031E+03  0.00000000000E+00 0. -1.
         -1   -1    0    0    0  501 -0.00000000000E+00 -0.00000000000E+00 -0.19207213603E+03  0.19207213603E+03  0.00000000000E+00 0.  1.
         25    2    1    2    0    0  0.74108214559E+02 -0.20471021428E+02  0.29401183491E+02  0.14974629798E+03  0.12509370082E+03 0.  0.
         23    2    1    2    0    0 -0.74108214559E+02  0.20471021428E+02 -0.10436771921E+03  0.15943143836E+03  0.92815260272E+02 0.  0.
          5    1    3    3  502    0 -0.31779943213E+02  0.11633344215E+02  0.17652704711E+02  0.38397784726E+02  0.41800000000E+01 0. -1.
         -5    1    3    3    0  502  0.10588815777E+03 -0.32104365643E+02  0.11748478780E+02  0.11134851325E+03  0.41800000000E+01 0. -1.
        -11    1    4    4    0    0 -0.46192544977E+02 -0.82038305102E+01 -0.10945915540E+03  0.11908971722E+03  0.00000000000E+00 0.  1.
         11    1    4    4    0    0 -0.27915669583E+02  0.28674851938E+02  0.50914361875E+01  0.40341721138E+02  0.00000000000E+00 0. -1.
</event>
<event>
 8    1  0.6869405E-009  0.1561538E+03  0.7561462E-02  0.1193109E+00
         -1   -1    0    0    0  501 -0.00000000000E+00  0.00000000000E+00  0.43227871440E+02  0.43227871440E+02  0.00000000000E+00 0.  1.
          1   -1    0    0  501    0  0.00000000000E+00 -0.00000000000E+00 -0.65245750806E+03  0.65245750806E+03  0.00000000000E+00 0. -1.
         25    2    1    2    0    0 -0.19399000874E+02 -0.12574702926E+03 -0.30669214560E+03  0.35481762173E+03  0.12508731317E+03 0.  0.
         23    2    1    2    0    0  0.19399000874E+02  0.12574702926E+03 -0.30253749102E+03  0.34086775777E+03  0.92050302619E+02 0.  0.
          5    1    3    3  502    0 -0.35873323597E+02  0.45702133171E+01 -0.12752161119E+03  0.13261604698E+03  0.41800000000E+01 0.  1.
         -5    1    3    3    0  502  0.16474322723E+02 -0.13031724257E+03 -0.17917053441E+03  0.22220157475E+03  0.41800000000E+01 0.  1.
        -11    1    4    4    0    0 -0.15071636912E+02  0.10492982500E+01 -0.41919821320E+01  0.15678902393E+02  0.00000000000E+00 0.  1.
         11    1    4    4    0    0  0.34470637787E+02  0.12469773101E+03 -0.29834550889E+03  0.32518885537E+03  0.00000000000E+00 0. -1.
</event>
<event>
 8    1  0.6869405E-009  0.1365979E+03  0.7561462E-02  0.1217981E+00
          1   -1    0    0  501    0  0.00000000000E+00  0.00000000000E+00  0.64167812009E+03  0.64167812009E+03  0.00000000000E+00 0. -1.
         -1   -1    0    0    0  501 -0.00000000000E+00 -0.00000000000E+00 -0.38979269811E+02  0.38979269811E+02  0.00000000000E+00 0.  1.
         25    2    1    2    0    0 -0.22983055811E+02 -0.11272068582E+03  0.33970048863E+03  0.37984194281E+03  0.12509718494E+03 0.  0.
         23    2    1    2    0    0  0.22983055811E+02  0.11272068582E+03  0.26299836165E+03  0.30081544708E+03  0.89931202096E+02 0.  0.
          5    1    3    3  502    0 -0.36546626029E+02 -0.36807670335E+02  0.28764352975E+02  0.59458564325E+02  0.41800000000E+01 0.  1.
         -5    1    3    3    0  502  0.13563570218E+02 -0.75913015481E+02  0.31093613565E+03  0.32038337849E+03  0.41800000000E+01 0.  1.
        -11    1    4    4    0    0 -0.83175926151E+01  0.11231874024E+03  0.18262499543E+03  0.21456134486E+03  0.00000000000E+00 0. -1.
         11    1    4    4    0    0  0.31300648426E+02  0.40194557782E+00  0.80373366222E+02  0.86254102221E+02  0.00000000000E+00 0.  1.
</event>
<event>
 8    1  0.6869405E-009  0.1102852E+03  0.7561462E-02  0.1260043E+00
          1   -1    0    0  501    0  0.00000000000E+00  0.00000000000E+00  0.28064019760E+02  0.28064019760E+02  0.00000000000E+00 0. -1.
         -1   -1    0    0    0  501 -0.00000000000E+00 -0.00000000000E+00 -0.86325510625E+03  0.86325510625E+03  0.00000000000E+00 0.  1.
         25    2    1    2    0    0  0.91615254027E+02 -0.56298426132E+02 -0.51465036005E+03  0.54044055078E+03  0.12509247885E+03 0.  0.
         23    2    1    2    0    0 -0.91615254027E+02  0.56298426132E+02 -0.32054072644E+03  0.35087857524E+03  0.93843218717E+02 0.  0.
          5    1    3    3  502    0  0.68766601796E+02 -0.51932254774E+02 -0.50884002804E+03  0.51610217122E+03  0.41800000000E+01 0.  1.
         -5    1    3    3    0  502  0.22848652231E+02 -0.43661713580E+01 -0.58103320173E+01  0.24338379553E+02  0.41800000000E+01 0.  1.
        -11    1    4    4    0    0 -0.46983778843E+02  0.13643169701E+02 -0.25945928300E+03  0.26403168576E+03  0.00000000000E+00 0.  1.
         11    1    4    4    0    0 -0.44631475184E+02  0.42655256431E+02 -0.61081443442E+02  0.86846889474E+02  0.00000000000E+00 0. -1.
</event>
<event>
 8    1  0.6869405E-009  0.1351165E+03  0.7561462E-02  0.1220055E+00
         -2   -1    0    0    0  501 -0.00000000000E+00  0.00000000000E+00  0.56897015527E+02  0.56897015527E+02  0.00000000000E+00 0.  1.
          2   -1    0    0  501    0  0.00000000000E+00 -0.00000000000E+00 -0.32373975549E+03  0.32373975549E+03  0.00000000000E+00 0. -1.
         25    2    1    2    0    0 -0.28380021367E+02  0.75691557952E+02 -0.15729315913E+03  0.21660867824E+03  0.12507415409E+03 0.  0.
         23    2    1    2    0    0  0.28380021367E+02 -0.75691557952E+02 -0.10954958083E+03  0.16402809278E+03  0.91484791098E+02 0.  0.
          5    1    3    3  502    0 -0.37588813199E+02  0.10815178703E+03 -0.12734162110E+03  0.17129824512E+03  0.41800000000E+01 0. -1.
         -5    1    3    3    0  502  0.92087918316E+01 -0.32460229082E+02 -0.29951538033E+02  0.45310433121E+02  0.41800000000E+01 0. -1.
        -11    1    4    4    0    0 -0.27178624067E+02 -0.56816470128E+02 -0.63513272229E+02  0.89446769831E+02  0.00000000000E+00 0. -1.
         11    1    4    4    0    0  0.55558645434E+02 -0.18875087824E+02 -0.46036308605E+02  0.74581322949E+02  0.00000000000E+00 0.  1.
</event>
<event>
 8    1  0.6869405E-009  0.1425289E+03  0.7561462E-02  0.1209966E+00
         -1   -1    0    0    0  501 -0.00000000000E+00  0.00000000000E+00  0.72704845689E+03  0.72704845689E+03  0.00000000000E+00 0.  1.
          1   -1    0    0  501    0  0.00000000000E+00 -0.00000000000E+00 -0.50005647311E+02  0.50005647311E+02  0.00000000000E+00 0. -1.
         25    2    1    2    0    0  0.13494907126E+03 -0.20717770624E+02  0.19328794602E+03  0.26767246258E+03  0.12509132382E+03 0.  0.
         23    2    1    2    0    0 -0.13494907126E+03  0.20717770624E+02  0.48375486356E+03  0.50938164162E+03  0.82525214025E+02 0.  0.
          5    1    3    3  502    0  0.11433834211E+02 -0.21499011370E+02  0.12307808495E+03  0.12553337186E+03  0.41800000000E+01 0. -1.
         -5    1    3    3    0  502  0.12351523705E+03  0.78124074519E+00  0.70209861066E+02  0.14213909072E+03  0.41800000000E+01 0. -1.
        -11    1    4    4    0    0 -0.21898043679E+02  0.63649113611E+01  0.15780786184E+02  0.27732104612E+02  0.00000000000E+00 0. -1.
         11    1    4    4    0    0 -0.11305102758E+03  0.14352859263E+02  0.46797407737E+03  0.48164953701E+03  0.00000000000E+00 0.  1.
</event>
<event>
 8    1  0.6869405E-009  0.1093835E+03  0.7561462E-02  0.1261716E+00
          1   -1    0    0  501    0  0.00000000000E+00  0.00000000000E+00  0.14814691873E+03  0.14814691873E+03  0.00000000000E+00 0. -1.
         -1   -1    0    0    0  501 -0.00000000000E+00 -0.00000000000E+00 -0.91893678105E+02  0.91893678105E+02  0.00000000000E+00 0.  1.
         25    2    1    2    0    0 -0.10044671017E+02 -0.29718547272E+02  0.64469081418E+02  0.14417969875E+03  0.12508971023E+03 0.  0.
         23    2    1    2    0    0  0.10044671017E+02  0.29718547272E+02 -0.82158407898E+01  0.95860898086E+02  0.90209335848E+02 0.  0.
          5    1    3    3  502    0  0.37011631571E+02  0.31959152569E+02  0.12295134960E+02  0.50595365877E+02  0.41800000000E+01 0. -1.
         -5    1    3    3    0  502 -0.47056302588E+02 -0.61677699841E+02  0.52173946458E+02  0.93584332876E+02  0.41800000000E+01 0. -1.
        -11    1    4    4    0    0 -0.16630532428E+02 -0.25631843585E+02  0.93560623073E+01  0.31954685358E+02  0.00000000000E+00 0. -1.
         11    1    4    4    0    0  0.26675203445E+02  0.55350390857E+02 -0.17571903097E+02  0.63906212728E+02  0.00000000000E+00 0.  1.
</event>
<event>
 8    1  0.6869405E-009  0.1457047E+03  0.7561462E-02  0.1205853E+00
          2   -1    0    0  501    0  0.00000000000E+00  0.00000000000E+00  0.71571438373E+03  0.71571438373E+03  0.00000000000E+00 0. -1.
         -2   -1    0    0    0  501 -0.00000000000E+00 -0.00000000000E+00 -0.34321544635E+02  0.34321544635E+02  0.00000000000E+00 0.  1.
         25    2    1    2    0    0  0.10895208906E+03  0.29033651008E+02  0.36793297236E+03  0.40464098252E+03  0.12508453935E+03 0.  0.
         23    2    1    2    0    0 -0.10895208906E+03 -0.29033651008E+02  0.31345986673E+03  0.34539494584E+03  0.91252780570E+02 0.  0.
          5    1    3    3  502    0  0.59871278094E+02  0.63656222831E+02  0.30601567747E+03  0.31827621950E+03  0.41800000000E+01 0. -1.
         -5    1    3    3    0  502  0.49080810961E+02 -0.34622571823E+02  0.61917294898E+02  0.86364763021E+02  0.41800000000E+01 0. -1.
        -11    1    4    4    0    0 -0.20675068329E+02 -0.49019606503E+02  0.94147335040E+02  0.10813926654E+03  0.00000000000E+00 0.  1.
         11    1    4    4    0    0 -0.88277020727E+02  0.19985955495E+02  0.21931253169E+03  0.23725567931E+03  0.00000000000E+00 0. -1.
</event>
<event>
 8    1  0.6869405E-009  0.9106477E+02  0.7561462E-02  0.1300294E+00
          1   -1    0    0  501    0  0.00000000000E+00  0.00000000000E+00  0.73946425672E+03  0.73946425672E+03  0.00000000000E+00 0. -1.
         -1   -1    0    0    0  501 -0.00000000000E+00 -0.00000000000E+00 -0.20921367339E+02  0.20921367339E+02  0.00000000000E+00 0.  1.
         25    2    1    2    0    0 -0.29415828438E+02  0.54776414888E+02  0.37030965869E+03  0.39578040193E+03  0.12508851523E+03 0.  0.
         23    2    1    2    0    0  0.29415828438E+02 -0.54776414888E+02  0.34823323069E+03  0.36460522212E+03  0.88344996773E+02 0.  0.
          5    1    3    3  502    0  0.13009441143E+02  0.84385133000E+01 -0.37221946415E+01  0.16485787773E+02  0.41800000000E+01 0.  1.
         -5    1    3    3    0  502 -0.42425269580E+02  0.46337901588E+02  0.37403185334E+03  0.37929461416E+03  0.41800000000E+01 0.  1.
        -11    1    4    4    0    0  0.13386063604E+02 -0.75628024684E+02  0.29991059188E+03  0.30958867541E+03  0.00000000000E+00 0. -1.
         11    1    4    4    0    0  0.16029764834E+02  0.20851609796E+02  0.48322638803E+02  0.55016546716E+02  0.00000000000E+00 0.  1.
</event>
<event>
 8    1  0.6869405E-009  0.7562026E+02  0.7561462E-02  0.1341961E+00
         -1   -1    0    0    0  501 -0.00000000000E+00  0.00000000000E+00  0.39186632018E+03  0.39186632018E+03  0.00000000000E+00 0.  1.
          1   -1    0    0  501    0  0.00000000000E+00 -0.00000000000E+00 -0.32539933244E+02  0.32539933244E+02  0.00000000000E+00 0. -1.
         25    2    1    2    0    0 -0.18467892474E+02  0.10456641012E+02  0.14854789493E+03  0.19535372056E+03  0.12508474989E+03 0.  0.
         23    2    1    2    0    0  0.18467892474E+02 -0.10456641012E+02  0.21077849200E+03  0.22905253286E+03  0.87103878940E+02 0.  0.
          5    1    3    3  502    0 -0.35247558630E+02 -0.89130123873E+01  0.16201962172E+03  0.16610136182E+03  0.41800000000E+01 0. -1.
         -5    1    3    3    0  502  0.16779666156E+02  0.19369653400E+02 -0.13471726782E+02  0.29252358736E+02  0.41800000000E+01 0. -1.
        -11    1    4    4    0    0 -0.21227845931E+02  0.26833295987E+02  0.98242413229E+02  0.10402989461E+03  0.00000000000E+00 0.  1.
         11    1    4    4    0    0  0.39695738405E+02 -0.37289937000E+02  0.11253607877E+03  0.12502263825E+03  0.00000000000E+00 0. -1.
</event>
<event>
 8    1  0.6869405E-009  0.1362860E+03  0.7561462E-02  0.1218416E+00
         -1   -1    0    0    0  501 -0.00000000000E+00  0.00000000000E+00  0.64816135165E+03  0.64816135165E+03  0.00000000000E+00 0.  1.
          1   -1    0    0  501    0  0.00000000000E+00 -0.00000000000E+00 -0.47617921622E+02  0.47617921622E+02  0.00000000000E+00 0. -1.
         25    2    1    2    0    0 -0.34557870597E+01 -0.95395992036E+02  0.12054386848E+03  0.19821769315E+03  0.12508833635E+03 0.  0.
         23    2    1    2    0    0  0.34557870597E+01  0.95395992036E+02  0.47999956156E+03  0.49756158012E+03  0.89753045400E+02 0.  0.
          5    1    3    3  502    0  0.15022546553E+01 -0.11807662881E+03  0.58516249922E+02  0.13185587186E+03  0.41800000000E+01 0.  1.
         -5    1    3    3    0  502 -0.49580417150E+01  0.22680636770E+02  0.62027618554E+02  0.66361821294E+02  0.41800000000E+01 0.  1.
        -11    1    4    4    0    0  0.30156734939E+02 -0.16188782375E+01  0.99502481582E+02  0.10398458189E+03  0.00000000000E+00 0.  1.
         11    1    4    4    0    0 -0.26700947880E+02  0.97014870273E+02  0.38049707997E+03  0.39357699824E+03  0.00000000000E+00 0. -1.
</event>
<event>
 8    1  0.6869405E-009  0.1046253E+03  0.7561462E-02  0.1270860E+00
          1   -1    0    0  501    0  0.00000000000E+00  0.00000000000E+00  0.36410060800E+02  0.36410060800E+02  0.00000000000E+00 0. -1.
         -1   -1    0    0    0  501 -0.00000000000E+00 -0.00000000000E+00 -0.43397408156E+03  0.43397408156E+03  0.00000000000E+00 0.  1.
         25    2    1    2    0    0  0.40222440308E+02  0.30940335001E+02 -0.14233866304E+03  0.19617113756E+03  0.12509065186E+03 0.  0.
         23    2    1    2    0    0 -0.40222440308E+02 -0.30940335001E+02 -0.25522535772E+03  0.27421300480E+03  0.86473347005E+02 0.  0.
          5    1    3    3  502    0  0.17989169429E+02 -0.48426021563E+02 -0.64322086489E+02  0.82604436875E+02  0.41800000000E+01 0.  1.
         -5    1    3    3    0  502  0.22233270879E+02  0.79366356563E+02 -0.78016576548E+02  0.11356670068E+03  0.41800000000E+01 0.  1.
        -11    1    4    4    0    0  0.13947127355E+02 -0.78967475530E+01 -0.44681180357E+01  0.16638661670E+02  0.00000000000E+00 0. -1.
         11    1    4    4    0    0 -0.54169567663E+02 -0.23043587448E+02 -0.25075723969E+03  0.25757434313E+03  0.00000000000E+00 0.  1.
</event>
<event>
 8    1  0.6869405E-009  0.1127358E+03  0.7561462E-02  0.1255586E+00
         -1   -1    0    0    0  501 -0.00000000000E+00  0.00000000000E+00  0.58932698876E+02  0.58932698876E+02  0.00000000000E+00 0.  1.
          1   -1    0    0  501    0  0.00000000000E+00 -0.00000000000E+00 -0.24651163439E+03  0.24651163439E+03  0.00000000000E+00 0. -1.
         25    2    1    2    0    0  0.53588631887E+02  0.13473500322E+02 -0.15916013812E+03  0.20983926044E+03  0.12508912414E+03 0.  0.
         23    2    1    2    0    0 -0.53588631887E+02 -0.13473500322E+02 -0.28418797390E+02  0.95605072821E+02  0.72659653355E+02 0.  0.
          5    1    3    3  502    0  0.22883217068E+02  0.69146739123E+02 -0.88504681221E+02  0.11469727178E+03  0.41800000000E+01 0.  1.
         -5    1    3    3    0  502  0.30705414819E+02 -0.55673238801E+02 -0.70655456903E+02  0.95141988669E+02  0.41800000000E+01 0.  1.
        -11    1    4    4    0    0  0.14935114867E+02 -0.13713530832E+02  0.24977325953E+01  0.20429323339E+02  0.00000000000E+00 0.  1.
         11    1    4    4    0    0 -0.68523746754E+02  0.24003051000E+00 -0.30916529985E+02  0.75175749482E+02  0.00000000000E+00 0. -1.
</event>
<event>
 8    1  0.6869405E-009  0.1558488E+03  0.7561462E-02  0.1193465E+00
         -1   -1    0    0    0  501 -0.00000000000E+00  0.00000000000E+00  0.13219358957E+04  0.13219358957E+04  0.00000000000E+00 0.  1.
          1   -1    0    0  501    0  0.00000000000E+00 -0.00000000000E+00 -0.21212213104E+02  0.21212213104E+02  0.00000000000E+00 0. -1.
         25    2    1    2    0    0 -0.23941930192E+02 -0.12231272915E+03  0.60704081165E+03  0.63220724929E+03  0.12511530409E+03 0.  0.
         23    2    1    2    0    0  0.23941930192E+02  0.12231272915E+03  0.69368287098E+03  0.71094085954E+03  0.93313238849E+02 0.  0.
          5    1    3    3  502    0 -0.62472273900E+02 -0.90082053266E+02  0.27029234187E+03  0.29170701705E+03  0.41800000000E+01 0.  1.
         -5    1    3    3    0  502  0.38530343708E+02 -0.32230675882E+02  0.33674846979E+03  0.34050023224E+03  0.41800000000E+01 0.  1.
        -11    1    4    4    0    0 -0.32794331340E+02  0.43583220187E+02  0.17661826742E+03  0.18484852620E+03  0.00000000000E+00 0. -1.
         11    1    4    4    0    0  0.56736261532E+02  0.78729508961E+02  0.51706460356E+03  0.52609233334E+03  0.00000000000E+00 0.  1.
</event>
<event>
 8    1  0.6869405E-009  0.1182827E+03  0.7561462E-02  0.1245957E+00
          2   -1    0    0  501    0  0.00000000000E+00  0.00000000000E+00  0.35139740563E+03  0.35139740563E+03  0.00000000000E+00 0. -1.
         -2   -1    0    0    0  501 -0.00000000000E+00 -0.00000000000E+00 -0.63870243370E+02  0.63870243370E+02  0.00000000000E+00 0.  1.
         25    2    1    2    0    0 -0.21590679240E+02  0.94779820590E+02  0.20422457298E+03  0.25846625049E+03  0.12509098535E+03 0.  0.
         23    2    1    2    0    0  0.21590679240E+02 -0.94779820590E+02  0.83302589287E+02  0.15680139851E+03  0.90542726774E+02 0.  0.
          5    1    3    3  502    0 -0.57527590038E+01  0.83828862916E+02  0.21849855549E+03  0.23413556681E+03  0.41800000000E+01 0.  1.
         -5    1    3    3    0  502 -0.15837920236E+02  0.10950957674E+02 -0.14273982519E+02  0.24330683679E+02  0.41800000000E+01 0.  1.
        -11    1    4    4    0    0 -0.35656383340E+02 -0.37669815377E+02  0.35704462538E+02  0.62969844438E+02  0.00000000000E+00 0.  1.
         11    1    4    4    0    0  0.57247062580E+02 -0.57110005213E+02  0.47598126750E+02  0.93831554072E+02  0.00000000000E+00 0. -1.
</event>
<event>
 8    1  0.6869405E-009  0.1125174E+03  0.7561462E-02  0.1255978E+00
          1   -1    0    0  501    0  0.00000000000E+00  0.00000000000E+00  0.14495306802E+03  0.14495306802E+03  0.00000000000E+00 0. -1.
         -1   -1    0    0    0  501 -0.00000000000E+00 -0.00000000000E+00 -0.11018250342E+03  0.11018250342E+03  0.00000000000E+00 0.  1.
         25    2    1    2    0    0  0.36766935989E+02  0.52541170924E+02  0.29860708735E+02  0.14370528779E+03  0.12508863094E+03 0.  0.
         23    2    1    2    0    0 -0.36766935989E+02 -0.52541170924E+02  0.49098558609E+01  0.11143028365E+03  0.90995709817E+02 0.  0.
          5    1    3    3  502    0  0.68322565246E+02  0.54944350939E+02 -0.14591282737E+02  0.88978832055E+02  0.41800000000E+01 0.  1.
         -5    1    3    3    0  502 -0.31555629257E+02 -0.24031800144E+01  0.44451991473E+02  0.54726455740E+02  0.41800000000E+01 0.  1.
        -11    1    4    4    0    0  0.19557763845E+02 -0.44285875276E+02  0.20244479916E+02  0.52474601882E+02  0.00000000000E+00 0.  1.
         11    1    4    4    0    0 -0.56324699833E+02 -0.82552956484E+01 -0.15334624055E+02  0.58955681766E+02  0.00000000000E+00 0. -1.
</event>
<event>
 8    1  0.6869405E-009  0.1993589E+03  0.7561462E-02  0.1150281E+00
         -1   -1    0    0    0  501 -0.00000000000E+00  0.00000000000E+00  0.12386664287E+03  0.12386664287E+03  0.00000000000E+00 0.  1.
          1   -1    0    0  501    0  0.00000000000E+00 -0.00000000000E+00 -0.38366766871E+03  0.38366766871E+03  0.00000000000E+00 0. -1.
         25    2    1    2    0    0 -0.16152731655E+03 -0.82958001670E+02 -0.19562992932E+03  0.29477220835E+03  0.12508589665E+03 0.  0.
         23    2    1    2    0    0  0.16152731655E+03  0.82958001670E+02 -0.64171096525E+02  0.21276210323E+03  0.90424990511E+02 0.  0.
          5    1    3    3  502    0 -0.26549096098E+02 -0.52921579598E+02 -0.54601935896E+01  0.59605655813E+02  0.41800000000E+01 0. -1.
         -5    1    3    3    0  502 -0.13497822045E+03 -0.30036422072E+02 -0.19016973573E+03  0.23516655254E+03  0.41800000000E+01 0. -1.
        -11    1    4    4    0    0  0.43259562376E+02  0.69670008308E+02 -0.12251386570E+02  0.82918009308E+02  0.00000000000E+00 0.  1.
         11    1    4    4    0    0  0.11826775417E+03  0.13287993362E+02 -0.51919709955E+02  0.12984409392E+03  0.00000000000E+00 0. -1.
</event>
<event>
 8    1  0.6869405E-009  0.9027112E+02  0.7561462E-02  0.1302196E+00
          1   -1    0    0  501    0  0.00000000000E+00  0.00000000000E+00  0.10882597298E+03  0.10882597298E+03  0.00000000000E+00 0. -1.
         -1   -1    0    0    0  501 -0.00000000000E+00 -0.00000000000E+00 -0.13512405135E+03  0.13512405135E+03  0.00000000000E+00 0.  1.
         25    2    1    2    0    0 -0.44976296486E+02  0.52018188259E+01  0.23368545958E+02  0.13507057809E+03  0.12509214987E+03 0.  0.
         23    2    1    2    0    0  0.44976296486E+02 -0.52018188259E+01 -0.49666624333E+02  0.10887944625E+03  0.85662325896E+02 0.  0.
          5    1    3    3  502    0 -0.80121990956E+02  0.99218706589E+01 -0.15473908355E+02  0.82309727201E+02  0.41800000000E+01 0.  1.
         -5    1    3    3    0  502  0.35145694470E+02 -0.47200518330E+01  0.38842454313E+02  0.52760850885E+02  0.41800000000E+01 0.  1.
        -11    1    4    4    0    0  0.10062319252E+01 -0.18133295978E+02  0.19024824181E+02  0.26301575254E+02  0.00000000000E+00 0. -1.
         11    1    4    4    0    0  0.43970064561E+02  0.12931477152E+02 -0.68691448515E+02  0.82577870994E+02  0.00000000000E+00 0.  1.
</event>
<event>
 8    1  0.6869405E-009  0.1071324E+03  0.7561462E-02  0.1265974E+00
         -2   -1    0    0    0  501 -0.00000000000E+00  0.00000000000E+00  0.86460200334E+02  0.86460200334E+02  0.00000000000E+00 0. -1.
          2   -1    0    0  501    0  0.00000000000E+00 -0.00000000000E+00 -0.18537282182E+03  0.18537282182E+03  0.00000000000E+00 0.  1.
         25    2    1    2    0    0  0.59474826846E+02 -0.91602030112E+01 -0.72110480533E+02  0.15642086862E+03  0.12508558027E+03 0.  0.
         23    2    1    2    0    0 -0.59474826846E+02  0.91602030112E+01 -0.26802140952E+02  0.11541215353E+03  0.94765215536E+02 0.  0.
          5    1    3    3  502    0  0.53894023395E+02  0.51185550616E+02 -0.57168805330E+02  0.93863044125E+02  0.41800000000E+01 0.  1.
         -5    1    3    3    0  502  0.55808034506E+01 -0.60345753627E+02 -0.14941675203E+02  0.62557824497E+02  0.41800000000E+01 0.  1.
        -11    1    4    4    0    0 -0.59669806214E+01 -0.18073606492E+02  0.28176900839E+02  0.34002909438E+02  0.00000000000E+00 0. -1.
         11    1    4    4    0    0 -0.53507846224E+02  0.27233809504E+02 -0.54979041790E+02  0.81409244093E+02  0.00000000000E+00 0.  1.
</event>
<event>
 8    1  0.6869405E-009  0.1065985E+03  0.7561462E-02  0.1267002E+00
         -1   -1    0    0    0  501 -0.00000000000E+00  0.00000000000E+00  0.24328374881E+02  0.24328374881E+02  0.00000000000E+00 0.  1.
          1   -1    0    0  501    0  0.00000000000E+00 -0.00000000000E+00 -0.65689162544E+03  0.65689162544E+03  0.00000000000E+00 0. -1.
         25    2    1    2    0    0  0.30490289865E+02  0.57687496140E+02 -0.35338957186E+03  0.38051132798E+03  0.12508867348E+03 0.  0.
         23    2    1    2    0    0 -0.30490289865E+02 -0.57687496140E+02 -0.27917367869E+03  0.30070867234E+03  0.90720768062E+02 0.  0.
          5    1    3    3  502    0 -0.26414839915E+02  0.15705610134E+02 -0.26698333404E+03  0.26877868779E+03  0.41800000000E+01 0. -1.
         -5    1    3    3    0  502  0.56905129780E+02  0.41981886006E+02 -0.86406237824E+02  0.11173264019E+03  0.41800000000E+01 0. -1.
        -11    1    4    4    0    0 -0.28821003643E+02 -0.82029156068E+02 -0.20683501538E+03  0.22436612107E+03  0.00000000000E+00 0.  1.
         11    1    4    4    0    0 -0.16692862219E+01  0.24341659927E+02 -0.72338663310E+02  0.76342551267E+02  0.00000000000E+00 0. -1.
</event>
<event>
 8    1  0.6869405E-009  0.9458556E+02  0.7561462E-02  0.1292112E+00
          1   -1    0    0  501    0  0.00000000000E+00  0.00000000000E+00  0.61398420435E+03  0.61398420435E+03  0.00000000000E+00 0. -1.
         -1   -1    0    0    0  501 -0.00000000000E+00 -0.00000000000E+00 -0.20429138268E+02  0.20429138268E+02  0.00000000000E+00 0.  1.
         25    2    1    2    0    0 -0.14066489049E+02 -0.35460003694E+01  0.31923072879E+03  0.34317204713E+03  0.12509338711E+03 0.  0.
         23    2    1    2    0    0  0.14066489049E+02  0.35460003694E+01  0.27432433730E+03  0.29124129549E+03  0.96732672504E+02 0.  0.
          5    1    3    3  502    0  0.43143828529E+02  0.10560071517E+02  0.47789415578E+02  0.65377409645E+02  0.41800000000E+01 0.  1.
         -5    1    3    3    0  502 -0.57210317578E+02 -0.14106071886E+02  0.27144131321E+03  0.27779463749E+03  0.41800000000E+01 0.  1.
        -11    1    4    4    0    0  0.41009479453E+02 -0.23536613645E+02  0.77826077941E+02  0.91063977481E+02  0.00000000000E+00 0.  1.
         11    1    4    4    0    0 -0.26942990404E+02  0.27082614014E+02  0.19649825936E+03  0.20017731800E+03  0.00000000000E+00 0. -1.
</event>
<event>
 8    1  0.6869405E-009  0.9979594E+02  0.7561462E-02  0.1280726E+00
         -1   -1    0    0    0  501 -0.00000000000E+00  0.00000000000E+00  0.62109388900E+02  0.62109388900E+02  0.00000000000E+00 0.  1.
          1   -1    0    0  501    0  0.00000000000E+00 -0.00000000000E+00 -0.90148858727E+03  0.90148858727E+03  0.00000000000E+00 0. -1.
         25    2    1    2    0    0  0.34406989875E+02 -0.64517837364E+02 -0.83450846764E+03  0.84699366013E+03  0.12508990949E+03 0.  0.
         23    2    1    2    0    0 -0.34406989875E+02  0.64517837364E+02 -0.48707307364E+01  0.11660431604E+03  0.90699780657E+02 0.  0.
          5    1    3    3  502    0  0.75091972799E+01 -0.77490081885E+02 -0.25385518076E+03  0.26555795231E+03  0.41800000000E+01 0.  1.
         -5    1    3    3    0  502  0.26897792595E+02  0.12972244522E+02 -0.58065328687E+03  0.58143570782E+03  0.41800000000E+01 0.  1.
        -11    1    4    4    0    0 -0.46960631750E+02  0.63360621671E+02  0.26175176778E+02  0.83096384952E+02  0.00000000000E+00 0.  1.
         11    1    4    4    0    0  0.12553641875E+02  0.11572156931E+01 -0.31045907514E+02  0.33507931089E+02  0.00000000000E+00 0. -1.
</event>
<event>
 8    1  0.6869405E-009  0.1107426E+03  0.7561462E-02  0.1259201E+00
          2   -1    0    0  501    0  0.00000000000E+00  0.00000000000E+00  0.15330619729E+03  0.15330619729E+03  0.00000000000E+00 0. -1.
         -2   -1    0    0    0  501 -0.00000000000E+00 -0.00000000000E+00 -0.10379898955E+03  0.10379898955E+03  0.00000000000E+00 0.  1.
         25    2    1    2    0    0  0.50269758570E+01  0.45057676454E+02  0.75006739167E+02  0.15274148000E+03  0.12509390112E+03 0.  0.
         23    2    1    2    0    0 -0.50269758570E+01 -0.45057676454E+02 -0.25499531419E+02  0.10436370684E+03  0.90477027523E+02 0.  0.
          5    1    3    3  502    0 -0.53737880123E+02  0.18223667433E+02  0.66387294911E+02  0.87433444062E+02  0.41800000000E+01 0. -1.
         -5    1    3    3    0  502  0.58764855980E+02  0.26834009021E+02  0.86194442560E+01  0.65308035936E+02  0.41800000000E+01 0. -1.
        -11    1    4    4    0    0 -0.39670758566E+02 -0.51092494419E+02 -0.82949628552E+01  0.65215170627E+02  0.00000000000E+00 0.  1.
         11    1    4    4    0    0  0.34643782709E+02  0.60348179644E+01 -0.17204568564E+02  0.39148536215E+02  0.00000000000E+00 0. -1.
</event>
<event>
 8    1  0.6869405E-009  0.1135041E+03  0.7561462E-02  0.1254215E+00
         -1   -1    0    0    0  501 -0.00000000000E+00  0.00000000000E+00  0.14360767392E+02  0.14360767392E+02  0.00000000000E+00 0.  1.
          1   -1    0    0  501    0  0.00000000000E+00 -0.00000000000E+00 -0.10755422451E+04  0.10755422451E+04  0.00000000000E+00 0. -1.
         25    2    1    2    0    0  0.45602421733E+02 -0.29661821455E+02 -0.63599022883E+03  0.65045399322E+03  0.12508965426E+03 0.  0.
         23    2    1    2    0    0 -0.45602421733E+02  0.29661821455E+02 -0.42519124888E+03  0.43944901928E+03  0.96790691184E+02 0.  0.
          5    1    3    3  502    0  0.77628650700E+02 -0.93819760713E+01 -0.55981944944E+03  0.56526942007E+03  0.41800000000E+01 0.  1.
         -5    1    3    3    0  502 -0.32026228967E+02 -0.20279845384E+02 -0.76170779385E+02  0.85184573150E+02  0.41800000000E+01 0.  1.
        -11    1    4    4    0    0 -0.23939148129E+01  0.58544316862E+02 -0.20517158525E+03  0.21337419539E+03  0.00000000000E+00 0.  1.
         11    1    4    4    0    0 -0.43208506920E+02 -0.28882495407E+02 -0.22001966364E+03  0.22607482389E+03  0.00000000000E+00 0. -1.
</event>
<event>
 8    1  0.6869405E-009  0.1482875E+03  0.7561462E-02  0.1202593E+00
          2   -1    0    0  501    0  0.00000000000E+00  0.00000000000E+00  0.10988733474E+04  0.10988733474E+04  0.00000000000E+00 0.  1.
         -2   -1    0    0    0  501 -0.00000000000E+00 -0.00000000000E+00 -0.25832645914E+02  0.25832645914E+02  0.00000000000E+00 0. -1.
         25    2    1    2    0    0  0.10311764754E+03  0.57863394638E+01  0.31504284206E+03  0.35435307983E+03  0.12508949553E+03 0.  0.
         23    2    1    2    0    0 -0.10311764754E+03 -0.57863394638E+01  0.75799785942E+03  0.77035291348E+03  0.90642845627E+02 0.  0.
          5    1    3    3  502    0  0.28098800571E+02  0.60099617606E+02  0.98883626518E+02  0.11915095729E+03  0.41800000000E+01 0.  1.
         -5    1    3    3    0  502  0.75018846968E+02 -0.54313278142E+02  0.21615921555E+03  0.23520212254E+03  0.41800000000E+01 0.  1.
        -11    1    4    4    0    0 -0.14868907021E+01  0.29702986818E+02  0.17030350107E+03  0.17288077032E+03  0.00000000000E+00 0. -1.
         11    1    4    4    0    0 -0.10163075684E+03 -0.35489326282E+02  0.58769435835E+03  0.59747214316E+03  0.00000000000E+00 0.  1.
</event>
<event>
 8    1  0.6869405E-009  0.1406620E+03  0.7561462E-02  0.1212441E+00
          1   -1    0    0  501    0  0.00000000000E+00  0.00000000000E+00  0.58408274841E+03  0.58408274841E+03  0.00000000000E+00 0. -1.
         -1   -1    0    0    0  501 -0.00000000000E+00 -0.00000000000E+00 -0.23752345448E+03  0.23752345448E+03  0.00000000000E+00 0.  1.
         25    2    1    2    0    0  0.11520899829E+03 -0.14747330414E+02  0.54713167734E+03  0.57314144643E+03  0.12508976068E+03 0.  0.
         23    2    1    2    0    0 -0.11520899829E+03  0.14747330414E+02 -0.20057238341E+03  0.24846475645E+03  0.89525734685E+02 0.  0.
          5    1    3    3  502    0  0.58973147221E+02 -0.44840143511E+02  0.45498701887E+03  0.46099797212E+03  0.41800000000E+01 0. -1.
         -5    1    3    3    0  502  0.56235851064E+02  0.30092813096E+02  0.92144658473E+02  0.11214347431E+03  0.41800000000E+01 0. -1.
        -11    1    4    4    0    0 -0.11723122012E+03  0.35394471123E+02 -0.18748982161E+03  0.22393829678E+03  0.00000000000E+00 0. -1.
         11    1    4    4    0    0  0.20222218387E+01 -0.20647140709E+02 -0.13082561798E+02  0.24526459667E+02  0.00000000000E+00 0.  1.
</event>
<event>
 8    1  0.6869405E-009  0.8067250E+02  0.7561462E-02  0.1327154E+00
          2   -1    0    0  501    0  0.00000000000E+00  0.00000000000E+00  0.37331870084E+03  0.37331870084E+03  0.00000000000E+00 0. -1.
         -2   -1    0    0    0  501 -0.00000000000E+00 -0.00000000000E+00 -0.33808617966E+02  0.33808617966E+02  0.00000000000E+00 0.  1.
         25    2    1    2    0    0 -0.28764042717E+01  0.30489657611E+02  0.21383192158E+03  0.24961907945E+03  0.12509077189E+03 0.  0.
         23    2    1    2    0    0  0.28764042717E+01 -0.30489657611E+02  0.12567816129E+03  0.15750823936E+03  0.89866302460E+02 0.  0.
          5    1    3    3  502    0 -0.31957234707E+02  0.31286675825E+02  0.13159230375E+02  0.46805541108E+02  0.41800000000E+01 0. -1.
         -5    1    3    3    0  502  0.29080830436E+02 -0.79701821379E+00  0.20067269121E+03  0.20281353834E+03  0.41800000000E+01 0. -1.
        -11    1    4    4    0    0 -0.18596268856E+02  0.22894871596E+02  0.15765623580E+02  0.33444749179E+02  0.00000000000E+00 0. -1.
         11    1    4    4    0    0  0.21472673127E+02 -0.53384529207E+02  0.10991253771E+03  0.12406349018E+03  0.00000000000E+00 0.  1.
</event>
<event>
 8    1  0.6869405E-009  0.3517837E+03  0.7561462E-02  0.1061885E+00
          1   -1    0    0  501    0  0.00000000000E+00  0.00000000000E+00  0.34416616260E+03  0.34416616260E+03  0.00000000000E+00 0. -1.
         -1   -1    0    0    0  501 -0.00000000000E+00 -0.00000000000E+00 -0.43447672496E+03  0.43447672496E+03  0.00000000000E+00 0.  1.
         25    2    1    2    0    0  0.26601880330E+03  0.20972726598E+03 -0.19759367617E+03  0.41163329163E+03  0.12508867299E+03 0.  0.
         23    2    1    2    0    0 -0.26601880330E+03 -0.20972726598E+03  0.10728311381E+03  0.36700959594E+03  0.91841424172E+02 0.  0.
          5    1    3    3  502    0  0.27686862651E+03  0.18854892432E+03 -0.19424844417E+03  0.38724264186E+03  0.41800000000E+01 0. -1.
         -5    1    3    3    0  502 -0.10849823213E+02  0.21178341661E+02 -0.33452320017E+01  0.24390649774E+02  0.41800000000E+01 0. -1.
        -11    1    4    4    0    0 -0.22279089860E+03 -0.14244484137E+03  0.11137352466E+03  0.28693270871E+03  0.00000000000E+00 0. -1.
         11    1    4    4    0    0 -0.43227904695E+02 -0.67282424612E+02 -0.40904108530E+01  0.80076887221E+02  0.00000000000E+00 0.  1.
</event>
<event>
 8    1  0.6869405E-009  0.1504942E+03  0.7561462E-02  0.1199867E+00
          2   -1    0    0  501    0  0.00000000000E+00  0.00000000000E+00  0.38178171083E+03  0.38178171083E+03  0.00000000000E+00 0. -1.
         -2   -1    0    0    0  501 -0.00000000000E+00 -0.00000000000E+00 -0.69850477507E+02  0.69850477507E+02  0.00000000000E+00 0.  1.
         25    2    1    2    0    0  0.10596442267E+03  0.53317235382E+02  0.19959536358E+03  0.26373155457E+03  0.12507932384E+03 0.  0.
         23    2    1    2    0    0 -0.10596442267E+03 -0.53317235382E+02  0.11233586974E+03  0.18790063376E+03  0.92823025582E+02 0.  0.
          5    1    3    3  502    0 -0.17625936427E+02  0.44703931081E+02  0.61536855462E+02  0.78188055796E+02  0.41800000000E+01 0. -1.
         -5    1    3    3    0  502  0.12359035910E+03  0.86133043005E+01  0.13805850812E+03  0.18554349878E+03  0.41800000000E+01 0. -1.
        -11    1    4    4    0    0 -0.52839582457E+02 -0.54154058270E+02  0.15185342126E+02  0.77170448468E+02  0.00000000000E+00 0.  1.
         11    1    4    4    0    0 -0.53124840214E+02  0.83682288787E+00  0.97150527612E+02  0.11073018530E+03  0.00000000000E+00 0. -1.
</event>
<event>
 8    1  0.6869405E-009  0.1406731E+03  0.7561462E-02  0.1212426E+00
          4   -1    0    0  501    0  0.00000000000E+00  0.00000000000E+00  0.43938916105E+02  0.43938916105E+02  0.00000000000E+00 0. -1.
         -4   -1    0    0    0  501 -0.00000000000E+00 -0.00000000000E+00 -0.48625235349E+03  0.48625235349E+03  0.00000000000E+00 0.  1.
         25    2    1    2    0    0  0.88964568674E+02  0.30223971823E+02 -0.28800637693E+03  0.32776401351E+03  0.12511351825E+03 0.  0.
         23    2    1    2    0    0 -0.88964568674E+02 -0.30223971823E+02 -0.15430706045E+03  0.20242725608E+03  0.91312332939E+02 0.  0.
          5    1    3    3  502    0  0.46692521906E+02 -0.47588208436E+02 -0.14246451359E+03  0.15734814653E+03  0.41800000000E+01 0.  1.
         -5    1    3    3    0  502  0.42272046768E+02  0.77812180259E+02 -0.14554186334E+03  0.17041586698E+03  0.41800000000E+01 0.  1.
        -11    1    4    4    0    0 -0.34416167790E+02 -0.55868419884E+02 -0.10818605176E+03  0.12653052889E+03  0.00000000000E+00 0.  1.
         11    1    4    4    0    0 -0.54548400884E+02  0.25644448061E+02 -0.46121008686E+02  0.75896727186E+02  0.00000000000E+00 0. -1.
</event>
<event>
 8    1  0.6869405E-009  0.1099023E+03  0.7561462E-02  0.1260751E+00
          3   -1    0    0  501    0  0.00000000000E+00  0.00000000000E+00  0.65511873540E+02  0.65511873540E+02  0.00000000000E+00 0. -1.
         -3   -1    0    0    0  501 -0.00000000000E+00 -0.00000000000E+00 -0.30540240954E+03  0.30540240954E+03  0.00000000000E+00 0.  1.
         25    2    1    2    0    0  0.11852668498E+02  0.88071694578E+02 -0.11442015161E+03  0.19140572086E+03  0.12508824784E+03 0.  0.
         23    2    1    2    0    0 -0.11852668498E+02 -0.88071694578E+02 -0.12547038439E+03  0.17950856222E+03  0.92646626563E+02 0.  0.
          5    1    3    3  502    0  0.76121733382E+01  0.93446860986E+01  0.26762145446E+02  0.29647144383E+02  0.41800000000E+01 0.  1.
         -5    1    3    3    0  502  0.42404951603E+01  0.78727008479E+02 -0.14118229705E+03  0.16175857648E+03  0.41800000000E+01 0.  1.
        -11    1    4    4    0    0 -0.40606311883E+02 -0.90547440705E+02 -0.10201309539E+03  0.14231789492E+03  0.00000000000E+00 0.  1.
         11    1    4    4    0    0  0.28753643385E+02  0.24757461272E+01 -0.23457288998E+02  0.37190667296E+02  0.00000000000E+00 0. -1.
</event>
<event>
 8    1  0.6869405E-009  0.1415752E+03  0.7561462E-02  0.1211225E+00
          4   -1    0    0  501    0  0.00000000000E+00  0.00000000000E+00  0.38882148866E+02  0.38882148866E+02  0.00000000000E+00 0. -1.
         -4   -1    0    0    0  501 -0.00000000000E+00 -0.00000000000E+00 -0.74534468903E+03  0.74534468903E+03  0.00000000000E+00 0.  1.
         25    2    1    2    0    0  0.57332824874E+02  0.11713645452E+03 -0.36081465396E+03  0.40353609677E+03  0.12508463172E+03 0.  0.
         23    2    1    2    0    0 -0.57332824874E+02 -0.11713645452E+03 -0.34564788620E+03  0.38069074113E+03  0.91896557938E+02 0.  0.
          5    1    3    3  502    0  0.29167488826E+02 -0.26571577873E+01 -0.91957478462E+01  0.30981237392E+02  0.41800000000E+01 0. -1.
         -5    1    3    3    0  502  0.28165336048E+02  0.11979361231E+03 -0.35161890612E+03  0.37255485938E+03  0.41800000000E+01 0. -1.
        -11    1    4    4    0    0 -0.27215369424E+02 -0.53048137442E+02 -0.27225125562E+03  0.27870329637E+03  0.00000000000E+00 0.  1.
         11    1    4    4    0    0 -0.30117455450E+02 -0.64088317080E+02 -0.73396630586E+02  0.10198744477E+03  0.00000000000E+00 0. -1.
</event>
<event>
 8    1  0.6869405E-009  0.9953740E+02  0.7561462E-02  0.1281272E+00
         -4   -1    0    0    0  501 -0.00000000000E+00  0.00000000000E+00  0.36271534028E+03  0.36271534028E+03  0.00000000000E+00 0.  1.
          4   -1    0    0  501    0  0.00000000000E+00 -0.00000000000E+00 -0.40701864511E+02  0.40701864511E+02  0.00000000000E+00 0. -1.
         25    2    1    2    0    0 -0.14996200366E+02 -0.44320342800E+02  0.13335728211E+03  0.18873599864E+03  0.12509170109E+03 0.  0.
         23    2    1    2    0    0  0.14996200366E+02  0.44320342800E+02  0.18865619367E+03  0.21468120615E+03  0.91146486786E+02 0.  0.
          5    1    3    3  502    0 -0.30580714034E+02 -0.84011053798E+02  0.10163247128E+03  0.13542403350E+03  0.41800000000E+01 0.  1.
         -5    1    3    3    0  502  0.15584513668E+02  0.39690710997E+02  0.31724810829E+02  0.53311965147E+02  0.41800000000E+01 0.  1.
        -11    1    4    4    0    0  0.31427253399E+02  0.37526519349E+02  0.19060949578E+03  0.19679403393E+03  0.00000000000E+00 0.  1.
         11    1    4    4    0    0 -0.16431053033E+02  0.67938234510E+01 -0.19533021094E+01  0.17887172219E+02  0.00000000000E+00 0. -1.
</event>
<event>
 8    1  0.6869405E-009  0.2915236E+03  0.7561462E-02  0.1089556E+00
         -1   -1    0    0    0  501 -0.00000000000E+00  0.00000000000E+00  0.50505531035E+02  0.50505531035E+02  0.00000000000E+00 0.  1.
          1   -1    0    0  501    0  0.00000000000E+00 -0.00000000000E+00 -0.18322295654E+04  0.18322295654E+04  0.00000000000E+00 0. -1.
         25    2    1    2    0    0  0.28369114382E+03  0.21552378939E+02 -0.91174788695E+03  0.96326413176E+03  0.12509359714E+03 0.  0.
         23    2    1    2    0    0 -0.28369114382E+03 -0.21552378939E+02 -0.86997614746E+03  0.91947096472E+03  0.87310868177E+02 0.  0.
          5    1    3    3  502    0  0.56634588388E+02 -0.17860072951E+02 -0.36645916162E+03  0.37126304467E+03  0.41800000000E+01 0.  1.
         -5    1    3    3    0  502  0.22705655544E+03  0.39412451890E+02 -0.54528872534E+03  0.59200108709E+03  0.41800000000E+01 0.  1.
        -11    1    4    4    0    0 -0.12628315533E+03 -0.44626599678E+02 -0.31875032424E+03  0.34574663834E+03  0.00000000000E+00 0.  1.
         11    1    4    4    0    0 -0.15740798849E+03  0.23074220739E+02 -0.55122582321E+03  0.57372432638E+03  0.00000000000E+00 0. -1.
</event>
<event>
 8    1  0.6869405E-009  0.7788469E+02  0.7561462E-02  0.1335164E+00
         -2   -1    0    0    0  501 -0.00000000000E+00  0.00000000000E+00  0.58617300164E+02  0.58617300164E+02  0.00000000000E+00 0.  1.
          2   -1    0    0  501    0  0.00000000000E+00 -0.00000000000E+00 -0.27888307407E+03  0.27888307407E+03  0.00000000000E+00 0. -1.
         25    2    1    2    0    0 -0.36403976382E+02  0.65542448669E+01 -0.20155353435E+03  0.24008426701E+03  0.12509364665E+03 0.  0.
         23    2    1    2    0    0  0.36403976382E+02 -0.65542448669E+01 -0.18712239557E+02  0.97416107229E+02  0.88156352104E+02 0.  0.
          5    1    3    3  502    0 -0.60856404925E+02 -0.18946767911E+02 -0.19327614816E+03  0.20355742159E+03  0.41800000000E+01 0.  1.
         -5    1    3    3    0  502  0.24452428544E+02  0.25501012778E+02 -0.82773861919E+01  0.36526845423E+02  0.41800000000E+01 0.  1.
        -11    1    4    4    0    0  0.36804087873E+02 -0.20660309180E+02 -0.48597279607E+02  0.64366799243E+02  0.00000000000E+00 0. -1.
         11    1    4    4    0    0 -0.40011149132E+00  0.14106064314E+02  0.29885040050E+02  0.33049307987E+02  0.00000000000E+00 0.  1.
</event>
<event>
 8    1  0.6869405E-009  0.1572367E+03  0.7561462E-02  0.1191852E+00
         -1   -1    0    0    0  501 -0.00000000000E+00  0.00000000000E+00  0.17549761572E+03  0.17549761572E+03  0.00000000000E+00 0.  1.
          1   -1    0    0  501    0  0.00000000000E+00 -0.00000000000E+00 -0.16027180227E+03  0.16027180227E+03  0.00000000000E+00 0. -1.
         25    2    1    2    0    0 -0.43969053756E+02 -0.11761318365E+03 -0.15631538690E+02  0.17792591924E+03  0.12508856494E+03 0.  0.
         23    2    1    2    0    0  0.43969053756E+02  0.11761318365E+03  0.30857352130E+02  0.15784349875E+03  0.90533172144E+02 0.  0.
          5    1    3    3  502    0  0.41298557704E+02 -0.28427208521E+02 -0.20605198456E+02  0.54366567449E+02  0.41800000000E+01 0.  1.
         -5    1    3    3    0  502 -0.85267611460E+02 -0.89185975133E+02  0.49736597666E+01  0.12355935180E+03  0.41800000000E+01 0.  1.
        -11    1    4    4    0    0 -0.13391122962E+02  0.49455391360E+01 -0.17410317983E+02  0.22514433233E+02  0.00000000000E+00 0. -1.
         11    1    4    4    0    0  0.57360176719E+02  0.11266764452E+03  0.48267670114E+02  0.13532906551E+03  0.00000000000E+00 0.  1.
</event>
<event>
 7    1  0.6869405E-009  0.7600149E+02  0.7561462E-02  0.1340797E+00
         -1   -1    0    0    0  501 -0.00000000000E+00  0.00000000000E+00  0.10859531757E+02  0.10859531757E+02  0.00000000000E+00 0.  1.
          1   -1    0    0  501    0  0.00000000000E+00 -0.00000000000E+00 -0.14594644947E+04  0.14594644947E+04  0.00000000000E+00 0. -1.
         23    2    1    2    0    0 -0.39110049276E+01  0.17508472205E+02 -0.26679484062E+03  0.28176739678E+03  0.88834319671E+02 0.  0.
          5    1    1    2  502    0 -0.26429877628E+02  0.75477520702E+00 -0.54861316611E+02  0.61043792292E+02  0.41800000000E+01 0. -1.
         -5    1    1    2    0  502  0.30340882556E+02 -0.18263247412E+02 -0.11269488057E+04  0.11275128374E+04  0.41800000000E+01 0. -1.
        -11    1    3    3    0    0  0.11910166136E+02 -0.33823832514E+02 -0.12841537220E+03  0.13332820977E+03  0.00000000000E+00 0. -1.
         11    1    3    3    0    0 -0.15821171063E+02  0.51332304718E+02 -0.13837946842E+03  0.14843918701E+03  0.00000000000E+00 0.  1.
</event>
<event>
 8    1  0.6869405E-009  0.1628592E+03  0.7561462E-02  0.1185506E+00
         -2   -1    0    0    0  501 -0.00000000000E+00  0.00000000000E+00  0.21313064231E+03  0.21313064231E+03  0.00000000000E+00 0.  1.
          2   -1    0    0  501    0  0.00000000000E+00 -0.00000000000E+00 -0.20050592881E+03  0.20050592881E+03  0.00000000000E+00 0. -1.
         25    2    1    2    0    0 -0.10264257392E+03  0.10587148499E+03 -0.89712545326E+02  0.21316699643E+03  0.12509020051E+03 0.  0.
         23    2    1    2    0    0  0.10264257392E+03 -0.10587148499E+03  0.10233725882E+03  0.20046957470E+03  0.89279709462E+02 0.  0.
          5    1    3    3  502    0 -0.37278274248E+02 -0.92141555271E+01  0.17864335657E+02  0.42557928538E+02  0.41800000000E+01 0.  1.
         -5    1    3    3    0  502 -0.65364299670E+02  0.11508564051E+03 -0.10757688098E+03  0.17060906789E+03  0.41800000000E+01 0.  1.
        -11    1    4    4    0    0  0.23218316495E+01 -0.26895764667E+02  0.60271941921E+02  0.66041502422E+02  0.00000000000E+00 0.  1.
         11    1    4    4    0    0  0.10032074227E+03 -0.78975720320E+02  0.42065316902E+02  0.13442807228E+03  0.00000000000E+00 0. -1.
</event>
<event>
 8    1  0.6869405E-009  0.1134857E+03  0.7561462E-02  0.1254248E+00
         -1   -1    0    0    0  501 -0.00000000000E+00  0.00000000000E+00  0.55217763442E+03  0.55217763442E+03  0.00000000000E+00 0.  1.
          1   -1    0    0  501    0  0.00000000000E+00 -0.00000000000E+00 -0.41125970304E+02  0.41125970304E+02  0.00000000000E+00 0. -1.
         25    2    1    2    0    0 -0.38473855759E+01 -0.54300434420E+02  0.46247193629E+03  0.48217601274E+03  0.12510026319E+03 0.  0.
         23    2    1    2    0    0  0.38473855759E+01  0.54300434420E+02  0.48579727825E+02  0.11112759198E+03  0.83821311077E+02 0.  0.
          5    1    3    3  502    0  0.66550553992E+01 -0.93339400305E+02  0.28071920389E+03  0.29593458271E+03  0.41800000000E+01 0.  1.
         -5    1    3    3    0  502 -0.10502440975E+02  0.39038965885E+02  0.18175273240E+03  0.18624143002E+03  0.41800000000E+01 0.  1.
        -11    1    4    4    0    0 -0.33653827893E+02  0.40598042850E+02  0.47831662381E+02  0.71194445999E+02  0.00000000000E+00 0.  1.
         11    1    4    4    0    0  0.37501213469E+02  0.13702391570E+02  0.74806544400E+00  0.39933145985E+02  0.00000000000E+00 0. -1.
</event>
<event>
 8    1  0.6869405E-009  0.9677024E+02  0.7561462E-02  0.1287238E+00
          1   -1    0    0  501    0  0.00000000000E+00  0.00000000000E+00  0.29251489628E+03  0.29251489628E+03  0.00000000000E+00 0. -1.
         -1   -1    0    0    0  501 -0.00000000000E+00 -0.00000000000E+00 -0.52627317817E+02  0.52627317817E+02  0.00000000000E+00 0.  1.
         25    2    1    2    0    0 -0.14461420004E+01 -0.58210159502E+02  0.16484018690E+03  0.21496585784E+03  0.12509004287E+03 0.  0.
         23    2    1    2    0    0  0.14461420004E+01  0.58210159502E+02  0.75047391563E+02  0.13017635625E+03  0.89012688706E+02 0.  0.
          5    1    3    3  502    0  0.15049827345E+02  0.18628370906E+02 -0.75543871114E+01  0.25456917927E+02  0.41800000000E+01 0. -1.
         -5    1    3    3    0  502 -0.16495969345E+02 -0.76838530408E+02  0.17239457401E+03  0.18950893992E+03  0.41800000000E+01 0. -1.
        -11    1    4    4    0    0  0.26878916397E+02  0.59264775490E+02  0.17709082444E+02  0.67441836879E+02  0.00000000000E+00 0.  1.
         11    1    4    4    0    0 -0.25432774397E+02 -0.10546159876E+01  0.57338309119E+02  0.62734519373E+02  0.00000000000E+00 0. -1.
</event>
<event>
 7    1  0.6869405E-009  0.7974832E+02  0.7561462E-02  0.1329767E+00
          2   -1    0    0  501    0  0.00000000000E+00  0.00000000000E+00  0.21013100819E+03  0.21013100819E+03  0.00000000000E+00 0. -1.
         -2   -1    0    0    0  501 -0.00000000000E+00 -0.00000000000E+00 -0.43519345474E+02  0.43519345474E+02  0.00000000000E+00 0.  1.
         25    2    1    2    0    0 -0.20260707809E+02 -0.16396659062E+02  0.88230270329E+02  0.15528255158E+03  0.12509493800E+03 0.  0.
          5    1    3    3  502    0  0.41305432373E+02 -0.33954284281E+02  0.10771085946E+02  0.54703938222E+02  0.41800000000E+01 0. -1.
         -5    1    3    3    0  502 -0.61566140182E+02  0.17557625219E+02  0.77459184383E+02  0.10057861336E+03  0.41800000000E+01 0. -1.
        -11    1    1    2    0    0 -0.75212929049E+01  0.11124774084E+02  0.66250601982E+02  0.67597875028E+02  0.00000000000E+00 0. -1.
         11    1    1    2    0    0  0.27782000714E+02  0.52718849780E+01  0.12130790403E+02  0.30769927051E+02  0.00000000000E+00 0.  1.
</event>
<event>
 8    1  0.6869405E-009  0.1478247E+03  0.7561462E-02  0.1203172E+00
          2   -1    0    0  501    0  0.00000000000E+00  0.00000000000E+00  0.48220915320E+03  0.48220915320E+03  0.00000000000E+00 0. -1.
         -2   -1    0    0    0  501 -0.00000000000E+00 -0.00000000000E+00 -0.58097755464E+02  0.58097755464E+02  0.00000000000E+00 0.  1.
         25    2    1    2    0    0  0.90826391784E+02 -0.88765393453E+02  0.22517071609E+03  0.28719161366E+03  0.12509373706E+03 0.  0.
         23    2    1    2    0    0 -0.90826391784E+02  0.88765393453E+02  0.19894068165E+03  0.25311529501E+03  0.91439757401E+02 0.  0.
          5    1    3    3  502    0  0.93885733414E+02 -0.54729554823E+02  0.72540210264E+02  0.13072646869E+03  0.41800000000E+01 0. -1.
         -5    1    3    3    0  502 -0.30593416299E+01 -0.34035838630E+02  0.15263050583E+03  0.15646514497E+03  0.41800000000E+01 0. -1.
        -11    1    4    4    0    0 -0.10738756984E+03  0.76068443928E+02  0.18819494326E+03  0.22964284223E+03  0.00000000000E+00 0. -1.
         11    1    4    4    0    0  0.16561178058E+02  0.12696949525E+02  0.10745738382E+02  0.23472452776E+02  0.00000000000E+00 0.  1.
</event>
<event>
 8    1  0.6869405E-009  0.1917755E+03  0.7561462E-02  0.1156870E+00
         -2   -1    0    0    0  501 -0.00000000000E+00  0.00000000000E+00  0.72915572504E+02  0.72915572504E+02  0.00000000000E+00 0. -1.
          2   -1    0    0  501    0  0.00000000000E+00 -0.00000000000E+00 -0.72195888347E+03  0.72195888347E+03  0.00000000000E+00 0.  1.
         25    2    1    2    0    0  0.15725939014E+03 -0.57265859671E+02 -0.52781679352E+03  0.56766897966E+03  0.12509040120E+03 0.  0.
         23    2    1    2    0    0 -0.15725939014E+03  0.57265859671E+02 -0.12122651744E+03  0.22720547631E+03  0.94427567280E+02 0.  0.
          5    1    3    3  502    0  0.11611291490E+03 -0.83162277653E+02 -0.27205630380E+03  0.30729509964E+03  0.41800000000E+01 0.  1.
         -5    1    3    3    0  502  0.41146475248E+02  0.25896417982E+02 -0.25576048972E+03  0.26037388001E+03  0.41800000000E+01 0.  1.
        -11    1    4    4    0    0 -0.14307270489E+03  0.11018445304E+02 -0.85134073661E+02  0.16685027875E+03  0.00000000000E+00 0.  1.
         11    1    4    4    0    0 -0.14186685251E+02  0.46247414367E+02 -0.36092443778E+02  0.60355197555E+02  0.00000000000E+00 0. -1.
</event>
<event>
 8    1  0.6869405E-009  0.2363780E+03  0.7561462E-02  0.1122229E+00
          2   -1    0    0  501    0  0.00000000000E+00  0.00000000000E+00  0.27582953773E+03  0.27582953773E+03  0.00000000000E+00 0. -1.
         -2   -1    0    0    0  501 -0.00000000000E+00 -0.00000000000E+00 -0.22682105729E+03  0.22682105729E+03  0.00000000000E+00 0.  1.
         25    2    1    2    0    0 -0.81442265510E+02 -0.20940106728E+03  0.14806517731E+02  0.25758224156E+03  0.12509088139E+03 0.  0.
         23    2    1    2    0    0  0.81442265510E+02  0.20940106728E+03  0.34201962708E+02  0.24506835347E+03  0.91690097764E+02 0.  0.
          5    1    3    3  502    0 -0.98623608108E+02 -0.12338832739E+03  0.45706407056E+02  0.16449268512E+03  0.41800000000E+01 0.  1.
         -5    1    3    3    0  502  0.17181342598E+02 -0.86012739893E+02 -0.30899889325E+02  0.93089556437E+02  0.41800000000E+01 0.  1.
        -11    1    4    4    0    0  0.41155309695E+02  0.64330184142E+02 -0.29122139867E+02  0.81732680969E+02  0.00000000000E+00 0. -1.
         11    1    4    4    0    0  0.40286955816E+02  0.14507088314E+03  0.63324102575E+02  0.16333567250E+03  0.00000000000E+00 0.  1.
</event>
<event>
 8    1  0.6869405E-009  0.1425856E+03  0.7561462E-02  0.1209892E+00
         -2   -1    0    0    0  501 -0.00000000000E+00  0.00000000000E+00  0.34441325527E+02  0.34441325527E+02  0.00000000000E+00 0. -1.
          2   -1    0    0  501    0  0.00000000000E+00 -0.00000000000E+00 -0.64620640296E+03  0.64620640296E+03  0.00000000000E+00 0.  1.
         25    2    1    2    0    0 -0.99220723892E+02  0.10858343380E+02 -0.34159479567E+03  0.37722256984E+03  0.12508879685E+03 0.  0.
         23    2    1    2    0    0  0.99220723892E+02 -0.10858343380E+02 -0.27017028176E+03  0.30342515865E+03  0.95457792152E+02 0.  0.
          5    1    3    3  502    0 -0.10228470836E+03  0.46037384756E+02 -0.30985373953E+03  0.32955790790E+03  0.41800000000E+01 0. -1.
         -5    1    3    3    0  502  0.30639844662E+01 -0.35179041376E+02 -0.31741056145E+02  0.47664661944E+02  0.41800000000E+01 0. -1.
        -11    1    4    4    0    0  0.62371745125E+02  0.40344762744E+02 -0.16166212401E+03  0.17791171071E+03  0.00000000000E+00 0.  1.
         11    1    4    4    0    0  0.36848978766E+02 -0.51203106123E+02 -0.10850815776E+03  0.12551344794E+03  0.00000000000E+00 0. -1.
</event>
<event>
 8    1  0.6869405E-009  0.1283046E+03  0.7561462E-02  0.1229993E+00
         -2   -1    0    0    0  501 -0.00000000000E+00  0.00000000000E+00  0.18532145089E+02  0.18532145089E+02  0.00000000000E+00 0.  1.
          2   -1    0    0  501    0  0.00000000000E+00 -0.00000000000E+00 -0.13723315673E+04  0.13723315673E+04  0.00000000000E+00 0. -1.
         25    2    1    2    0    0 -0.10144269589E+03 -0.48828638971E+02 -0.87128611535E+03  0.88738935071E+03  0.12508200680E+03 0.  0.
         23    2    1    2    0    0  0.10144269589E+03  0.48828638971E+02 -0.48251330688E+03  0.50347436169E+03  0.89400699286E+02 0.  0.
          5    1    3    3  502    0 -0.35608604161E+02 -0.15721337739E+02 -0.53576683060E+02  0.66355606532E+02  0.41800000000E+01 0. -1.
         -5    1    3    3    0  502 -0.65834091731E+02 -0.33107301232E+02 -0.81770943229E+03  0.82103374418E+03  0.41800000000E+01 0. -1.
        -11    1    4    4    0    0  0.42100863454E+02 -0.24974303607E+02 -0.17383679233E+03  0.18059742222E+03  0.00000000000E+00 0.  1.
         11    1    4    4    0    0  0.59341832438E+02  0.73802942578E+02 -0.30867651455E+03  0.32287693947E+03  0.00000000000E+00 0. -1.
</event>
<event>
 8    1  0.6869405E-009  0.1309895E+03  0.7561462E-02  0.1225995E+00
          1   -1    0    0  501    0  0.00000000000E+00  0.00000000000E+00  0.43797165791E+03  0.43797165791E+03  0.00000000000E+00 0. -1.
         -1   -1    0    0    0  501 -0.00000000000E+00 -0.00000000000E+00 -0.51157014035E+02  0.51157014035E+02  0.00000000000E+00 0.  1.
         25    2    1    2    0    0  0.89953813800E+02 -0.32131227444E+02  0.14637263382E+03  0.21493536607E+03  0.12509260275E+03 0.  0.
         23    2    1    2    0    0 -0.89953813800E+02  0.32131227444E+02  0.24044201006E+03  0.27419330587E+03  0.90804759744E+02 0.  0.
          5    1    3    3  502    0  0.81626340598E+02 -0.75854711846E+02  0.92135526553E+02  0.14464862406E+03  0.41800000000E+01 0. -1.
         -5    1    3    3    0  502  0.83274732018E+01  0.43723484402E+02  0.54237107266E+02  0.70286742013E+02  0.41800000000E+01 0. -1.
        -11    1    4    4    0    0 -0.77356660607E+02  0.70244987111E+01  0.80730429546E+02  0.11203034757E+03  0.00000000000E+00 0.  1.
         11    1    4    4    0    0 -0.12597153193E+02  0.25106728733E+02  0.15971158051E+03  0.16216295830E+03  0.00000000000E+00 0. -1.
</event>
<event>
 8    1  0.6869405E-009  0.9092257E+02  0.7561462E-02  0.1300633E+00
         -2   -1    0    0    0  501 -0.00000000000E+00  0.00000000000E+00  0.40897287351E+02  0.40897287351E+02  0.00000000000E+00 0.  1.
          2   -1    0    0  501    0  0.00000000000E+00 -0.00000000000E+00 -0.44463367878E+03  0.44463367878E+03  0.00000000000E+00 0. -1.
         25    2    1    2    0    0 -0.56614869550E+02  0.47164673008E+02 -0.16932615681E+03  0.22304512504E+03  0.12509208844E+03 0.  0.
         23    2    1    2    0    0  0.56614869550E+02 -0.47164673008E+02 -0.23441023461E+03  0.26248584109E+03  0.92308769059E+02 0.  0.
          5    1    3    3  502    0  0.15728536078E+01  0.36273992982E+02  0.68127253737E+01  0.37177440234E+02  0.41800000000E+01 0. -1.
         -5    1    3    3    0  502 -0.58187723158E+02  0.10890680026E+02 -0.17613888219E+03  0.18586768481E+03  0.41800000000E+01 0. -1.
        -11    1    4    4    0    0  0.55873541325E+02 -0.20866037823E+02 -0.22763439929E+03  0.23531821836E+03  0.00000000000E+00 0. -1.
         11    1    4    4    0    0  0.74132822557E+00 -0.26298635185E+02 -0.67758353273E+01  0.27167622725E+02  0.00000000000E+00 0.  1.
</event>
<event>
 8    1  0.6869405E-009  0.1184122E+03  0.7561462E-02  0.1245740E+00
          1   -1    0    0  501    0  0.00000000000E+00  0.00000000000E+00  0.49457818069E+03  0.49457818069E+03  0.00000000000E+00 0. -1.
         -1   -1    0    0    0  501 -0.00000000000E+00 -0.00000000000E+00 -0.63504100817E+02  0.63504100817E+02  0.00000000000E+00 0.  1.
         25    2    1    2    0    0 -0.35796041579E+02 -0.22852459044E+02  0.19767122626E+02  0.13357261778E+03  0.12508922258E+03 0.  0.
         23    2    1    2    0    0  0.35796041579E+02  0.22852459044E+02  0.41130695724E+03  0.42450966373E+03  0.96080435280E+02 0.  0.
          5    1    3    3  502    0 -0.42450414994E+02  0.45858398502E+02  0.13986992357E+02  0.64172726306E+02  0.41800000000E+01 0.  1.
         -5    1    3    3    0  502  0.66543734157E+01 -0.68710857546E+02  0.57801302690E+01  0.69399891471E+02  0.41800000000E+01 0.  1.
        -11    1    4    4    0    0 -0.30954606732E+02 -0.72797274967E+01  0.12750391504E+03  0.13140940020E+03  0.00000000000E+00 0.  1.
         11    1    4    4    0    0  0.66750648311E+02  0.30132186541E+02  0.28380304220E+03  0.29310026353E+03  0.00000000000E+00 0. -1.
</event>
<event>
 8    1  0.6869405E-009  0.1336147E+03  0.7561462E-02  0.1222189E+00
         -1   -1    0    0    0  501 -0.00000000000E+00  0.00000000000E+00  0.29003702709E+03  0.29003702709E+03  0.00000000000E+00 0.  1.
          1   -1    0    0  501    0  0.00000000000E+00 -0.00000000000E+00 -0.10558087935E+03  0.10558087935E+03  0.00000000000E+00 0. -1.
         25    2    1    2    0    0 -0.10878486714E+03 -0.58250093751E+02  0.32388040265E+02  0.17867116884E+03  0.12508869127E+03 0.  0.
         23    2    1    2    0    0  0.10878486714E+03  0.58250093751E+02  0.15206810747E+03  0.21694673759E+03  0.93348577397E+02 0.  0.
          5    1    3    3  502    0 -0.71146638176E+02 -0.73817614517E+02  0.69077366374E+02  0.12369332756E+03  0.41800000000E+01 0. -1.
         -5    1    3    3    0  502 -0.37638228965E+02  0.15567520766E+02 -0.36689326109E+02  0.54977841288E+02  0.41800000000E+01 0. -1.
        -11    1    4    4    0    0  0.67506652616E+02  0.40669800080E+02  0.25771603964E+02  0.82917768644E+02  0.00000000000E+00 0. -1.
         11    1    4    4    0    0  0.41278214525E+02  0.17580293672E+02  0.12629650351E+03  0.13402896895E+03  0.00000000000E+00 0.  1.
</event>
<event>
 8    1  0.6869405E-009  0.1074391E+03  0.7561462E-02  0.1265387E+00
          1   -1    0    0  501    0  0.00000000000E+00  0.00000000000E+00  0.85731673053E+02  0.85731673053E+02  0.00000000000E+00 0. -1.
         -1   -1    0    0    0  501 -0.00000000000E+00 -0.00000000000E+00 -0.16300910347E+03  0.16300910347E+03  0.00000000000E+00 0.  1.
         25    2    1    2    0    0 -0.13542224770E+01  0.41676886467E+02 -0.66667703991E+02  0.14774922657E+03  0.12508578821E+03 0.  0.
         23    2    1    2    0    0  0.13542224770E+01 -0.41676886467E+02 -0.10609726431E+02  0.10099154996E+03  0.91367007636E+02 0.  0.
          5    1    3    3  502    0  0.52741523855E+02  0.41320330138E+02 -0.65034388523E+02  0.93466475872E+02  0.41800000000E+01 0. -1.
         -5    1    3    3    0  502 -0.54095746332E+02  0.35655632890E+00 -0.16333154678E+01  0.54282750695E+02  0.41800000000E+01 0. -1.
        -11    1    4    4    0    0  0.34555321242E+02 -0.48542823934E+02 -0.24403289206E+02  0.64389412994E+02  0.00000000000E+00 0.  1.
         11    1    4    4    0    0 -0.33201098765E+02  0.68659374669E+01  0.13793562775E+02  0.36602136967E+02  0.00000000000E+00 0. -1.
</event>
<event>
 8    1  0.6869405E-009  0.9916532E+02  0.7561462E-02  0.1282061E+00
         -1   -1    0    0    0  501 -0.00000000000E+00  0.00000000000E+00  0.10336687455E+03  0.10336687455E+03  0.00000000000E+00 0.  1.
          1   -1    0    0  501    0  0.00000000000E+00 -0.00000000000E+00 -0.14627885689E+03  0.14627885689E+03  0.00000000000E+00 0. -1.
         25    2    1    2    0    0  0.10605781737E+02  0.54886670465E+02 -0.43721250521E+02  0.14381830563E+03  0.12508848103E+03 0.  0.
         23    2    1    2    0    0 -0.10605781737E+02 -0.54886670465E+02  0.80926817873E+00  0.10582742582E+03  0.89854103629E+02 0.  0.
          5    1    3    3  502    0  0.46349297916E+02 -0.47160056713E+00 -0.59883292821E+02  0.75841683680E+02  0.41800000000E+01 0. -1.
         -5    1    3    3    0  502 -0.35743516179E+02  0.55358271032E+02  0.16162042300E+02  0.67976621951E+02  0.41800000000E+01 0. -1.
        -11    1    4    4    0    0 -0.36757155019E+02 -0.19052371111E+02 -0.30590929851E+02  0.51477046139E+02  0.00000000000E+00 0. -1.
         11    1    4    4    0    0  0.26151373282E+02 -0.35834299353E+02  0.31400198030E+02  0.54350379677E+02  0.00000000000E+00 0.  1.
</event>
<event>
 8    1  0.6869405E-009  0.1068846E+03  0.7561462E-02  0.1266450E+00
          1   -1    0    0  501    0  0.00000000000E+00  0.00000000000E+00  0.31515264096E+03  0.31515264096E+03  0.00000000000E+00 0. -1.
         -1   -1    0    0    0  501 -0.00000000000E+00 -0.00000000000E+00 -0.47094218737E+02  0.47094218737E+02  0.00000000000E+00 0.  1.
         25    2    1    2    0    0  0.23488030441E+01  0.55704572319E+02  0.15630360506E+03  0.20781426547E+03  0.12508971071E+03 0.  0.
         23    2    1    2    0    0 -0.23488030441E+01 -0.55704572319E+02  0.11175481716E+03  0.15443259422E+03  0.90839257743E+02 0.  0.
          5    1    3    3  502    0 -0.29609757775E+02 -0.12396245348E+02  0.11979575840E+03  0.12409230751E+03  0.41800000000E+01 0. -1.
         -5    1    3    3    0  502  0.31958560819E+02  0.68100817667E+02  0.36507846669E+02  0.83721957962E+02  0.41800000000E+01 0. -1.
        -11    1    4    4    0    0  0.28271949571E+01 -0.80588870891E+02  0.78110006031E+02  0.11226634485E+03  0.00000000000E+00 0.  1.
         11    1    4    4    0    0 -0.51759980012E+01  0.24884298572E+02  0.33644811129E+02  0.42166249378E+02  0.00000000000E+00 0. -1.
</event>
<event>
 8    1  0.6869405E-009  0.2113294E+03  0.7561462E-02  0.1140518E+00
          1   -1    0    0  501    0  0.00000000000E+00  0.00000000000E+00  0.22462703973E+04  0.22462703973E+04  0.00000000000E+00 0. -1.
         -1   -1    0    0    0  501 -0.00000000000E+00 -0.00000000000E+00 -0.20782938500E+02  0.20782938500E+02  0.00000000000E+00 0.  1.
         25    2    1    2    0    0 -0.65161370520E+02 -0.16903021540E+03  0.13877973909E+04  0.14051497718E+04  0.12508822905E+03 0.  0.
         23    2    1    2    0    0  0.65161370520E+02  0.16903021540E+03  0.83769006782E+03  0.86190356393E+03  0.91301072643E+02 0.  0.
          5    1    3    3  502    0  0.84723779483E+00 -0.15125289812E+03  0.91813571355E+03  0.93052072405E+03  0.41800000000E+01 0.  1.
         -5    1    3    3    0  502 -0.66008608315E+02 -0.17777317279E+02  0.46966167740E+03  0.47462904778E+03  0.41800000000E+01 0.  1.
        -11    1    4    4    0    0  0.69272507843E+02  0.54206914397E+02  0.36616605072E+03  0.37658285491E+03  0.00000000000E+00 0. -1.
         11    1    4    4    0    0 -0.41111373232E+01  0.11482330100E+03  0.47152401710E+03  0.48532070902E+03  0.00000000000E+00 0.  1.
</event>
<event>
 8    1  0.6869405E-009  0.1334686E+03  0.7561462E-02  0.1222398E+00
          2   -1    0    0  501    0  0.00000000000E+00  0.00000000000E+00  0.79529610832E+03  0.79529610832E+03  0.00000000000E+00 0.  1.
         -2   -1    0    0    0  501 -0.00000000000E+00 -0.00000000000E+00 -0.34444643136E+02  0.34444643136E+02  0.00000000000E+00 0. -1.
         25    2    1    2    0    0  0.11781850710E+02 -0.12231903894E+03  0.44589040499E+03  0.47913097586E+03  0.12508988558E+03 0.  0.
         23    2    1    2    0    0 -0.11781850710E+02  0.12231903894E+03  0.31496106020E+03  0.35060977560E+03  0.92876186454E+02 0.  0.
          5    1    3    3  502    0 -0.26658208489E+01 -0.24521316637E+02  0.31013547351E+03  0.31114287056E+03  0.41800000000E+01 0. -1.
         -5    1    3    3    0  502  0.14447671559E+02 -0.97797722305E+02  0.13575493147E+03  0.16798810530E+03  0.41800000000E+01 0. -1.
        -11    1    4    4    0    0  0.26370461861E+02  0.87260476146E+02  0.13174334035E+03  0.16020642835E+03  0.00000000000E+00 0.  1.
         11    1    4    4    0    0 -0.38152312571E+02  0.35058562796E+02  0.18321771985E+03  0.19040334725E+03  0.00000000000E+00 0. -1.
</event>
<event>
 8    1  0.6869405E-009  0.1032193E+03  0.7561462E-02  0.1273668E+00
          2   -1    0    0  501    0  0.00000000000E+00  0.00000000000E+00  0.93485608856E+02  0.93485608856E+02  0.00000000000E+00 0. -1.
         -2   -1    0    0    0  501 -0.00000000000E+00 -0.00000000000E+00 -0.16175478565E+03  0.16175478565E+03  0.00000000000E+00 0.  1.
         25    2    1    2    0    0 -0.68346024070E+01  0.27631723017E+02  0.15613532355E+02  0.12923663729E+03  0.12509237434E+03 0.  0.
         23    2    1    2    0    0  0.68346024070E+01 -0.27631723017E+02 -0.83882709149E+02  0.12600375721E+03  0.89612577414E+02 0.  0.
          5    1    3    3  502    0 -0.45423028105E+02 -0.32998832238E+02  0.67753434013E+01  0.56705838231E+02  0.41800000000E+01 0. -1.
         -5    1    3    3    0  502  0.38588425698E+02  0.60630555255E+02  0.88381889534E+01  0.72530799061E+02  0.41800000000E+01 0. -1.
        -11    1    4    4    0    0  0.39892906873E+02 -0.17591074261E+02 -0.10427157852E+02  0.44828735576E+02  0.00000000000E+00 0. -1.
         11    1    4    4    0    0 -0.33058304466E+02 -0.10040648756E+02 -0.73455551296E+02  0.81175021638E+02  0.00000000000E+00 0.  1.
</event>
<event>
 8    1  0.6869405E-009  0.9884324E+02  0.7561462E-02  0.1282747E+00
         -2   -1    0    0    0  501 -0.00000000000E+00  0.00000000000E+00  0.49507150357E+02  0.49507150357E+02  0.00000000000E+00 0. -1.
          2   -1    0    0  501    0  0.00000000000E+00 -0.00000000000E+00 -0.38028389295E+03  0.38028389295E+03  0.00000000000E+00 0.  1.
         25    2    1    2    0    0  0.51435783103E+02  0.13995405215E+02 -0.80189614404E+02  0.15785891046E+03  0.12509016829E+03 0.  0.
         23    2    1    2    0    0 -0.51435783103E+02 -0.13995405215E+02 -0.25058712819E+03  0.27193213285E+03  0.91168332834E+02 0.  0.
          5    1    3    3  502    0 -0.24910863930E+02 -0.24030630989E+02  0.72806889435E+01  0.35616052546E+02  0.41800000000E+01 0. -1.
         -5    1    3    3    0  502  0.76346647033E+02  0.38026036204E+02 -0.87470303347E+02  0.12224285791E+03  0.41800000000E+01 0. -1.
        -11    1    4    4    0    0 -0.61539441270E+02 -0.17662948029E+01 -0.24840417229E+03  0.25591962692E+03  0.00000000000E+00 0.  1.
         11    1    4    4    0    0  0.10103658167E+02 -0.12229110412E+02 -0.21829558973E+01  0.16012505933E+02  0.00000000000E+00 0. -1.
</event>
<event>
 8    1  0.6869405E-009  0.6917734E+02  0.7561462E-02  0.1362913E+00
         -3   -1    0    0    0  501 -0.00000000000E+00  0.00000000000E+00  0.11966645271E+03  0.11966645271E+03  0.00000000000E+00 0.  1.
          3   -1    0    0  501    0  0.00000000000E+00 -0.00000000000E+00 -0.86689656819E+02  0.86689656819E+02  0.00000000000E+00 0. -1.
         25    2    1    2    0    0  0.27707239113E+01 -0.39087710880E+02  0.21800374226E+02  0.13288682900E+03  0.12509247361E+03 0.  0.
         23    2    1    2    0    0 -0.27707239113E+01  0.39087710880E+02  0.11176421662E+02  0.73469280522E+02  0.61133433786E+02 0.  0.
          5    1    3    3  502    0 -0.25183673096E+02 -0.49434198153E+02  0.61587763491E+02  0.82996881564E+02  0.41800000000E+01 0.  1.
         -5    1    3    3    0  502  0.27954397008E+02  0.10346487273E+02 -0.39787389265E+02  0.49889947439E+02  0.41800000000E+01 0.  1.
        -11    1    4    4    0    0  0.10434447747E+02 -0.93266549524E+00  0.26603343594E+02  0.28591702557E+02  0.00000000000E+00 0.  1.
         11    1    4    4    0    0 -0.13205171658E+02  0.40020376375E+02 -0.15426921932E+02  0.44877577965E+02  0.00000000000E+00 0. -1.
</event>
<event>
 8    1  0.6869405E-009  0.8970672E+02  0.7561462E-02  0.1303563E+00
          2   -1    0    0  501    0  0.00000000000E+00  0.00000000000E+00  0.11314893140E+03  0.11314893140E+03  0.00000000000E+00 0. -1.
         -2   -1    0    0    0  501 -0.00000000000E+00 -0.00000000000E+00 -0.12018628938E+03  0.12018628938E+03  0.00000000000E+00 0.  1.
         25    2    1    2    0    0 -0.46669343789E+02 -0.30807932533E+01 -0.14319070191E+02  0.13430500593E+03  0.12508109334E+03 0.  0.
         23    2    1    2    0    0  0.46669343789E+02  0.30807932533E+01  0.72817122143E+01  0.99030214845E+02  0.86985292910E+02 0.  0.
          5    1    3    3  502    0 -0.78916489113E+01  0.33863139903E+02  0.43191984023E+02  0.55605847269E+02  0.41800000000E+01 0.  1.
         -5    1    3    3    0  502 -0.38777694877E+02 -0.36943933157E+02 -0.57511054214E+02  0.78699158661E+02  0.41800000000E+01 0.  1.
        -11    1    4    4    0    0  0.63255590609E+02  0.20619376759E+02 -0.12652747938E+02  0.67723854524E+02  0.00000000000E+00 0.  1.
         11    1    4    4    0    0 -0.16586246820E+02 -0.17538583506E+02  0.19934460152E+02  0.31306360321E+02  0.00000000000E+00 0. -1.
</event>
<event>
 8    1  0.6869405E-009  0.1350853E+03  0.7561462E-02  0.1220099E+00
         -1   -1    0    0    0  501 -0.00000000000E+00  0.00000000000E+00  0.68359351681E+02  0.68359351681E+02  0.00000000000E+00 0.  1.
          1   -1    0    0  501    0  0.00000000000E+00 -0.00000000000E+00 -0.43372989651E+03  0.43372989651E+03  0.00000000000E+00 0. -1.
         25    2    1    2    0    0  0.62472145295E+02  0.62868462925E+02 -0.48832768899E+02  0.16089699297E+03  0.12509192803E+03 0.  0.
         23    2    1    2    0    0 -0.62472145295E+02 -0.62868462925E+02 -0.31653777593E+03  0.34119225522E+03  0.91437294719E+02 0.  0.
          5    1    3    3  502    0  0.18861944646E+02  0.96249506820E+02 -0.33435706632E+02  0.10370708460E+03  0.41800000000E+01 0. -1.
         -5    1    3    3    0  502  0.43610200648E+02 -0.33381043895E+02 -0.15397062267E+02  0.57189908363E+02  0.41800000000E+01 0. -1.
        -11    1    4    4    0    0 -0.37928449526E+02 -0.78944461602E+02 -0.16463412023E+03  0.18648106833E+03  0.00000000000E+00 0.  1.
         11    1    4    4    0    0 -0.24543695769E+02  0.16075998677E+02 -0.15190365570E+03  0.15471118689E+03  0.00000000000E+00 0. -1.
</event>
<event>
 8    1  0.6869405E-009  0.1980071E+03  0.7561462E-02  0.1151431E+00
         -1   -1    0    0    0  501 -0.00000000000E+00  0.00000000000E+00  0.21772481651E+03  0.21772481651E+03  0.00000000000E+00 0. -1.
          1   -1    0    0  501    0  0.00000000000E+00 -0.00000000000E+00 -0.20750783336E+03  0.20750783336E+03  0.00000000000E+00 0.  1.
         25    2    1    2    0    0 -0.17003172026E+03  0.39990766922E+02  0.56078795039E+02  0.22204663363E+03  0.12509927625E+03 0.  0.
         23    2    1    2    0    0  0.17003172026E+03 -0.39990766922E+02 -0.45861811895E+02  0.20318601624E+03  0.93119300215E+02 0.  0.
          5    1    3    3  502    0 -0.25884977790E+02 -0.38990686866E+02 -0.36157061178E+01  0.47125910794E+02  0.41800000000E+01 0. -1.
         -5    1    3    3    0  502 -0.14414674247E+03  0.78981453787E+02  0.59694501157E+02  0.17492072283E+03  0.41800000000E+01 0. -1.
        -11    1    4    4    0    0  0.14606758262E+03 -0.10268947421E+02 -0.39357621803E+01  0.14648098920E+03  0.00000000000E+00 0.  1.
         11    1    4    4    0    0  0.23964137644E+02 -0.29721819500E+02 -0.41926049714E+02  0.56705027044E+02  0.00000000000E+00 0. -1.
</event>
<event>
 8    1  0.6869405E-009  0.8791557E+02  0.7561462E-02  0.1307979E+00
          4   -1    0    0  501    0  0.00000000000E+00  0.00000000000E+00  0.42579376845E+02  0.42579376845E+02  0.00000000000E+00 0. -1.
         -4   -1    0    0    0  501 -0.00000000000E+00 -0.00000000000E+00 -0.34887530373E+03  0.34887530373E+03  0.00000000000E+00 0.  1.
         25    2    1    2    0    0  0.40958795876E+02 -0.31112050881E+02 -0.13868783932E+03  0.19372316548E+03  0.12509502548E+03 0.  0.
         23    2    1    2    0    0 -0.40958795876E+02  0.31112050881E+02 -0.16760808757E+03  0.19773151509E+03  0.91431386148E+02 0.  0.
          5    1    3    3  502    0 -0.16641214043E+02 -0.16005211833E+02  0.15676035813E+02  0.28218917581E+02  0.41800000000E+01 0. -1.
         -5    1    3    3    0  502  0.57600009918E+02 -0.15106839048E+02 -0.15436387513E+03  0.16550424790E+03  0.41800000000E+01 0. -1.
        -11    1    4    4    0    0 -0.64061094234E+02  0.20609068746E+02 -0.70910163153E+02  0.97758931804E+02  0.00000000000E+00 0. -1.
         11    1    4    4    0    0  0.23102298359E+02  0.10502982135E+02 -0.96697924417E+02  0.99972583291E+02  0.00000000000E+00 0.  1.
</event>
<event>
 8    1  0.6869405E-009  0.8193441E+02  0.7561462E-02  0.1323650E+00
          2   -1    0    0  501    0  0.00000000000E+00  0.00000000000E+00  0.42102635651E+03  0.42102635651E+03  0.00000000000E+00 0. -1.
         -2   -1    0    0    0  501 -0.00000000000E+00 -0.00000000000E+00 -0.36926500517E+02  0.36926500517E+02  0.00000000000E+00 0.  1.
         25    2    1    2    0    0  0.31223179294E+02  0.54020224182E+02  0.21634004538E+03  0.25757190369E+03  0.12508876364E+03 0.  0.
         23    2    1    2    0    0 -0.31223179294E+02 -0.54020224182E+02  0.16775981062E+03  0.20038095334E+03  0.90089404798E+02 0.  0.
          5    1    3    3  502    0  0.22379551423E+02 -0.13388603685E+02 -0.42082488876E+01  0.26744733859E+02  0.41800000000E+01 0.  1.
         -5    1    3    3    0  502  0.88436278710E+01  0.67408827867E+02  0.22054829426E+03  0.23082716983E+03  0.41800000000E+01 0.  1.
        -11    1    4    4    0    0 -0.30099888274E+02 -0.21951857168E+02  0.16387776438E+03  0.16805894491E+03  0.00000000000E+00 0. -1.
         11    1    4    4    0    0 -0.11232910194E+01 -0.32068367014E+02  0.38820462366E+01  0.32322008425E+02  0.00000000000E+00 0.  1.
</event>
<event>
 8    1  0.6869405E-009  0.1638411E+03  0.7561462E-02  0.1184427E+00
         -1   -1    0    0    0  501 -0.00000000000E+00  0.00000000000E+00  0.28578163665E+02  0.28578163665E+02  0.00000000000E+00 0.  1.
          1   -1    0    0  501    0  0.00000000000E+00 -0.00000000000E+00 -0.14520835992E+04  0.14520835992E+04  0.00000000000E+00 0. -1.
         25    2    1    2    0    0 -0.91444699613E+02  0.11819410807E+03 -0.10549348703E+04  0.10727863435E+04  0.12510386921E+03 0.  0.
         23    2    1    2    0    0  0.91444699613E+02 -0.11819410807E+03 -0.36857056532E+03  0.40787541939E+03  0.90477156500E+02 0.  0.
          5    1    3    3  502    0  0.20029856469E+02  0.19384017891E+02 -0.54933143209E+02  0.61741865234E+02  0.41800000000E+01 0. -1.
         -5    1    3    3    0  502 -0.11147455608E+03  0.98810090182E+02 -0.10000017270E+04  0.10110444783E+04  0.41800000000E+01 0. -1.
        -11    1    4    4    0    0  0.29673499340E+02 -0.25726767103E+02 -0.24517707782E+02  0.46297960036E+02  0.00000000000E+00 0.  1.
         11    1    4    4    0    0  0.61771200273E+02 -0.92467340970E+02 -0.34405285754E+03  0.36157745935E+03  0.00000000000E+00 0. -1.
</event>
<event>
 8    1  0.6869405E-009  0.1685165E+03  0.7561462E-02  0.1179404E+00
         -2   -1    0    0    0  501 -0.00000000000E+00  0.00000000000E+00  0.43839173871E+02  0.43839173871E+02  0.00000000000E+00 0. -1.
          2   -1    0    0  501    0  0.00000000000E+00 -0.00000000000E+00 -0.95152174103E+03  0.95152174103E+03  0.00000000000E+00 0.  1.
         25    2    1    2    0    0 -0.13391328550E+03 -0.28122699492E+02 -0.73009475145E+03  0.75326457456E+03  0.12508204879E+03 0.  0.
         23    2    1    2    0    0  0.13391328550E+03  0.28122699492E+02 -0.17758781571E+03  0.24209634034E+03  0.91375880062E+02 0.  0.
          5    1    3    3  502    0 -0.10667929050E+03 -0.71934173766E+02 -0.43436616963E+03  0.45304132052E+03  0.41800000000E+01 0.  1.
         -5    1    3    3    0  502 -0.27233994999E+02  0.43811474273E+02 -0.29572858182E+03  0.30022325404E+03  0.41800000000E+01 0.  1.
        -11    1    4    4    0    0  0.63116669217E+02  0.52052775573E+02 -0.55187882129E+02  0.98685904322E+02  0.00000000000E+00 0. -1.
         11    1    4    4    0    0  0.70796616286E+02 -0.23930076081E+02 -0.12239993358E+03  0.14341043602E+03  0.00000000000E+00 0.  1.
</event>
<event>
 8    1  0.6869405E-009  0.1084646E+03  0.7561462E-02  0.1263440E+00
          2   -1    0    0  501    0  0.00000000000E+00  0.00000000000E+00  0.55570553018E+03  0.55570553018E+03  0.00000000000E+00 0.  1.
         -2   -1    0    0    0  501 -0.00000000000E+00 -0.00000000000E+00 -0.60016173365E+02  0.60016173365E+02  0.00000000000E+00 0. -1.
         25    2    1    2    0    0 -0.70698851079E+02  0.28696176929E+02  0.47351034325E+03  0.49566297681E+03  0.12509173954E+03 0.  0.
         23    2    1    2    0    0  0.70698851079E+02 -0.28696176929E+02  0.22179013568E+02  0.12005872674E+03  0.90002172802E+02 0.  0.
          5    1    3    3  502    0 -0.24399946086E+02 -0.26228051098E+02  0.31656196114E+02  0.47988073370E+02  0.41800000000E+01 0. -1.
         -5    1    3    3    0  502 -0.46298904993E+02  0.54924228027E+02  0.44185414713E+03  0.44767490344E+03  0.41800000000E+01 0. -1.
        -11    1    4    4    0    0  0.61979059641E+02 -0.53962190539E+02  0.36289266768E+02  0.89834474030E+02  0.00000000000E+00 0.  1.
         11    1    4    4    0    0  0.87197914376E+01  0.25266013610E+02 -0.14110253200E+02  0.30224252709E+02  0.00000000000E+00 0. -1.
</event>
<event>
 8    1  0.6869405E-009  0.1811737E+03  0.7561462E-02  0.1166672E+00
         -4   -1    0    0    0  501 -0.00000000000E+00  0.00000000000E+00  0.19028447825E+03  0.19028447825E+03  0.00000000000E+00 0.  1.
          4   -1    0    0  501    0  0.00000000000E+00 -0.00000000000E+00 -0.18509982545E+03  0.18509982545E+03  0.00000000000E+00 0. -1.
         25    2    1    2    0    0 -0.43375791730E+02  0.14684165467E+03  0.72578342205E+00  0.19771367256E+03  0.12508492596E+03 0.  0.
         23    2    1    2    0    0  0.43375791730E+02 -0.14684165467E+03  0.44588693771E+01  0.17767063114E+03  0.90016891748E+02 0.  0.
          5    1    3    3  502    0 -0.21897560473E+02  0.15843673126E+03 -0.25076584240E+02  0.16195063583E+03  0.41800000000E+01 0. -1.
         -5    1    3    3    0  502 -0.21478231257E+02 -0.11595076597E+02  0.25802367662E+02  0.35763036731E+02  0.41800000000E+01 0. -1.
        -11    1    4    4    0    0  0.71201474305E+02 -0.94654607621E+02  0.14829587456E+01  0.11845397357E+03  0.00000000000E+00 0. -1.
         11    1    4    4    0    0 -0.27825682574E+02 -0.52187047047E+02  0.29759106315E+01  0.59216657574E+02  0.00000000000E+00 0.  1.
</event>
<event>
 8    1  0.6869405E-009  0.1367789E+03  0.7561462E-02  0.1217730E+00
         -1   -1    0    0    0  501 -0.00000000000E+00  0.00000000000E+00  0.28437161651E+02  0.28437161651E+02  0.00000000000E+00 0.  1.
          1   -1    0    0  501    0  0.00000000000E+00 -0.00000000000E+00 -0.79129661230E+03  0.79129661230E+03  0.00000000000E+00 0. -1.
         25    2    1    2    0    0  0.19535849040E+02 -0.94675314531E+02 -0.30734241275E+03  0.34561949892E+03  0.12509362405E+03 0.  0.
         23    2    1    2    0    0 -0.19535849040E+02  0.94675314531E+02 -0.45551703789E+03  0.47411427503E+03  0.89126367563E+02 0.  0.
          5    1    3    3  502    0 -0.39833549098E+02 -0.99153704426E+01 -0.34509531113E+02  0.53790392659E+02  0.41800000000E+01 0.  1.
         -5    1    3    3    0  502  0.59369398138E+02 -0.84759944088E+02 -0.27283288164E+03  0.29182910626E+03  0.41800000000E+01 0.  1.
        -11    1    4    4    0    0 -0.20859142467E+02 -0.10631812760E+02 -0.51077604627E+02  0.56187729634E+02  0.00000000000E+00 0.  1.
         11    1    4    4    0    0  0.13232934270E+01  0.10530712729E+03 -0.40443943327E+03  0.41792654539E+03  0.00000000000E+00 0. -1.
</event>
<event>
 8    1  0.6869405E-009  0.9592811E+02  0.7561462E-02  0.1289099E+00
          1   -1    0    0  501    0  0.00000000000E+00  0.00000000000E+00  0.16494605078E+03  0.16494605078E+03  0.00000000000E+00 0. -1.
         -1   -1    0    0    0  501 -0.00000000000E+00 -0.00000000000E+00 -0.11064053593E+03  0.11064053593E+03  0.00000000000E+00 0.  1.
         25    2    1    2    0    0  0.54569112579E+02  0.24006713312E+02  0.87176839247E+02  0.16371133626E+03  0.12508992760E+03 0.  0.
         23    2    1    2    0    0 -0.54569112579E+02 -0.24006713312E+02 -0.32871324394E+02  0.11187525045E+03  0.88777459777E+02 0.  0.
          5    1    3    3  502    0  0.62823489539E+02  0.56299491468E+02  0.17352181966E+02  0.86226412406E+02  0.41800000000E+01 0.  1.
         -5    1    3    3    0  502 -0.82543769609E+01 -0.32292778156E+02  0.69824657281E+02  0.77484923853E+02  0.41800000000E+01 0.  1.
        -11    1    4    4    0    0 -0.65085966256E+01 -0.24896248926E+02 -0.53654281814E+02  0.59506024885E+02  0.00000000000E+00 0.  1.
         11    1    4    4    0    0 -0.48060515953E+02  0.88953561483E+00  0.20782957420E+02  0.52369225566E+02  0.00000000000E+00 0. -1.
</event>
<event>
 8    1  0.6869405E-009  0.7434000E+02  0.7561462E-02  0.1345927E+00
          2   -1    0    0  501    0  0.00000000000E+00  0.00000000000E+00  0.39798565558E+03  0.39798565558E+03  0.00000000000E+00 0. -1.
         -2   -1    0    0    0  501 -0.00000000000E+00 -0.00000000000E+00 -0.30685481801E+02  0.30685481801E+02  0.00000000000E+00 0.  1.
         25    2    1    2    0    0  0.30233020356E+01  0.16312051276E+02  0.24320800377E+03  0.27399554510E+03  0.12509277463E+03 0.  0.
         23    2    1    2    0    0 -0.30233020356E+01 -0.16312051276E+02  0.12409217001E+03  0.15467559229E+03  0.90831981256E+02 0.  0.
          5    1    3    3  502    0 -0.38970062949E+02  0.19274064593E+02  0.22236927880E+02  0.49011312304E+02  0.41800000000E+01 0. -1.
         -5    1    3    3    0  502  0.41993364985E+02 -0.29620133180E+01  0.22097107589E+03  0.22498423280E+03  0.41800000000E+01 0. -1.
        -11    1    4    4    0    0 -0.18158356867E+02 -0.34530485174E+02  0.13054610637E+02  0.41140043623E+02  0.00000000000E+00 0.  1.
         11    1    4    4    0    0  0.15135054831E+02  0.18218433898E+02  0.11103755937E+03  0.11353554866E+03  0.00000000000E+00 0. -1.
</event>
<event>
 8    1  0.6869405E-009  0.1477637E+03  0.7561462E-02  0.1203248E+00
          2   -1    0    0  501    0  0.00000000000E+00  0.00000000000E+00  0.12793797054E+04  0.12793797054E+04  0.00000000000E+00 0. -1.
         -2   -1    0    0    0  501 -0.00000000000E+00 -0.00000000000E+00 -0.17308630201E+02  0.17308630201E+02  0.00000000000E+00 0.  1.
         25    2    1    2    0    0 -0.42249951266E+02 -0.95074861961E+02  0.62834351638E+03  0.64906694890E+03  0.12509213330E+03 0.  0.
         23    2    1    2    0    0  0.42249951266E+02  0.95074861961E+02  0.63372755882E+03  0.64762138670E+03  0.83537739680E+02 0.  0.
          5    1    3    3  502    0  0.43165744664E+02 -0.48362573203E+02  0.23226044300E+03  0.24117339360E+03  0.41800000000E+01 0. -1.
         -5    1    3    3    0  502 -0.85415695931E+02 -0.46712288758E+02  0.39608307338E+03  0.40789355530E+03  0.41800000000E+01 0. -1.
        -11    1    4    4    0    0 -0.23797664629E+02  0.11021759120E+02  0.10834469675E+03  0.11147367998E+03  0.00000000000E+00 0. -1.
         11    1    4    4    0    0  0.66047615895E+02  0.84053102841E+02  0.52538286207E+03  0.53614770672E+03  0.00000000000E+00 0.  1.
</event>
<event>
 8    1  0.6869405E-009  0.2158746E+03  0.7561462E-02  0.1136997E+00
         -2   -1    0    0    0  501 -0.00000000000E+00  0.00000000000E+00  0.30061604499E+02  0.30061604499E+02  0.00000000000E+00 0. -1.
          2   -1    0    0  501    0  0.00000000000E+00 -0.00000000000E+00 -0.17975507853E+04  0.17975507853E+04  0.00000000000E+00 0.  1.
         25    2    1    2    0    0  0.18093466107E+03 -0.71733475127E+02 -0.65910937666E+03  0.69853760039E+03  0.12508623313E+03 0.  0.
         23    2    1    2    0    0 -0.18093466107E+03  0.71733475127E+02 -0.11083798042E+04  0.11290747894E+04  0.91766261959E+02 0.  0.
          5    1    3    3  502    0  0.98735576659E+02 -0.88436359910E+02 -0.51443683507E+03  0.53125552565E+03  0.41800000000E+01 0.  1.
         -5    1    3    3    0  502  0.82199084416E+02  0.16702884783E+02 -0.14467254159E+03  0.16728207474E+03  0.41800000000E+01 0.  1.
        -11    1    4    4    0    0 -0.10395957781E+03 -0.80698469007E+01 -0.54727512192E+03  0.55712007263E+03  0.00000000000E+00 0.  1.
         11    1    4    4    0    0 -0.76975083265E+02  0.79803322028E+02 -0.56110468223E+03  0.57195471680E+03  0.00000000000E+00 0. -1.
</event>
<event>
 8    1  0.6869405E-009  0.1263690E+03  0.7561462E-02  0.1232945E+00
         -2   -1    0    0    0  501 -0.00000000000E+00  0.00000000000E+00  0.20484672252E+02  0.20484672252E+02  0.00000000000E+00 0. -1.
          2   -1    0    0  501    0  0.00000000000E+00 -0.00000000000E+00 -0.11941487259E+04  0.11941487259E+04  0.00000000000E+00 0.  1.
         25    2    1    2    0    0  0.97450961155E+02  0.14909070496E+02 -0.83888789737E+03  0.85387245495E+03  0.12508515000E+03 0.  0.
         23    2    1    2    0    0 -0.97450961155E+02 -0.14909070496E+02 -0.33477615628E+03  0.36076094320E+03  0.91402478724E+02 0.  0.
          5    1    3    3  502    0  0.36005969049E+02  0.40429948520E+02 -0.11783418717E+03  0.12974351086E+03  0.41800000000E+01 0. -1.
         -5    1    3    3    0  502  0.61444992107E+02 -0.25520878024E+02 -0.72105371020E+03  0.72412894408E+03  0.41800000000E+01 0. -1.
        -11    1    4    4    0    0 -0.90068372857E+02 -0.45074094057E+02 -0.28296897813E+03  0.30035883261E+03  0.00000000000E+00 0. -1.
         11    1    4    4    0    0 -0.73825882986E+01  0.30165023561E+02 -0.51807178143E+02  0.60402110589E+02  0.00000000000E+00 0.  1.
</event>
<event>
 8    1  0.6869405E-009  0.1245743E+03  0.7561462E-02  0.1235736E+00
          1   -1    0    0  501    0  0.00000000000E+00  0.00000000000E+00  0.52204427157E+03  0.52204427157E+03  0.00000000000E+00 0. -1.
         -1   -1    0    0    0  501 -0.00000000000E+00 -0.00000000000E+00 -0.30774445495E+02  0.30774445495E+02  0.00000000000E+00 0.  1.
         25    2    1    2    0    0  0.20135277222E+02 -0.60844803579E+02  0.29043812618E+03  0.32265825252E+03  0.12508606347E+03 0.  0.
         23    2    1    2    0    0 -0.20135277222E+02  0.60844803579E+02  0.20083169990E+03  0.23016046454E+03  0.92373958677E+02 0.  0.
          5    1    3    3  502    0  0.24763001170E+02  0.34393641949E+02  0.63404126440E+02  0.76378560363E+02  0.41800000000E+01 0. -1.
         -5    1    3    3    0  502 -0.46277239473E+01 -0.95238445527E+02  0.22703399973E+03  0.24627969216E+03  0.41800000000E+01 0. -1.
        -11    1    4    4    0    0  0.33720731414E+01 -0.23407699739E+02  0.29657866100E+02  0.37932575789E+02  0.00000000000E+00 0. -1.
         11    1    4    4    0    0 -0.23507350364E+02  0.84252503318E+02  0.17117383380E+03  0.19222788875E+03  0.00000000000E+00 0.  1.
</event>
<event>
 8    1  0.6869405E-009  0.1759182E+03  0.7561462E-02  0.1171813E+00
          2   -1    0    0  501    0  0.00000000000E+00  0.00000000000E+00  0.14141968876E+04  0.14141968876E+04  0.00000000000E+00 0. -1.
         -2   -1    0    0    0  501 -0.00000000000E+00 -0.00000000000E+00 -0.24889966993E+02  0.24889966993E+02  0.00000000000E+00 0.  1.
         25    2    1    2    0    0 -0.28333214004E+02  0.15068282578E+03  0.71586483295E+03  0.74271079375E+03  0.12509508026E+03 0.  0.
         23    2    1    2    0    0  0.28333214004E+02 -0.15068282578E+03  0.67344208762E+03  0.69637606080E+03  0.88922931124E+02 0.  0.
          5    1    3    3  502    0  0.22277694723E+02  0.14381240767E+03  0.49413572115E+03  0.51513676591E+03  0.41800000000E+01 0.  1.
         -5    1    3    3    0  502 -0.50610908728E+02  0.68704181118E+01  0.22172911180E+03  0.22757402784E+03  0.41800000000E+01 0.  1.
        -11    1    4    4    0    0  0.22786439801E+02 -0.60487212700E+02  0.12689505777E+03  0.14240884953E+03  0.00000000000E+00 0.  1.
         11    1    4    4    0    0  0.55467742033E+01 -0.90195613079E+02  0.54654702985E+03  0.55396721127E+03  0.00000000000E+00 0. -1.
</event>
<event>
 8    1  0.6869405E-009  0.1220862E+03  0.7561462E-02  0.1239695E+00
         -1   -1    0    0    0  501 -0.00000000000E+00  0.00000000000E+00  0.66064227303E+02  0.66064227303E+02  0.00000000000E+00 0.  1.
          1   -1    0    0  501    0  0.00000000000E+00 -0.00000000000E+00 -0.25410604013E+03  0.25410604013E+03  0.00000000000E+00 0. -1.
         25    2    1    2    0    0  0.21657840445E+02 -0.66083841778E+02 -0.78552149818E+02  0.16326043251E+03  0.12508953748E+03 0.  0.
         23    2    1    2    0    0 -0.21657840445E+02  0.66083841778E+02 -0.10948966301E+03  0.15690983492E+03  0.88298209446E+02 0.  0.
          5    1    3    3  502    0  0.74047943740E+02 -0.40122580223E+02 -0.50331462543E+02  0.98202077053E+02  0.41800000000E+01 0.  1.
         -5    1    3    3    0  502 -0.52390103295E+02 -0.25961261555E+02 -0.28220687275E+02  0.65058355459E+02  0.41800000000E+01 0.  1.
        -11    1    4    4    0    0  0.23237262609E+02  0.24678677660E+01 -0.10235832552E+01  0.23390349881E+02  0.00000000000E+00 0.  1.
         11    1    4    4    0    0 -0.44895103054E+02  0.63615974012E+02 -0.10846607975E+03  0.13351948504E+03  0.00000000000E+00 0. -1.
</event>
<event>
 8    1  0.6869405E-009  0.1271294E+03  0.7561462E-02  0.1231778E+00
          2   -1    0    0  501    0  0.00000000000E+00  0.00000000000E+00  0.13310606123E+03  0.13310606123E+03  0.00000000000E+00 0.  1.
         -2   -1    0    0    0  501 -0.00000000000E+00 -0.00000000000E+00 -0.18830300068E+03  0.18830300068E+03  0.00000000000E+00 0. -1.
         25    2    1    2    0    0 -0.51134410736E+02 -0.82639359711E+02 -0.92269602699E+02  0.18331686487E+03  0.12508957443E+03 0.  0.
         23    2    1    2    0    0  0.51134410736E+02  0.82639359711E+02  0.37072663244E+02  0.13809219703E+03  0.90835459961E+02 0.  0.
          5    1    3    3  502    0 -0.87513933124E+02 -0.29310834888E+02 -0.65783902202E+02  0.11341431886E+03  0.41800000000E+01 0.  1.
         -5    1    3    3    0  502  0.36379522389E+02 -0.53328524823E+02 -0.26485700497E+02  0.69902546019E+02  0.41800000000E+01 0.  1.
        -11    1    4    4    0    0  0.29614364315E+02  0.48346569234E+02  0.66982941268E+02  0.87756001227E+02  0.00000000000E+00 0.  1.
         11    1    4    4    0    0  0.21520046420E+02  0.34292790477E+02 -0.29910278023E+02  0.50336195804E+02  0.00000000000E+00 0. -1.
</event>
<event>
 8    1  0.6869405E-009  0.1668615E+03  0.7561462E-02  0.1181161E+00
          2   -1    0    0  501    0  0.00000000000E+00  0.00000000000E+00  0.35491519715E+03  0.35491519715E+03  0.00000000000E+00 0. -1.
         -2   -1    0    0    0  501 -0.00000000000E+00 -0.00000000000E+00 -0.87648070176E+02  0.87648070176E+02  0.00000000000E+00 0.  1.
         25    2    1    2    0    0  0.97845926219E+02 -0.82710434710E+02  0.75057346329E+02  0.19415389405E+03  0.12508912042E+03 0.  0.
         23    2    1    2    0    0 -0.97845926219E+02  0.82710434710E+02  0.19220978065E+03  0.24840937329E+03  0.91366162616E+02 0.  0.
          5    1    3    3  502    0  0.91224950360E+02  0.33431958441E+01  0.27035294411E+02  0.95297156676E+02  0.41800000000E+01 0.  1.
         -5    1    3    3    0  502  0.66209758588E+01 -0.86053630554E+02  0.48022051918E+02  0.98856737369E+02  0.41800000000E+01 0.  1.
        -11    1    4    4    0    0 -0.11501719356E+03  0.71970281701E+02  0.15460520607E+03  0.20569746232E+03  0.00000000000E+00 0.  1.
         11    1    4    4    0    0  0.17171267340E+02  0.10740153009E+02  0.37604574582E+02  0.42711910964E+02  0.00000000000E+00 0. -1.
</event>
<event>
 8    1  0.6869405E-009  0.1421544E+03  0.7561462E-02  0.1210459E+00
          1   -1    0    0  501    0  0.00000000000E+00  0.00000000000E+00  0.38343469118E+03  0.38343469118E+03  0.00000000000E+00 0. -1.
         -1   -1    0    0    0  501 -0.00000000000E+00 -0.00000000000E+00 -0.60609694014E+02  0.60609694014E+02  0.00000000000E+00 0.  1.
         25    2    1    2    0    0  0.90860915943E+02  0.54253507698E+02  0.18856030517E+03  0.24980588520E+03  0.12509533344E+03 0.  0.
         23    2    1    2    0    0 -0.90860915943E+02 -0.54253507698E+02  0.13426469199E+03  0.19423850000E+03  0.92208666741E+02 0.  0.
          5    1    3    3  502    0  0.40919953011E+02  0.82081751978E+02  0.61762004890E+02  0.11065204115E+03  0.41800000000E+01 0. -1.
         -5    1    3    3    0  502  0.49940962932E+02 -0.27828244280E+02  0.12679830028E+03  0.13915384405E+03  0.41800000000E+01 0. -1.
        -11    1    4    4    0    0 -0.92719720165E+02 -0.12707522043E+02  0.66783272673E+02  0.11497144486E+03  0.00000000000E+00 0.  1.
         11    1    4    4    0    0  0.18588042221E+01 -0.41545985654E+02  0.67481419318E+02  0.79267055138E+02  0.00000000000E+00 0. -1.
</event>
<event>
 8    1  0.6869405E-009  0.2247077E+03  0.7561462E-02  0.1130421E+00
          1   -1    0    0  501    0  0.00000000000E+00  0.00000000000E+00  0.19790122131E+03  0.19790122131E+03  0.00000000000E+00 0. -1.
         -1   -1    0    0    0  501 -0.00000000000E+00 -0.00000000000E+00 -0.29138444665E+03  0.29138444665E+03  0.00000000000E+00 0.  1.
         25    2    1    2    0    0 -0.92569317822E+02  0.19107094986E+03 -0.69048832107E+02  0.25591213090E+03  0.12508433571E+03 0.  0.
         23    2    1    2    0    0  0.92569317822E+02 -0.19107094986E+03 -0.24434393227E+02  0.23337353706E+03  0.93749569307E+02 0.  0.
          5    1    3    3  502    0 -0.14534442761E+02  0.51096676070E+01 -0.50944910245E+02  0.53387404969E+02  0.41800000000E+01 0.  1.
         -5    1    3    3    0  502 -0.78034875061E+02  0.18596128226E+03 -0.18103921862E+02  0.20252472593E+03  0.41800000000E+01 0.  1.
        -11    1    4    4    0    0  0.47139575659E+02 -0.14356299926E+02  0.50721864607E-01  0.49277231189E+02  0.00000000000E+00 0.  1.
         11    1    4    4    0    0  0.45429742162E+02 -0.17671464994E+03 -0.24485115092E+02  0.18409630588E+03  0.00000000000E+00 0. -1.
</event>
<event>
 8    1  0.6869405E-009  0.8193622E+02  0.7561462E-02  0.1323645E+00
         -1   -1    0    0    0  501 -0.00000000000E+00  0.00000000000E+00  0.26345007812E+03  0.26345007812E+03  0.00000000000E+00 0.  1.
          1   -1    0    0  501    0  0.00000000000E+00 -0.00000000000E+00 -0.65701072457E+02  0.65701072457E+02  0.00000000000E+00 0. -1.
         25    2    1    2    0    0 -0.71354196615E+02  0.39365068438E+00  0.91945392508E+02  0.17086007955E+03  0.12509050821E+03 0.  0.
         23    2    1    2    0    0  0.71354196615E+02 -0.39365068438E+00  0.10580361316E+03  0.15829107103E+03  0.93648717420E+02 0.  0.
          5    1    3    3  502    0 -0.71955968314E+02 -0.13767264448E+02  0.11913126937E+03  0.13991758535E+03  0.41800000000E+01 0. -1.
         -5    1    3    3    0  502  0.60177169906E+00  0.14160915133E+02 -0.27185876867E+02  0.30942494204E+02  0.41800000000E+01 0. -1.
        -11    1    4    4    0    0  0.45286474103E+02 -0.12490077372E+02 -0.17046362694E+01  0.47008217944E+02  0.00000000000E+00 0. -1.
         11    1    4    4    0    0  0.26067722512E+02  0.12096426688E+02  0.10750824943E+03  0.11128285308E+03  0.00000000000E+00 0.  1.
</event>
<event>
 8    1  0.6869405E-009  0.1073234E+03  0.7561462E-02  0.1265608E+00
         -2   -1    0    0    0  501 -0.00000000000E+00  0.00000000000E+00  0.39546256296E+02  0.39546256296E+02  0.00000000000E+00 0.  1.
          2   -1    0    0  501    0  0.00000000000E+00 -0.00000000000E+00 -0.44020974506E+03  0.44020974506E+03  0.00000000000E+00 0. -1.
         25    2    1    2    0    0  0.44727675742E+02  0.54401610569E+01 -0.33247134603E+03  0.35807056070E+03  0.12508864927E+03 0.  0.
         23    2    1    2    0    0 -0.44727675742E+02 -0.54401610569E+01 -0.68192142735E+02  0.12168544066E+03  0.90149973981E+02 0.  0.
          5    1    3    3  502    0 -0.25903899530E+02 -0.25551262560E+02 -0.21074527296E+03  0.21390400067E+03  0.41800000000E+01 0.  1.
         -5    1    3    3    0  502  0.70631575272E+02  0.30991423617E+02 -0.12172607308E+03  0.14416656003E+03  0.41800000000E+01 0.  1.
        -11    1    4    4    0    0 -0.31478215488E+02  0.41451962806E+02 -0.35848020055E+02  0.63199871935E+02  0.00000000000E+00 0. -1.
         11    1    4    4    0    0 -0.13249460254E+02 -0.46892123862E+02 -0.32344122680E+02  0.58485568727E+02  0.00000000000E+00 0.  1.
</event>
<event>
 8    1  0.6869405E-009  0.1793615E+03  0.7561462E-02  0.1168422E+00
         -1   -1    0    0    0  501 -0.00000000000E+00  0.00000000000E+00  0.41588589349E+02  0.41588589349E+02  0.00000000000E+00 0.  1.
          1   -1    0    0  501    0  0.00000000000E+00 -0.00000000000E+00 -0.79465280610E+03  0.79465280610E+03  0.00000000000E+00 0. -1.
         25    2    1    2    0    0  0.21529383057E+02 -0.14212127569E+03 -0.46719527559E+03  0.50455904926E+03  0.12508571989E+03 0.  0.
         23    2    1    2    0    0 -0.21529383057E+02  0.14212127569E+03 -0.28586894116E+03  0.33168234619E+03  0.87350763662E+02 0.  0.
          5    1    3    3  502    0  0.18593636243E+02 -0.16551023390E+03 -0.40951876853E+03  0.44211136042E+03  0.41800000000E+01 0. -1.
         -5    1    3    3    0  502  0.29357468146E+01  0.23388958206E+02 -0.57676507053E+02  0.62447688838E+02  0.41800000000E+01 0. -1.
        -11    1    4    4    0    0  0.12690840389E+02  0.13183753857E+03 -0.22738392476E+03  0.26314566925E+03  0.00000000000E+00 0. -1.
         11    1    4    4    0    0 -0.34220223447E+02  0.10283737118E+02 -0.58485016405E+02  0.68536676938E+02  0.00000000000E+00 0.  1.
</event>
<event>
 8    1  0.6869405E-009  0.1481971E+03  0.7561462E-02  0.1202706E+00
         -1   -1    0    0    0  501 -0.00000000000E+00  0.00000000000E+00  0.27727131344E+02  0.27727131344E+02  0.00000000000E+00 0.  1.
          1   -1    0    0  501    0  0.00000000000E+00 -0.00000000000E+00 -0.97365326122E+03  0.97365326122E+03  0.00000000000E+00 0. -1.
         25    2    1    2    0    0 -0.61148178607E+02 -0.10124660534E+03 -0.40094057431E+03  0.43633898307E+03  0.12509352173E+03 0.  0.
         23    2    1    2    0    0  0.61148178607E+02  0.10124660534E+03 -0.54498555556E+03  0.56504140949E+03  0.90953635596E+02 0.  0.
          5    1    3    3  502    0  0.31660865299E+02 -0.63610280896E+02 -0.18674650151E+03  0.19985096060E+03  0.41800000000E+01 0. -1.
         -5    1    3    3    0  502 -0.92809043905E+02 -0.37636324447E+02 -0.21419407280E+03  0.23648802247E+03  0.41800000000E+01 0. -1.
        -11    1    4    4    0    0  0.28034230464E+02  0.13345650126E+02 -0.36350214934E+02  0.47805466013E+02  0.00000000000E+00 0.  1.
         11    1    4    4    0    0  0.33113948142E+02  0.87900955217E+02 -0.50863534063E+03  0.51723594348E+03  0.00000000000E+00 0. -1.
</event>
<event>
 8    1  0.6869405E-009  0.1011362E+03  0.7561462E-02  0.1277925E+00
          1   -1    0    0  501    0  0.00000000000E+00  0.00000000000E+00  0.33636530087E+03  0.33636530087E+03  0.00000000000E+00 0. -1.
         -1   -1    0    0    0  501 -0.00000000000E+00 -0.00000000000E+00 -0.41084773742E+02  0.41084773742E+02  0.00000000000E+00 0.  1.
         25    2    1    2    0    0  0.68876921629E+01 -0.28804092428E+02  0.11724974974E+03  0.17398902950E+03  0.12509021756E+03 0.  0.
         23    2    1    2    0    0 -0.68876921629E+01  0.28804092428E+02  0.17803077738E+03  0.20346104511E+03  0.93937868492E+02 0.  0.
          5    1    3    3  502    0 -0.35434133477E+02 -0.61861935487E+02  0.85737594596E+02  0.11158353106E+03  0.41800000000E+01 0.  1.
         -5    1    3    3    0  502  0.42321825640E+02  0.33057843059E+02  0.31512155145E+02  0.62405498437E+02  0.41800000000E+01 0.  1.
        -11    1    4    4    0    0 -0.62067092624E+01  0.52711864715E+02  0.17021630948E+03  0.17829934361E+03  0.00000000000E+00 0. -1.
         11    1    4    4    0    0 -0.68098290045E+00 -0.23907772287E+02  0.78144679096E+01  0.25161701496E+02  0.00000000000E+00 0.  1.
</event>
<event>
 8    1  0.6869405E-009  0.1182043E+03  0.7561462E-02  0.1246089E+00
         -1   -1    0    0    0  501 -0.00000000000E+00  0.00000000000E+00  0.32648172403E+03  0.32648172403E+03  0.00000000000E+00 0.  1.
          1   -1    0    0  501    0  0.00000000000E+00 -0.00000000000E+00 -0.66931165213E+02  0.66931165213E+02  0.00000000000E+00 0. -1.
         25    2    1    2    0    0  0.16745919433E+02 -0.76853404683E+02  0.22369325031E+03  0.26808695807E+03  0.12508027513E+03 0.  0.
         23    2    1    2    0    0 -0.16745919433E+02  0.76853404683E+02  0.35857308512E+02  0.12532593117E+03  0.90741229996E+02 0.  0.
          5    1    3    3  502    0  0.37333272869E+02 -0.10531970159E+03  0.15952316991E+03  0.19481048982E+03  0.41800000000E+01 0. -1.
         -5    1    3    3    0  502 -0.20587353436E+02  0.28466296908E+02  0.64170080403E+02  0.73276468256E+02  0.41800000000E+01 0. -1.
        -11    1    4    4    0    0 -0.29957833521E+02  0.39400903779E+02 -0.22794603384E+02  0.54493090858E+02  0.00000000000E+00 0. -1.
         11    1    4    4    0    0  0.13211914087E+02  0.37452500904E+02  0.58651911895E+02  0.70832840313E+02  0.00000000000E+00 0.  1.
</event>
<event>
 8    1  0.6869405E-009  0.1045586E+03  0.7561462E-02  0.1270992E+00
          2   -1    0    0  501    0  0.00000000000E+00  0.00000000000E+00  0.13989832101E+04  0.13989832101E+04  0.00000000000E+00 0. -1.
         -2   -1    0    0    0  501 -0.00000000000E+00 -0.00000000000E+00 -0.95276621210E+01  0.95276621210E+01  0.00000000000E+00 0.  1.
         25    2    1    2    0    0 -0.27263817962E+02 -0.39703731314E+01  0.97818986946E+03  0.98654149926E+03  0.12509847891E+03 0.  0.
         23    2    1    2    0    0  0.27263817962E+02  0.39703731314E+01  0.41126567852E+03  0.42196937296E+03  0.90330580383E+02 0.  0.
          5    1    3    3  502    0 -0.42170512918E+02  0.47279614984E+02  0.72378289548E+03  0.72656236232E+03  0.41800000000E+01 0. -1.
         -5    1    3    3    0  502  0.14906694955E+02 -0.51249988115E+02  0.25440697398E+03  0.25997913694E+03  0.41800000000E+01 0. -1.
        -11    1    4    4    0    0  0.15953244988E+02 -0.41905057218E+02  0.15375060986E+03  0.16015551779E+03  0.00000000000E+00 0. -1.
         11    1    4    4    0    0  0.11310572974E+02  0.45875430349E+02  0.25751506866E+03  0.26181385517E+03  0.00000000000E+00 0.  1.
</event>
<event>
 8    1  0.6869405E-009  0.8413788E+02  0.7561462E-02  0.1317703E+00
         -1   -1    0    0    0  501 -0.00000000000E+00  0.00000000000E+00  0.22078895080E+02  0.22078895080E+02  0.00000000000E+00 0.  1.
          1   -1    0    0  501    0  0.00000000000E+00 -0.00000000000E+00 -0.87347490854E+03  0.87347490854E+03  0.00000000000E+00 0. -1.
         25    2    1    2    0    0  0.24199679798E+02  0.24494440811E+02 -0.69923249362E+03  0.71116694859E+03  0.12508695574E+03 0.  0.
         23    2    1    2    0    0 -0.24199679798E+02 -0.24494440811E+02 -0.15216351984E+03  0.18438685503E+03  0.98281093836E+02 0.  0.
          5    1    3    3  502    0  0.93141127182E+01  0.42907381620E+02 -0.79074565681E+02  0.90543113658E+02  0.41800000000E+01 0.  1.
         -5    1    3    3    0  502  0.14885567080E+02 -0.18412940809E+02 -0.62015792794E+03  0.62062383493E+03  0.41800000000E+01 0.  1.
        -11    1    4    4    0    0  0.25669374834E+02 -0.40328295704E+02 -0.98225373584E+02  0.10924061632E+03  0.00000000000E+00 0. -1.
         11    1    4    4    0    0 -0.49869054632E+02  0.15833854893E+02 -0.53938146252E+02  0.75146238706E+02  0.00000000000E+00 0.  1.
</event>
<event>
 8    1  0.6869405E-009  0.9945436E+02  0.7561462E-02  0.1281448E+00
         -2   -1    0    0    0  501 -0.00000000000E+00  0.00000000000E+00  0.55511301583E+02  0.55511301583E+02  0.00000000000E+00 0.  1.
          2   -1    0    0  501    0  0.00000000000E+00 -0.00000000000E+00 -0.45129195697E+03  0.45129195697E+03  0.00000000000E+00 0. -1.
         25    2    1    2    0    0 -0.26617538580E+02  0.76124237270E+02 -0.34324457859E+03  0.37412245916E+03  0.12508949138E+03 0.  0.
         23    2    1    2    0    0  0.26617538580E+02 -0.76124237270E+02 -0.52536076798E+02  0.13268079940E+03  0.91327773996E+02 0.  0.
          5    1    3    3  502    0  0.21835252932E+02  0.40595943111E+02 -0.29019366031E+03  0.29386160306E+03  0.41800000000E+01 0.  1.
         -5    1    3    3    0  502 -0.48452791512E+02  0.35528294159E+02 -0.53050918275E+02  0.80260856094E+02  0.41800000000E+01 0.  1.
        -11    1    4    4    0    0 -0.12442221788E+02 -0.11839578257E+02 -0.54797378129E+02  0.57425927473E+02  0.00000000000E+00 0. -1.
         11    1    4    4    0    0  0.39059760368E+02 -0.64284659014E+02  0.22613013311E+01  0.75254871923E+02  0.00000000000E+00 0.  1.
</event>
<event>
 8    1  0.6869405E-009  0.2132370E+03  0.7561462E-02  0.1139028E+00
          2   -1    0    0  501    0  0.00000000000E+00  0.00000000000E+00  0.53298150616E+03  0.53298150616E+03  0.00000000000E+00 0. -1.
         -2   -1    0    0    0  501 -0.00000000000E+00 -0.00000000000E+00 -0.12908645802E+03  0.12908645802E+03  0.00000000000E+00 0.  1.
         25    2    1    2    0    0 -0.20116265045E+01 -0.20157916094E+03  0.46585622758E+02  0.24177733929E+03  0.12509139372E+03 0.  0.
         23    2    1    2    0    0  0.20116265045E+01  0.20157916094E+03  0.35730942539E+03  0.42029062489E+03  0.91301583413E+02 0.  0.
          5    1    3    3  502    0  0.21009446744E+02 -0.18193984900E+03 -0.33638160105E+01  0.18322743562E+03  0.41800000000E+01 0. -1.
         -5    1    3    3    0  502 -0.23021073249E+02 -0.19639311944E+02  0.49949438768E+02  0.58549903676E+02  0.41800000000E+01 0. -1.
        -11    1    4    4    0    0 -0.32397757532E+02  0.78278547935E+02  0.88258302236E+02  0.12233835733E+03  0.00000000000E+00 0. -1.
         11    1    4    4    0    0  0.34409384037E+02  0.12330061300E+03  0.26905112315E+03  0.29795226756E+03  0.00000000000E+00 0.  1.
</event>
<event>
 8    1  0.6869405E-009  0.1299624E+03  0.7561462E-02  0.1227511E+00
          1   -1    0    0  501    0  0.00000000000E+00  0.00000000000E+00  0.30770225318E+03  0.30770225318E+03  0.00000000000E+00 0. -1.
         -1   -1    0    0    0  501 -0.00000000000E+00 -0.00000000000E+00 -0.70954191559E+02  0.70954191559E+02  0.00000000000E+00 0.  1.
         25    2    1    2    0    0 -0.65970332109E+02  0.73206594783E+02  0.15462253235E+03  0.22196057509E+03  0.12508828541E+03 0.  0.
         23    2    1    2    0    0  0.65970332109E+02 -0.73206594783E+02  0.82125529279E+02  0.15669586965E+03  0.89987236701E+02 0.  0.
          5    1    3    3  502    0 -0.83396737649E+02  0.97003626630E+02  0.13635428836E+03  0.18701519667E+03  0.41800000000E+01 0. -1.
         -5    1    3    3    0  502  0.17426405541E+02 -0.23797031847E+02  0.18268243985E+02  0.34945378423E+02  0.41800000000E+01 0. -1.
        -11    1    4    4    0    0  0.47900137501E+02 -0.68290693020E+02  0.12195393821E+02  0.84301658087E+02  0.00000000000E+00 0.  1.
         11    1    4    4    0    0  0.18070194608E+02 -0.49159017634E+01  0.69930135458E+02  0.72394211568E+02  0.00000000000E+00 0. -1.
</event>
<event>
 8    1  0.6869405E-009  0.2354732E+03  0.7561462E-02  0.1122846E+00
         -2   -1    0    0    0  501 -0.00000000000E+00  0.00000000000E+00  0.66700870666E+02  0.66700870666E+02  0.00000000000E+00 0.  1.
          2   -1    0    0  501    0  0.00000000000E+00 -0.00000000000E+00 -0.14056321853E+04  0.14056321853E+04  0.00000000000E+00 0. -1.
         25    2    1    2    0    0  0.13300524773E+03  0.16833748318E+03 -0.11316420991E+04  0.11585724678E+04  0.12509363891E+03 0.  0.
         23    2    1    2    0    0 -0.13300524773E+03 -0.16833748318E+03 -0.20728921546E+03  0.31376058811E+03  0.97205882723E+02 0.  0.
          5    1    3    3  502    0  0.11350789626E+03  0.17968289180E+03 -0.85686266169E+03  0.88283694843E+03  0.41800000000E+01 0. -1.
         -5    1    3    3    0  502  0.19497351467E+02 -0.11345408617E+02 -0.27477943746E+03  0.27573551941E+03  0.41800000000E+01 0. -1.
        -11    1    4    4    0    0 -0.46873175736E+02 -0.60614800550E+00 -0.45060620682E+02  0.65022469618E+02  0.00000000000E+00 0.  1.
         11    1    4    4    0    0 -0.86132071991E+02 -0.16773133518E+03 -0.16222859478E+03  0.24873811849E+03  0.00000000000E+00 0. -1.
</event>
<event>
 8    1  0.6869405E-009  0.1183363E+03  0.7561462E-02  0.1245867E+00
          1   -1    0    0  501    0  0.00000000000E+00  0.00000000000E+00  0.97493876092E+02  0.97493876092E+02  0.00000000000E+00 0. -1.
         -1   -1    0    0    0  501 -0.00000000000E+00 -0.00000000000E+00 -0.23180459177E+03  0.23180459177E+03  0.00000000000E+00 0.  1.
         25    2    1    2    0    0  0.91112426016E+02  0.14687855178E+02 -0.97054663489E+02  0.18326004894E+03  0.12508969010E+03 0.  0.
         23    2    1    2    0    0 -0.91112426016E+02 -0.14687855178E+02 -0.37256052185E+02  0.14603841891E+03  0.10687375314E+03 0.  0.
          5    1    3    3  502    0  0.10058492966E+03  0.37250230420E+02 -0.11130798278E+03  0.15463456008E+03  0.41800000000E+01 0. -1.
         -5    1    3    3    0  502 -0.94725036459E+01 -0.22562375242E+02  0.14253319289E+02  0.28625488863E+02  0.41800000000E+01 0. -1.
        -11    1    4    4    0    0 -0.80166262279E+02 -0.30075201860E+02 -0.68418919006E+02  0.10960061976E+03  0.00000000000E+00 0.  1.
         11    1    4    4    0    0 -0.10946163737E+02  0.15387346682E+02  0.31162866821E+02  0.36437799151E+02  0.00000000000E+00 0. -1.
</event>
<event>
 8    1  0.6869405E-009  0.1238113E+03  0.7561462E-02  0.1236939E+00
          1   -1    0    0  501    0  0.00000000000E+00  0.00000000000E+00  0.68527204547E+03  0.68527204547E+03  0.00000000000E+00 0. -1.
         -1   -1    0    0    0  501 -0.00000000000E+00 -0.00000000000E+00 -0.29184143527E+02  0.29184143527E+02  0.00000000000E+00 0.  1.
         25    2    1    2    0    0 -0.59819409299E+02  0.36818905791E+02  0.21746635329E+03  0.26054063728E+03  0.12512320052E+03 0.  0.
         23    2    1    2    0    0  0.59819409299E+02 -0.36818905791E+02  0.43862154866E+03  0.45391555172E+03  0.93362045804E+02 0.  0.
          5    1    3    3  502    0 -0.62322228280E+02 -0.30345805357E+02  0.14960893920E+03  0.16494009558E+03  0.41800000000E+01 0.  1.
         -5    1    3    3    0  502  0.25028189810E+01  0.67164711148E+02  0.67857414086E+02  0.95600541698E+02  0.41800000000E+01 0.  1.
        -11    1    4    4    0    0 -0.22269332064E+02 -0.51863684616E+01  0.43769453396E+02  0.49382047537E+02  0.00000000000E+00 0.  1.
         11    1    4    4    0    0  0.82088741362E+02 -0.31632537330E+02  0.39485209526E+03  0.40453350419E+03  0.00000000000E+00 0. -1.
</event>
<event>
 8    1  0.6869405E-009  0.1042581E+03  0.7561462E-02  0.1271588E+00
         -3   -1    0    0    0  501 -0.00000000000E+00  0.00000000000E+00  0.52793612543E+02  0.52793612543E+02  0.00000000000E+00 0.  1.
          3   -1    0    0  501    0  0.00000000000E+00 -0.00000000000E+00 -0.30737130224E+03  0.30737130224E+03  0.00000000000E+00 0. -1.
         25    2    1    2    0    0  0.34422626059E+02 -0.34005995618E+02 -0.15055606937E+03  0.20163272760E+03  0.12508917576E+03 0.  0.
         23    2    1    2    0    0 -0.34422626059E+02  0.34005995618E+02 -0.10402162033E+03  0.15853218719E+03  0.10941038321E+03 0.  0.
          5    1    3    3  502    0  0.23811171165E+02  0.26825228615E+02  0.28385700269E+01  0.36222846965E+02  0.41800000000E+01 0.  1.
         -5    1    3    3    0  502  0.10611454894E+02 -0.60831224232E+02 -0.15339463939E+03  0.16540988063E+03  0.41800000000E+01 0.  1.
        -11    1    4    4    0    0  0.27246813769E+02  0.40167915920E+02 -0.76774966137E+02  0.90830863451E+02  0.00000000000E+00 0. -1.
         11    1    4    4    0    0 -0.61669439828E+02 -0.61619203023E+01 -0.27246654194E+02  0.67701323734E+02  0.00000000000E+00 0.  1.
</event>
<event>
 8    1  0.6869405E-009  0.1524773E+03  0.7561462E-02  0.1197462E+00
         -1   -1    0    0    0  501 -0.00000000000E+00  0.00000000000E+00  0.77320984384E+02  0.77320984384E+02  0.00000000000E+00 0.  1.
          1   -1    0    0  501    0  0.00000000000E+00 -0.00000000000E+00 -0.39097811407E+03  0.39097811407E+03  0.00000000000E+00 0. -1.
         25    2    1    2    0    0  0.42353700439E+01 -0.12206225695E+03 -0.86819733082E+02  0.19519853633E+03  0.12509064554E+03 0.  0.
         23    2    1    2    0    0 -0.42353700439E+01  0.12206225695E+03 -0.22683739660E+03  0.27310056212E+03  0.90617766479E+02 0.  0.
          5    1    3    3  502    0 -0.57230340349E+02 -0.84804518169E+02 -0.57722972779E+02  0.11754374566E+03  0.41800000000E+01 0.  1.
         -5    1    3    3    0  502  0.61465710392E+02 -0.37257738784E+02 -0.29096760303E+02  0.77654790667E+02  0.41800000000E+01 0.  1.
        -11    1    4    4    0    0  0.15087203639E+02  0.10043162829E+03 -0.22141275555E+03  0.24359339891E+03  0.00000000000E+00 0. -1.
         11    1    4    4    0    0 -0.19322573682E+02  0.21630628668E+02 -0.54246410578E+01  0.29507163213E+02  0.00000000000E+00 0.  1.
</event>
<event>
 8    1  0.6869405E-009  0.1171125E+03  0.7561462E-02  0.1247938E+00
         -2   -1    0    0    0  501 -0.00000000000E+00  0.00000000000E+00  0.27863267975E+02  0.27863267975E+02  0.00000000000E+00 0.  1.
          2   -1    0    0  501    0  0.00000000000E+00 -0.00000000000E+00 -0.54017175377E+03  0.54017175377E+03  0.00000000000E+00 0. -1.
         25    2    1    2    0    0 -0.44715670076E+02  0.30095687506E+02 -0.27255702106E+03  0.30469659427E+03  0.12508974087E+03 0.  0.
         23    2    1    2    0    0  0.44715670076E+02 -0.30095687506E+02 -0.23975146474E+03  0.26333842748E+03  0.94663197637E+02 0.  0.
          5    1    3    3  502    0  0.21767797230E+02 -0.36057751415E+02 -0.84269652353E+02  0.94301883020E+02  0.41800000000E+01 0. -1.
         -5    1    3    3    0  502 -0.66483467306E+02  0.66153438922E+02 -0.18828736870E+03  0.21039471125E+03  0.41800000000E+01 0. -1.
        -11    1    4    4    0    0 -0.16883456583E+02 -0.32226609151E+02 -0.15075242842E+03  0.15508030216E+03  0.00000000000E+00 0. -1.
         11    1    4    4    0    0  0.61599126659E+02  0.21309216450E+01 -0.88999036317E+02  0.10825812532E+03  0.00000000000E+00 0.  1.
</event>
<event>
 8    1  0.6869405E-009  0.1201433E+03  0.7561462E-02  0.1242861E+00
         -1   -1    0    0    0  501 -0.00000000000E+00  0.00000000000E+00  0.32810639016E+02  0.32810639016E+02  0.00000000000E+00 0.  1.
          1   -1    0    0  501    0  0.00000000000E+00 -0.00000000000E+00 -0.45335918036E+03  0.45335918036E+03  0.00000000000E+00 0. -1.
         25    2    1    2    0    0  0.43105605471E+02 -0.30239722503E+02 -0.25854576716E+03  0.29200285658E+03  0.12508885040E+03 0.  0.
         23    2    1    2    0    0 -0.43105605471E+02  0.30239722503E+02 -0.16200277418E+03  0.19416696279E+03  0.93184636920E+02 0.  0.
          5    1    3    3  502    0 -0.26904866721E+02 -0.54731351913E+02 -0.12643987886E+03  0.14044183174E+03  0.41800000000E+01 0. -1.
         -5    1    3    3    0  502  0.70010472193E+02  0.24491629411E+02 -0.13210588830E+03  0.15156102485E+03  0.41800000000E+01 0. -1.
        -11    1    4    4    0    0 -0.57265061520E+02  0.53023217511E+02 -0.10192390090E+03  0.12837145493E+03  0.00000000000E+00 0.  1.
         11    1    4    4    0    0  0.14159456049E+02 -0.22783495008E+02 -0.60078873276E+02  0.65795507860E+02  0.00000000000E+00 0. -1.
</event>
<event>
 8    1  0.6869405E-009  0.9434724E+02  0.7561462E-02  0.1292653E+00
          1   -1    0    0  501    0  0.00000000000E+00  0.00000000000E+00  0.24183206668E+03  0.24183206668E+03  0.00000000000E+00 0. -1.
         -1   -1    0    0    0  501 -0.00000000000E+00 -0.00000000000E+00 -0.52978939977E+02  0.52978939977E+02  0.00000000000E+00 0.  1.
         25    2    1    2    0    0 -0.12220860297E+02 -0.15702082489E+02  0.60201457822E+02  0.14024050894E+03  0.12508908827E+03 0.  0.
         23    2    1    2    0    0  0.12220860297E+02  0.15702082489E+02  0.12865166888E+03  0.15457049771E+03  0.83335958844E+02 0.  0.
          5    1    3    3  502    0  0.26784559463E+02 -0.46893798424E+02 -0.88852336350E+01  0.54889532089E+02  0.41800000000E+01 0.  1.
         -5    1    3    3    0  502 -0.39005419760E+02  0.31191715934E+02  0.69086691457E+02  0.85350976855E+02  0.41800000000E+01 0.  1.
        -11    1    4    4    0    0 -0.32805107137E+02 -0.76560700306E+01  0.38743170618E+02  0.51340273978E+02  0.00000000000E+00 0.  1.
         11    1    4    4    0    0  0.45025967434E+02  0.23358152520E+02  0.89908498259E+02  0.10323022373E+03  0.00000000000E+00 0. -1.
</event>
<event>
 8    1  0.6869405E-009  0.2090665E+03  0.7561462E-02  0.1142307E+00
         -2   -1    0    0    0  501 -0.00000000000E+00  0.00000000000E+00  0.11808657643E+03  0.11808657643E+03  0.00000000000E+00 0.  1.
          2   -1    0    0  501    0  0.00000000000E+00 -0.00000000000E+00 -0.53890386410E+03  0.53890386410E+03  0.00000000000E+00 0. -1.
         25    2    1    2    0    0 -0.98031601922E+02 -0.17724593543E+03 -0.36103572962E+03  0.43246211468E+03  0.12510142276E+03 0.  0.
         23    2    1    2    0    0  0.98031601922E+02  0.17724593543E+03 -0.59781558057E+02  0.22452832584E+03  0.76241837730E+02 0.  0.
          5    1    3    3  502    0 -0.91328253339E+02 -0.13771550482E+03 -0.35513530717E+03  0.39172052400E+03  0.41800000000E+01 0.  1.
         -5    1    3    3    0  502 -0.67033485824E+01 -0.39530430610E+02 -0.59004224484E+01  0.40741590684E+02  0.41800000000E+01 0.  1.
        -11    1    4    4    0    0  0.70803867171E+02  0.62031134145E+02 -0.47689328961E+02  0.10552403189E+03  0.00000000000E+00 0.  1.
         11    1    4    4    0    0  0.27227734751E+02  0.11521480128E+03 -0.12092229096E+02  0.11900429395E+03  0.00000000000E+00 0. -1.
</event>
<event>
 8    1  0.6869405E-009  0.3128635E+03  0.7561462E-02  0.1078981E+00
         -4   -1    0    0    0  501 -0.00000000000E+00  0.00000000000E+00  0.23663787858E+03  0.23663787858E+03  0.00000000000E+00 0.  1.
          4   -1    0    0  501    0  0.00000000000E+00 -0.00000000000E+00 -0.57512147017E+03  0.57512147017E+03  0.00000000000E+00 0. -1.
         25    2    1    2    0    0 -0.21329836442E+03  0.21540018801E+03 -0.36955037221E+03  0.49407350166E+03  0.12509082376E+03 0.  0.
         23    2    1    2    0    0  0.21329836442E+03 -0.21540018801E+03  0.31066780619E+02  0.31768584708E+03  0.89809349846E+02 0.  0.
          5    1    3    3  502    0 -0.10809780994E+03  0.65738128534E+02 -0.23506987804E+03  0.26698681244E+03  0.41800000000E+01 0. -1.
         -5    1    3    3    0  502 -0.10520055448E+03  0.14966205948E+03 -0.13448049416E+03  0.22708668922E+03  0.41800000000E+01 0. -1.
        -11    1    4    4    0    0  0.17442571956E+03 -0.11613558595E+03  0.21599073189E+02  0.21066163849E+03  0.00000000000E+00 0. -1.
         11    1    4    4    0    0  0.38872644855E+02 -0.99264602065E+02  0.94677074302E+01  0.10702420859E+03  0.00000000000E+00 0.  1.
</event>
<event>
 8    1  0.6869405E-009  0.1485631E+03  0.7561462E-02  0.1202250E+00
          1   -1    0    0  501    0  0.00000000000E+00  0.00000000000E+00  0.12672791421E+03  0.12672791421E+03  0.00000000000E+00 0. -1.
         -1   -1    0    0    0  501 -0.00000000000E+00 -0.00000000000E+00 -0.19248734919E+03  0.19248734919E+03  0.00000000000E+00 0.  1.
         25    2    1    2    0    0 -0.90488107774E+02  0.53843337151E+02 -0.75372028545E+02  0.18004268897E+03  0.12508886665E+03 0.  0.
         23    2    1    2    0    0  0.90488107774E+02 -0.53843337151E+02  0.96125935692E+01  0.13917257443E+03  0.90495308803E+02 0.  0.
          5    1    3    3  502    0  0.12480942672E+00  0.70971254589E+02 -0.29675328988E+02  0.77039159561E+02  0.41800000000E+01 0. -1.
         -5    1    3    3    0  502 -0.90612917201E+02 -0.17127917437E+02 -0.45696699557E+02  0.10300352940E+03  0.41800000000E+01 0. -1.
        -11    1    4    4    0    0  0.10615448174E+03 -0.42354504679E+02 -0.57026292510E+01  0.11443425204E+03  0.00000000000E+00 0.  1.
         11    1    4    4    0    0 -0.15666373965E+02 -0.11488832472E+02  0.15315222820E+02  0.24738322393E+02  0.00000000000E+00 0. -1.
</event>
<event>
 8    1  0.6869405E-009  0.1313121E+03  0.7561462E-02  0.1225522E+00
          1   -1    0    0  501    0  0.00000000000E+00  0.00000000000E+00  0.61765357446E+03  0.61765357446E+03  0.00000000000E+00 0.  1.
         -1   -1    0    0    0  501 -0.00000000000E+00 -0.00000000000E+00 -0.30069140835E+02  0.30069140835E+02  0.00000000000E+00 0. -1.
         25    2    1    2    0    0  0.51880281404E+02 -0.63218672167E+02  0.35123404542E+03  0.38171017205E+03  0.12509650943E+03 0.  0.
         23    2    1    2    0    0 -0.51880281404E+02  0.63218672167E+02  0.23635038820E+03  0.26601254325E+03  0.90625620285E+02 0.  0.
          5    1    3    3  502    0  0.87734600994E+02 -0.70293237079E+02  0.25654234740E+03  0.28012487894E+03  0.41800000000E+01 0. -1.
         -5    1    3    3    0  502 -0.35854319590E+02  0.70745649126E+01  0.94691698025E+02  0.10158529311E+03  0.41800000000E+01 0. -1.
        -11    1    4    4    0    0 -0.72490436756E+02  0.42081794395E+02  0.21121782771E+03  0.22724152698E+03  0.00000000000E+00 0. -1.
         11    1    4    4    0    0  0.20610155352E+02  0.21136877772E+02  0.25132560490E+02  0.38771016267E+02  0.00000000000E+00 0.  1.
</event>
<event>
 8    1  0.6869405E-009  0.8382048E+02  0.7561462E-02  0.1318546E+00
          2   -1    0    0  501    0  0.00000000000E+00  0.00000000000E+00  0.39015960061E+03  0.39015960061E+03  0.00000000000E+00 0. -1.
         -2   -1    0    0    0  501 -0.00000000000E+00 -0.00000000000E+00 -0.35363096465E+02  0.35363096465E+02  0.00000000000E+00 0.  1.
         25    2    1    2    0    0  0.70941843520E+01 -0.10700494761E+02  0.26435777820E+03  0.29274147393E+03  0.12509079753E+03 0.  0.
         23    2    1    2    0    0 -0.70941843520E+01  0.10700494761E+02  0.90438725952E+02  0.13278122315E+03  0.96368366330E+02 0.  0.
          5    1    3    3  502    0 -0.20505087613E+01  0.37680542391E+02  0.22863649389E+03  0.23176744076E+03  0.41800000000E+01 0. -1.
         -5    1    3    3    0  502  0.91446931132E+01 -0.48381037152E+02  0.35721284311E+02  0.60974033169E+02  0.41800000000E+01 0. -1.
        -11    1    4    4    0    0 -0.43194290899E+02  0.89806955413E+01  0.10941811462E+02  0.45454624591E+02  0.00000000000E+00 0.  1.
         11    1    4    4    0    0  0.36100106547E+02  0.17197992193E+01  0.79496914490E+02  0.87326598557E+02  0.00000000000E+00 0. -1.
</event>
<event>
 8    1  0.6869405E-009  0.1320773E+03  0.7561462E-02  0.1224405E+00
         -2   -1    0    0    0  501 -0.00000000000E+00  0.00000000000E+00  0.89164387217E+02  0.89164387217E+02  0.00000000000E+00 0.  1.
          2   -1    0    0  501    0  0.00000000000E+00 -0.00000000000E+00 -0.21895017794E+03  0.21895017794E+03  0.00000000000E+00 0. -1.
         25    2    1    2    0    0 -0.29975360563E+02 -0.80730467404E+02 -0.91151189990E+02  0.17712049477E+03  0.12508876697E+03 0.  0.
         23    2    1    2    0    0  0.29975360563E+02  0.80730467404E+02 -0.38634600729E+02  0.13099407039E+03  0.90834373971E+02 0.  0.
          5    1    3    3  502    0 -0.72482172522E+02 -0.31796942539E+02 -0.77288397896E+02  0.11070537357E+03  0.41800000000E+01 0. -1.
         -5    1    3    3    0  502  0.42506811959E+02 -0.48933524865E+02 -0.13862792094E+02  0.66415121195E+02  0.41800000000E+01 0. -1.
        -11    1    4    4    0    0  0.59013743529E+02  0.60744939415E+02 -0.94254390272E+01  0.85213898460E+02  0.00000000000E+00 0.  1.
         11    1    4    4    0    0 -0.29038382966E+02  0.19985527989E+02 -0.29209161702E+02  0.45780171926E+02  0.00000000000E+00 0. -1.
</event>
<event>
 8    1  0.6869405E-009  0.1642691E+03  0.7561462E-02  0.1183960E+00
          2   -1    0    0  501    0  0.00000000000E+00  0.00000000000E+00  0.52500099214E+03  0.52500099214E+03  0.00000000000E+00 0. -1.
         -2   -1    0    0    0  501 -0.00000000000E+00 -0.00000000000E+00 -0.60209409188E+02  0.60209409188E+02  0.00000000000E+00 0.  1.
         25    2    1    2    0    0 -0.91998625443E+01 -0.13651546996E+03  0.29174274250E+03  0.34566327317E+03  0.12509260412E+03 0.  0.
         23    2    1    2    0    0  0.91998625443E+01  0.13651546996E+03  0.17304884045E+03  0.23954712816E+03  0.93358526215E+02 0.  0.
          5    1    3    3  502    0 -0.31853024983E+02 -0.13866149428E+03  0.16989221185E+03  0.22163587536E+03  0.41800000000E+01 0. -1.
         -5    1    3    3    0  502  0.22653162439E+02  0.21460243170E+01  0.12185053065E+03  0.12402739782E+03  0.41800000000E+01 0. -1.
        -11    1    4    4    0    0  0.49002214347E+02  0.67738681342E+02  0.67633167986E+02  0.10753600036E+03  0.00000000000E+00 0.  1.
         11    1    4    4    0    0 -0.39802351803E+02  0.68776788622E+02  0.10541567246E+03  0.13201112780E+03  0.00000000000E+00 0. -1.
</event>
<event>
 8    1  0.6869405E-009  0.1770350E+03  0.7561462E-02  0.1170704E+00
         -1   -1    0    0    0  501 -0.00000000000E+00  0.00000000000E+00  0.13505417664E+03  0.13505417664E+03  0.00000000000E+00 0.  1.
          1   -1    0    0  501    0  0.00000000000E+00 -0.00000000000E+00 -0.31209177622E+03  0.31209177622E+03  0.00000000000E+00 0. -1.
         25    2    1    2    0    0  0.12065325999E+03  0.11496287511E+03 -0.14705484356E+03  0.25503926087E+03  0.12508487429E+03 0.  0.
         23    2    1    2    0    0 -0.12065325999E+03 -0.11496287511E+03 -0.29982756031E+02  0.19210669199E+03  0.90732263543E+02 0.  0.
          5    1    3    3  502    0  0.60807722474E+02  0.38078544967E+02 -0.13987177995E+03  0.15725502194E+03  0.41800000000E+01 0.  1.
         -5    1    3    3    0  502  0.59845537512E+02  0.76884330144E+02 -0.71830636107E+01  0.97784238938E+02  0.41800000000E+01 0.  1.
        -11    1    4    4    0    0 -0.88149616677E+02 -0.12288009870E+03 -0.67532868058E+01  0.15137859974E+03  0.00000000000E+00 0.  1.
         11    1    4    4    0    0 -0.32503643309E+02  0.79172235858E+01 -0.23229469226E+02  0.40728092248E+02  0.00000000000E+00 0. -1.
</event>
<event>
 8    1  0.6869405E-009  0.1979221E+03  0.7561462E-02  0.1151504E+00
         -2   -1    0    0    0  501 -0.00000000000E+00  0.00000000000E+00  0.19514383672E+02  0.19514383672E+02  0.00000000000E+00 0.  1.
          2   -1    0    0  501    0  0.00000000000E+00 -0.00000000000E+00 -0.20339116255E+04  0.20339116255E+04  0.00000000000E+00 0. -1.
         25    2    1    2    0    0  0.16302229164E+03  0.14840571905E+02 -0.96043959674E+03  0.98228691816E+03  0.12508741124E+03 0.  0.
         23    2    1    2    0    0 -0.16302229164E+03 -0.14840571905E+02 -0.10539576450E+04  0.10711390910E+04  0.98568374822E+02 0.  0.
          5    1    3    3  502    0 -0.10010603599E+02  0.29279975010E+02 -0.11318697297E+03  0.11741504321E+03  0.41800000000E+01 0.  1.
         -5    1    3    3    0  502  0.17303289524E+03 -0.14439403104E+02 -0.84725262377E+03  0.86487187495E+03  0.41800000000E+01 0.  1.
        -11    1    4    4    0    0 -0.51837531511E+02 -0.52272883594E+02 -0.42701207376E+03  0.43331154516E+03  0.00000000000E+00 0. -1.
         11    1    4    4    0    0 -0.11118476013E+03  0.37432311689E+02 -0.62694557128E+03  0.63782754581E+03  0.00000000000E+00 0.  1.
</event>
<event>
 8    1  0.6869405E-009  0.1151114E+03  0.7561462E-02  0.1251387E+00
          2   -1    0    0  501    0  0.00000000000E+00  0.00000000000E+00  0.22178978787E+03  0.22178978787E+03  0.00000000000E+00 0. -1.
         -2   -1    0    0    0  501 -0.00000000000E+00 -0.00000000000E+00 -0.69182818646E+02  0.69182818646E+02  0.00000000000E+00 0.  1.
         25    2    1    2    0    0  0.26928173007E+02  0.13549784255E+02  0.10317201765E+03  0.16492584818E+03  0.12508935613E+03 0.  0.
         23    2    1    2    0    0 -0.26928173007E+02 -0.13549784255E+02  0.49434951575E+02  0.12604675833E+03  0.11196092039E+03 0.  0.
          5    1    3    3  502    0  0.63499948722E+02  0.46835195577E+02  0.65059857484E+02  0.10235251090E+03  0.41800000000E+01 0. -1.
         -5    1    3    3    0  502 -0.36571775715E+02 -0.33285411322E+02  0.38112160161E+02  0.62573337276E+02  0.41800000000E+01 0. -1.
        -11    1    4    4    0    0  0.28171140949E+00  0.40799736664E+02  0.50918050286E+02  0.65248338815E+02  0.00000000000E+00 0. -1.
         11    1    4    4    0    0 -0.27209884417E+02 -0.54349520919E+02 -0.14830987108E+01  0.60798419518E+02  0.00000000000E+00 0.  1.
</event>
<event>
 8    1  0.6869405E-009  0.1033153E+03  0.7561462E-02  0.1273475E+00
          2   -1    0    0  501    0  0.00000000000E+00  0.00000000000E+00  0.67545122109E+03  0.67545122109E+03  0.00000000000E+00 0. -1.
         -2   -1    0    0    0  501 -0.00000000000E+00 -0.00000000000E+00 -0.25357078768E+02  0.25357078768E+02  0.00000000000E+00 0.  1.
         25    2    1    2    0    0  0.78286086297E-01 -0.47715762275E+02  0.52072811869E+03  0.53765338880E+03  0.12504636257E+03 0.  0.
         23    2    1    2    0    0 -0.78286086297E-01  0.47715762275E+02  0.12936602363E+03  0.16315491106E+03  0.87219016471E+02 0.  0.
          5    1    3    3  502    0 -0.29288320970E+02 -0.66470505547E+02  0.16664716548E+03  0.18183752092E+03  0.41800000000E+01 0.  1.
         -5    1    3    3    0  502  0.29366607056E+02  0.18754743272E+02  0.35408095321E+03  0.35581586788E+03  0.41800000000E+01 0.  1.
        -11    1    4    4    0    0  0.26735942968E+02  0.62628880310E+02  0.97423791107E+02  0.11886371342E+03  0.00000000000E+00 0.  1.
         11    1    4    4    0    0 -0.26814229054E+02 -0.14913118035E+02  0.31942232527E+02  0.44291197637E+02  0.00000000000E+00 0. -1.
</event>
<event>
 8    1  0.6869405E-009  0.1334623E+03  0.7561462E-02  0.1222407E+00
         -2   -1    0    0    0  501 -0.00000000000E+00  0.00000000000E+00  0.22986176927E+02  0.22986176927E+02  0.00000000000E+00 0.  1.
          2   -1    0    0  501    0  0.00000000000E+00 -0.00000000000E+00 -0.89632349182E+03  0.89632349182E+03  0.00000000000E+00 0. -1.
         25    2    1    2    0    0 -0.52522404112E+02  0.74617780944E+02 -0.40150041474E+03  0.43032079834E+03  0.12508793018E+03 0.  0.
         23    2    1    2    0    0  0.52522404112E+02 -0.74617780944E+02 -0.47183690015E+03  0.48898887041E+03  0.90297502037E+02 0.  0.
          5    1    3    3  502    0  0.35223487441E+02  0.30727158740E+02 -0.67695084217E+02  0.82370802952E+02  0.41800000000E+01 0.  1.
         -5    1    3    3    0  502 -0.87745891553E+02  0.43890622204E+02 -0.33380533053E+03  0.34794999539E+03  0.41800000000E+01 0.  1.
        -11    1    4    4    0    0 -0.14518983821E+02 -0.47168750906E+02 -0.27166421251E+03  0.27611073198E+03  0.00000000000E+00 0.  1.
         11    1    4    4    0    0  0.67041387933E+02 -0.27449030038E+02 -0.20017268763E+03  0.21287813843E+03  0.00000000000E+00 0. -1.
</event>
<event>
 8    1  0.6869405E-009  0.1200701E+03  0.7561462E-02  0.1242982E+00
          1   -1    0    0  501    0  0.00000000000E+00  0.00000000000E+00  0.10060306176E+04  0.10060306176E+04  0.00000000000E+00 0. -1.
         -1   -1    0    0    0  501 -0.00000000000E+00 -0.00000000000E+00 -0.16226183756E+02  0.16226183756E+02  0.00000000000E+00 0.  1.
         25    2    1    2    0    0 -0.51992920839E+01 -0.63367564005E+02  0.62154048655E+03  0.63717680416E+03  0.12505687722E+03 0.  0.
         23    2    1    2    0    0  0.51992920839E+01  0.63367564005E+02  0.36826394727E+03  0.38507999716E+03  0.92875123433E+02 0.  0.
          5    1    3    3  502    0  0.12281033108E+02  0.36370821481E+02  0.15256439832E+03  0.15737543793E+03  0.41800000000E+01 0.  1.
         -5    1    3    3    0  502 -0.17480325192E+02 -0.99738385486E+02  0.46897608823E+03  0.47980136623E+03  0.41800000000E+01 0.  1.
        -11    1    4    4    0    0 -0.12355182816E+02 -0.15249793663E+02  0.21621169331E+02  0.29200714244E+02  0.00000000000E+00 0.  1.
         11    1    4    4    0    0  0.17554474899E+02  0.78617357667E+02  0.34664277793E+03  0.35587928292E+03  0.00000000000E+00 0. -1.
</event>
<event>
 8    1  0.6869405E-009  0.9320611E+02  0.7561462E-02  0.1295268E+00
         -1   -1    0    0    0  501 -0.00000000000E+00  0.00000000000E+00  0.17939380557E+03  0.17939380557E+03  0.00000000000E+00 0.  1.
          1   -1    0    0  501    0  0.00000000000E+00 -0.00000000000E+00 -0.54431242197E+02  0.54431242197E+02  0.00000000000E+00 0. -1.
         25    2    1    2    0    0  0.27480983927E+02 -0.47726375623E+01  0.80667624702E+02  0.15143448708E+03  0.12508859123E+03 0.  0.
         23    2    1    2    0    0 -0.27480983927E+02  0.47726375623E+01  0.44294938669E+02  0.82390560682E+02  0.63625312187E+02 0.  0.
          5    1    3    3  502    0 -0.17131653644E+02 -0.56490710960E+02  0.44440489702E+02  0.74007590869E+02  0.41800000000E+01 0. -1.
         -5    1    3    3    0  502  0.44612637571E+02  0.51718073398E+02  0.36227135000E+02  0.77426896214E+02  0.41800000000E+01 0. -1.
        -11    1    4    4    0    0  0.29262763702E+01  0.23110695217E+02 -0.27412405622E+01  0.23455952904E+02  0.00000000000E+00 0. -1.
         11    1    4    4    0    0 -0.30407260298E+02 -0.18338057655E+02  0.47036179231E+02  0.58934607779E+02  0.00000000000E+00 0.  1.
</event>
<event>
 8    1  0.6869405E-009  0.1958721E+03  0.7561462E-02  0.1153269E+00
          1   -1    0    0  501    0  0.00000000000E+00  0.00000000000E+00  0.99052556835E+02  0.99052556835E+02  0.00000000000E+00 0. -1.
         -1   -1    0    0    0  501 -0.00000000000E+00 -0.00000000000E+00 -0.54154512700E+03  0.54154512700E+03  0.00000000000E+00 0.  1.
         25    2    1    2    0    0  0.72692553686E+02 -0.15651806212E+03 -0.38087065643E+03  0.43645254393E+03  0.12508499126E+03 0.  0.
         23    2    1    2    0    0 -0.72692553686E+02  0.15651806212E+03 -0.61621913736E+02  0.20414513991E+03  0.89977034653E+02 0.  0.
          5    1    3    3  502    0  0.10643132035E+03 -0.13592436475E+03 -0.32268643110E+03  0.36598779228E+03  0.41800000000E+01 0. -1.
         -5    1    3    3    0  502 -0.33738766659E+02 -0.20593697366E+02 -0.58184225328E+02  0.70464751641E+02  0.41800000000E+01 0. -1.
        -11    1    4    4    0    0 -0.45788613965E+02  0.14100754441E+03 -0.79588311527E+02  0.16826771551E+03  0.00000000000E+00 0.  1.
         11    1    4    4    0    0 -0.26903939722E+02  0.15510517706E+02  0.17966397792E+02  0.35877424401E+02  0.00000000000E+00 0. -1.
</event>
<event>
 8    1  0.6869405E-009  0.1567309E+03  0.7561462E-02  0.1192438E+00
         -2   -1    0    0    0  501 -0.00000000000E+00  0.00000000000E+00  0.47222682455E+03  0.47222682455E+03  0.00000000000E+00 0.  1.
          2   -1    0    0  501    0  0.00000000000E+00 -0.00000000000E+00 -0.70410542695E+02  0.70410542695E+02  0.00000000000E+00 0. -1.
         25    2    1    2    0    0  0.13982957889E+03 -0.37325945386E+02  0.18269788256E+03  0.26452015850E+03  0.12508741195E+03 0.  0.
         23    2    1    2    0    0 -0.13982957889E+03  0.37325945386E+02  0.21911839930E+03  0.27811720875E+03  0.91601154796E+02 0.  0.
          5    1    3    3  502    0  0.12639999313E+03 -0.55768740586E+02  0.19440993155E+03  0.23853679921E+03  0.41800000000E+01 0. -1.
         -5    1    3    3    0  502  0.13429585767E+02  0.18442795200E+02 -0.11712048991E+02  0.25983359295E+02  0.41800000000E+01 0. -1.
        -11    1    4    4    0    0 -0.87138732635E+02  0.46179412699E+02  0.73469313958E+02  0.12297738400E+03  0.00000000000E+00 0. -1.
         11    1    4    4    0    0 -0.52690846258E+02 -0.88534673127E+01  0.14564908534E+03  0.15513982475E+03  0.00000000000E+00 0.  1.
</event>
<event>
 8    1  0.6869405E-009  0.1730532E+03  0.7561462E-02  0.1174701E+00
         -2   -1    0    0    0  501 -0.00000000000E+00  0.00000000000E+00  0.36151942702E+02  0.36151942702E+02  0.00000000000E+00 0.  1.
          2   -1    0    0  501    0  0.00000000000E+00 -0.00000000000E+00 -0.84616030708E+03  0.84616030708E+03  0.00000000000E+00 0. -1.
         25    2    1    2    0    0  0.77442821164E+02  0.11072327481E+03 -0.36678100478E+03  0.41040544945E+03  0.12508914155E+03 0.  0.
         23    2    1    2    0    0 -0.77442821164E+02 -0.11072327481E+03 -0.44322735960E+03  0.47190680033E+03  0.89378418934E+02 0.  0.
          5    1    3    3  502    0  0.10189460161E+03  0.40627017820E+02 -0.21889883277E+03  0.24488208550E+03  0.41800000000E+01 0. -1.
         -5    1    3    3    0  502 -0.24451780445E+02  0.70096256994E+02 -0.14788217202E+03  0.16552336395E+03  0.41800000000E+01 0. -1.
        -11    1    4    4    0    0  0.19992298632E+02 -0.26420358525E+02 -0.94343593192E+02  0.99992204324E+02  0.00000000000E+00 0.  1.
         11    1    4    4    0    0 -0.97435119796E+02 -0.84302916289E+02 -0.34888376640E+03  0.37191459601E+03  0.00000000000E+00 0. -1.
</event>
<event>
 8    1  0.6869405E-009  0.1404153E+03  0.7561462E-02  0.1212771E+00
         -2   -1    0    0    0  501 -0.00000000000E+00  0.00000000000E+00  0.37183371331E+02  0.37183371331E+02  0.00000000000E+00 0.  1.
          2   -1    0    0  501    0  0.00000000000E+00 -0.00000000000E+00 -0.75497101628E+03  0.75497101628E+03  0.00000000000E+00 0. -1.
         25    2    1    2    0    0  0.69691223519E+02 -0.10334200061E+03 -0.33261907138E+03  0.37658979677E+03  0.12509193682E+03 0.  0.
         23    2    1    2    0    0 -0.69691223519E+02  0.10334200061E+03 -0.38516857356E+03  0.41556459084E+03  0.93822509956E+02 0.  0.
          5    1    3    3  502    0  0.11140703182E+02 -0.86489114433E+02 -0.86097178778E+02  0.12261598092E+03  0.41800000000E+01 0. -1.
         -5    1    3    3    0  502  0.58550520337E+02 -0.16852886176E+02 -0.24652189260E+03  0.25397381585E+03  0.41800000000E+01 0. -1.
        -11    1    4    4    0    0 -0.51734100093E+02  0.36680936201E+02 -0.29640749609E+03  0.30311600408E+03  0.00000000000E+00 0.  1.
         11    1    4    4    0    0 -0.17957123426E+02  0.66661064408E+02 -0.88761077478E+02  0.11244858676E+03  0.00000000000E+00 0. -1.
</event>
<event>
 8    1  0.6869405E-009  0.8825748E+02  0.7561462E-02  0.1307127E+00
         -1   -1    0    0    0  501 -0.00000000000E+00  0.00000000000E+00  0.45413364335E+02  0.45413364335E+02  0.00000000000E+00 0.  1.
          1   -1    0    0  501    0  0.00000000000E+00 -0.00000000000E+00 -0.44831559297E+03  0.44831559297E+03  0.00000000000E+00 0. -1.
         25    2    1    2    0    0 -0.24973498145E+01 -0.33393575867E+01 -0.37800940989E+03  0.39819200950E+03  0.12509346265E+03 0.  0.
         23    2    1    2    0    0  0.24973498145E+01  0.33393575867E+01 -0.24892818750E+02  0.95536947813E+02  0.92142649771E+02 0.  0.
          5    1    3    3  502    0 -0.33192908541E+01  0.54408366030E+02 -0.27160326758E+03  0.27705070897E+03  0.41800000000E+01 0. -1.
         -5    1    3    3    0  502  0.82194103964E+00 -0.57747723616E+02 -0.10640614231E+03  0.12114130052E+03  0.41800000000E+01 0. -1.
        -11    1    4    4    0    0  0.25401012461E+02 -0.19173641044E+02  0.22008444557E+02  0.38693818327E+02  0.00000000000E+00 0.  1.
         11    1    4    4    0    0 -0.22903662647E+02  0.22512998630E+02 -0.46901263307E+02  0.56843129486E+02  0.00000000000E+00 0. -1.
</event>
<event>
 8    1  0.6869405E-009  0.1062152E+03  0.7561462E-02  0.1267744E+00
         -1   -1    0    0    0  501 -0.00000000000E+00  0.00000000000E+00  0.50949884864E+02  0.50949884864E+02  0.00000000000E+00 0.  1.
          1   -1    0    0  501    0  0.00000000000E+00 -0.00000000000E+00 -0.43383286375E+03  0.43383286375E+03  0.00000000000E+00 0. -1.
         25    2    1    2    0    0  0.38635416585E+02 -0.43870628893E+02 -0.33982258442E+03  0.36680340735E+03  0.12509205915E+03 0.  0.
         23    2    1    2    0    0 -0.38635416585E+02  0.43870628893E+02 -0.43060394462E+02  0.11797934127E+03  0.92992472278E+02 0.  0.
          5    1    3    3  502    0  0.21169743922E+02  0.24458227112E+02 -0.17871521473E+02  0.37191754610E+02  0.41800000000E+01 0. -1.
         -5    1    3    3    0  502  0.17465672664E+02 -0.68328856005E+02 -0.32195106295E+03  0.32961165274E+03  0.41800000000E+01 0. -1.
        -11    1    4    4    0    0  0.30506307750E+02  0.95023663555E+01 -0.67588785002E+01  0.32659029647E+02  0.00000000000E+00 0.  1.
         11    1    4    4    0    0 -0.69141724335E+02  0.34368262537E+02 -0.36301515962E+02  0.85320311621E+02  0.00000000000E+00 0. -1.
</event>
<event>
 8    1  0.6869405E-009  0.7711845E+02  0.7561462E-02  0.1337434E+00
         -1   -1    0    0    0  501 -0.00000000000E+00  0.00000000000E+00  0.10147501899E+03  0.10147501899E+03  0.00000000000E+00 0.  1.
          1   -1    0    0  501    0  0.00000000000E+00 -0.00000000000E+00 -0.11527961160E+03  0.11527961160E+03  0.00000000000E+00 0. -1.
         25    2    1    2    0    0 -0.20543883040E+01  0.29239816211E+01 -0.87114174735E+01  0.12544027921E+03  0.12508638884E+03 0.  0.
         23    2    1    2    0    0  0.20543883040E+01 -0.29239816211E+01 -0.50931751307E+01  0.91314351380E+02  0.91102141332E+02 0.  0.
          5    1    3    3  502    0  0.50343172295E+02  0.15054491855E+02 -0.37121148661E+02  0.64471116010E+02  0.41800000000E+01 0. -1.
         -5    1    3    3    0  502 -0.52397560599E+02 -0.12130510234E+02  0.28409731187E+02  0.60969163200E+02  0.41800000000E+01 0. -1.
        -11    1    4    4    0    0 -0.51964933793E+01  0.21491078228E+02  0.36422838432E+02  0.42608604135E+02  0.00000000000E+00 0.  1.
         11    1    4    4    0    0  0.72508816833E+01 -0.24415059849E+02 -0.41516013563E+02  0.48705747246E+02  0.00000000000E+00 0. -1.
</event>
<event>
 8    1  0.6869405E-009  0.1004848E+03  0.7561462E-02  0.1279280E+00
         -2   -1    0    0    0  501 -0.00000000000E+00  0.00000000000E+00  0.48298130008E+02  0.48298130008E+02  0.00000000000E+00 0.  1.
          2   -1    0    0  501    0  0.00000000000E+00 -0.00000000000E+00 -0.24125493251E+03  0.24125493251E+03  0.00000000000E+00 0. -1.
         25    2    1    2    0    0 -0.21490278604E+02 -0.80015905578E+01 -0.68612350402E+02  0.14450092531E+03  0.12508799007E+03 0.  0.
         23    2    1    2    0    0  0.21490278604E+02  0.80015905578E+01 -0.12434445210E+03  0.14505213721E+03  0.71082502879E+02 0.  0.
          5    1    3    3  502    0 -0.36286578273E+02  0.52780057841E+02 -0.39581506516E+02  0.75409669980E+02  0.41800000000E+01 0.  1.
         -5    1    3    3    0  502  0.14796299669E+02 -0.60781648398E+02 -0.29030843886E+02  0.69091255327E+02  0.41800000000E+01 0.  1.
        -11    1    4    4    0    0  0.43916395692E+01  0.38699605152E+02 -0.56130998533E+02  0.68320091726E+02  0.00000000000E+00 0. -1.
         11    1    4    4    0    0  0.17098639035E+02 -0.30698014595E+02 -0.68213453567E+02  0.76732045486E+02  0.00000000000E+00 0.  1.
</event>
<event>
 8    1  0.6869405E-009  0.3962444E+03  0.7561462E-02  0.1045088E+00
          2   -1    0    0  501    0  0.00000000000E+00  0.00000000000E+00  0.23751905969E+04  0.23751905969E+04  0.00000000000E+00 0. -1.
         -2   -1    0    0    0  501 -0.00000000000E+00 -0.00000000000E+00 -0.71377668539E+02  0.71377668539E+02  0.00000000000E+00 0.  1.
         25    2    1    2    0    0 -0.38721466935E+03  0.52324302966E+01  0.90639268008E+03  0.99356098405E+03  0.12511258944E+03 0.  0.
         23    2    1    2    0    0  0.38721466935E+03 -0.52324302966E+01  0.13974202482E+04  0.14530072814E+04  0.92109885353E+02 0.  0.
          5    1    3    3  502    0 -0.11104374459E+03  0.55950321644E+02  0.32194568739E+03  0.34514873567E+03  0.41800000000E+01 0. -1.
         -5    1    3    3    0  502 -0.27617092476E+03 -0.50717891348E+02  0.58444699269E+03  0.64841224838E+03  0.41800000000E+01 0. -1.
        -11    1    4    4    0    0  0.21415528207E+03 -0.19012838921E+01  0.60167233197E+03  0.63865146580E+03  0.00000000000E+00 0. -1.
         11    1    4    4    0    0  0.17305938728E+03 -0.33311464045E+01  0.79574791628E+03  0.81435581555E+03  0.00000000000E+00 0.  1.
</event>
<event>
 8    1  0.6869405E-009  0.7617393E+02  0.7561462E-02  0.1340274E+00
         -2   -1    0    0    0  501 -0.00000000000E+00  0.00000000000E+00  0.55134699231E+02  0.55134699231E+02  0.00000000000E+00 0.  1.
          2   -1    0    0  501    0  0.00000000000E+00 -0.00000000000E+00 -0.38382966934E+03  0.38382966934E+03  0.00000000000E+00 0. -1.
         25    2    1    2    0    0 -0.19870811016E+02 -0.54607477102E+02 -0.29331874586E+03  0.32413077138E+03  0.12509214442E+03 0.  0.
         23    2    1    2    0    0  0.19870811016E+02  0.54607477102E+02 -0.35376224243E+02  0.11483359719E+03  0.92511902562E+02 0.  0.
          5    1    3    3  502    0  0.14489420407E+02  0.11333643443E+02 -0.21584131179E+03  0.21666411575E+03  0.41800000000E+01 0. -1.
         -5    1    3    3    0  502 -0.34360231423E+02 -0.65941120545E+02 -0.77477434072E+02  0.10746665563E+03  0.41800000000E+01 0. -1.
        -11    1    4    4    0    0  0.76024800808E+01  0.35483991680E+02  0.29071620426E+02  0.46498069671E+02  0.00000000000E+00 0.  1.
         11    1    4    4    0    0  0.12268330935E+02  0.19123485422E+02 -0.64447844669E+02  0.68335527517E+02  0.00000000000E+00 0. -1.
</event>
<event>
 8    1  0.6869405E-009  0.1540140E+03  0.7561462E-02  0.1195626E+00
          2   -1    0    0  501    0  0.00000000000E+00  0.00000000000E+00  0.17606807325E+03  0.17606807325E+03  0.00000000000E+00 0.  1.
         -2   -1    0    0    0  501 -0.00000000000E+00 -0.00000000000E+00 -0.20901813233E+03  0.20901813233E+03  0.00000000000E+00 0. -1.
         25    2    1    2    0    0  0.12595198337E+03 -0.30114507522E+02 -0.10715296017E+03  0.20952272891E+03  0.12508889391E+03 0.  0.
         23    2    1    2    0    0 -0.12595198337E+03  0.30114507522E+02  0.74202901099E+02  0.17556347666E+03  0.92442837087E+02 0.  0.
          5    1    3    3  502    0  0.13677028408E+03 -0.44318551440E+02 -0.11984786879E+03  0.18721973363E+03  0.41800000000E+01 0.  1.
         -5    1    3    3    0  502 -0.10818300708E+02  0.14204043919E+02  0.12694908613E+02  0.22302995282E+02  0.41800000000E+01 0.  1.
        -11    1    4    4    0    0 -0.67944720646E+02 -0.18228472840E+02  0.71053772534E+02  0.99987003541E+02  0.00000000000E+00 0.  1.
         11    1    4    4    0    0 -0.58007262724E+02  0.48342980362E+02  0.31491285645E+01  0.75576473123E+02  0.00000000000E+00 0. -1.
</event>
<event>
 8    1  0.6869405E-009  0.7432638E+02  0.7561462E-02  0.1345970E+00
          1   -1    0    0  501    0  0.00000000000E+00  0.00000000000E+00  0.98716568064E+03  0.98716568064E+03  0.00000000000E+00 0. -1.
         -1   -1    0    0    0  501 -0.00000000000E+00 -0.00000000000E+00 -0.20276170056E+02  0.20276170056E+02  0.00000000000E+00 0.  1.
         25    2    1    2    0    0  0.65974572538E+02  0.15189549641E+02  0.74358681578E+03  0.75706851203E+03  0.12509201678E+03 0.  0.
         23    2    1    2    0    0 -0.65974572538E+02 -0.15189549641E+02  0.22330269480E+03  0.25037333866E+03  0.90770857484E+02 0.  0.
          5    1    3    3  502    0  0.12356502487E+02  0.22123898996E+02  0.23097631816E+02  0.34541613396E+02  0.41800000000E+01 0. -1.
         -5    1    3    3    0  502  0.53618070051E+02 -0.69343493552E+01  0.72048918397E+03  0.72252689864E+03  0.41800000000E+01 0. -1.
        -11    1    4    4    0    0 -0.46549350523E+02 -0.16211656061E+02  0.22547530784E+03  0.23080029088E+03  0.00000000000E+00 0. -1.
         11    1    4    4    0    0 -0.19425222016E+02  0.10221064195E+01 -0.21726130418E+01  0.19573047778E+02  0.00000000000E+00 0.  1.
</event>
<event>
 7    1  0.6869405E-009  0.9528931E+02  0.7561462E-02  0.1290526E+00
         -2   -1    0    0    0  501 -0.00000000000E+00  0.00000000000E+00  0.12241855911E+02  0.12241855911E+02  0.00000000000E+00 0.  1.
          2   -1    0    0  501    0  0.00000000000E+00 -0.00000000000E+00 -0.12566255506E+04  0.12566255506E+04  0.00000000000E+00 0. -1.
         23    2    1    2    0    0  0.23091046368E+02  0.45367829970E+02 -0.38387317976E+03  0.39783656969E+03  0.91235309061E+02 0.  0.
          5    1    1    2  502    0  0.22148383494E+02  0.83291945931E+01 -0.34571037318E+02  0.42101726748E+02  0.41800000000E+01 0. -1.
         -5    1    1    2    0  502 -0.45239429862E+02 -0.53697024563E+02 -0.82593947756E+03  0.82892911003E+03  0.41800000000E+01 0. -1.
        -11    1    3    3    0    0  0.51739502493E+02  0.43336604790E+02 -0.32953397241E+03  0.33637430997E+03  0.00000000000E+00 0. -1.
         11    1    3    3    0    0 -0.28648456125E+02  0.20312251795E+01 -0.54339207355E+02  0.61462259721E+02  0.00000000000E+00 0.  1.
</event>
<event>
 8    1  0.6869405E-009  0.9537878E+02  0.7561462E-02  0.1290325E+00
          2   -1    0    0  501    0  0.00000000000E+00  0.00000000000E+00  0.82405902700E+02  0.82405902700E+02  0.00000000000E+00 0. -1.
         -2   -1    0    0    0  501 -0.00000000000E+00 -0.00000000000E+00 -0.26104742775E+03  0.26104742775E+03  0.00000000000E+00 0.  1.
         25    2    1    2    0    0  0.28123833495E+02  0.39049025468E+02 -0.19728842762E+03  0.23850779063E+03  0.12508983220E+03 0.  0.
         23    2    1    2    0    0 -0.28123833495E+02 -0.39049025468E+02  0.18646902566E+02  0.10494553982E+03  0.91378788308E+02 0.  0.
          5    1    3    3  502    0 -0.48840570967E+02  0.19512891525E+02 -0.60378430483E+02  0.80182177419E+02  0.41800000000E+01 0. -1.
         -5    1    3    3    0  502  0.76964404462E+02  0.19536133943E+02 -0.13690999714E+03  0.15832561321E+03  0.41800000000E+01 0. -1.
        -11    1    4    4    0    0 -0.33895950375E+02 -0.21819333354E+02 -0.31788047988E+02  0.51337108944E+02  0.00000000000E+00 0.  1.
         11    1    4    4    0    0  0.57721168808E+01 -0.17229692113E+02  0.50434950554E+02  0.53608430876E+02  0.00000000000E+00 0. -1.
</event>
<event>
 8    1  0.6869405E-009  0.1311303E+03  0.7561462E-02  0.1225788E+00
         -3   -1    0    0    0  501 -0.00000000000E+00  0.00000000000E+00  0.40082052227E+02  0.40082052227E+02  0.00000000000E+00 0.  1.
          3   -1    0    0  501    0  0.00000000000E+00 -0.00000000000E+00 -0.11571968963E+04  0.11571968963E+04  0.00000000000E+00 0. -1.
         25    2    1    2    0    0 -0.75260780862E+02 -0.53651181789E+02 -0.10222548247E+04  0.10340206854E+04  0.12510482334E+03 0.  0.
         23    2    1    2    0    0  0.75260780862E+02  0.53651181789E+02 -0.94860019433E+02  0.16325826316E+03  0.95457858555E+02 0.  0.
          5    1    3    3  502    0 -0.22106907474E+01  0.29187812379E+02 -0.79707643749E+02  0.85015271669E+02  0.41800000000E+01 0. -1.
         -5    1    3    3    0  502 -0.73050090114E+02 -0.82838994168E+02 -0.94254718092E+03  0.94900541373E+03  0.41800000000E+01 0. -1.
        -11    1    4    4    0    0  0.91547526984E+02  0.36618298510E+02 -0.98548810884E+02  0.13940486939E+03  0.00000000000E+00 0. -1.
         11    1    4    4    0    0 -0.16286746122E+02  0.17032883280E+02  0.36887914509E+01  0.23853393772E+02  0.00000000000E+00 0.  1.
</event>
<event>
 8    1  0.6869405E-009  0.8066875E+02  0.7561462E-02  0.1327164E+00
          1   -1    0    0  501    0  0.00000000000E+00  0.00000000000E+00  0.22546060919E+03  0.22546060919E+03  0.00000000000E+00 0. -1.
         -1   -1    0    0    0  501 -0.00000000000E+00 -0.00000000000E+00 -0.74512768920E+02  0.74512768920E+02  0.00000000000E+00 0.  1.
         25    2    1    2    0    0  0.54228281241E+02  0.15334276124E+02  0.33799175225E+02  0.14128465694E+03  0.12507247311E+03 0.  0.
         23    2    1    2    0    0 -0.54228281241E+02 -0.15334276124E+02  0.11714866504E+03  0.15868872117E+03  0.91007988626E+02 0.  0.
          5    1    3    3  502    0  0.53016303130E+02  0.19774957886E+02 -0.38596979435E+02  0.68621983201E+02  0.41800000000E+01 0.  1.
         -5    1    3    3    0  502  0.12119781113E+01 -0.44406817620E+01  0.72396154660E+02  0.72662673739E+02  0.41800000000E+01 0.  1.
        -11    1    4    4    0    0 -0.56055994591E+02 -0.43003921541E+02  0.51516376545E+02  0.87438829188E+02  0.00000000000E+00 0.  1.
         11    1    4    4    0    0  0.18277133496E+01  0.27669645417E+02  0.65632288496E+02  0.71249891977E+02  0.00000000000E+00 0. -1.
</event>
<event>
 8    1  0.6869405E-009  0.1384831E+03  0.7561462E-02  0.1215385E+00
         -2   -1    0    0    0  501 -0.00000000000E+00  0.00000000000E+00  0.31769849622E+02  0.31769849622E+02  0.00000000000E+00 0.  1.
          2   -1    0    0  501    0  0.00000000000E+00 -0.00000000000E+00 -0.65644580039E+03  0.65644580039E+03  0.00000000000E+00 0. -1.
         25    2    1    2    0    0 -0.86211600904E+02  0.33429511303E+02 -0.29824895574E+03  0.33637753623E+03  0.12508970751E+03 0.  0.
         23    2    1    2    0    0  0.86211600904E+02 -0.33429511303E+02 -0.32642699503E+03  0.35183811378E+03  0.93196045355E+02 0.  0.
          5    1    3    3  502    0 -0.77448889594E+02  0.75072388601E+02 -0.24750933109E+03  0.27002321272E+03  0.41800000000E+01 0. -1.
         -5    1    3    3    0  502 -0.87627113094E+01 -0.41642877298E+02 -0.50739624651E+02  0.66354323513E+02  0.41800000000E+01 0. -1.
        -11    1    4    4    0    0 -0.10262675680E+02 -0.27790220585E+02 -0.12451972478E+03  0.12799523715E+03  0.00000000000E+00 0. -1.
         11    1    4    4    0    0  0.96474276584E+02 -0.56392907181E+01 -0.20190727024E+03  0.22384287663E+03  0.00000000000E+00 0.  1.
</event>
<event>
 8    1  0.6869405E-009  0.1179057E+03  0.7561462E-02  0.1246593E+00
         -1   -1    0    0    0  501 -0.00000000000E+00  0.00000000000E+00  0.96746714545E+02  0.96746714545E+02  0.00000000000E+00 0. -1.
          1   -1    0    0  501    0  0.00000000000E+00 -0.00000000000E+00 -0.16211265588E+03  0.16211265588E+03  0.00000000000E+00 0.  1.
         25    2    1    2    0    0 -0.22040891857E+02  0.57379602012E+02 -0.52684405823E+02  0.14900087388E+03  0.12508954457E+03 0.  0.
         23    2    1    2    0    0  0.22040891857E+02 -0.57379602012E+02 -0.12681535511E+02  0.10985849654E+03  0.90165671289E+02 0.  0.
          5    1    3    3  502    0  0.46507309910E+02  0.52107639350E+02 -0.20059434807E+02  0.72787287891E+02  0.41800000000E+01 0. -1.
         -5    1    3    3    0  502 -0.68548201767E+02  0.52719626627E+01 -0.32624971016E+02  0.76213585991E+02  0.41800000000E+01 0. -1.
        -11    1    4    4    0    0 -0.24101015190E+02 -0.41825052952E+02  0.18878301743E+02  0.51832270492E+02  0.00000000000E+00 0. -1.
         11    1    4    4    0    0  0.46141907046E+02 -0.15554549060E+02 -0.31559837254E+02  0.58026226052E+02  0.00000000000E+00 0.  1.
</event>
<event>
 8    1  0.6869405E-009  0.1115832E+03  0.7561462E-02  0.1257666E+00
          2   -1    0    0  501    0  0.00000000000E+00  0.00000000000E+00  0.86899027796E+03  0.86899027796E+03  0.00000000000E+00 0. -1.
         -2   -1    0    0    0  501 -0.00000000000E+00 -0.00000000000E+00 -0.21702744463E+02  0.21702744463E+02  0.00000000000E+00 0.  1.
         25    2    1    2    0    0 -0.73763074884E+02  0.34263089428E+02  0.55935016294E+03  0.57890870670E+03  0.12509090851E+03 0.  0.
         23    2    1    2    0    0  0.73763074884E+02 -0.34263089428E+02  0.28793737055E+03  0.31178431572E+03  0.87673141026E+02 0.  0.
          5    1    3    3  502    0 -0.53547763503E+02 -0.18097477478E+02  0.46934390704E+03  0.47275369606E+03  0.41800000000E+01 0.  1.
         -5    1    3    3    0  502 -0.20215311381E+02  0.52360566906E+02  0.90006255903E+02  0.10615501063E+03  0.41800000000E+01 0.  1.
        -11    1    4    4    0    0  0.32684705548E+02 -0.55161017962E+02  0.10413073495E+03  0.12228752120E+03  0.00000000000E+00 0.  1.
         11    1    4    4    0    0  0.41078369336E+02  0.20897928534E+02  0.18380663560E+03  0.18949679453E+03  0.00000000000E+00 0. -1.
</event>
<event>
 8    1  0.6869405E-009  0.1813019E+03  0.7561462E-02  0.1166549E+00
          2   -1    0    0  501    0  0.00000000000E+00  0.00000000000E+00  0.69700591621E+03  0.69700591621E+03  0.00000000000E+00 0.  1.
         -2   -1    0    0    0  501 -0.00000000000E+00 -0.00000000000E+00 -0.56358883639E+02  0.56358883639E+02  0.00000000000E+00 0. -1.
         25    2    1    2    0    0  0.13499763746E+03  0.77975532759E+02  0.22769947512E+03  0.30297925236E+03  0.12507929708E+03 0.  0.
         23    2    1    2    0    0 -0.13499763746E+03 -0.77975532759E+02  0.41294755745E+03  0.45038554749E+03  0.89537200968E+02 0.  0.
          5    1    3    3  502    0  0.11513702371E+03  0.10963459413E+03  0.16036751023E+03  0.22585723189E+03  0.41800000000E+01 0.  1.
         -5    1    3    3    0  502  0.19860613751E+02 -0.31659061367E+02  0.67331964888E+02  0.77122020467E+02  0.41800000000E+01 0.  1.
        -11    1    4    4    0    0 -0.61165209865E+02 -0.37740890388E+01  0.24450489090E+03  0.25206758681E+03  0.00000000000E+00 0.  1.
         11    1    4    4    0    0 -0.73832427597E+02 -0.74201443720E+02  0.16844266655E+03  0.19831796068E+03  0.00000000000E+00 0. -1.
</event>
<event>
 8    1  0.6869405E-009  0.1264361E+03  0.7561462E-02  0.1232842E+00
         -1   -1    0    0    0  501 -0.00000000000E+00  0.00000000000E+00  0.12010704679E+03  0.12010704679E+03  0.00000000000E+00 0.  1.
          1   -1    0    0  501    0  0.00000000000E+00 -0.00000000000E+00 -0.23223245214E+03  0.23223245214E+03  0.00000000000E+00 0. -1.
         25    2    1    2    0    0 -0.62203197570E+02 -0.73138517096E+02  0.27723739834E+02  0.16010746334E+03  0.12508922254E+03 0.  0.
         23    2    1    2    0    0  0.62203197570E+02  0.73138517096E+02 -0.13984914518E+03  0.19223203558E+03  0.90426166710E+02 0.  0.
          5    1    3    3  502    0  0.14178439134E+02  0.23472439297E+02  0.24226704351E+02  0.36829188785E+02  0.41800000000E+01 0.  1.
         -5    1    3    3    0  502 -0.76381636704E+02 -0.96610956393E+02  0.34970354830E+01  0.12327827456E+03  0.41800000000E+01 0.  1.
        -11    1    4    4    0    0  0.57299290195E+02  0.43703901739E+02 -0.14502809153E+03  0.16194562982E+03  0.00000000000E+00 0. -1.
         11    1    4    4    0    0  0.49039073753E+01  0.29434615357E+02  0.51789463523E+01  0.30286405764E+02  0.00000000000E+00 0.  1.
</event>
<event>
 8    1  0.6869405E-009  0.1830679E+03  0.7561462E-02  0.1164867E+00
         -1   -1    0    0    0  501 -0.00000000000E+00  0.00000000000E+00  0.29064408007E+03  0.29064408007E+03  0.00000000000E+00 0.  1.
          1   -1    0    0  501    0  0.00000000000E+00 -0.00000000000E+00 -0.13402963500E+03  0.13402963500E+03  0.00000000000E+00 0. -1.
         25    2    1    2    0    0  0.36159963459E+02  0.15004670629E+03  0.14409062122E+03  0.24543582365E+03  0.12512025967E+03 0.  0.
         23    2    1    2    0    0 -0.36159963459E+02 -0.15004670629E+03  0.12523823860E+02  0.17923789142E+03  0.90265267573E+02 0.  0.
          5    1    3    3  502    0 -0.38175927507E+02  0.26405828422E+02  0.67552073595E+02  0.82069630575E+02  0.41800000000E+01 0. -1.
         -5    1    3    3    0  502  0.74335890966E+02  0.12364087787E+03  0.76538547623E+02  0.16336619307E+03  0.41800000000E+01 0. -1.
        -11    1    4    4    0    0 -0.14651055055E+01 -0.13868746270E+03  0.24446622057E+02  0.14083322113E+03  0.00000000000E+00 0.  1.
         11    1    4    4    0    0 -0.34694857953E+02 -0.11359243598E+02 -0.11922798197E+02  0.38404670294E+02  0.00000000000E+00 0. -1.
</event>
<event>
 8    1  0.6869405E-009  0.1126139E+03  0.7561462E-02  0.1255805E+00
         -2   -1    0    0    0  501 -0.00000000000E+00  0.00000000000E+00  0.36084265178E+02  0.36084265178E+02  0.00000000000E+00 0.  1.
          2   -1    0    0  501    0  0.00000000000E+00 -0.00000000000E+00 -0.47640314663E+03  0.47640314663E+03  0.00000000000E+00 0. -1.
         25    2    1    2    0    0  0.80957077776E+02 -0.71673028204E+01 -0.27326941867E+03  0.31133367361E+03  0.12508821876E+03 0.  0.
         23    2    1    2    0    0 -0.80957077776E+02  0.71673028204E+01 -0.16704946279E+03  0.20115373820E+03  0.77148458856E+02 0.  0.
          5    1    3    3  502    0 -0.49058053485E+01  0.34976226323E+02 -0.15571832446E+03  0.15972811996E+03  0.41800000000E+01 0. -1.
         -5    1    3    3    0  502  0.85862883125E+02 -0.42143529143E+02 -0.11755109421E+03  0.15160555365E+03  0.41800000000E+01 0. -1.
        -11    1    4    4    0    0 -0.51768659892E+02 -0.18580050672E+02 -0.39281051831E+02  0.67588560148E+02  0.00000000000E+00 0.  1.
         11    1    4    4    0    0 -0.29188417884E+02  0.25747353492E+02 -0.12776841096E+03  0.13356517806E+03  0.00000000000E+00 0. -1.
</event>
<event>
 8    1  0.6869405E-009  0.9439734E+02  0.7561462E-02  0.1292539E+00
         -2   -1    0    0    0  501 -0.00000000000E+00  0.00000000000E+00  0.24103295991E+02  0.24103295991E+02  0.00000000000E+00 0.  1.
          2   -1    0    0  501    0  0.00000000000E+00 -0.00000000000E+00 -0.51571959911E+03  0.51571959911E+03  0.00000000000E+00 0. -1.
         25    2    1    2    0    0  0.62325130352E+01  0.91968717610E+01 -0.32358503232E+03  0.34709123049E+03  0.12506647223E+03 0.  0.
         23    2    1    2    0    0 -0.62325130352E+01 -0.91968717610E+01 -0.16803127080E+03  0.19273166461E+03  0.93741985830E+02 0.  0.
          5    1    3    3  502    0  0.46092409301E+01  0.67143286208E+02 -0.17179998171E+03  0.18455939992E+03  0.41800000000E+01 0. -1.
         -5    1    3    3    0  502  0.16232721051E+01 -0.57946414447E+02 -0.15178505061E+03  0.16253183056E+03  0.41800000000E+01 0. -1.
        -11    1    4    4    0    0 -0.32209712343E+02  0.65469407314E+01 -0.13986234325E+02  0.35720340882E+02  0.00000000000E+00 0.  1.
         11    1    4    4    0    0  0.25977199307E+02 -0.15743812492E+02 -0.15404503648E+03  0.15701132373E+03  0.00000000000E+00 0. -1.
</event>
<event>
 8    1  0.6869405E-009  0.1153281E+03  0.7561462E-02  0.1251010E+00
         -2   -1    0    0    0  501 -0.00000000000E+00  0.00000000000E+00  0.12295421910E+02  0.12295421910E+02  0.00000000000E+00 0.  1.
          2   -1    0    0  501    0  0.00000000000E+00 -0.00000000000E+00 -0.19012845405E+04  0.19012845405E+04  0.00000000000E+00 0. -1.
         25    2    1    2    0    0  0.33894757292E+02 -0.87279137066E+02 -0.13455066376E+04  0.13545489255E+04  0.12509267532E+03 0.  0.
         23    2    1    2    0    0 -0.33894757292E+02  0.87279137066E+02 -0.54348248100E+03  0.55903103691E+03  0.91520438927E+02 0.  0.
          5    1    3    3  502    0 -0.89950892332E+01 -0.12906035962E+02 -0.93490799492E+03  0.93504968251E+03  0.41800000000E+01 0. -1.
         -5    1    3    3    0  502  0.42889846525E+02 -0.74373101103E+02 -0.41059864266E+03  0.41949924297E+03  0.41800000000E+01 0. -1.
        -11    1    4    4    0    0  0.27175688336E+02  0.79596769696E+01 -0.80081196050E+02  0.84940405313E+02  0.00000000000E+00 0.  1.
         11    1    4    4    0    0 -0.61070445628E+02  0.79319460096E+02 -0.46340128495E+03  0.47409063160E+03  0.00000000000E+00 0. -1.
</event>
<event>
 8    1  0.6869405E-009  0.1089744E+03  0.7561462E-02  0.1262481E+00
         -3   -1    0    0    0  501 -0.00000000000E+00  0.00000000000E+00  0.63717278293E+03  0.63717278293E+03  0.00000000000E+00 0.  1.
          3   -1    0    0  501    0  0.00000000000E+00 -0.00000000000E+00 -0.20708794345E+02  0.20708794345E+02  0.00000000000E+00 0. -1.
         25    2    1    2    0    0  0.33632265817E+02 -0.11831392917E+02  0.34893359754E+03  0.37238832491E+03  0.12508915969E+03 0.  0.
         23    2    1    2    0    0 -0.33632265817E+02  0.11831392917E+02  0.26753039104E+03  0.28549325236E+03  0.93074034254E+02 0.  0.
          5    1    3    3  502    0  0.71729081963E+02 -0.27661703073E+02  0.14388355035E+03  0.16318755920E+03  0.41800000000E+01 0. -1.
         -5    1    3    3    0  502 -0.38096816146E+02  0.15830310156E+02  0.20505004719E+03  0.20920076571E+03  0.41800000000E+01 0. -1.
        -11    1    4    4    0    0  0.32390602912E+02  0.79626356310E+01  0.81800106678E+02  0.88339188222E+02  0.00000000000E+00 0.  1.
         11    1    4    4    0    0 -0.66022868728E+02  0.38687572862E+01  0.18573028436E+03  0.19715406414E+03  0.00000000000E+00 0. -1.
</event>
<event>
 8    1  0.6869405E-009  0.8842913E+02  0.7561462E-02  0.1306701E+00
         -1   -1    0    0    0  501 -0.00000000000E+00  0.00000000000E+00  0.43639938222E+03  0.43639938222E+03  0.00000000000E+00 0.  1.
          1   -1    0    0  501    0  0.00000000000E+00 -0.00000000000E+00 -0.35779788285E+02  0.35779788285E+02  0.00000000000E+00 0. -1.
         25    2    1    2    0    0  0.57220941677E+02 -0.22317784250E+02  0.25564309910E+03  0.29115761843E+03  0.12508814890E+03 0.  0.
         23    2    1    2    0    0 -0.57220941677E+02  0.22317784250E+02  0.14497649484E+03  0.18102155208E+03  0.89321322201E+02 0.  0.
          5    1    3    3  502    0  0.26886666057E+02  0.38441794534E+02  0.19303049743E+03  0.19869300369E+03  0.41800000000E+01 0.  1.
         -5    1    3    3    0  502  0.30334275620E+02 -0.60759578785E+02  0.62612601673E+02  0.92464614744E+02  0.41800000000E+01 0.  1.
        -11    1    4    4    0    0 -0.22728079177E+02  0.12094323277E+02  0.14266702878E+03  0.14497144318E+03  0.00000000000E+00 0.  1.
         11    1    4    4    0    0 -0.34492862500E+02  0.10223460973E+02  0.23094660630E+01  0.36050108893E+02  0.00000000000E+00 0. -1.
</event>
<event>
 8    1  0.6869405E-009  0.1318273E+03  0.7561462E-02  0.1224769E+00
         -3   -1    0    0    0  501 -0.00000000000E+00  0.00000000000E+00  0.20000149220E+03  0.20000149220E+03  0.00000000000E+00 0.  1.
          3   -1    0    0  501    0  0.00000000000E+00 -0.00000000000E+00 -0.11312088877E+03  0.11312088877E+03  0.00000000000E+00 0. -1.
         25    2    1    2    0    0 -0.69578891181E+02 -0.74628530875E+02  0.44013610431E+02  0.16731599472E+03  0.12508718746E+03 0.  0.
         23    2    1    2    0    0  0.69578891181E+02  0.74628530875E+02  0.42866993005E+02  0.14580638625E+03  0.94927780250E+02 0.  0.
          5    1    3    3  502    0 -0.20736824743E+02  0.35244761724E+02  0.10653330709E+02  0.42463807938E+02  0.41800000000E+01 0.  1.
         -5    1    3    3    0  502 -0.48842066439E+02 -0.10987329260E+03  0.33360279722E+02  0.12485218678E+03  0.41800000000E+01 0.  1.
        -11    1    4    4    0    0  0.29680258052E+02  0.36548053305E+02 -0.28937925353E+02  0.55263744373E+02  0.00000000000E+00 0.  1.
         11    1    4    4    0    0  0.39898633129E+02  0.38080477570E+02  0.71804918357E+02  0.90542641876E+02  0.00000000000E+00 0. -1.
</event>
<event>
 8    1  0.6869405E-009  0.1143409E+03  0.7561462E-02  0.1252736E+00
          1   -1    0    0  501    0  0.00000000000E+00  0.00000000000E+00  0.11808756978E+03  0.11808756978E+03  0.00000000000E+00 0. -1.
         -1   -1    0    0    0  501 -0.00000000000E+00 -0.00000000000E+00 -0.23184697789E+03  0.23184697789E+03  0.00000000000E+00 0.  1.
         25    2    1    2    0    0  0.71406212457E+02 -0.44314194358E+02 -0.16045687700E+03  0.22012751818E+03  0.12508844825E+03 0.  0.
         23    2    1    2    0    0 -0.71406212457E+02  0.44314194358E+02  0.46697468887E+02  0.12980702949E+03  0.87215917734E+02 0.  0.
          5    1    3    3  502    0 -0.70769682187E+01 -0.37180250612E+02 -0.13012469734E+03  0.13558157608E+03  0.41800000000E+01 0.  1.
         -5    1    3    3    0  502  0.78483180676E+02 -0.71339437458E+01 -0.30332179657E+02  0.84545942097E+02  0.41800000000E+01 0.  1.
        -11    1    4    4    0    0  0.33709852483E+01  0.36327916813E+02 -0.73249519315E+01  0.37212041093E+02  0.00000000000E+00 0.  1.
         11    1    4    4    0    0 -0.74777197706E+02  0.79862775450E+01  0.54022420819E+02  0.92594988400E+02  0.00000000000E+00 0. -1.
</event>
<event>
 8    1  0.6869405E-009  0.1249945E+03  0.7561462E-02  0.1235078E+00
         -2   -1    0    0    0  501 -0.00000000000E+00  0.00000000000E+00  0.26868127541E+03  0.26868127541E+03  0.00000000000E+00 0.  1.
          2   -1    0    0  501    0  0.00000000000E+00 -0.00000000000E+00 -0.21708296279E+03  0.21708296279E+03  0.00000000000E+00 0. -1.
         25    2    1    2    0    0 -0.99696356081E+02  0.61551513093E+02  0.20864163885E+03  0.27001367592E+03  0.12509236404E+03 0.  0.
         23    2    1    2    0    0  0.99696356081E+02 -0.61551513093E+02 -0.15704332624E+03  0.21575056228E+03  0.90320244841E+02 0.  0.
          5    1    3    3  502    0 -0.91008861930E+02  0.31325919116E+02  0.50601443129E+02  0.10882051555E+03  0.41800000000E+01 0.  1.
         -5    1    3    3    0  502 -0.86874941518E+01  0.30225593976E+02  0.15804019572E+03  0.16119316037E+03  0.41800000000E+01 0.  1.
        -11    1    4    4    0    0  0.80247716108E+02 -0.31672405724E+02 -0.43255433886E+02  0.96508392306E+02  0.00000000000E+00 0.  1.
         11    1    4    4    0    0  0.19448639974E+02 -0.29879107369E+02 -0.11378789235E+03  0.11924216997E+03  0.00000000000E+00 0. -1.
</event>
<event>
 8    1  0.6869405E-009  0.8645042E+02  0.7561462E-02  0.1311683E+00
          2   -1    0    0  501    0  0.00000000000E+00  0.00000000000E+00  0.80837314867E+03  0.80837314867E+03  0.00000000000E+00 0. -1.
         -2   -1    0    0    0  501 -0.00000000000E+00 -0.00000000000E+00 -0.17179767420E+02  0.17179767420E+02  0.00000000000E+00 0.  1.
         25    2    1    2    0    0  0.12528286149E+01 -0.46221617039E+02  0.40530410227E+03  0.42668183145E+03  0.12509181634E+03 0.  0.
         23    2    1    2    0    0 -0.12528286149E+01  0.46221617039E+02  0.38588927899E+03  0.39887108464E+03  0.89719557882E+02 0.  0.
          5    1    3    3  502    0 -0.27380571191E+02 -0.27361730381E+02  0.28382418540E+02  0.48180847340E+02  0.41800000000E+01 0. -1.
         -5    1    3    3    0  502  0.28633399806E+02 -0.18859886658E+02  0.37692168373E+03  0.37850098411E+03  0.41800000000E+01 0. -1.
        -11    1    4    4    0    0 -0.95309789286E+00  0.72820221881E+02  0.24947013902E+03  0.25988274928E+03  0.00000000000E+00 0.  1.
         11    1    4    4    0    0 -0.29973072202E+00 -0.26598604842E+02  0.13641913996E+03  0.13898833536E+03  0.00000000000E+00 0. -1.
</event>
<event>
 8    1  0.6869405E-009  0.6399607E+02  0.7561462E-02  0.1381788E+00
          2   -1    0    0  501    0  0.00000000000E+00  0.00000000000E+00  0.59252972446E+03  0.59252972446E+03  0.00000000000E+00 0.  1.
         -2   -1    0    0    0  501 -0.00000000000E+00 -0.00000000000E+00 -0.25734234829E+02  0.25734234829E+02  0.00000000000E+00 0. -1.
         25    2    1    2    0    0 -0.25735278933E+02  0.10134720635E+02  0.45079423168E+03  0.46864513447E+03  0.12509118916E+03 0.  0.
         23    2    1    2    0    0  0.25735278933E+02 -0.10134720635E+02  0.11600125796E+03  0.14961882482E+03  0.90357532885E+02 0.  0.
          5    1    3    3  502    0 -0.26857939760E+02 -0.38245570730E+01  0.45302951639E+03  0.45386032134E+03  0.41800000000E+01 0.  1.
         -5    1    3    3    0  502  0.11226608267E+01  0.13959277708E+02 -0.22352847175E+01  0.14784813128E+02  0.41800000000E+01 0.  1.
        -11    1    4    4    0    0  0.23394593583E+02 -0.45141395622E+02  0.36105874542E+02  0.62359335981E+02  0.00000000000E+00 0. -1.
         11    1    4    4    0    0  0.23406853505E+01  0.35006674987E+02  0.79895383415E+02  0.87259488839E+02  0.00000000000E+00 0.  1.
</event>
<event>
 8    1  0.6869405E-009  0.9250749E+02  0.7561462E-02  0.1296891E+00
         -1   -1    0    0    0  501 -0.00000000000E+00  0.00000000000E+00  0.29473630759E+02  0.29473630759E+02  0.00000000000E+00 0.  1.
          1   -1    0    0  501    0  0.00000000000E+00 -0.00000000000E+00 -0.66441408815E+03  0.66441408815E+03  0.00000000000E+00 0. -1.
         25    2    1    2    0    0  0.71293885543E+02  0.18169425672E+02 -0.48555993122E+03  0.50678235172E+03  0.12508780539E+03 0.  0.
         23    2    1    2    0    0 -0.71293885543E+02 -0.18169425672E+02 -0.14938052617E+03  0.18710536720E+03  0.85328369779E+02 0.  0.
          5    1    3    3  502    0  0.22679997486E+01  0.31565935472E+02 -0.24153014894E+02  0.40029896747E+02  0.41800000000E+01 0.  1.
         -5    1    3    3    0  502  0.69025885794E+02 -0.13396509800E+02 -0.46140691633E+03  0.46675245497E+03  0.41800000000E+01 0.  1.
        -11    1    4    4    0    0 -0.26776713263E+02  0.11515680547E+02 -0.12491465626E+03  0.12827031855E+03  0.00000000000E+00 0. -1.
         11    1    4    4    0    0 -0.44517172279E+02 -0.29685106219E+02 -0.24465869912E+02  0.58835048649E+02  0.00000000000E+00 0.  1.
</event>
<event>
 8    1  0.6869405E-009  0.3086984E+03  0.7561462E-02  0.1080971E+00
          2   -1    0    0  501    0  0.00000000000E+00  0.00000000000E+00  0.33782921945E+04  0.33782921945E+04  0.00000000000E+00 0. -1.
         -2   -1    0    0    0  501 -0.00000000000E+00 -0.00000000000E+00 -0.31401063295E+02  0.31401063295E+02  0.00000000000E+00 0.  1.
         25    2    1    2    0    0 -0.12976744577E+03 -0.26178985918E+03  0.21915710777E+04  0.22144987608E+04  0.12508977925E+03 0.  0.
         23    2    1    2    0    0  0.12976744577E+03  0.26178985918E+03  0.11553200535E+04  0.11951944969E+04  0.91388944244E+02 0.  0.
          5    1    3    3  502    0 -0.10363373216E+02 -0.15849751299E+03  0.10108649090E+04  0.10232762080E+04  0.41800000000E+01 0.  1.
         -5    1    3    3    0  502 -0.11940407256E+03 -0.10329234618E+03  0.11807061687E+04  0.11912225529E+04  0.41800000000E+01 0.  1.
        -11    1    4    4    0    0  0.68855974039E+02  0.20870977354E+03  0.73394775785E+03  0.76614634763E+03  0.00000000000E+00 0.  1.
         11    1    4    4    0    0  0.60911471736E+02  0.53080085637E+02  0.42137229565E+03  0.42904814931E+03  0.00000000000E+00 0. -1.
</event>
<event>
 8    1  0.6869405E-009  0.1146971E+03  0.7561462E-02  0.1252111E+00
          1   -1    0    0  501    0  0.00000000000E+00  0.00000000000E+00  0.40526323442E+03  0.40526323442E+03  0.00000000000E+00 0. -1.
         -1   -1    0    0    0  501 -0.00000000000E+00 -0.00000000000E+00 -0.51422074822E+02  0.51422074822E+02  0.00000000000E+00 0.  1.
         25    2    1    2    0    0  0.69722699784E+02 -0.97688031017E+01  0.28982168910E+03  0.32340979076E+03  0.12506237207E+03 0.  0.
         23    2    1    2    0    0 -0.69722699784E+02  0.97688031017E+01  0.64019470504E+02  0.13327551849E+03  0.93312308113E+02 0.  0.
          5    1    3    3  502    0  0.43043502531E+02 -0.50277031815E+02  0.25518480650E+03  0.26366129960E+03  0.41800000000E+01 0.  1.
         -5    1    3    3    0  502  0.26679197253E+02  0.40508228713E+02  0.34636882596E+02  0.59748491157E+02  0.41800000000E+01 0.  1.
        -11    1    4    4    0    0 -0.53315672939E+02  0.48659599188E+02  0.26791954210E+02  0.76994326963E+02  0.00000000000E+00 0. -1.
         11    1    4    4    0    0 -0.16407026845E+02 -0.38890796086E+02  0.37227516294E+02  0.56281191525E+02  0.00000000000E+00 0.  1.
</event>
<event>
 8    1  0.6869405E-009  0.1277199E+03  0.7561462E-02  0.1230879E+00
          2   -1    0    0  501    0  0.00000000000E+00  0.00000000000E+00  0.15627913326E+03  0.15627913326E+03  0.00000000000E+00 0. -1.
         -2   -1    0    0    0  501 -0.00000000000E+00 -0.00000000000E+00 -0.16066943554E+03  0.16066943554E+03  0.00000000000E+00 0.  1.
         25    2    1    2    0    0  0.10592755333E+03  0.30521506037E+02  0.30161443078E+02  0.16943870125E+03  0.12509017526E+03 0.  0.
         23    2    1    2    0    0 -0.10592755333E+03 -0.30521506037E+02 -0.34551745358E+02  0.14750986756E+03  0.91723110693E+02 0.  0.
          5    1    3    3  502    0 -0.70113851612E+01  0.13198617243E+02  0.50920918941E+02  0.53233217119E+02  0.41800000000E+01 0.  1.
         -5    1    3    3    0  502  0.11293893849E+03  0.17322888794E+02 -0.20759475863E+02  0.11620548413E+03  0.41800000000E+01 0.  1.
        -11    1    4    4    0    0 -0.31091353230E+02 -0.39437284410E+02 -0.49680681972E+02  0.70640935785E+02  0.00000000000E+00 0.  1.
         11    1    4    4    0    0 -0.74836200099E+02  0.89157783729E+01  0.15128936614E+02  0.76868931775E+02  0.00000000000E+00 0. -1.
</event>
<event>
 8    1  0.6869405E-009  0.1098701E+03  0.7561462E-02  0.1260811E+00
         -1   -1    0    0    0  501 -0.00000000000E+00  0.00000000000E+00  0.45256038595E+03  0.45256038595E+03  0.00000000000E+00 0.  1.
          1   -1    0    0  501    0  0.00000000000E+00 -0.00000000000E+00 -0.30688381516E+02  0.30688381516E+02  0.00000000000E+00 0. -1.
         25    2    1    2    0    0 -0.21874342500E+02 -0.32287868326E+02  0.30883722546E+03  0.33548363483E+03  0.12509134307E+03 0.  0.
         23    2    1    2    0    0  0.21874342500E+02  0.32287868326E+02  0.11303477898E+03  0.14776513263E+03  0.86814053376E+02 0.  0.
          5    1    3    3  502    0 -0.68308729272E+02 -0.24587515176E+00  0.11769936969E+03  0.13614975936E+03  0.41800000000E+01 0.  1.
         -5    1    3    3    0  502  0.46434386772E+02 -0.32041993174E+02  0.19113785577E+03  0.19933387547E+03  0.41800000000E+01 0.  1.
        -11    1    4    4    0    0  0.28632319471E+02 -0.24414584050E+02  0.51950270508E+02  0.64146022779E+02  0.00000000000E+00 0.  1.
         11    1    4    4    0    0 -0.67579769710E+01  0.56702452375E+02  0.61084508469E+02  0.83619109855E+02  0.00000000000E+00 0. -1.
</event>
<event>
 8    1  0.6869405E-009  0.1045183E+03  0.7561462E-02  0.1271072E+00
         -3   -1    0    0    0  501 -0.00000000000E+00  0.00000000000E+00  0.58165626076E+02  0.58165626076E+02  0.00000000000E+00 0.  1.
          3   -1    0    0  501    0  0.00000000000E+00 -0.00000000000E+00 -0.26562130213E+03  0.26562130213E+03  0.00000000000E+00 0. -1.
         25    2    1    2    0    0  0.42052613461E+01 -0.52281024429E+02 -0.73103896105E+02  0.15408457525E+03  0.12508751723E+03 0.  0.
         23    2    1    2    0    0 -0.42052613461E+01  0.52281024429E+02 -0.13435177995E+03  0.16970235296E+03  0.89428731875E+02 0.  0.
          5    1    3    3  502    0 -0.13771929998E+02  0.24358853628E+02  0.18058788822E+02  0.33565042227E+02  0.41800000000E+01 0. -1.
         -5    1    3    3    0  502  0.17977191344E+02 -0.76639878057E+02 -0.91162684927E+02  0.12051953302E+03  0.41800000000E+01 0. -1.
        -11    1    4    4    0    0 -0.29425684337E+02 -0.12820027043E+02 -0.57662206353E+02  0.65993590852E+02  0.00000000000E+00 0. -1.
         11    1    4    4    0    0  0.25220422991E+02  0.65101051472E+02 -0.76689573601E+02  0.10370876211E+03  0.00000000000E+00 0.  1.
</event>
<event>
 8    1  0.6869405E-009  0.8701261E+02  0.7561462E-02  0.1310252E+00
         -1   -1    0    0    0  501 -0.00000000000E+00  0.00000000000E+00  0.84398467357E+03  0.84398467357E+03  0.00000000000E+00 0.  1.
          1   -1    0    0  501    0  0.00000000000E+00 -0.00000000000E+00 -0.16914276752E+02  0.16914276752E+02  0.00000000000E+00 0. -1.
         25    2    1    2    0    0 -0.33576888413E+02 -0.38800586370E+02  0.49734956971E+03  0.51540000307E+03  0.12509067007E+03 0.  0.
         23    2    1    2    0    0  0.33576888413E+02  0.38800586370E+02  0.32972082711E+03  0.34549894726E+03  0.89558951441E+02 0.  0.
          5    1    3    3  502    0 -0.48573033803E+02 -0.59613169882E+02  0.47475741909E+03  0.48096273143E+03  0.41800000000E+01 0. -1.
         -5    1    3    3    0  502  0.14996145390E+02  0.20812583512E+02  0.22592150613E+02  0.34437271644E+02  0.41800000000E+01 0. -1.
        -11    1    4    4    0    0 -0.11131409783E+02 -0.98768290042E+00  0.82882972390E+00  0.11205835979E+02  0.00000000000E+00 0. -1.
         11    1    4    4    0    0  0.44708298196E+02  0.39788269271E+02  0.32889199739E+03  0.33429311128E+03  0.00000000000E+00 0.  1.
</event>
<event>
 8    1  0.6869405E-009  0.3087432E+03  0.7561462E-02  0.1080950E+00
         -1   -1    0    0    0  501 -0.00000000000E+00  0.00000000000E+00  0.22880259417E+03  0.22880259417E+03  0.00000000000E+00 0.  1.
          1   -1    0    0  501    0  0.00000000000E+00 -0.00000000000E+00 -0.53967164199E+03  0.53967164199E+03  0.00000000000E+00 0. -1.
         25    2    1    2    0    0  0.28710918107E+03 -0.42446910200E+02  0.22828166084E+02  0.31686175859E+03  0.12508727692E+03 0.  0.
         23    2    1    2    0    0 -0.28710918107E+03  0.42446910200E+02 -0.33369721391E+03  0.45161247757E+03  0.91468996323E+02 0.  0.
          5    1    3    3  502    0  0.31332963435E+02  0.36526130286E+02  0.44007855607E+01  0.48505176063E+02  0.41800000000E+01 0.  1.
         -5    1    3    3    0  502  0.25577621764E+03 -0.78973040487E+02  0.18427380523E+02  0.26835658253E+03  0.41800000000E+01 0.  1.
        -11    1    4    4    0    0 -0.94954141902E+02 -0.24345624572E+02 -0.13848936782E+03  0.16967116284E+03  0.00000000000E+00 0. -1.
         11    1    4    4    0    0 -0.19215503917E+03  0.66792534772E+02 -0.19520784609E+03  0.28194131474E+03  0.00000000000E+00 0.  1.
</event>
<event>
 8    1  0.6869405E-009  0.1189002E+03  0.7561462E-02  0.1244923E+00
          1   -1    0    0  501    0  0.00000000000E+00  0.00000000000E+00  0.62574175494E+03  0.62574175494E+03  0.00000000000E+00 0. -1.
         -1   -1    0    0    0  501 -0.00000000000E+00 -0.00000000000E+00 -0.26946784859E+02  0.26946784859E+02  0.00000000000E+00 0.  1.
         25    2    1    2    0    0  0.57577140314E+02 -0.37096046498E+02  0.28687179089E+03  0.32036521018E+03  0.12508876742E+03 0.  0.
         23    2    1    2    0    0 -0.57577140314E+02  0.37096046498E+02  0.31192317919E+03  0.33232332962E+03  0.91931941876E+02 0.  0.
          5    1    3    3  502    0  0.49391156380E+02 -0.72834981659E+02  0.26053756933E+03  0.27503039526E+03  0.41800000000E+01 0. -1.
         -5    1    3    3    0  502  0.81859839341E+01  0.35738935161E+02  0.26334221560E+02  0.45334814928E+02  0.41800000000E+01 0. -1.
        -11    1    4    4    0    0 -0.79896157151E+02  0.41524524746E+02  0.22199165320E+03  0.23955787645E+03  0.00000000000E+00 0.  1.
         11    1    4    4    0    0  0.22319016837E+02 -0.44284782481E+01  0.89931525997E+02  0.92765453162E+02  0.00000000000E+00 0. -1.
</event>
<event>
 8    1  0.6869405E-009  0.3623896E+03  0.7561462E-02  0.1057642E+00
          1   -1    0    0  501    0  0.00000000000E+00  0.00000000000E+00  0.18407919110E+03  0.18407919110E+03  0.00000000000E+00 0. -1.
         -1   -1    0    0    0  501 -0.00000000000E+00 -0.00000000000E+00 -0.74864754752E+03  0.74864754752E+03  0.00000000000E+00 0.  1.
         25    2    1    2    0    0 -0.87219165997E+02  0.34102636478E+03 -0.34168703540E+03  0.50626812349E+03  0.12510482930E+03 0.  0.
         23    2    1    2    0    0  0.87219165997E+02 -0.34102636478E+03 -0.22288132103E+03  0.42645861513E+03  0.91020342549E+02 0.  0.
          5    1    3    3  502    0 -0.98333885115E+02  0.14071003110E+03 -0.13751792932E+03  0.21999436152E+03  0.41800000000E+01 0.  1.
         -5    1    3    3    0  502  0.11114719117E+02  0.20031633368E+03 -0.20416910608E+03  0.28627376198E+03  0.41800000000E+01 0.  1.
        -11    1    4    4    0    0  0.48802869605E+02 -0.15734752794E+03 -0.15701299821E+03  0.22758085649E+03  0.00000000000E+00 0.  1.
         11    1    4    4    0    0  0.38416296392E+02 -0.18367883684E+03 -0.65868322817E+02  0.19887775864E+03  0.00000000000E+00 0. -1.
</event>
<event>
 8    1  0.6869405E-009  0.1199890E+03  0.7561462E-02  0.1243115E+00
          1   -1    0    0  501    0  0.00000000000E+00  0.00000000000E+00  0.98179651716E+02  0.98179651716E+02  0.00000000000E+00 0. -1.
         -1   -1    0    0    0  501 -0.00000000000E+00 -0.00000000000E+00 -0.20418580865E+03  0.20418580865E+03  0.00000000000E+00 0.  1.
         25    2    1    2    0    0 -0.24567599508E+02  0.83229829058E+02 -0.29171042968E+02  0.15501422494E+03  0.12509072226E+03 0.  0.
         23    2    1    2    0    0  0.24567599508E+02 -0.83229829058E+02 -0.76835113968E+02  0.14735123543E+03  0.90983407570E+02 0.  0.
          5    1    3    3  502    0 -0.16280422647E+02 -0.22698549051E+02  0.23136446410E+02  0.36510872943E+02  0.41800000000E+01 0.  1.
         -5    1    3    3    0  502 -0.82871768614E+01  0.10592837811E+03 -0.52307489378E+02  0.11850335200E+03  0.41800000000E+01 0.  1.
        -11    1    4    4    0    0 -0.12052582336E+02 -0.61811213260E+02 -0.83312157185E+02  0.10443565656E+03  0.00000000000E+00 0.  1.
         11    1    4    4    0    0  0.36620181844E+02 -0.21418615798E+02  0.64770432174E+01  0.42915578871E+02  0.00000000000E+00 0. -1.
</event>
<event>
 8    1  0.6869405E-009  0.1010078E+03  0.7561462E-02  0.1278191E+00
         -2   -1    0    0    0  501 -0.00000000000E+00  0.00000000000E+00  0.41199632791E+02  0.41199632791E+02  0.00000000000E+00 0.  1.
          2   -1    0    0  501    0  0.00000000000E+00 -0.00000000000E+00 -0.36246663236E+03  0.36246663236E+03  0.00000000000E+00 0. -1.
         25    2    1    2    0    0 -0.19486530356E+02  0.39487195126E+01 -0.92710857876E+02  0.15697173192E+03  0.12509797841E+03 0.  0.
         23    2    1    2    0    0  0.19486530356E+02 -0.39487195126E+01 -0.22855614169E+03  0.24669453323E+03  0.90691595907E+02 0.  0.
          5    1    3    3  502    0  0.29393520731E+02 -0.35906521123E+02 -0.22878289376E+01  0.46647228013E+02  0.41800000000E+01 0.  1.
         -5    1    3    3    0  502 -0.48880051086E+02  0.39855240635E+02 -0.90423028938E+02  0.11032450391E+03  0.41800000000E+01 0.  1.
        -11    1    4    4    0    0 -0.35464225437E+02 -0.10225808537E+02 -0.10582655133E+03  0.11207826468E+03  0.00000000000E+00 0. -1.
         11    1    4    4    0    0  0.54950755792E+02  0.62770890243E+01 -0.12272959036E+03  0.13461626855E+03  0.00000000000E+00 0.  1.
</event>
<event>
 8    1  0.6869405E-009  0.2097604E+03  0.7561462E-02  0.1141756E+00
         -2   -1    0    0    0  501 -0.00000000000E+00  0.00000000000E+00  0.37311716449E+02  0.37311716449E+02  0.00000000000E+00 0. -1.
          2   -1    0    0  501    0  0.00000000000E+00 -0.00000000000E+00 -0.15039099610E+04  0.15039099610E+04  0.00000000000E+00 0.  1.
         25    2    1    2    0    0 -0.14928886987E+03  0.13135810348E+03 -0.97588941189E+03  0.10037676372E+04  0.12508879731E+03 0.  0.
         23    2    1    2    0    0  0.14928886987E+03 -0.13135810348E+03 -0.49070883267E+03  0.53745404026E+03  0.92301510940E+02 0.  0.
          5    1    3    3  502    0  0.11822697853E+02 -0.18049711647E+00 -0.20250452193E+03  0.20289249016E+03  0.41800000000E+01 0.  1.
         -5    1    3    3    0  502 -0.16111156773E+03  0.13153860060E+03 -0.77338488997E+03  0.80087514703E+03  0.41800000000E+01 0.  1.
        -11    1    4    4    0    0  0.11922664699E+02 -0.12831057209E+02 -0.39141132842E+01  0.17947318614E+02  0.00000000000E+00 0.  1.
         11    1    4    4    0    0  0.13736620517E+03 -0.11852704627E+03 -0.48679471938E+03  0.51950672165E+03  0.00000000000E+00 0. -1.
</event>
<event>
 8    1  0.6869405E-009  0.8510745E+02  0.7561462E-02  0.1315152E+00
         -2   -1    0    0    0  501 -0.00000000000E+00  0.00000000000E+00  0.74546627064E+02  0.74546627064E+02  0.00000000000E+00 0.  1.
          2   -1    0    0  501    0  0.00000000000E+00 -0.00000000000E+00 -0.36494009384E+03  0.36494009384E+03  0.00000000000E+00 0. -1.
         25    2    1    2    0    0 -0.65092682081E+02  0.34005311471E+02 -0.28751310116E+03  0.32203315187E+03  0.12509256210E+03 0.  0.
         23    2    1    2    0    0  0.65092682081E+02 -0.34005311471E+02 -0.28803656076E+01  0.11745356903E+03  0.91616733753E+02 0.  0.
          5    1    3    3  502    0  0.86921999309E+01  0.20811368557E+00  0.98371445258E+01  0.13778224246E+02  0.41800000000E+01 0. -1.
         -5    1    3    3    0  502 -0.73784882012E+02  0.33797197786E+02 -0.29735024569E+03  0.30825492762E+03  0.41800000000E+01 0. -1.
        -11    1    4    4    0    0  0.22467859484E+02  0.32376177217E+01  0.40304794942E+02  0.46257576392E+02  0.00000000000E+00 0.  1.
         11    1    4    4    0    0  0.42624822597E+02 -0.37242929193E+02 -0.43185160550E+02  0.71195992640E+02  0.00000000000E+00 0. -1.
</event>
<event>
 8    1  0.6869405E-009  0.5135622E+02  0.7561462E-02  0.1438161E+00
         -2   -1    0    0    0  501 -0.00000000000E+00  0.00000000000E+00  0.79157120306E+02  0.79157120306E+02  0.00000000000E+00 0. -1.
          2   -1    0    0  501    0  0.00000000000E+00 -0.00000000000E+00 -0.17724645543E+03  0.17724645543E+03  0.00000000000E+00 0.  1.
         25    2    1    2    0    0  0.69555514011E+01  0.26008512358E+02 -0.12453469733E+03  0.17854309809E+03  0.12507567561E+03 0.  0.
         23    2    1    2    0    0 -0.69555514011E+01 -0.26008512358E+02  0.26445362202E+02  0.77860477644E+02  0.68103409508E+02 0.  0.
          5    1    3    3  502    0  0.25743353493E+02  0.12724516402E+02  0.17969809051E+02  0.34132389369E+02  0.41800000000E+01 0.  1.
         -5    1    3    3    0  502 -0.18787802092E+02  0.13283995956E+02 -0.14250450638E+03  0.14441070873E+03  0.41800000000E+01 0.  1.
        -11    1    4    4    0    0  0.17173733242E+02 -0.18012393917E+02  0.41446442706E+02  0.48344503939E+02  0.00000000000E+00 0. -1.
         11    1    4    4    0    0 -0.24129284643E+02 -0.79961184410E+01 -0.15001080504E+02  0.29515973706E+02  0.00000000000E+00 0.  1.
</event>
<event>
 8    1  0.6869405E-009  0.7852003E+02  0.7561462E-02  0.1333305E+00
         -1   -1    0    0    0  501 -0.00000000000E+00  0.00000000000E+00  0.33481840080E+03  0.33481840080E+03  0.00000000000E+00 0.  1.
          1   -1    0    0  501    0  0.00000000000E+00 -0.00000000000E+00 -0.50415736764E+02  0.50415736764E+02  0.00000000000E+00 0. -1.
         25    2    1    2    0    0 -0.30548350086E+02  0.48996769121E+02  0.21870219643E+03  0.25848033336E+03  0.12509015523E+03 0.  0.
         23    2    1    2    0    0  0.30548350086E+02 -0.48996769121E+02  0.65700467614E+02  0.12675380421E+03  0.91739252007E+02 0.  0.
          5    1    3    3  502    0  0.89833029921E+01 -0.17141660772E+02  0.16078026256E+03  0.16199475762E+03  0.41800000000E+01 0. -1.
         -5    1    3    3    0  502 -0.39531653078E+02  0.66138429893E+02  0.57921933862E+02  0.96485575741E+02  0.41800000000E+01 0. -1.
        -11    1    4    4    0    0  0.16408988797E+02 -0.40207291793E+02  0.88466054664E+02  0.98550109358E+02  0.00000000000E+00 0.  1.
         11    1    4    4    0    0  0.14139361290E+02 -0.87894773275E+01 -0.22765587050E+02  0.28203694848E+02  0.00000000000E+00 0. -1.
</event>
<event>
 8    1  0.6869405E-009  0.1037178E+03  0.7561462E-02  0.1272667E+00
          2   -1    0    0  501    0  0.00000000000E+00  0.00000000000E+00  0.60674358979E+03  0.60674358979E+03  0.00000000000E+00 0. -1.
         -2   -1    0    0    0  501 -0.00000000000E+00 -0.00000000000E+00 -0.26151265755E+02  0.26151265755E+02  0.00000000000E+00 0.  1.
         25    2    1    2    0    0  0.13713396659E+02 -0.12430205493E+02  0.48253881536E+03  0.49883189944E+03  0.12508792232E+03 0.  0.
         23    2    1    2    0    0 -0.13713396659E+02  0.12430205493E+02  0.98053508671E+02  0.13406295611E+03  0.89531102867E+02 0.  0.
          5    1    3    3  502    0  0.14262225253E+02  0.54791697491E+02  0.26888315548E+03  0.27481114403E+03  0.41800000000E+01 0. -1.
         -5    1    3    3    0  502 -0.54882859382E+00 -0.67221902984E+02  0.21365565989E+03  0.22402075541E+03  0.41800000000E+01 0. -1.
        -11    1    4    4    0    0 -0.34814706180E+02 -0.23244871007E+02  0.21621234039E+02  0.47115449228E+02  0.00000000000E+00 0.  1.
         11    1    4    4    0    0  0.21101309522E+02  0.35675076500E+02  0.76432274632E+02  0.86947506878E+02  0.00000000000E+00 0. -1.
</event>
<event>
 8    1  0.6869405E-009  0.2149827E+03  0.7561462E-02  0.1137680E+00
          2   -1    0    0  501    0  0.00000000000E+00  0.00000000000E+00  0.23851976177E+03  0.23851976177E+03  0.00000000000E+00 0. -1.
         -2   -1    0    0    0  501 -0.00000000000E+00 -0.00000000000E+00 -0.24750262291E+03  0.24750262291E+03  0.00000000000E+00 0.  1.
         25    2    1    2    0    0 -0.41592125881E+02 -0.19482243505E+03  0.80793060195E+02  0.24871856150E+03  0.12509083950E+03 0.  0.
         23    2    1    2    0    0  0.41592125881E+02  0.19482243505E+03 -0.89775921337E+02  0.23730382318E+03  0.92561883660E+02 0.  0.
          5    1    3    3  502    0 -0.18545268786E+02 -0.19109987049E+03  0.10151613857E+03  0.21722358594E+03  0.41800000000E+01 0. -1.
         -5    1    3    3    0  502 -0.23046857095E+02 -0.37225645610E+01 -0.20723078374E+02  0.31494975570E+02  0.41800000000E+01 0. -1.
        -11    1    4    4    0    0 -0.16438109307E+02  0.74405509861E+01 -0.24782506282E+02  0.30655274493E+02  0.00000000000E+00 0.  1.
         11    1    4    4    0    0  0.58030235188E+02  0.18738188407E+03 -0.64993415055E+02  0.20664854868E+03  0.00000000000E+00 0. -1.
</event>
<event>
 8    1  0.6869405E-009  0.6558965E+02  0.7561462E-02  0.1375767E+00
          1   -1    0    0  501    0  0.00000000000E+00  0.00000000000E+00  0.14787559200E+03  0.14787559200E+03  0.00000000000E+00 0. -1.
         -1   -1    0    0    0  501 -0.00000000000E+00 -0.00000000000E+00 -0.10239726361E+03  0.10239726361E+03  0.00000000000E+00 0.  1.
         25    2    1    2    0    0  0.27676105844E+02  0.38607116201E+02  0.59415954373E+02  0.14640345267E+03  0.12508892462E+03 0.  0.
         23    2    1    2    0    0 -0.27676105844E+02 -0.38607116201E+02 -0.13937625984E+02  0.10386940294E+03  0.91313302385E+02 0.  0.
          5    1    3    3  502    0 -0.64335293183E+01  0.89550565107E+01 -0.37540285551E+02  0.39348809077E+02  0.41800000000E+01 0. -1.
         -5    1    3    3    0  502  0.34109635162E+02  0.29652059690E+02  0.96956239923E+02  0.10705464359E+03  0.41800000000E+01 0. -1.
        -11    1    4    4    0    0  0.17692301376E+02 -0.93120530601E+01  0.28758679144E+02  0.35025611861E+02  0.00000000000E+00 0. -1.
         11    1    4    4    0    0 -0.45368407220E+02 -0.29295063141E+02 -0.42696305128E+02  0.68843791076E+02  0.00000000000E+00 0.  1.
</event>
<event>
 8    1  0.6869405E-009  0.8533839E+02  0.7561462E-02  0.1314550E+00
         -2   -1    0    0    0  501 -0.00000000000E+00  0.00000000000E+00  0.63772881410E+02  0.63772881410E+02  0.00000000000E+00 0.  1.
          2   -1    0    0  501    0  0.00000000000E+00 -0.00000000000E+00 -0.31458720594E+03  0.31458720594E+03  0.00000000000E+00 0. -1.
         25    2    1    2    0    0  0.30865728776E+02  0.20346041515E+01 -0.23615135542E+02  0.13100078338E+03  0.12508676106E+03 0.  0.
         23    2    1    2    0    0 -0.30865728776E+02 -0.20346041515E+01 -0.22719918899E+03  0.24735930397E+03  0.92791815150E+02 0.  0.
          5    1    3    3  502    0 -0.31048503942E+02  0.10353740498E+02 -0.52532545346E+02  0.62035072820E+02  0.41800000000E+01 0.  1.
         -5    1    3    3    0  502  0.61914232718E+02 -0.83191363468E+01  0.28917409804E+02  0.68965710555E+02  0.41800000000E+01 0.  1.
        -11    1    4    4    0    0 -0.99958154459E+01 -0.34809250216E+02 -0.31992220938E+02  0.48322897550E+02  0.00000000000E+00 0.  1.
         11    1    4    4    0    0 -0.20869913330E+02  0.32774646065E+02 -0.19520696805E+03  0.19903640642E+03  0.00000000000E+00 0. -1.
</event>
<event>
 8    1  0.6869405E-009  0.8750736E+02  0.7561462E-02  0.1309003E+00
         -1   -1    0    0    0  501 -0.00000000000E+00  0.00000000000E+00  0.36833884448E+02  0.36833884448E+02  0.00000000000E+00 0.  1.
          1   -1    0    0  501    0  0.00000000000E+00 -0.00000000000E+00 -0.33521143907E+03  0.33521143907E+03  0.00000000000E+00 0. -1.
         25    2    1    2    0    0  0.22907621937E+02 -0.11694259365E+02 -0.17636988013E+03  0.21774996209E+03  0.12508875461E+03 0.  0.
         23    2    1    2    0    0 -0.22907621937E+02  0.11694259365E+02 -0.12200767450E+03  0.15429536143E+03  0.90882732557E+02 0.  0.
          5    1    3    3  502    0 -0.65809513954E+01  0.32794930519E+02 -0.28942949671E+00  0.33710125459E+02  0.41800000000E+01 0. -1.
         -5    1    3    3    0  502  0.29488573333E+02 -0.44489189884E+02 -0.17608045063E+03  0.18403983663E+03  0.41800000000E+01 0. -1.
        -11    1    4    4    0    0  0.12683585048E+02  0.40209344727E+02 -0.30450264100E+02  0.52008492737E+02  0.00000000000E+00 0. -1.
         11    1    4    4    0    0 -0.35591206985E+02 -0.28515085362E+02 -0.91557410396E+02  0.10228686869E+03  0.00000000000E+00 0.  1.
</event>
<event>
 8    1  0.6869405E-009  0.1193220E+03  0.7561462E-02  0.1244220E+00
         -2   -1    0    0    0  501 -0.00000000000E+00  0.00000000000E+00  0.20353447645E+02  0.20353447645E+02  0.00000000000E+00 0.  1.
          2   -1    0    0  501    0  0.00000000000E+00 -0.00000000000E+00 -0.11862502725E+04  0.11862502725E+04  0.00000000000E+00 0. -1.
         25    2    1    2    0    0 -0.52149130043E+02 -0.84481883734E+02 -0.81995810847E+03  0.83536543904E+03  0.12508955450E+03 0.  0.
         23    2    1    2    0    0  0.52149130043E+02  0.84481883734E+02 -0.34593871639E+03  0.37123828111E+03  0.91035956764E+02 0.  0.
          5    1    3    3  502    0 -0.31319412633E+02 -0.11822921142E+02 -0.62965777383E+03  0.63056091825E+03  0.41800000000E+01 0. -1.
         -5    1    3    3    0  502 -0.20829717411E+02 -0.72658962592E+02 -0.19030033464E+03  0.20480452079E+03  0.41800000000E+01 0. -1.
        -11    1    4    4    0    0 -0.72764807977E+01  0.66815050736E+02 -0.23182561278E+03  0.24137173181E+03  0.00000000000E+00 0.  1.
         11    1    4    4    0    0  0.59425610841E+02  0.17666832998E+02 -0.11411310361E+03  0.12986654930E+03  0.00000000000E+00 0. -1.
</event>
<event>
 8    1  0.6869405E-009  0.1485920E+03  0.7561462E-02  0.1202214E+00
          1   -1    0    0  501    0  0.00000000000E+00  0.00000000000E+00  0.88301733757E+03  0.88301733757E+03  0.00000000000E+00 0. -1.
         -1   -1    0    0    0  501 -0.00000000000E+00 -0.00000000000E+00 -0.29229017356E+02  0.29229017356E+02  0.00000000000E+00 0.  1.
         25    2    1    2    0    0 -0.62250606302E+01  0.11662264306E+03  0.45807564643E+03  0.48900047482E+03  0.12509426152E+03 0.  0.
         23    2    1    2    0    0  0.62250606302E+01 -0.11662264306E+03  0.39571267378E+03  0.42324588010E+03  0.94387300946E+02 0.  0.
          5    1    3    3  502    0 -0.48750021938E+02  0.87578140176E+02  0.17911231302E+03  0.20529293303E+03  0.41800000000E+01 0. -1.
         -5    1    3    3    0  502  0.42524961308E+02  0.29044502885E+02  0.27896333341E+03  0.28370754179E+03  0.41800000000E+01 0. -1.
        -11    1    4    4    0    0 -0.35211422644E+02 -0.21035840703E+02  0.16633422870E+03  0.17131674324E+03  0.00000000000E+00 0.  1.
         11    1    4    4    0    0  0.41436483274E+02 -0.95586802359E+02  0.22937844508E+03  0.25192913686E+03  0.00000000000E+00 0. -1.
</event>
<event>
 8    1  0.6869405E-009  0.9676378E+02  0.7561462E-02  0.1287252E+00
         -4   -1    0    0    0  501 -0.00000000000E+00  0.00000000000E+00  0.11820742072E+03  0.11820742072E+03  0.00000000000E+00 0.  1.
          4   -1    0    0  501    0  0.00000000000E+00 -0.00000000000E+00 -0.12214192477E+03  0.12214192477E+03  0.00000000000E+00 0. -1.
         25    2    1    2    0    0  0.32508935724E+02 -0.30247456545E+02 -0.51776832681E+01  0.13284312492E+03  0.12509495555E+03 0.  0.
         23    2    1    2    0    0 -0.32508935724E+02  0.30247456545E+02  0.12431792187E+01  0.10750622057E+03  0.97899450648E+02 0.  0.
          5    1    3    3  502    0  0.37087636174E+01 -0.62232534340E+02 -0.42626675206E+02  0.75638277988E+02  0.41800000000E+01 0.  1.
         -5    1    3    3    0  502  0.28800172106E+02  0.31985077795E+02  0.37448991937E+02  0.57204846928E+02  0.41800000000E+01 0.  1.
        -11    1    4    4    0    0 -0.55770468460E+02  0.93841016322E+01 -0.29401117662E+02  0.63740350136E+02  0.00000000000E+00 0. -1.
         11    1    4    4    0    0  0.23261532736E+02  0.20863354912E+02  0.30644296881E+02  0.43765870433E+02  0.00000000000E+00 0.  1.
</event>
<event>
 8    1  0.6869405E-009  0.6565407E+02  0.7561462E-02  0.1375528E+00
         -2   -1    0    0    0  501 -0.00000000000E+00  0.00000000000E+00  0.43651884205E+02  0.43651884205E+02  0.00000000000E+00 0.  1.
          2   -1    0    0  501    0  0.00000000000E+00 -0.00000000000E+00 -0.30925136257E+03  0.30925136257E+03  0.00000000000E+00 0. -1.
         25    2    1    2    0    0  0.26948112054E+02  0.29045887055E+02 -0.15242013017E+03  0.20112131490E+03  0.12509205781E+03 0.  0.
         23    2    1    2    0    0 -0.26948112054E+02 -0.29045887055E+02 -0.11317934820E+03  0.15178193188E+03  0.93050124607E+02 0.  0.
          5    1    3    3  502    0 -0.15740909525E+02  0.21080092044E+02 -0.15513963199E+03  0.15741005155E+03  0.41800000000E+01 0.  1.
         -5    1    3    3    0  502  0.42689021579E+02  0.79657950107E+01  0.27195018199E+01  0.43711263350E+02  0.41800000000E+01 0.  1.
        -11    1    4    4    0    0  0.12645674775E+02 -0.13365194146E+01  0.12070152779E+02  0.17532483074E+02  0.00000000000E+00 0.  1.
         11    1    4    4    0    0 -0.39593786828E+02 -0.27709367641E+02 -0.12524950097E+03  0.13424944881E+03  0.00000000000E+00 0. -1.
</event>
<event>
 8    1  0.6869405E-009  0.1787989E+03  0.7561462E-02  0.1168971E+00
         -2   -1    0    0    0  501 -0.00000000000E+00  0.00000000000E+00  0.14134044598E+03  0.14134044598E+03  0.00000000000E+00 0.  1.
          2   -1    0    0  501    0  0.00000000000E+00 -0.00000000000E+00 -0.27883104194E+03  0.27883104194E+03  0.00000000000E+00 0. -1.
         25    2    1    2    0    0  0.55325787718E+02 -0.13345530623E+03 -0.15806037351E+03  0.24799574584E+03  0.12509015442E+03 0.  0.
         23    2    1    2    0    0 -0.55325787718E+02  0.13345530623E+03  0.20569777561E+02  0.17217574208E+03  0.91378930079E+02 0.  0.
          5    1    3    3  502    0 -0.66212273109E+00 -0.13035896136E+03 -0.84507059261E+02  0.15541175206E+03  0.41800000000E+01 0.  1.
         -5    1    3    3    0  502  0.55987910449E+02 -0.30963448738E+01 -0.73553314251E+02  0.92583993786E+02  0.41800000000E+01 0.  1.
        -11    1    4    4    0    0 -0.55732171939E+02  0.22688156472E+02  0.75721114328E+01  0.60647871395E+02  0.00000000000E+00 0. -1.
         11    1    4    4    0    0  0.40638422064E+00  0.11076714976E+03  0.12997666128E+02  0.11152787068E+03  0.00000000000E+00 0.  1.
</event>
<event>
 8    1  0.6869405E-009  0.8886595E+02  0.7561462E-02  0.1305621E+00
         -2   -1    0    0    0  501 -0.00000000000E+00  0.00000000000E+00  0.99071921018E+03  0.99071921018E+03  0.00000000000E+00 0. -1.
          2   -1    0    0  501    0  0.00000000000E+00 -0.00000000000E+00 -0.13007035082E+02  0.13007035082E+02  0.00000000000E+00 0.  1.
         25    2    1    2    0    0  0.16551700981E+02  0.28127233182E+02  0.55360946457E+03  0.56850283467E+03  0.12508770410E+03 0.  0.
         23    2    1    2    0    0 -0.16551700981E+02 -0.28127233182E+02  0.42410271053E+03  0.43522341059E+03  0.92147750905E+02 0.  0.
          5    1    3    3  502    0  0.87651336659E+01 -0.25342211368E+02  0.24306405861E+02  0.36432526828E+02  0.41800000000E+01 0.  1.
         -5    1    3    3    0  502  0.77865673154E+01  0.53469444549E+02  0.52930305870E+03  0.53207030784E+03  0.41800000000E+01 0.  1.
        -11    1    4    4    0    0  0.27727076162E+01 -0.59492794158E+02  0.29580485444E+03  0.30174093587E+03  0.00000000000E+00 0. -1.
         11    1    4    4    0    0 -0.19324408598E+02  0.31365560976E+02  0.12829785609E+03  0.13348247473E+03  0.00000000000E+00 0.  1.
</event>
<event>
 8    1  0.6869405E-009  0.6144133E+02  0.7561462E-02  0.1391881E+00
         -2   -1    0    0    0  501 -0.00000000000E+00  0.00000000000E+00  0.30824668269E+02  0.30824668269E+02  0.00000000000E+00 0.  1.
          2   -1    0    0  501    0  0.00000000000E+00 -0.00000000000E+00 -0.44384688078E+03  0.44384688078E+03  0.00000000000E+00 0. -1.
         25    2    1    2    0    0  0.28348812033E+02 -0.31951256120E+02 -0.21395928604E+03  0.25149654745E+03  0.12508956545E+03 0.  0.
         23    2    1    2    0    0 -0.28348812033E+02  0.31951256120E+02 -0.19906292647E+03  0.22317500160E+03  0.91413865095E+02 0.  0.
          5    1    3    3  502    0  0.10289096616E+02 -0.22859536927E+02 -0.22611401123E+03  0.22753778239E+03  0.41800000000E+01 0.  1.
         -5    1    3    3    0  502  0.18059715417E+02 -0.90917191925E+01  0.12154725194E+02  0.23958765063E+02  0.41800000000E+01 0.  1.
        -11    1    4    4    0    0 -0.42929215476E+02  0.13801038567E+01 -0.34299109750E+02  0.54965909050E+02  0.00000000000E+00 0.  1.
         11    1    4    4    0    0  0.14580403443E+02  0.30571152263E+02 -0.16476381672E+03  0.16820909255E+03  0.00000000000E+00 0. -1.
</event>
<event>
 8    1  0.6869405E-009  0.2122321E+03  0.7561462E-02  0.1139810E+00
         -1   -1    0    0    0  501 -0.00000000000E+00  0.00000000000E+00  0.14694093111E+03  0.14694093111E+03  0.00000000000E+00 0.  1.
          1   -1    0    0  501    0  0.00000000000E+00 -0.00000000000E+00 -0.34179960711E+03  0.34179960711E+03  0.00000000000E+00 0. -1.
         25    2    1    2    0    0  0.77912315866E+02  0.16926753552E+03 -0.16556901140E+03  0.27889732528E+03  0.12509513565E+03 0.  0.
         23    2    1    2    0    0 -0.77912315866E+02 -0.16926753552E+03 -0.29289664607E+02  0.20984321294E+03  0.91948148538E+02 0.  0.
          5    1    3    3  502    0  0.52094423670E+02 -0.41070209184E+00 -0.46617099765E+02  0.70033021098E+02  0.41800000000E+01 0. -1.
         -5    1    3    3    0  502  0.25817892196E+02  0.16967823762E+03 -0.11895191164E+03  0.20886430418E+03  0.41800000000E+01 0. -1.
        -11    1    4    4    0    0 -0.91395889472E+02 -0.12931834146E+03  0.26071408048E+00  0.15835564411E+03  0.00000000000E+00 0.  1.
         11    1    4    4    0    0  0.13483573606E+02 -0.39949194061E+02 -0.29550378687E+02  0.51487568829E+02  0.00000000000E+00 0. -1.
</event>
<event>
 8    1  0.6869405E-009  0.7832842E+02  0.7561462E-02  0.1333863E+00
          3   -1    0    0  501    0  0.00000000000E+00  0.00000000000E+00  0.32206007437E+03  0.32206007437E+03  0.00000000000E+00 0. -1.
         -3   -1    0    0    0  501 -0.00000000000E+00 -0.00000000000E+00 -0.45047609643E+02  0.45047609643E+02  0.00000000000E+00 0.  1.
         25    2    1    2    0    0 -0.22144658843E+02  0.41853807962E+02  0.13529849921E+03  0.19025088390E+03  0.12509031849E+03 0.  0.
         23    2    1    2    0    0  0.22144658843E+02 -0.41853807962E+02  0.14171396551E+03  0.17685680011E+03  0.94622156856E+02 0.  0.
          5    1    3    3  502    0 -0.27142897921E+02 -0.14226879868E+02 -0.11478153060E+02  0.32990323066E+02  0.41800000000E+01 0. -1.
         -5    1    3    3    0  502  0.49982390775E+01  0.56080687831E+02  0.14677665227E+03  0.15726056083E+03  0.41800000000E+01 0. -1.
        -11    1    4    4    0    0 -0.15392203738E+02 -0.38777815444E+01 -0.80935911069E+01  0.17817501021E+02  0.00000000000E+00 0.  1.
         11    1    4    4    0    0  0.37536862581E+02 -0.37976026418E+02  0.14980755662E+03  0.15903929909E+03  0.00000000000E+00 0. -1.
</event>
<event>
 8    1  0.6869405E-009  0.1055539E+03  0.7561462E-02  0.1269032E+00
         -2   -1    0    0    0  501 -0.00000000000E+00  0.00000000000E+00  0.20078372198E+02  0.20078372198E+02  0.00000000000E+00 0.  1.
          2   -1    0    0  501    0  0.00000000000E+00 -0.00000000000E+00 -0.72036925121E+03  0.72036925121E+03  0.00000000000E+00 0. -1.
         25    2    1    2    0    0 -0.35414717653E+02 -0.75024792729E+00 -0.50195820521E+03  0.51850728724E+03  0.12503200409E+03 0.  0.
         23    2    1    2    0    0  0.35414717653E+02  0.75024792729E+00 -0.19833267380E+03  0.22194033617E+03  0.93096177270E+02 0.  0.
          5    1    3    3  502    0 -0.23543110768E+02 -0.57275784484E+02 -0.15882405326E+03  0.17052080767E+03  0.41800000000E+01 0.  1.
         -5    1    3    3    0  502 -0.11871606885E+02  0.56525536557E+02 -0.34313415195E+03  0.34798647957E+03  0.41800000000E+01 0.  1.
        -11    1    4    4    0    0 -0.35032704393E+01 -0.36850346754E+02 -0.12772293313E+03  0.13297882766E+03  0.00000000000E+00 0. -1.
         11    1    4    4    0    0  0.38917988092E+02  0.37600594681E+02 -0.70609740675E+02  0.88961508506E+02  0.00000000000E+00 0.  1.
</event>
<event>
 8    1  0.6869405E-009  0.1651552E+03  0.7561462E-02  0.1182997E+00
         -1   -1    0    0    0  501 -0.00000000000E+00  0.00000000000E+00  0.26195772412E+02  0.26195772412E+02  0.00000000000E+00 0.  1.
          1   -1    0    0  501    0  0.00000000000E+00 -0.00000000000E+00 -0.15463343427E+04  0.15463343427E+04  0.00000000000E+00 0. -1.
         25    2    1    2    0    0  0.14630560366E+02 -0.14144111841E+03 -0.11642385408E+04  0.11795410166E+04  0.12508391774E+03 0.  0.
         23    2    1    2    0    0 -0.14630560366E+02  0.14144111841E+03 -0.35590002949E+03  0.39298909860E+03  0.86925009947E+02 0.  0.
          5    1    3    3  502    0 -0.29270084913E+02 -0.12655840200E+03 -0.10129889741E+04  0.10212922701E+04  0.41800000000E+01 0. -1.
         -5    1    3    3    0  502  0.43900645279E+02 -0.14882716414E+02 -0.15124956674E+03  0.15824874641E+03  0.41800000000E+01 0. -1.
        -11    1    4    4    0    0 -0.37443241611E+02  0.82500530670E+02 -0.13029227481E+03  0.15869596963E+03  0.00000000000E+00 0.  1.
         11    1    4    4    0    0  0.22812681245E+02  0.58940587742E+02 -0.22560775468E+03  0.23429312897E+03  0.00000000000E+00 0. -1.
</event>
<event>
 8    1  0.6869405E-009  0.1045510E+03  0.7561462E-02  0.1271007E+00
         -4   -1    0    0    0  501 -0.00000000000E+00  0.00000000000E+00  0.28093684918E+02  0.28093684918E+02  0.00000000000E+00 0.  1.
          4   -1    0    0  501    0  0.00000000000E+00 -0.00000000000E+00 -0.62960691221E+03  0.62960691221E+03  0.00000000000E+00 0. -1.
         25    2    1    2    0    0  0.13999464679E+02 -0.94425071021E+01 -0.14200539107E+03  0.18999789647E+03  0.12509405908E+03 0.  0.
         23    2    1    2    0    0 -0.13999464679E+02  0.94425071021E+01 -0.45950783622E+03  0.46770270066E+03  0.85517359074E+02 0.  0.
          5    1    3    3  502    0 -0.43160146263E+02  0.29824485525E+02 -0.37961402537E+02  0.64890975065E+02  0.41800000000E+01 0. -1.
         -5    1    3    3    0  502  0.57159610943E+02 -0.39266992627E+02 -0.10404398854E+03  0.12510692141E+03  0.41800000000E+01 0. -1.
        -11    1    4    4    0    0  0.36121314939E+02  0.73928270562E+00 -0.20531493180E+03  0.20846946335E+03  0.00000000000E+00 0. -1.
         11    1    4    4    0    0 -0.50120779618E+02  0.87032243965E+01 -0.25419290442E+03  0.25923323730E+03  0.00000000000E+00 0.  1.
</event>
<event>
 8    1  0.6869405E-009  0.1858549E+03  0.7561462E-02  0.1162254E+00
         -1   -1    0    0    0  501 -0.00000000000E+00  0.00000000000E+00  0.58386226193E+02  0.58386226193E+02  0.00000000000E+00 0.  1.
          1   -1    0    0  501    0  0.00000000000E+00 -0.00000000000E+00 -0.69811337658E+03  0.69811337658E+03  0.00000000000E+00 0. -1.
         25    2    1    2    0    0 -0.15857287105E+03  0.53769304340E+02 -0.27410788250E+03  0.34469795025E+03  0.12508018285E+03 0.  0.
         23    2    1    2    0    0  0.15857287105E+03 -0.53769304340E+02 -0.36561926790E+03  0.41180165252E+03  0.88694184948E+02 0.  0.
          5    1    3    3  502    0 -0.12944692877E+03  0.77809192630E+02 -0.14240365150E+03  0.20762237401E+03  0.41800000000E+01 0. -1.
         -5    1    3    3    0  502 -0.29125942273E+02 -0.24039888290E+02 -0.13170423099E+03  0.13707557625E+03  0.41800000000E+01 0. -1.
        -11    1    4    4    0    0  0.39489050376E+02  0.18200032632E+02 -0.14124102490E+03  0.14778245296E+03  0.00000000000E+00 0. -1.
         11    1    4    4    0    0  0.11908382067E+03 -0.71969336972E+02 -0.22437824300E+03  0.26401919957E+03  0.00000000000E+00 0.  1.
</event>
<event>
 8    1  0.6869405E-009  0.1158945E+03  0.7561462E-02  0.1250028E+00
         -1   -1    0    0    0  501 -0.00000000000E+00  0.00000000000E+00  0.16066871137E+03  0.16066871137E+03  0.00000000000E+00 0.  1.
          1   -1    0    0  501    0  0.00000000000E+00 -0.00000000000E+00 -0.12698719100E+03  0.12698719100E+03  0.00000000000E+00 0. -1.
         25    2    1    2    0    0  0.73463696990E+01  0.94807476779E+02  0.15270540457E+02  0.15786960906E+03  0.12508875752E+03 0.  0.
         23    2    1    2    0    0 -0.73463696990E+01 -0.94807476779E+02  0.18410979917E+02  0.12978629331E+03  0.86389183050E+02 0.  0.
          5    1    3    3  502    0  0.44063308367E+02  0.22436527410E+02  0.49137218372E+02  0.69834887669E+02  0.41800000000E+01 0.  1.
         -5    1    3    3    0  502 -0.36716938668E+02  0.72370949369E+02 -0.33866677915E+02  0.88034721393E+02  0.41800000000E+01 0.  1.
        -11    1    4    4    0    0  0.12742879771E+02 -0.53169201595E+02 -0.30398809616E+02  0.62557434484E+02  0.00000000000E+00 0. -1.
         11    1    4    4    0    0 -0.20089249470E+02 -0.41638275184E+02  0.48809789533E+02  0.67228858824E+02  0.00000000000E+00 0.  1.
</event>
<event>
 8    1  0.6869405E-009  0.9424612E+02  0.7561462E-02  0.1292883E+00
         -1   -1    0    0    0  501 -0.00000000000E+00  0.00000000000E+00  0.76939009557E+02  0.76939009557E+02  0.00000000000E+00 0.  1.
          1   -1    0    0  501    0  0.00000000000E+00 -0.00000000000E+00 -0.27692822895E+03  0.27692822895E+03  0.00000000000E+00 0. -1.
         25    2    1    2    0    0 -0.17072413676E+02  0.88639347818E+01 -0.22469736387E+03  0.25788786383E+03  0.12508880180E+03 0.  0.
         23    2    1    2    0    0  0.17072413676E+02 -0.88639347818E+01  0.24708144473E+02  0.95979374674E+02  0.90727676654E+02 0.  0.
          5    1    3    3  502    0  0.40879882690E+02 -0.34505486638E+02 -0.10575488218E+03  0.11858904217E+03  0.41800000000E+01 0.  1.
         -5    1    3    3    0  502 -0.57952296366E+02  0.43369421420E+02 -0.11894248168E+03  0.13929882166E+03  0.41800000000E+01 0.  1.
        -11    1    4    4    0    0 -0.19749874418E+02 -0.15256418962E+02  0.46459054604E+02  0.52737648922E+02  0.00000000000E+00 0.  1.
         11    1    4    4    0    0  0.36822288094E+02  0.63924841799E+01 -0.21750910131E+02  0.43241725752E+02  0.00000000000E+00 0. -1.
</event>
<event>
 8    1  0.6869405E-009  0.8944854E+02  0.7561462E-02  0.1304193E+00
         -1   -1    0    0    0  501 -0.00000000000E+00  0.00000000000E+00  0.71568419276E+03  0.71568419276E+03  0.00000000000E+00 0.  1.
          1   -1    0    0  501    0  0.00000000000E+00 -0.00000000000E+00 -0.32820731651E+02  0.32820731651E+02  0.00000000000E+00 0. -1.
         25    2    1    2    0    0 -0.27736760605E+01 -0.43576588928E+01  0.62672805102E+03  0.63911120841E+03  0.12509358222E+03 0.  0.
         23    2    1    2    0    0  0.27736760605E+01  0.43576588928E+01  0.56135410083E+02  0.10939371599E+03  0.93750297941E+02 0.  0.
          5    1    3    3  502    0 -0.16888456573E+02  0.58266365577E+02  0.29459309885E+03  0.30080351662E+03  0.41800000000E+01 0.  1.
         -5    1    3    3    0  502  0.14114780512E+02 -0.62624024470E+02  0.33213495218E+03  0.33830769179E+03  0.41800000000E+01 0.  1.
        -11    1    4    4    0    0 -0.21412248836E+02  0.16179061542E+02  0.72897960857E+02  0.77681137541E+02  0.00000000000E+00 0.  1.
         11    1    4    4    0    0  0.24185924896E+02 -0.11821402649E+02 -0.16762550774E+02  0.31712578453E+02  0.00000000000E+00 0. -1.
</event>
<event>
 8    1  0.6869405E-009  0.1353613E+03  0.7561462E-02  0.1219711E+00
          3   -1    0    0  501    0  0.00000000000E+00  0.00000000000E+00  0.36988081341E+03  0.36988081341E+03  0.00000000000E+00 0. -1.
         -3   -1    0    0    0  501 -0.00000000000E+00 -0.00000000000E+00 -0.68312912062E+02  0.68312912062E+02  0.00000000000E+00 0.  1.
         25    2    1    2    0    0  0.64320088816E+02 -0.92062472269E+02  0.20096619123E+03  0.26200100206E+03  0.12507814532E+03 0.  0.
         23    2    1    2    0    0 -0.64320088816E+02  0.92062472269E+02  0.10060171012E+03  0.17619272341E+03  0.91162487239E+02 0.  0.
          5    1    3    3  502    0 -0.23435741286E+02 -0.51528700721E+02  0.26814987494E+02  0.62777041361E+02  0.41800000000E+01 0. -1.
         -5    1    3    3    0  502  0.87755830102E+02 -0.40533771548E+02  0.17415120374E+03  0.19922396070E+03  0.41800000000E+01 0. -1.
        -11    1    4    4    0    0 -0.46260605394E+02  0.36938767807E+02  0.10226345778E+03  0.11816230776E+03  0.00000000000E+00 0. -1.
         11    1    4    4    0    0 -0.18059483422E+02  0.55123704462E+02 -0.16617476661E+01  0.58030415649E+02  0.00000000000E+00 0.  1.
</event>
<event>
 8    1  0.6869405E-009  0.1414850E+03  0.7561462E-02  0.1211345E+00
          1   -1    0    0  501    0  0.00000000000E+00  0.00000000000E+00  0.28584769548E+03  0.28584769548E+03  0.00000000000E+00 0. -1.
         -1   -1    0    0    0  501 -0.00000000000E+00 -0.00000000000E+00 -0.77716944771E+02  0.77716944771E+02  0.00000000000E+00 0.  1.
         25    2    1    2    0    0  0.62586764839E+02 -0.79610656564E+02  0.13011602819E+03  0.20695998863E+03  0.12508915352E+03 0.  0.
         23    2    1    2    0    0 -0.62586764839E+02  0.79610656564E+02  0.78014722517E+02  0.15660465162E+03  0.90464137697E+02 0.  0.
          5    1    3    3  502    0 -0.60276857981E+01 -0.85007048446E+02  0.42081596570E+02  0.95136031300E+02  0.41800000000E+01 0.  1.
         -5    1    3    3    0  502  0.68614450637E+02  0.53963918828E+01  0.88034431624E+02  0.11182395733E+03  0.41800000000E+01 0.  1.
        -11    1    4    4    0    0  0.18797866274E+02  0.85463645824E+01  0.34332545175E+02  0.40063996084E+02  0.00000000000E+00 0. -1.
         11    1    4    4    0    0 -0.81384631113E+02  0.71064291981E+02  0.43682177342E+02  0.11654065554E+03  0.00000000000E+00 0.  1.
</event>
<event>
 8    1  0.6869405E-009  0.1346673E+03  0.7561462E-02  0.1220690E+00
          1   -1    0    0  501    0  0.00000000000E+00  0.00000000000E+00  0.48063164630E+03  0.48063164630E+03  0.00000000000E+00 0. -1.
         -1   -1    0    0    0  501 -0.00000000000E+00 -0.00000000000E+00 -0.41907620795E+02  0.41907620795E+02  0.00000000000E+00 0.  1.
         25    2    1    2    0    0 -0.90617508571E+02 -0.40874933905E+01  0.25549850767E+03  0.29858867522E+03  0.12508984404E+03 0.  0.
         23    2    1    2    0    0  0.90617508571E+02  0.40874933905E+01  0.18322551783E+03  0.22395059188E+03  0.91400419889E+02 0.  0.
          5    1    3    3  502    0 -0.85304186367E+02 -0.55971287511E+02  0.16428014491E+03  0.19342964522E+03  0.41800000000E+01 0.  1.
         -5    1    3    3    0  502 -0.53133222045E+01  0.51883794121E+02  0.91218362763E+02  0.10515903000E+03  0.41800000000E+01 0.  1.
        -11    1    4    4    0    0  0.52562499839E+02 -0.32753974609E+02  0.14773899540E+03  0.16019503739E+03  0.00000000000E+00 0. -1.
         11    1    4    4    0    0  0.38055008732E+02  0.36841467999E+02  0.35486522432E+02  0.63755554490E+02  0.00000000000E+00 0.  1.
</event>
<event>
 8    1  0.6869405E-009  0.7389428E+02  0.7561462E-02  0.1347330E+00
          2   -1    0    0  501    0  0.00000000000E+00  0.00000000000E+00  0.53980604291E+02  0.53980604291E+02  0.00000000000E+00 0. -1.
         -2   -1    0    0    0  501 -0.00000000000E+00 -0.00000000000E+00 -0.21786461691E+03  0.21786461691E+03  0.00000000000E+00 0.  1.
         25    2    1    2    0    0 -0.37983634008E+01 -0.85320142754E+01 -0.93519533332E+02  0.15646145162E+03  0.12508820846E+03 0.  0.
         23    2    1    2    0    0  0.37983634008E+01  0.85320142754E+01 -0.70364479291E+02  0.11538376959E+03  0.90967200166E+02 0.  0.
          5    1    3    3  502    0  0.26876939687E+02 -0.30280618022E+02  0.13553500212E+02  0.42900530098E+02  0.41800000000E+01 0. -1.
         -5    1    3    3    0  502 -0.30675303088E+02  0.21748603746E+02 -0.10707303354E+03  0.11356092152E+03  0.41800000000E+01 0. -1.
        -11    1    4    4    0    0 -0.69327510477E+01  0.37616357767E+02  0.26440933809E+00  0.38250795038E+02  0.00000000000E+00 0. -1.
         11    1    4    4    0    0  0.10731114449E+02 -0.29084343492E+02 -0.70628888629E+02  0.77132974548E+02  0.00000000000E+00 0.  1.
</event>
<event>
 8    1  0.6869405E-009  0.1194005E+03  0.7561462E-02  0.1244089E+00
         -1   -1    0    0    0  501 -0.00000000000E+00  0.00000000000E+00  0.78626138385E+02  0.78626138385E+02  0.00000000000E+00 0.  1.
          1   -1    0    0  501    0  0.00000000000E+00 -0.00000000000E+00 -0.20156825601E+03  0.20156825601E+03  0.00000000000E+00 0. -1.
         25    2    1    2    0    0 -0.17743157016E+02  0.57621614638E+02 -0.88377223089E+02  0.16460063452E+03  0.12509102777E+03 0.  0.
         23    2    1    2    0    0  0.17743157016E+02 -0.57621614638E+02 -0.34564894540E+02  0.11559375988E+03  0.92369450010E+02 0.  0.
          5    1    3    3  502    0 -0.11073060003E+02  0.92539479108E+02 -0.88807703101E+02  0.12880391447E+03  0.41800000000E+01 0. -1.
         -5    1    3    3    0  502 -0.66700970136E+01 -0.34917864470E+02  0.43048001238E+00  0.35796720050E+02  0.41800000000E+01 0. -1.
        -11    1    4    4    0    0  0.51862802199E+02 -0.54841816068E+02 -0.29253437214E+02  0.80951458482E+02  0.00000000000E+00 0. -1.
         11    1    4    4    0    0 -0.34119645183E+02 -0.27797985703E+01 -0.53114573266E+01  0.34642301402E+02  0.00000000000E+00 0.  1.
</event>
<event>
 8    1  0.6869405E-009  0.1133758E+03  0.7561462E-02  0.1254443E+00
          2   -1    0    0  501    0  0.00000000000E+00  0.00000000000E+00  0.74520823683E+03  0.74520823683E+03  0.00000000000E+00 0. -1.
         -2   -1    0    0    0  501 -0.00000000000E+00 -0.00000000000E+00 -0.21893904371E+02  0.21893904371E+02  0.00000000000E+00 0.  1.
         25    2    1    2    0    0 -0.53560368754E+02  0.21415988437E+02  0.55724087305E+03  0.57401346656E+03  0.12508681599E+03 0.  0.
         23    2    1    2    0    0  0.53560368754E+02 -0.21415988437E+02  0.16607345941E+03  0.19308867464E+03  0.79846632313E+02 0.  0.
          5    1    3    3  502    0  0.38311408248E+02  0.18466844280E+02  0.12550435018E+03  0.13258055157E+03  0.41800000000E+01 0. -1.
         -5    1    3    3    0  502 -0.91871777002E+02  0.29491441577E+01  0.43173652287E+03  0.44143291500E+03  0.41800000000E+01 0. -1.
        -11    1    4    4    0    0  0.56513014015E+02  0.12565543730E+02  0.13523284693E+03  0.14710382909E+03  0.00000000000E+00 0. -1.
         11    1    4    4    0    0 -0.29526452608E+01 -0.33981532168E+02  0.30840612473E+02  0.45984845550E+02  0.00000000000E+00 0.  1.
</event>
<event>
 8    1  0.6869405E-009  0.1061640E+03  0.7561462E-02  0.1267843E+00
          1   -1    0    0  501    0  0.00000000000E+00  0.00000000000E+00  0.49161823488E+02  0.49161823488E+02  0.00000000000E+00 0. -1.
         -1   -1    0    0    0  501 -0.00000000000E+00 -0.00000000000E+00 -0.32062467252E+03  0.32062467252E+03  0.00000000000E+00 0.  1.
         25    2    1    2    0    0  0.49253449818E+02 -0.36640472721E+02 -0.17038916436E+03  0.22011257197E+03  0.12509456603E+03 0.  0.
         23    2    1    2    0    0 -0.49253449818E+02  0.36640472721E+02 -0.10107368467E+03  0.14967392403E+03  0.91749480876E+02 0.  0.
          5    1    3    3  502    0  0.67210508416E+02  0.25603795166E+02 -0.69232111043E+02  0.99916787217E+02  0.41800000000E+01 0. -1.
         -5    1    3    3    0  502 -0.17957058598E+02 -0.62244267887E+02 -0.10115705331E+03  0.12019578476E+03  0.41800000000E+01 0. -1.
        -11    1    4    4    0    0 -0.42033022559E+02  0.43253422026E+01  0.10994740251E+01  0.42269284519E+02  0.00000000000E+00 0. -1.
         11    1    4    4    0    0 -0.72204272588E+01  0.32315130519E+02 -0.10217315870E+03  0.10740463951E+03  0.00000000000E+00 0.  1.
</event>
<event>
 7    1  0.6869405E-009  0.1837359E+03  0.7561462E-02  0.1164236E+00
         -2   -1    0    0    0  501 -0.00000000000E+00  0.00000000000E+00  0.32596928298E+02  0.32596928298E+02  0.00000000000E+00 0.  1.
          2   -1    0    0  501    0  0.00000000000E+00 -0.00000000000E+00 -0.12297193493E+04  0.12297193493E+04  0.00000000000E+00 0. -1.
         23    2    1    2    0    0  0.66428326472E+02  0.15346112032E+03 -0.60237297581E+03  0.63198867328E+03  0.92700826102E+02 0.  0.
          5    1    1    2  502    0 -0.81471395735E+02 -0.87971032171E+02 -0.22993872271E+03  0.25935647172E+03  0.41800000000E+01 0. -1.
         -5    1    1    2    0  502  0.15043069263E+02 -0.65490088148E+02 -0.36481072244E+03  0.37097113255E+03  0.41800000000E+01 0. -1.
        -11    1    3    3    0    0  0.42904403197E+02  0.25172129257E+02 -0.85537882799E+02  0.98950256689E+02  0.00000000000E+00 0. -1.
         11    1    3    3    0    0  0.23523923275E+02  0.12828899106E+03 -0.51683509301E+03  0.53303841659E+03  0.00000000000E+00 0.  1.
</event>
<event>
 8    1  0.6869405E-009  0.1176630E+03  0.7561462E-02  0.1247003E+00
          1   -1    0    0  501    0  0.00000000000E+00  0.00000000000E+00  0.98765256301E+03  0.98765256301E+03  0.00000000000E+00 0. -1.
         -1   -1    0    0    0  501 -0.00000000000E+00 -0.00000000000E+00 -0.14679343573E+02  0.14679343573E+02  0.00000000000E+00 0.  1.
         25    2    1    2    0    0  0.39346503406E+02  0.27031179358E+02  0.45791207548E+03  0.47708484519E+03  0.12509056178E+03 0.  0.
         23    2    1    2    0    0 -0.39346503406E+02 -0.27031179358E+02  0.51506114395E+03  0.52524706139E+03  0.91201214385E+02 0.  0.
          5    1    3    3  502    0  0.13020452779E+02 -0.50075100289E+02  0.16045577859E+03  0.16864334301E+03  0.41800000000E+01 0. -1.
         -5    1    3    3    0  502  0.26326050627E+02  0.77106279647E+02  0.29745629689E+03  0.30844150217E+03  0.41800000000E+01 0. -1.
        -11    1    4    4    0    0 -0.25130562806E+01 -0.55328342319E+02  0.24140488084E+03  0.24767692143E+03  0.00000000000E+00 0.  1.
         11    1    4    4    0    0 -0.36833447125E+02  0.28297162962E+02  0.27365626311E+03  0.27757013996E+03  0.00000000000E+00 0. -1.
</event>
<event>
 8    1  0.6869405E-009  0.1067209E+03  0.7561462E-02  0.1266766E+00
         -1   -1    0    0    0  501 -0.00000000000E+00  0.00000000000E+00  0.37498268247E+03  0.37498268247E+03  0.00000000000E+00 0.  1.
          1   -1    0    0  501    0  0.00000000000E+00 -0.00000000000E+00 -0.46633026990E+02  0.46633026990E+02  0.00000000000E+00 0. -1.
         25    2    1    2    0    0 -0.18788508598E+02  0.17274775852E+02  0.68766173435E+02  0.14500798175E+03  0.12508837767E+03 0.  0.
         23    2    1    2    0    0  0.18788508598E+02 -0.17274775852E+02  0.25958348204E+03  0.27660772770E+03  0.92069674380E+02 0.  0.
          5    1    3    3  502    0  0.38186779564E+02 -0.27927817429E+02  0.42252713028E+01  0.47681426546E+02  0.41800000000E+01 0.  1.
         -5    1    3    3    0  502 -0.56975288163E+02  0.45202593281E+02  0.64540902132E+02  0.97326555208E+02  0.41800000000E+01 0.  1.
        -11    1    4    4    0    0 -0.22112491589E+00  0.36274925703E+02  0.13293679369E+03  0.13779735211E+03  0.00000000000E+00 0.  1.
         11    1    4    4    0    0  0.19009633514E+02 -0.53549701555E+02  0.12664668835E+03  0.13881037559E+03  0.00000000000E+00 0. -1.
</event>
<event>
 8    1  0.6869405E-009  0.1228038E+03  0.7561462E-02  0.1238542E+00
         -2   -1    0    0    0  501 -0.00000000000E+00  0.00000000000E+00  0.11274063862E+03  0.11274063862E+03  0.00000000000E+00 0.  1.
          2   -1    0    0  501    0  0.00000000000E+00 -0.00000000000E+00 -0.18605949822E+03  0.18605949822E+03  0.00000000000E+00 0. -1.
         25    2    1    2    0    0  0.57757803101E+02 -0.68843504838E+02 -0.68560030105E+01  0.15417619486E+03  0.12509157568E+03 0.  0.
         23    2    1    2    0    0 -0.57757803101E+02  0.68843504838E+02 -0.66462856595E+02  0.14462394198E+03  0.91778980768E+02 0.  0.
          5    1    3    3  502    0  0.26777608331E+02  0.15295589739E+02 -0.46580593822E+02  0.56019813407E+02  0.41800000000E+01 0.  1.
         -5    1    3    3    0  502  0.30980194770E+02 -0.84139094577E+02  0.39724590812E+02  0.98156381450E+02  0.41800000000E+01 0.  1.
        -11    1    4    4    0    0 -0.65844724817E+02  0.11529072742E+02 -0.52715914485E+02  0.85131750507E+02  0.00000000000E+00 0. -1.
         11    1    4    4    0    0  0.80869217161E+01  0.57314432096E+02 -0.13746942110E+02  0.59492191477E+02  0.00000000000E+00 0.  1.
</event>
<event>
 8    1  0.6869405E-009  0.1242593E+03  0.7561462E-02  0.1236231E+00
         -2   -1    0    0    0  501 -0.00000000000E+00  0.00000000000E+00  0.16730113179E+02  0.16730113179E+02  0.00000000000E+00 0.  1.
          2   -1    0    0  501    0  0.00000000000E+00 -0.00000000000E+00 -0.10181298085E+04  0.10181298085E+04  0.00000000000E+00 0. -1.
         25    2    1    2    0    0  0.44756672717E+02 -0.55395591899E+02 -0.58911272179E+03  0.60644257281E+03  0.12508782427E+03 0.  0.
         23    2    1    2    0    0 -0.44756672717E+02  0.55395591899E+02 -0.41228697352E+03  0.42841734887E+03  0.92136013145E+02 0.  0.
          5    1    3    3  502    0  0.33712673816E+02  0.37324405940E+02 -0.20817859174E+03  0.21420890298E+03  0.41800000000E+01 0. -1.
         -5    1    3    3    0  502  0.11043998901E+02 -0.92719997839E+02 -0.38093413005E+03  0.39223366983E+03  0.41800000000E+01 0. -1.
        -11    1    4    4    0    0 -0.47679099543E+02 -0.14098559550E+01 -0.97618492804E+02  0.10864922625E+03  0.00000000000E+00 0.  1.
         11    1    4    4    0    0  0.29224268259E+01  0.56805447854E+02 -0.31466848072E+03  0.31976812262E+03  0.00000000000E+00 0. -1.
</event>
<event>
 8    1  0.6869405E-009  0.1650070E+03  0.7561462E-02  0.1183157E+00
          1   -1    0    0  501    0  0.00000000000E+00  0.00000000000E+00  0.97783134093E+03  0.97783134093E+03  0.00000000000E+00 0.  1.
         -1   -1    0    0    0  501 -0.00000000000E+00 -0.00000000000E+00 -0.33332225792E+02  0.33332225792E+02  0.00000000000E+00 0. -1.
         25    2    1    2    0    0  0.13984835311E+03  0.20841376054E+02  0.39472515637E+03  0.43754642118E+03  0.12508795623E+03 0.  0.
         23    2    1    2    0    0 -0.13984835311E+03 -0.20841376054E+02  0.54977395877E+03  0.57361714554E+03  0.82421472287E+02 0.  0.
          5    1    3    3  502    0  0.13388023351E+03 -0.29830255099E+02  0.29920375845E+03  0.32917187382E+03  0.41800000000E+01 0.  1.
         -5    1    3    3    0  502  0.59681195999E+01  0.50671631152E+02  0.95521397919E+02  0.10837454736E+03  0.41800000000E+01 0.  1.
        -11    1    4    4    0    0 -0.10158952923E+03 -0.11722676265E+02  0.49911010710E+03  0.50947890300E+03  0.00000000000E+00 0.  1.
         11    1    4    4    0    0 -0.38258823885E+02 -0.91186997886E+01  0.50663851666E+02  0.64138242544E+02  0.00000000000E+00 0. -1.
</event>
<event>
 8    1  0.6869405E-009  0.9770869E+02  0.7561462E-02  0.1285189E+00
         -1   -1    0    0    0  501 -0.00000000000E+00  0.00000000000E+00  0.36362293616E+02  0.36362293616E+02  0.00000000000E+00 0.  1.
          1   -1    0    0  501    0  0.00000000000E+00 -0.00000000000E+00 -0.47658669077E+03  0.47658669077E+03  0.00000000000E+00 0. -1.
         25    2    1    2    0    0 -0.26229722603E+02  0.66336524261E+02 -0.28550452061E+03  0.31976574239E+03  0.12509502754E+03 0.  0.
         23    2    1    2    0    0  0.26229722603E+02 -0.66336524261E+02 -0.15471987654E+03  0.19318324200E+03  0.91065866237E+02 0.  0.
          5    1    3    3  502    0 -0.39297782041E+02  0.26050021797E+02 -0.20867730610E+02  0.51728656369E+02  0.41800000000E+01 0. -1.
         -5    1    3    3    0  502  0.13068059438E+02  0.40286502464E+02 -0.26463679000E+03  0.26803708602E+03  0.41800000000E+01 0. -1.
        -11    1    4    4    0    0  0.19666629233E+02 -0.84214947512E+02 -0.15065084320E+03  0.17370840581E+03  0.00000000000E+00 0. -1.
         11    1    4    4    0    0  0.65630933697E+01  0.17878423251E+02 -0.40690333412E+01  0.19474836196E+02  0.00000000000E+00 0.  1.
</event>
<event>
 8    1  0.6869405E-009  0.1005938E+03  0.7561462E-02  0.1279052E+00
         -4   -1    0    0    0  501 -0.00000000000E+00  0.00000000000E+00  0.47003178812E+03  0.47003178812E+03  0.00000000000E+00 0.  1.
          4   -1    0    0  501    0  0.00000000000E+00 -0.00000000000E+00 -0.26794049343E+02  0.26794049343E+02  0.00000000000E+00 0. -1.
         25    2    1    2    0    0 -0.20277474541E+02  0.16969270371E+02  0.22027129050E+03  0.25468625040E+03  0.12508602086E+03 0.  0.
         23    2    1    2    0    0  0.20277474541E+02 -0.16969270371E+02  0.22296644827E+03  0.24213958706E+03  0.90655449113E+02 0.  0.
          5    1    3    3  502    0  0.51787830742E+02  0.51206332823E+01  0.11711543353E+03  0.12822518266E+03  0.41800000000E+01 0. -1.
         -5    1    3    3    0  502 -0.72065305283E+02  0.11848637089E+02  0.10315585697E+03  0.12646106774E+03  0.41800000000E+01 0. -1.
        -11    1    4    4    0    0 -0.23129829330E+02 -0.22256791600E+02  0.17206900510E+03  0.17503741398E+03  0.00000000000E+00 0.  1.
         11    1    4    4    0    0  0.43407303871E+02  0.52875212283E+01  0.50897443180E+02  0.67102173082E+02  0.00000000000E+00 0. -1.
</event>
<event>
 8    1  0.6869405E-009  0.1308099E+03  0.7561462E-02  0.1226259E+00
         -3   -1    0    0    0  501 -0.00000000000E+00  0.00000000000E+00  0.10205326635E+03  0.10205326635E+03  0.00000000000E+00 0.  1.
          3   -1    0    0  501    0  0.00000000000E+00 -0.00000000000E+00 -0.25964961657E+03  0.25964961657E+03  0.00000000000E+00 0. -1.
         25    2    1    2    0    0 -0.11609520055E+03  0.27934036580E+02 -0.61232182356E+02  0.18345442699E+03  0.12509092948E+03 0.  0.
         23    2    1    2    0    0  0.11609520055E+03 -0.27934036580E+02 -0.96364167864E+02  0.17824845592E+03  0.90708616997E+02 0.  0.
          5    1    3    3  502    0  0.29534679795E+01 -0.61628831824E+01 -0.58986734450E+02  0.59528239881E+02  0.41800000000E+01 0.  1.
         -5    1    3    3    0  502 -0.11904866853E+03  0.34096919762E+02 -0.22454479063E+01  0.12392618711E+03  0.41800000000E+01 0.  1.
        -11    1    4    4    0    0  0.13717482229E+02 -0.23522662291E+02 -0.65960991433E+02  0.71360614843E+02  0.00000000000E+00 0. -1.
         11    1    4    4    0    0  0.10237771832E+03 -0.44113742888E+01 -0.30403176431E+02  0.10688784107E+03  0.00000000000E+00 0.  1.
</event>
<event>
 8    1  0.6869405E-009  0.1463048E+03  0.7561462E-02  0.1205089E+00
          2   -1    0    0  501    0  0.00000000000E+00  0.00000000000E+00  0.20267960481E+04  0.20267960481E+04  0.00000000000E+00 0. -1.
         -2   -1    0    0    0  501 -0.00000000000E+00 -0.00000000000E+00 -0.15750991346E+02  0.15750991346E+02  0.00000000000E+00 0.  1.
         25    2    1    2    0    0  0.12388320215E+03  0.47364156798E+02  0.13614768201E+04  0.13736291308E+04  0.12508975296E+03 0.  0.
         23    2    1    2    0    0 -0.12388320215E+03 -0.47364156798E+02  0.64956823671E+03  0.66891790867E+03  0.89004849667E+02 0.  0.
          5    1    3    3  502    0  0.58320645507E+02  0.22575699221E+02  0.19043804995E+03  0.20048711469E+03  0.41800000000E+01 0. -1.
         -5    1    3    3    0  502  0.65562556639E+02  0.24788457577E+02  0.11710387701E+04  0.11731420161E+04  0.41800000000E+01 0. -1.
        -11    1    4    4    0    0  0.43398647530E+01 -0.30011662582E+02  0.12043221831E+03  0.12419119745E+03  0.00000000000E+00 0.  1.
         11    1    4    4    0    0 -0.12822306690E+03 -0.17352494216E+02  0.52913601840E+03  0.54472671121E+03  0.00000000000E+00 0. -1.
</event>
<event>
 8    1  0.6869405E-009  0.1713115E+03  0.7561462E-02  0.1176487E+00
          1   -1    0    0  501    0  0.00000000000E+00  0.00000000000E+00  0.86588103051E+03  0.86588103051E+03  0.00000000000E+00 0. -1.
         -1   -1    0    0    0  501 -0.00000000000E+00 -0.00000000000E+00 -0.42415867464E+02  0.42415867464E+02  0.00000000000E+00 0.  1.
         25    2    1    2    0    0  0.14336122979E+03  0.64593584815E+02  0.41773982365E+03  0.46355257409E+03  0.12509858224E+03 0.  0.
         23    2    1    2    0    0 -0.14336122979E+03 -0.64593584815E+02  0.40572533940E+03  0.44474432389E+03  0.91976568722E+02 0.  0.
          5    1    3    3  502    0  0.21129850557E+02  0.52612440406E+02  0.49609393592E+02  0.75452659347E+02  0.41800000000E+01 0.  1.
         -5    1    3    3    0  502  0.12223137923E+03  0.11981144409E+02  0.36813043005E+03  0.38809991474E+03  0.41800000000E+01 0.  1.
        -11    1    4    4    0    0 -0.81566473475E+02 -0.13445527306E+02  0.10574114332E+03  0.13422019665E+03  0.00000000000E+00 0. -1.
         11    1    4    4    0    0 -0.61794756310E+02 -0.51148057509E+02  0.29998419609E+03  0.31052412724E+03  0.00000000000E+00 0.  1.
</event>
<event>
 8    1  0.6869405E-009  0.9979791E+02  0.7561462E-02  0.1280721E+00
          1   -1    0    0  501    0  0.00000000000E+00  0.00000000000E+00  0.49282015207E+03  0.49282015207E+03  0.00000000000E+00 0. -1.
         -1   -1    0    0    0  501 -0.00000000000E+00 -0.00000000000E+00 -0.44835230564E+02  0.44835230564E+02  0.00000000000E+00 0.  1.
         25    2    1    2    0    0 -0.33990179238E+02 -0.87937032702E+02  0.17035747970E+03  0.23142529544E+03  0.12509093682E+03 0.  0.
         23    2    1    2    0    0  0.33990179238E+02  0.87937032702E+02  0.27762744181E+03  0.30623008720E+03  0.88383346027E+02 0.  0.
          5    1    3    3  502    0 -0.19308876282E+02 -0.84140641112E+01 -0.16954576607E+02  0.27359810783E+02  0.41800000000E+01 0.  1.
         -5    1    3    3    0  502 -0.14681302957E+02 -0.79522968591E+02  0.18731205630E+03  0.20406548465E+03  0.41800000000E+01 0.  1.
        -11    1    4    4    0    0  0.23455850644E+02  0.29105661386E+02  0.21292303387E+02  0.43019514614E+02  0.00000000000E+00 0.  1.
         11    1    4    4    0    0  0.10534328595E+02  0.58831371316E+02  0.25633513843E+03  0.26321057259E+03  0.00000000000E+00 0. -1.
</event>
<event>
 8    1  0.6869405E-009  0.1290237E+03  0.7561462E-02  0.1228912E+00
          2   -1    0    0  501    0  0.00000000000E+00  0.00000000000E+00  0.33659126206E+03  0.33659126206E+03  0.00000000000E+00 0.  1.
         -2   -1    0    0    0  501 -0.00000000000E+00 -0.00000000000E+00 -0.10707590801E+03  0.10707590801E+03  0.00000000000E+00 0. -1.
         25    2    1    2    0    0 -0.11790895489E+03  0.14091625994E+02  0.23804958027E+03  0.29396669636E+03  0.12509084833E+03 0.  0.
         23    2    1    2    0    0  0.11790895489E+03 -0.14091625994E+02 -0.85342262226E+01  0.14970047371E+03  0.90754081159E+02 0.  0.
          5    1    3    3  502    0 -0.12124540273E+03  0.25084267875E+02  0.11102159850E+03  0.16635184373E+03  0.41800000000E+01 0.  1.
         -5    1    3    3    0  502  0.33364478452E+01 -0.10992641881E+02  0.12702798177E+03  0.12761485263E+03  0.41800000000E+01 0.  1.
        -11    1    4    4    0    0  0.40072375872E+02 -0.18162239028E+02 -0.45625083257E+02  0.63382256640E+02  0.00000000000E+00 0. -1.
         11    1    4    4    0    0  0.77836579015E+02  0.40706130335E+01  0.37090857035E+02  0.86318217073E+02  0.00000000000E+00 0.  1.
</event>
<event>
 8    1  0.6869405E-009  0.2136614E+03  0.7561462E-02  0.1138699E+00
         -2   -1    0    0    0  501 -0.00000000000E+00  0.00000000000E+00  0.40927315533E+03  0.40927315533E+03  0.00000000000E+00 0.  1.
          2   -1    0    0  501    0  0.00000000000E+00 -0.00000000000E+00 -0.12486020492E+03  0.12486020492E+03  0.00000000000E+00 0. -1.
         25    2    1    2    0    0  0.11806048646E+03  0.15235975456E+03  0.94099575908E+02  0.24829957911E+03  0.12508468144E+03 0.  0.
         23    2    1    2    0    0 -0.11806048646E+03 -0.15235975456E+03  0.19031337450E+03  0.28583378113E+03  0.91268815334E+02 0.  0.
          5    1    3    3  502    0  0.17914183978E+01  0.10077567170E+03  0.27008327667E+02  0.10443116082E+03  0.41800000000E+01 0. -1.
         -5    1    3    3    0  502  0.11626906806E+03  0.51584082855E+02  0.67091248242E+02  0.14386841829E+03  0.41800000000E+01 0. -1.
        -11    1    4    4    0    0 -0.43341869362E+02 -0.96818834747E+02  0.49578725601E+02  0.11709164972E+03  0.00000000000E+00 0.  1.
         11    1    4    4    0    0 -0.74718617094E+02 -0.55540919812E+02  0.14073464890E+03  0.16874213142E+03  0.00000000000E+00 0. -1.
</event>
<event>
 8    1  0.6869405E-009  0.1271969E+03  0.7561462E-02  0.1231675E+00
          2   -1    0    0  501    0  0.00000000000E+00  0.00000000000E+00  0.29654025776E+03  0.29654025776E+03  0.00000000000E+00 0. -1.
         -2   -1    0    0    0  501 -0.00000000000E+00 -0.00000000000E+00 -0.56755181055E+02  0.56755181055E+02  0.00000000000E+00 0.  1.
         25    2    1    2    0    0 -0.67425209646E+02  0.19234044974E+02  0.14901089036E+03  0.20680147216E+03  0.12508595468E+03 0.  0.
         23    2    1    2    0    0  0.67425209646E+02 -0.19234044974E+02  0.90774186336E+02  0.14649396665E+03  0.91128601318E+02 0.  0.
          5    1    3    3  502    0  0.25701167171E+02 -0.25118743228E+02  0.19240397994E+02  0.40977635001E+02  0.41800000000E+01 0. -1.
         -5    1    3    3    0  502 -0.93126376817E+02  0.44352788201E+02  0.12977049237E+03  0.16582383716E+03  0.41800000000E+01 0. -1.
        -11    1    4    4    0    0 -0.18520315602E+02  0.13599242199E+02  0.18160649236E+02  0.29287380543E+02  0.00000000000E+00 0.  1.
         11    1    4    4    0    0  0.85945525248E+02 -0.32833287173E+02  0.72613537100E+02  0.11720658611E+03  0.00000000000E+00 0. -1.
</event>
<event>
 8    1  0.6869405E-009  0.9808151E+02  0.7561462E-02  0.1284383E+00
          1   -1    0    0  501    0  0.00000000000E+00  0.00000000000E+00  0.71120396604E+02  0.71120396604E+02  0.00000000000E+00 0. -1.
         -1   -1    0    0    0  501 -0.00000000000E+00 -0.00000000000E+00 -0.23061598127E+03  0.23061598127E+03  0.00000000000E+00 0.  1.
         25    2    1    2    0    0  0.50472458390E+02 -0.32892435517E+02 -0.50497948304E+02  0.14773745605E+03  0.12508769631E+03 0.  0.
         23    2    1    2    0    0 -0.50472458390E+02  0.32892435517E+02 -0.10899763636E+03  0.15399892182E+03  0.90585880909E+02 0.  0.
          5    1    3    3  502    0  0.26715804193E+02 -0.51493233957E+02 -0.84184077830E+02  0.10232164335E+03  0.41800000000E+01 0.  1.
         -5    1    3    3    0  502  0.23756654197E+02  0.18600798440E+02  0.33686129526E+02  0.45415812705E+02  0.41800000000E+01 0.  1.
        -11    1    4    4    0    0  0.21705527845E+02  0.27679495856E+02 -0.47013150788E+02  0.58715592281E+02  0.00000000000E+00 0.  1.
         11    1    4    4    0    0 -0.72177986235E+02  0.52129396607E+01 -0.61984485573E+02  0.95283329542E+02  0.00000000000E+00 0. -1.
</event>
<event>
 8    1  0.6869405E-009  0.5398295E+02  0.7561462E-02  0.1424971E+00
         -2   -1    0    0    0  501 -0.00000000000E+00  0.00000000000E+00  0.14348948050E+02  0.14348948050E+02  0.00000000000E+00 0.  1.
          2   -1    0    0  501    0  0.00000000000E+00 -0.00000000000E+00 -0.97579379868E+03  0.97579379868E+03  0.00000000000E+00 0. -1.
         25    2    1    2    0    0 -0.77438554315E+01  0.22724006870E+02 -0.70239189465E+03  0.71384768666E+03  0.12509115992E+03 0.  0.
         23    2    1    2    0    0  0.77438554315E+01 -0.22724006870E+02 -0.25905295598E+03  0.27629506007E+03  0.93027836872E+02 0.  0.
          5    1    3    3  502    0 -0.10132786500E+02  0.19669627383E+02 -0.70647566610E+03  0.70683442672E+03  0.41800000000E+01 0.  1.
         -5    1    3    3    0  502  0.23889310688E+01  0.30543794877E+01  0.40837714503E+01  0.70132599384E+01  0.41800000000E+01 0.  1.
        -11    1    4    4    0    0 -0.28359263299E+02  0.10928025825E+02 -0.18383590659E+03  0.18633118396E+03  0.00000000000E+00 0. -1.
         11    1    4    4    0    0  0.36103118730E+02 -0.33652032696E+02 -0.75217049389E+02  0.89963876114E+02  0.00000000000E+00 0.  1.
</event>
<event>
 8    1  0.6869405E-009  0.1238560E+03  0.7561462E-02  0.1236868E+00
          2   -1    0    0  501    0  0.00000000000E+00  0.00000000000E+00  0.10498779564E+03  0.10498779564E+03  0.00000000000E+00 0. -1.
         -2   -1    0    0    0  501 -0.00000000000E+00 -0.00000000000E+00 -0.23798192561E+03  0.23798192561E+03  0.00000000000E+00 0.  1.
         25    2    1    2    0    0 -0.74077181094E+02  0.27854825391E+02  0.17721791130E+02  0.14906428155E+03  0.12507109217E+03 0.  0.
         23    2    1    2    0    0  0.74077181094E+02 -0.27854825391E+02 -0.15071592110E+03  0.19390543970E+03  0.92847781975E+02 0.  0.
          5    1    3    3  502    0 -0.28982598477E+02  0.72455072693E+02 -0.11705594298E+02  0.79020389213E+02  0.41800000000E+01 0. -1.
         -5    1    3    3    0  502 -0.45094582617E+02 -0.44600247302E+02  0.29427385428E+02  0.70043892338E+02  0.41800000000E+01 0. -1.
        -11    1    4    4    0    0  0.27726372096E+01  0.19958152564E+02 -0.80539808609E+02  0.83022142478E+02  0.00000000000E+00 0.  1.
         11    1    4    4    0    0  0.71304543884E+02 -0.47812977955E+02 -0.70176112491E+02  0.11088329723E+03  0.00000000000E+00 0. -1.
</event>
<event>
 8    1  0.6869405E-009  0.1599545E+03  0.7561462E-02  0.1188748E+00
         -2   -1    0    0    0  501 -0.00000000000E+00  0.00000000000E+00  0.15785522016E+03  0.15785522016E+03  0.00000000000E+00 0.  1.
          2   -1    0    0  501    0  0.00000000000E+00 -0.00000000000E+00 -0.19377502885E+03  0.19377502885E+03  0.00000000000E+00 0. -1.
         25    2    1    2    0    0  0.11366300780E+03 -0.72774883176E+02 -0.49518706080E+02  0.19056498352E+03  0.12508975869E+03 0.  0.
         23    2    1    2    0    0 -0.11366300780E+03  0.72774883176E+02  0.13598897392E+02  0.16106526549E+03  0.86842540108E+02 0.  0.
          5    1    3    3  502    0 -0.26935310846E+02 -0.13523301345E+02 -0.15670872776E+02  0.34226295493E+02  0.41800000000E+01 0. -1.
         -5    1    3    3    0  502  0.14059831864E+03 -0.59251581831E+02 -0.33847833304E+02  0.15633868803E+03  0.41800000000E+01 0. -1.
        -11    1    4    4    0    0 -0.70290471079E+02  0.57676830291E+02  0.48807564804E+02  0.10319663492E+03  0.00000000000E+00 0.  1.
         11    1    4    4    0    0 -0.43372536719E+02  0.15098052886E+02 -0.35208667413E+02  0.57868630564E+02  0.00000000000E+00 0. -1.
</event>
<event>
 8    1  0.6869405E-009  0.8420291E+02  0.7561462E-02  0.1317530E+00
          4   -1    0    0  501    0  0.00000000000E+00  0.00000000000E+00  0.27128075319E+02  0.27128075319E+02  0.00000000000E+00 0. -1.
         -4   -1    0    0    0  501 -0.00000000000E+00 -0.00000000000E+00 -0.70990292384E+03  0.70990292384E+03  0.00000000000E+00 0.  1.
         25    2    1    2    0    0 -0.81299418644E+01  0.37105585377E+02 -0.57438847778E+03  0.58908103114E+03  0.12510562507E+03 0.  0.
         23    2    1    2    0    0  0.81299418644E+01 -0.37105585377E+02 -0.10838637074E+03  0.14794996802E+03  0.93266645985E+02 0.  0.
          5    1    3    3  502    0 -0.42104473687E+02  0.70739482116E+02 -0.34253153806E+03  0.35230978981E+03  0.41800000000E+01 0. -1.
         -5    1    3    3    0  502  0.33974531822E+02 -0.33633896739E+02 -0.23185693972E+03  0.23677124132E+03  0.41800000000E+01 0. -1.
        -11    1    4    4    0    0  0.48683220358E+01 -0.21133754510E+02 -0.12369825577E+03  0.12558500953E+03  0.00000000000E+00 0.  1.
         11    1    4    4    0    0  0.32616198286E+01 -0.15971830867E+02  0.15311885025E+02  0.22364958488E+02  0.00000000000E+00 0. -1.
</event>
<event>
 8    1  0.6869405E-009  0.1005957E+03  0.7561462E-02  0.1279048E+00
          2   -1    0    0  501    0  0.00000000000E+00  0.00000000000E+00  0.34584445329E+03  0.34584445329E+03  0.00000000000E+00 0. -1.
         -2   -1    0    0    0  501 -0.00000000000E+00 -0.00000000000E+00 -0.47275449359E+02  0.47275449359E+02  0.00000000000E+00 0.  1.
         25    2    1    2    0    0  0.46920666643E+02 -0.35721013179E+01  0.91330018124E+02  0.16187291868E+03  0.12508941093E+03 0.  0.
         23    2    1    2    0    0 -0.46920666643E+02  0.35721013179E+01  0.20723898581E+03  0.23124698397E+03  0.91174895067E+02 0.  0.
          5    1    3    3  502    0 -0.10871515103E+02 -0.52718880675E+02  0.19757664764E+02  0.57491807566E+02  0.41800000000E+01 0.  1.
         -5    1    3    3    0  502  0.57792181746E+02  0.49146779357E+02  0.71572353359E+02  0.10438111111E+03  0.41800000000E+01 0.  1.
        -11    1    4    4    0    0 -0.14812719713E+02  0.27461591863E+02  0.14517130419E+02  0.34413700303E+02  0.00000000000E+00 0.  1.
         11    1    4    4    0    0 -0.32107946930E+02 -0.23889490545E+02  0.19272185539E+03  0.19683328367E+03  0.00000000000E+00 0. -1.
</event>
<event>
 8    1  0.6869405E-009  0.8214113E+02  0.7561462E-02  0.1323083E+00
         -2   -1    0    0    0  501 -0.00000000000E+00  0.00000000000E+00  0.58116498221E+02  0.58116498221E+02  0.00000000000E+00 0. -1.
          2   -1    0    0  501    0  0.00000000000E+00 -0.00000000000E+00 -0.30770449053E+03  0.30770449053E+03  0.00000000000E+00 0.  1.
         25    2    1    2    0    0 -0.18832880269E+02  0.71541132064E+02 -0.10644839336E+03  0.18014322754E+03  0.12509001169E+03 0.  0.
         23    2    1    2    0    0  0.18832880269E+02 -0.71541132064E+02 -0.14313959895E+03  0.18567776121E+03  0.92273914321E+02 0.  0.
          5    1    3    3  502    0 -0.19507368109E+02  0.45194573042E+02  0.18217106039E+02  0.52653795641E+02  0.41800000000E+01 0. -1.
         -5    1    3    3    0  502  0.67448783937E+00  0.26346559022E+02 -0.12466549940E+03  0.12748943190E+03  0.41800000000E+01 0. -1.
        -11    1    4    4    0    0  0.34360963842E+02 -0.58824651330E+02 -0.14977357583E+03  0.16453917302E+03  0.00000000000E+00 0.  1.
         11    1    4    4    0    0 -0.15528083573E+02 -0.12716480734E+02  0.66339768762E+01  0.21138588196E+02  0.00000000000E+00 0. -1.
</event>
<event>
 8    1  0.6869405E-009  0.7469509E+02  0.7561462E-02  0.1344818E+00
          1   -1    0    0  501    0  0.00000000000E+00  0.00000000000E+00  0.30223863719E+03  0.30223863719E+03  0.00000000000E+00 0. -1.
         -1   -1    0    0    0  501 -0.00000000000E+00 -0.00000000000E+00 -0.39307976216E+02  0.39307976216E+02  0.00000000000E+00 0.  1.
         25    2    1    2    0    0  0.34846791652E+02  0.28144300692E+02  0.13376735940E+03  0.18853988637E+03  0.12508869557E+03 0.  0.
         23    2    1    2    0    0 -0.34846791652E+02 -0.28144300692E+02  0.12916330158E+03  0.15300672704E+03  0.68713168288E+02 0.  0.
          5    1    3    3  502    0  0.12117272003E+02  0.39568760871E+02 -0.97539842275E+01  0.42721513620E+02  0.41800000000E+01 0.  1.
         -5    1    3    3    0  502  0.22729519648E+02 -0.11424460179E+02  0.14352134363E+03  0.14581837275E+03  0.41800000000E+01 0.  1.
        -11    1    4    4    0    0 -0.42238736042E+02 -0.46144825443E+02  0.99361400744E+02  0.11741441008E+03  0.00000000000E+00 0.  1.
         11    1    4    4    0    0  0.73919443905E+01  0.18000524751E+02  0.29801900832E+02  0.35592316957E+02  0.00000000000E+00 0. -1.
</event>
<event>
 8    1  0.6869405E-009  0.5097490E+02  0.7561462E-02  0.1440153E+00
         -1   -1    0    0    0  501 -0.00000000000E+00  0.00000000000E+00  0.69661608702E+02  0.69661608702E+02  0.00000000000E+00 0.  1.
          1   -1    0    0  501    0  0.00000000000E+00 -0.00000000000E+00 -0.19379941430E+03  0.19379941430E+03  0.00000000000E+00 0. -1.
         25    2    1    2    0    0  0.27298380735E+02  0.68377299085E+01 -0.35549683891E+02  0.13305239415E+03  0.12508878216E+03 0.  0.
         23    2    1    2    0    0 -0.27298380735E+02 -0.68377299085E+01 -0.88588121708E+02  0.13040862885E+03  0.91469115173E+02 0.  0.
          5    1    3    3  502    0  0.27664062422E+01 -0.12908821589E+02 -0.78454150605E+02  0.79666911736E+02  0.41800000000E+01 0.  1.
         -5    1    3    3    0  502  0.24531974492E+02  0.19746551497E+02  0.42904466714E+02  0.53385482414E+02  0.41800000000E+01 0.  1.
        -11    1    4    4    0    0 -0.10159901781E+02 -0.27600633909E+02 -0.97664755021E+02  0.10199717138E+03  0.00000000000E+00 0. -1.
         11    1    4    4    0    0 -0.17138478953E+02  0.20762904001E+02  0.90766333134E+01  0.28411457472E+02  0.00000000000E+00 0.  1.
</event>
<event>
 8    1  0.6869405E-009  0.1592717E+03  0.7561462E-02  0.1189521E+00
          1   -1    0    0  501    0  0.00000000000E+00  0.00000000000E+00  0.52826287946E+02  0.52826287946E+02  0.00000000000E+00 0. -1.
         -1   -1    0    0    0  501 -0.00000000000E+00 -0.00000000000E+00 -0.59029611938E+03  0.59029611938E+03  0.00000000000E+00 0.  1.
         25    2    1    2    0    0  0.78105054919E+02 -0.88046084616E+02 -0.14973995840E+03  0.22786521818E+03  0.12509192578E+03 0.  0.
         23    2    1    2    0    0 -0.78105054919E+02  0.88046084616E+02 -0.38772987304E+03  0.41525718915E+03  0.90838131154E+02 0.  0.
          5    1    3    3  502    0 -0.23770052152E+02 -0.61147750561E+02 -0.66636573577E+02  0.93605385080E+02  0.41800000000E+01 0. -1.
         -5    1    3    3    0  502  0.10187510707E+03 -0.26898334055E+02 -0.83103384820E+02  0.13425983310E+03  0.41800000000E+01 0. -1.
        -11    1    4    4    0    0 -0.88121134248E+02  0.37400788431E+02 -0.27721319181E+03  0.29327684360E+03  0.00000000000E+00 0.  1.
         11    1    4    4    0    0  0.10016079329E+02  0.50645296185E+02 -0.11051668123E+03  0.12198034555E+03  0.00000000000E+00 0. -1.
</event>
<event>
 8    1  0.6869405E-009  0.8411529E+02  0.7561462E-02  0.1317762E+00
          2   -1    0    0  501    0  0.00000000000E+00  0.00000000000E+00  0.11193125626E+04  0.11193125626E+04  0.00000000000E+00 0. -1.
         -2   -1    0    0    0  501 -0.00000000000E+00 -0.00000000000E+00 -0.15942242773E+02  0.15942242773E+02  0.00000000000E+00 0.  1.
         25    2    1    2    0    0  0.56550599465E+02 -0.25712655587E+02  0.80974796816E+03  0.82170492980E+03  0.12509240087E+03 0.  0.
         23    2    1    2    0    0 -0.56550599465E+02  0.25712655587E+02  0.29362235164E+03  0.31354987555E+03  0.90776253048E+02 0.  0.
          5    1    3    3  502    0  0.49876614217E+02  0.20674052811E+00  0.10379877705E+03  0.11523618314E+03  0.41800000000E+01 0. -1.
         -5    1    3    3    0  502  0.66739852483E+01 -0.25919396115E+02  0.70594919111E+03  0.70646874666E+03  0.41800000000E+01 0. -1.
        -11    1    4    4    0    0 -0.11720203423E+02  0.41836830226E+02  0.54355303890E+02  0.69585793037E+02  0.00000000000E+00 0.  1.
         11    1    4    4    0    0 -0.44830396042E+02 -0.16124174639E+02  0.23926704776E+03  0.24396408252E+03  0.00000000000E+00 0. -1.
</event>
<event>
 8    1  0.6869405E-009  0.1048714E+03  0.7561462E-02  0.1270373E+00
         -1   -1    0    0    0  501 -0.00000000000E+00  0.00000000000E+00  0.86023065149E+02  0.86023065149E+02  0.00000000000E+00 0.  1.
          1   -1    0    0  501    0  0.00000000000E+00 -0.00000000000E+00 -0.16615990260E+03  0.16615990260E+03  0.00000000000E+00 0. -1.
         25    2    1    2    0    0  0.45822653179E+02 -0.20272233980E+02 -0.55455517235E+02  0.14571634660E+03  0.12508900934E+03 0.  0.
         23    2    1    2    0    0 -0.45822653179E+02  0.20272233980E+02 -0.24681320213E+02  0.10646662115E+03  0.90638263646E+02 0.  0.
          5    1    3    3  502    0  0.39721921022E+02 -0.71122447115E+02 -0.45410521996E+02  0.93358563621E+02  0.41800000000E+01 0. -1.
         -5    1    3    3    0  502  0.61007321571E+01  0.50850213135E+02 -0.10044995239E+02  0.52357782976E+02  0.41800000000E+01 0. -1.
        -11    1    4    4    0    0 -0.21096783865E+01  0.31568050873E+02 -0.46562867112E+02  0.56294699329E+02  0.00000000000E+00 0. -1.
         11    1    4    4    0    0 -0.43712974793E+02 -0.11295816894E+02  0.21881546899E+02  0.50171921821E+02  0.00000000000E+00 0.  1.
</event>
<event>
 8    1  0.6869405E-009  0.7120183E+02  0.7561462E-02  0.1356053E+00
          4   -1    0    0  501    0  0.00000000000E+00  0.00000000000E+00  0.47861045409E+02  0.47861045409E+02  0.00000000000E+00 0. -1.
         -4   -1    0    0    0  501 -0.00000000000E+00 -0.00000000000E+00 -0.29493045148E+03  0.29493045148E+03  0.00000000000E+00 0.  1.
         25    2    1    2    0    0  0.69775101877E+01  0.46025779127E+02 -0.15006081359E+03  0.20083366368E+03  0.12509538242E+03 0.  0.
         23    2    1    2    0    0 -0.69775101877E+01 -0.46025779127E+02 -0.97008592487E+02  0.14195783321E+03  0.92597523725E+02 0.  0.
          5    1    3    3  502    0  0.14046363102E+02  0.35884767598E+02 -0.17145057258E+03  0.17577766667E+03  0.41800000000E+01 0.  1.
         -5    1    3    3    0  502 -0.70688529139E+01  0.10141011529E+02  0.21389758996E+02  0.25055997012E+02  0.41800000000E+01 0.  1.
        -11    1    4    4    0    0  0.34487376261E+02 -0.10668969096E+02 -0.74910207233E+02  0.83154946760E+02  0.00000000000E+00 0.  1.
         11    1    4    4    0    0 -0.41464886448E+02 -0.35356810031E+02 -0.22098385254E+02  0.58802886447E+02  0.00000000000E+00 0. -1.
</event>
<event>
 8    1  0.6869405E-009  0.1275139E+03  0.7561462E-02  0.1231192E+00
         -2   -1    0    0    0  501 -0.00000000000E+00  0.00000000000E+00  0.99046413131E+02  0.99046413131E+02  0.00000000000E+00 0.  1.
          2   -1    0    0  501    0  0.00000000000E+00 -0.00000000000E+00 -0.25467650619E+03  0.25467650619E+03  0.00000000000E+00 0. -1.
         25    2    1    2    0    0 -0.10427967641E+03 -0.97988747775E+01 -0.26398915497E+02  0.16528725371E+03  0.12511076949E+03 0.  0.
         23    2    1    2    0    0  0.10427967641E+03  0.97988747775E+01 -0.12923117757E+03  0.18843566561E+03  0.88527023906E+02 0.  0.
          5    1    3    3  502    0 -0.90816267889E+02 -0.33593018218E+02  0.30846793340E+02  0.10171077841E+03  0.41800000000E+01 0. -1.
         -5    1    3    3    0  502 -0.13463408518E+02  0.23794143440E+02 -0.57245708838E+02  0.63576475298E+02  0.41800000000E+01 0. -1.
        -11    1    4    4    0    0  0.50445028185E+02  0.43775623235E+02 -0.95077252140E+02  0.11619246935E+03  0.00000000000E+00 0. -1.
         11    1    4    4    0    0  0.53834648222E+02 -0.33976748458E+02 -0.34153925425E+02  0.72243196267E+02  0.00000000000E+00 0.  1.
</event>
<event>
 8    1  0.6869405E-009  0.1565282E+03  0.7561462E-02  0.1192673E+00
         -2   -1    0    0    0  501 -0.00000000000E+00  0.00000000000E+00  0.16104535199E+02  0.16104535199E+02  0.00000000000E+00 0.  1.
          2   -1    0    0  501    0  0.00000000000E+00 -0.00000000000E+00 -0.19165246424E+04  0.19165246424E+04  0.00000000000E+00 0. -1.
         25    2    1    2    0    0 -0.11639082481E+03  0.38382278625E+02 -0.13503099840E+04  0.13616188654E+04  0.12509539752E+03 0.  0.
         23    2    1    2    0    0  0.11639082481E+03 -0.38382278625E+02 -0.55011012317E+03  0.57101031211E+03  0.91714805258E+02 0.  0.
          5    1    3    3  502    0 -0.26294051900E+02 -0.35391088976E+02 -0.17384355221E+03  0.17939609636E+03  0.41800000000E+01 0. -1.
         -5    1    3    3    0  502 -0.90096772913E+02  0.73773367602E+02 -0.11764664318E+04  0.11822227691E+04  0.41800000000E+01 0. -1.
        -11    1    4    4    0    0  0.12381994944E+03 -0.11495308186E+02 -0.47045560064E+03  0.48661277641E+03  0.00000000000E+00 0. -1.
         11    1    4    4    0    0 -0.74291246313E+01 -0.26886970439E+02 -0.79654522534E+02  0.84397535701E+02  0.00000000000E+00 0.  1.
</event>
<event>
 7    1  0.6869405E-009  0.9390530E+02  0.7561462E-02  0.1293661E+00
         -1   -1    0    0    0  501 -0.00000000000E+00  0.00000000000E+00  0.12372479433E+03  0.12372479433E+03  0.00000000000E+00 0.  1.
          1   -1    0    0  501    0  0.00000000000E+00 -0.00000000000E+00 -0.16257344807E+03  0.16257344807E+03  0.00000000000E+00 0. -1.
         23    2    1    2    0    0  0.57332424742E+02 -0.10315991415E+01 -0.88574829803E+02  0.13933374041E+03  0.90996261559E+02 0.  0.
          5    1    1    2  502    0 -0.53266238500E+02 -0.21088989192E+02  0.86393306855E+02  0.10374639029E+03  0.41800000000E+01 0. -1.
         -5    1    1    2    0  502 -0.40661862421E+01  0.22120588334E+02 -0.36667130791E+02  0.43218111704E+02  0.41800000000E+01 0. -1.
        -11    1    3    3    0    0  0.25226124341E+02 -0.45867622505E+02 -0.40741807109E+02  0.66333181666E+02  0.00000000000E+00 0. -1.
         11    1    3    3    0    0  0.32106300401E+02  0.44836023363E+02 -0.47833022695E+02  0.73000558742E+02  0.00000000000E+00 0.  1.
</event>
<event>
 8    1  0.6869405E-009  0.9463667E+02  0.7561462E-02  0.1291997E+00
         -2   -1    0    0    0  501 -0.00000000000E+00  0.00000000000E+00  0.48536229278E+02  0.48536229278E+02  0.00000000000E+00 0.  1.
          2   -1    0    0  501    0  0.00000000000E+00 -0.00000000000E+00 -0.33751996946E+03  0.33751996946E+03  0.00000000000E+00 0. -1.
         25    2    1    2    0    0  0.65139426621E+01 -0.62246426341E+02 -0.19283237299E+03  0.23822257472E+03  0.12509445228E+03 0.  0.
         23    2    1    2    0    0 -0.65139426621E+01  0.62246426341E+02 -0.96151367190E+02  0.14783362402E+03  0.93234360278E+02 0.  0.
          5    1    3    3  502    0 -0.33470560545E+02 -0.13339330547E+02 -0.16521725568E+03  0.16915209173E+03  0.41800000000E+01 0.  1.
         -5    1    3    3    0  502  0.39984503207E+02 -0.48907095795E+02 -0.27615117307E+02  0.69070482984E+02  0.41800000000E+01 0.  1.
        -11    1    4    4    0    0 -0.33180552514E+02  0.50789864880E+02 -0.16223510198E+02  0.62799376771E+02  0.00000000000E+00 0.  1.
         11    1    4    4    0    0  0.26666609852E+02  0.11456561462E+02 -0.79927856992E+02  0.85034247247E+02  0.00000000000E+00 0. -1.
</event>
<event>
 8    1  0.6869405E-009  0.1079930E+03  0.7561462E-02  0.1264332E+00
          1   -1    0    0  501    0  0.00000000000E+00  0.00000000000E+00  0.21391310204E+03  0.21391310204E+03  0.00000000000E+00 0. -1.
         -1   -1    0    0    0  501 -0.00000000000E+00 -0.00000000000E+00 -0.94966874715E+02  0.94966874715E+02  0.00000000000E+00 0.  1.
         25    2    1    2    0    0  0.64530476941E+02  0.64116084464E+02  0.82896935660E+02  0.17548398325E+03  0.12509065391E+03 0.  0.
         23    2    1    2    0    0 -0.64530476941E+02 -0.64116084464E+02  0.36049291664E+02  0.13339599350E+03  0.90663580953E+02 0.  0.
          5    1    3    3  502    0 -0.45522599839E+00 -0.21702151805E+01  0.82425137172E+02  0.82560842429E+02  0.41800000000E+01 0. -1.
         -5    1    3    3    0  502  0.64985702939E+02  0.66286299644E+02  0.47179848803E+00  0.92923140825E+02  0.41800000000E+01 0. -1.
        -11    1    4    4    0    0 -0.23054384522E+02  0.16037149096E+02  0.32673564269E+02  0.43084296430E+02  0.00000000000E+00 0.  1.
         11    1    4    4    0    0 -0.41476092419E+02 -0.80153233559E+02  0.33757273953E+01  0.90311697071E+02  0.00000000000E+00 0. -1.
</event>
<event>
 8    1  0.6869405E-009  0.1435649E+03  0.7561462E-02  0.1208611E+00
         -1   -1    0    0    0  501 -0.00000000000E+00  0.00000000000E+00  0.80874829317E+03  0.80874829317E+03  0.00000000000E+00 0.  1.
          1   -1    0    0  501    0  0.00000000000E+00 -0.00000000000E+00 -0.44627431827E+02  0.44627431827E+02  0.00000000000E+00 0. -1.
         25    2    1    2    0    0 -0.21818313224E+01 -0.12983764368E+03  0.59002727279E+03  0.61696298191E+03  0.12509422174E+03 0.  0.
         23    2    1    2    0    0  0.21818313224E+01  0.12983764368E+03  0.17409358855E+03  0.23641274308E+03  0.93380048251E+02 0.  0.
          5    1    3    3  502    0  0.64884968952E+01 -0.60940985952E+02  0.49710335756E+03  0.50088434279E+03  0.41800000000E+01 0.  1.
         -5    1    3    3    0  502 -0.86703282176E+01 -0.68896657732E+02  0.92923915231E+02  0.11607863912E+03  0.41800000000E+01 0.  1.
        -11    1    4    4    0    0  0.38593291966E+02  0.27156233400E+02  0.30583537652E+02  0.56233939685E+02  0.00000000000E+00 0. -1.
         11    1    4    4    0    0 -0.36411460643E+02  0.10268141028E+03  0.14351005090E+03  0.18017880340E+03  0.00000000000E+00 0.  1.
</event>
<event>
 8    1  0.6869405E-009  0.1273875E+03  0.7561462E-02  0.1231384E+00
         -1   -1    0    0    0  501 -0.00000000000E+00  0.00000000000E+00  0.24104672851E+02  0.24104672851E+02  0.00000000000E+00 0.  1.
          1   -1    0    0  501    0  0.00000000000E+00 -0.00000000000E+00 -0.10984814291E+04  0.10984814291E+04  0.00000000000E+00 0. -1.
         25    2    1    2    0    0 -0.94642141988E+02 -0.65928333328E+02 -0.70198394728E+03  0.72231085902E+03  0.12509130522E+03 0.  0.
         23    2    1    2    0    0  0.94642141988E+02  0.65928333328E+02 -0.37239280894E+03  0.40027524290E+03  0.90775468910E+02 0.  0.
          5    1    3    3  502    0 -0.91060536681E+02 -0.64411661340E+02 -0.70635545907E+03  0.71511984339E+03  0.41800000000E+01 0.  1.
         -5    1    3    3    0  502 -0.35816053073E+01 -0.15166719883E+01  0.43715117856E+01  0.71910156299E+01  0.41800000000E+01 0.  1.
        -11    1    4    4    0    0 -0.20721189080E+00  0.38793348115E+02 -0.50975265818E+02  0.64058133910E+02  0.00000000000E+00 0.  1.
         11    1    4    4    0    0  0.94849353879E+02  0.27134985213E+02 -0.32141754312E+03  0.33621710899E+03  0.00000000000E+00 0. -1.
</event>
<event>
 8    1  0.6869405E-009  0.1072944E+03  0.7561462E-02  0.1265664E+00
          2   -1    0    0  501    0  0.00000000000E+00  0.00000000000E+00  0.11675162192E+03  0.11675162192E+03  0.00000000000E+00 0. -1.
         -2   -1    0    0    0  501 -0.00000000000E+00 -0.00000000000E+00 -0.15648674077E+03  0.15648674077E+03  0.00000000000E+00 0.  1.
         25    2    1    2    0    0 -0.59219805803E+02  0.16663665705E+02 -0.74020134355E+02  0.15783156527E+03  0.12508860680E+03 0.  0.
         23    2    1    2    0    0  0.59219805803E+02 -0.16663665705E+02  0.34285015505E+02  0.11540679743E+03  0.91425398282E+02 0.  0.
          5    1    3    3  502    0 -0.75000404359E+02  0.56529262431E+02 -0.63621842139E+02  0.11351576702E+03  0.41800000000E+01 0. -1.
         -5    1    3    3    0  502  0.15780598556E+02 -0.39865596726E+02 -0.10398292216E+02  0.44315798246E+02  0.41800000000E+01 0. -1.
        -11    1    4    4    0    0  0.17048910845E+02 -0.28930385970E+02  0.56852583405E+02  0.66029151390E+02  0.00000000000E+00 0. -1.
         11    1    4    4    0    0  0.42170894959E+02  0.12266720265E+02 -0.22567567900E+02  0.49377646041E+02  0.00000000000E+00 0.  1.
</event>
<event>
 8    1  0.6869405E-009  0.9395509E+02  0.7561462E-02  0.1293547E+00
          2   -1    0    0  501    0  0.00000000000E+00  0.00000000000E+00  0.36722274151E+03  0.36722274151E+03  0.00000000000E+00 0. -1.
         -2   -1    0    0    0  501 -0.00000000000E+00 -0.00000000000E+00 -0.48169015090E+02  0.48169015090E+02  0.00000000000E+00 0.  1.
         25    2    1    2    0    0  0.70054747827E+02  0.21133797903E+02  0.21378562717E+03  0.25827585380E+03  0.12509123536E+03 0.  0.
         23    2    1    2    0    0 -0.70054747827E+02 -0.21133797903E+02  0.10526809924E+03  0.15711590280E+03  0.90828019281E+02 0.  0.
          5    1    3    3  502    0  0.69642342980E+02  0.76608508188E+01  0.22781177033E+03  0.23837873158E+03  0.41800000000E+01 0.  1.
         -5    1    3    3    0  502  0.41240484666E+00  0.13472947085E+02 -0.14026143152E+02  0.19897122220E+02  0.41800000000E+01 0.  1.
        -11    1    4    4    0    0 -0.38390763011E+02  0.26331455633E+02  0.12494348616E+02  0.48200674141E+02  0.00000000000E+00 0.  1.
         11    1    4    4    0    0 -0.31663984815E+02 -0.47465253536E+02  0.92773750629E+02  0.10891522866E+03  0.00000000000E+00 0. -1.
</event>
<event>
 8    1  0.6869405E-009  0.8809534E+02  0.7561462E-02  0.1307531E+00
          1   -1    0    0  501    0  0.00000000000E+00  0.00000000000E+00  0.21864141522E+02  0.21864141522E+02  0.00000000000E+00 0. -1.
         -1   -1    0    0    0  501 -0.00000000000E+00 -0.00000000000E+00 -0.73244275283E+03  0.73244275283E+03  0.00000000000E+00 0.  1.
         25    2    1    2    0    0 -0.58397674896E+02  0.14624274809E+02 -0.31705662957E+03  0.34611648163E+03  0.12509018608E+03 0.  0.
         23    2    1    2    0    0  0.58397674896E+02 -0.14624274809E+02 -0.39352198174E+03  0.40819041273E+03  0.90198143458E+02 0.  0.
          5    1    3    3  502    0 -0.76934756296E+01 -0.82687698144E+01  0.91806685038E+01  0.15143288800E+02  0.41800000000E+01 0. -1.
         -5    1    3    3    0  502 -0.50704199266E+02  0.22893044624E+02 -0.32623729808E+03  0.33097319283E+03  0.41800000000E+01 0. -1.
        -11    1    4    4    0    0  0.31974356667E+02 -0.52920982042E+02 -0.23249560679E+03  0.24057680063E+03  0.00000000000E+00 0. -1.
         11    1    4    4    0    0  0.26423318229E+02  0.38296707232E+02 -0.16102637495E+03  0.16761361210E+03  0.00000000000E+00 0.  1.
</event>
<event>
 8    1  0.6869405E-009  0.1372922E+03  0.7561462E-02  0.1217020E+00
         -1   -1    0    0    0  501 -0.00000000000E+00  0.00000000000E+00  0.55604405230E+03  0.55604405230E+03  0.00000000000E+00 0.  1.
          1   -1    0    0  501    0  0.00000000000E+00 -0.00000000000E+00 -0.46061594284E+02  0.46061594284E+02  0.00000000000E+00 0. -1.
         25    2    1    2    0    0 -0.15776424806E+01  0.10783560155E+03  0.18544894670E+03  0.24833278148E+03  0.12508737988E+03 0.  0.
         23    2    1    2    0    0  0.15776424806E+01 -0.10783560155E+03  0.32453351131E+03  0.35377286511E+03  0.90566186874E+02 0.  0.
          5    1    3    3  502    0  0.60931981817E+02  0.63133422904E+02  0.10695927394E+03  0.13840626495E+03  0.41800000000E+01 0. -1.
         -5    1    3    3    0  502 -0.62509624297E+02  0.44702178642E+02  0.78489672763E+02  0.10992651653E+03  0.41800000000E+01 0. -1.
        -11    1    4    4    0    0 -0.57093507024E+01 -0.88755849057E+01 -0.34538103375E+01  0.11104120799E+02  0.00000000000E+00 0. -1.
         11    1    4    4    0    0  0.72869931831E+01 -0.98960016640E+02  0.32798732165E+03  0.34266874431E+03  0.00000000000E+00 0.  1.
</event>
<event>
 8    1  0.6869405E-009  0.1188274E+03  0.7561462E-02  0.1245044E+00
         -1   -1    0    0    0  501 -0.00000000000E+00  0.00000000000E+00  0.25528006263E+03  0.25528006263E+03  0.00000000000E+00 0.  1.
          1   -1    0    0  501    0  0.00000000000E+00 -0.00000000000E+00 -0.79890924795E+02  0.79890924795E+02  0.00000000000E+00 0. -1.
         25    2    1    2    0    0  0.53196668229E+02 -0.72564845318E+02  0.11270025842E+03  0.19090389350E+03  0.12508959197E+03 0.  0.
         23    2    1    2    0    0 -0.53196668229E+02  0.72564845318E+02  0.62688879421E+02  0.14426709393E+03  0.93741967657E+02 0.  0.
          5    1    3    3  502    0 -0.98186278055E+01 -0.34020131579E+02 -0.18583669140E+02  0.40206964115E+02  0.41800000000E+01 0. -1.
         -5    1    3    3    0  502  0.63015296034E+02 -0.38544713739E+02  0.13128392756E+03  0.15069692939E+03  0.41800000000E+01 0. -1.
        -11    1    4    4    0    0 -0.22709382239E+02 -0.20183574066E+02  0.47855780865E+01  0.30757022960E+02  0.00000000000E+00 0. -1.
         11    1    4    4    0    0 -0.30487285990E+02  0.92748419384E+02  0.57903301334E+02  0.11351007097E+03  0.00000000000E+00 0.  1.
</event>
<event>
 8    1  0.6869405E-009  0.9653885E+02  0.7561462E-02  0.1287747E+00
         -2   -1    0    0    0  501 -0.00000000000E+00  0.00000000000E+00  0.18860036503E+02  0.18860036503E+02  0.00000000000E+00 0.  1.
          2   -1    0    0  501    0  0.00000000000E+00 -0.00000000000E+00 -0.86275487559E+03  0.86275487559E+03  0.00000000000E+00 0. -1.
         25    2    1    2    0    0  0.33306120666E+02 -0.57501351048E+02 -0.52484818261E+03  0.54362582872E+03  0.12509086226E+03 0.  0.
         23    2    1    2    0    0 -0.33306120666E+02  0.57501351048E+02 -0.31904665648E+03  0.33798908338E+03  0.89611095416E+02 0.  0.
          5    1    3    3  502    0  0.40174534331E+02 -0.68818506456E+02 -0.16272931977E+03  0.18124095550E+03  0.41800000000E+01 0.  1.
         -5    1    3    3    0  502 -0.68684136648E+01  0.11317155408E+02 -0.36211886284E+03  0.36238487322E+03  0.41800000000E+01 0.  1.
        -11    1    4    4    0    0  0.22757380890E+02  0.66506668785E+01 -0.25406568331E+02  0.34750877245E+02  0.00000000000E+00 0.  1.
         11    1    4    4    0    0 -0.56063501556E+02  0.50850684170E+02 -0.29364008815E+03  0.30323820613E+03  0.00000000000E+00 0. -1.
</event>
<event>
 8    1  0.6869405E-009  0.9331512E+02  0.7561462E-02  0.1295017E+00
         -1   -1    0    0    0  501 -0.00000000000E+00  0.00000000000E+00  0.17506972797E+03  0.17506972797E+03  0.00000000000E+00 0.  1.
          1   -1    0    0  501    0  0.00000000000E+00 -0.00000000000E+00 -0.13010064532E+03  0.13010064532E+03  0.00000000000E+00 0. -1.
         25    2    1    2    0    0  0.22968141887E+02  0.15915063014E+02  0.12087495212E+03  0.17617835357E+03  0.12508890217E+03 0.  0.
         23    2    1    2    0    0 -0.22968141887E+02 -0.15915063014E+02 -0.75905869471E+02  0.12899201971E+03  0.10048092036E+03 0.  0.
          5    1    3    3  502    0 -0.39839752647E+02  0.17159097848E+02  0.10125221577E+03  0.11023213746E+03  0.41800000000E+01 0.  1.
         -5    1    3    3    0  502  0.62807894533E+02 -0.12440348333E+01  0.19622736346E+02  0.65946216117E+02  0.41800000000E+01 0.  1.
        -11    1    4    4    0    0 -0.10469215116E+02 -0.46177974005E+02 -0.82938445684E+02  0.95502856087E+02  0.00000000000E+00 0. -1.
         11    1    4    4    0    0 -0.12498926771E+02  0.30262910991E+02  0.70325762123E+01  0.33489163624E+02  0.00000000000E+00 0.  1.
</event>
<event>
 8    1  0.6869405E-009  0.1266849E+03  0.7561462E-02  0.1232459E+00
         -4   -1    0    0    0  501 -0.00000000000E+00  0.00000000000E+00  0.17290222365E+03  0.17290222365E+03  0.00000000000E+00 0.  1.
          4   -1    0    0  501    0  0.00000000000E+00 -0.00000000000E+00 -0.11848267924E+03  0.11848267924E+03  0.00000000000E+00 0. -1.
         25    2    1    2    0    0 -0.78254513056E+02 -0.19804828348E+01 -0.21322369328E+02  0.14912486194E+03  0.12512349855E+03 0.  0.
         23    2    1    2    0    0  0.78254513056E+02  0.19804828348E+01  0.75741913741E+02  0.14226004094E+03  0.91506232714E+02 0.  0.
          5    1    3    3  502    0  0.32478378383E+02 -0.68361717099E+01  0.80017928214E+01  0.34395921188E+02  0.41800000000E+01 0.  1.
         -5    1    3    3    0  502 -0.11073289144E+03  0.48556888751E+01 -0.29324162149E+02  0.11472894075E+03  0.41800000000E+01 0.  1.
        -11    1    4    4    0    0  0.29796589349E+02  0.38239431662E+02  0.43584218214E+01  0.48673264853E+02  0.00000000000E+00 0. -1.
         11    1    4    4    0    0  0.48457923707E+02 -0.36258948827E+02  0.71383491919E+02  0.93586776088E+02  0.00000000000E+00 0.  1.
</event>
<event>
 8    1  0.6869405E-009  0.8759810E+02  0.7561462E-02  0.1308775E+00
          1   -1    0    0  501    0  0.00000000000E+00  0.00000000000E+00  0.24267855183E+03  0.24267855183E+03  0.00000000000E+00 0. -1.
         -1   -1    0    0    0  501 -0.00000000000E+00 -0.00000000000E+00 -0.54789234769E+02  0.54789234769E+02  0.00000000000E+00 0.  1.
         25    2    1    2    0    0  0.68867086812E+01 -0.34780949445E+02  0.12056241453E+03  0.17731064777E+03  0.12508648534E+03 0.  0.
         23    2    1    2    0    0 -0.68867086812E+01  0.34780949445E+02  0.67326902537E+02  0.12015713883E+03  0.92992929872E+02 0.  0.
          5    1    3    3  502    0  0.44545469948E+02 -0.26867382525E+01  0.11951555205E+03  0.12764386800E+03  0.41800000000E+01 0.  1.
         -5    1    3    3    0  502 -0.37658761267E+02 -0.32094211192E+02  0.10468624775E+01  0.49666779775E+02  0.41800000000E+01 0.  1.
        -11    1    4    4    0    0  0.24916580363E+02 -0.90986026465E+01 -0.76854509278E+01  0.27616782996E+02  0.00000000000E+00 0.  1.
         11    1    4    4    0    0 -0.31803289044E+02  0.43879552091E+02  0.75012353465E+02  0.92540355836E+02  0.00000000000E+00 0. -1.
</event>
<event>
 8    1  0.6869405E-009  0.9765037E+02  0.7561462E-02  0.1285316E+00
         -1   -1    0    0    0  501 -0.00000000000E+00  0.00000000000E+00  0.17528860898E+02  0.17528860898E+02  0.00000000000E+00 0.  1.
          1   -1    0    0  501    0  0.00000000000E+00 -0.00000000000E+00 -0.10847860047E+04  0.10847860047E+04  0.00000000000E+00 0. -1.
         25    2    1    2    0    0 -0.63451896921E+02  0.40807639854E+02 -0.73997267589E+03  0.75425329927E+03  0.12508825567E+03 0.  0.
         23    2    1    2    0    0  0.63451896921E+02 -0.40807639854E+02 -0.32728446791E+03  0.34806156633E+03  0.91325376119E+02 0.  0.
          5    1    3    3  502    0 -0.36494580367E+02  0.13794685405E+02 -0.69058694746E+03  0.69170076778E+03  0.41800000000E+01 0. -1.
         -5    1    3    3    0  502 -0.26957316555E+02  0.27012954449E+02 -0.49385728428E+02  0.62552531493E+02  0.41800000000E+01 0. -1.
        -11    1    4    4    0    0  0.23283304187E+02 -0.66183174839E+02 -0.21434010362E+03  0.22553049662E+03  0.00000000000E+00 0. -1.
         11    1    4    4    0    0  0.40168592735E+02  0.25375534985E+02 -0.11294436429E+03  0.12253106971E+03  0.00000000000E+00 0.  1.
</event>
<event>
 8    1  0.6869405E-009  0.1543814E+03  0.7561462E-02  0.1195190E+00
         -2   -1    0    0    0  501 -0.00000000000E+00  0.00000000000E+00  0.12348342681E+03  0.12348342681E+03  0.00000000000E+00 0.  1.
          2   -1    0    0  501    0  0.00000000000E+00 -0.00000000000E+00 -0.23303174338E+03  0.23303174338E+03  0.00000000000E+00 0. -1.
         25    2    1    2    0    0 -0.50465264537E+02  0.11053125410E+03 -0.84614986929E+02  0.19383238036E+03  0.12508954636E+03 0.  0.
         23    2    1    2    0    0  0.50465264537E+02 -0.11053125410E+03 -0.24933329640E+02  0.16268278982E+03  0.10526214002E+03 0.  0.
          5    1    3    3  502    0 -0.14848492798E+02 -0.14780477810E+02  0.18006587970E+02  0.27940112258E+02  0.41800000000E+01 0.  1.
         -5    1    3    3    0  502 -0.35616771739E+02  0.12531173191E+03 -0.10262157490E+03  0.16589226810E+03  0.41800000000E+01 0.  1.
        -11    1    4    4    0    0  0.46816822849E+01 -0.11117037003E+03 -0.33282037946E+02  0.11613984403E+03  0.00000000000E+00 0. -1.
         11    1    4    4    0    0  0.45783582252E+02  0.63911592961E+00  0.83487083059E+01  0.46542945796E+02  0.00000000000E+00 0.  1.
</event>
<event>
 8    1  0.6869405E-009  0.5807148E+02  0.7561462E-02  0.1406108E+00
         -2   -1    0    0    0  501 -0.00000000000E+00  0.00000000000E+00  0.51887984420E+02  0.51887984420E+02  0.00000000000E+00 0.  1.
          2   -1    0    0  501    0  0.00000000000E+00 -0.00000000000E+00 -0.24636010505E+03  0.24636010505E+03  0.00000000000E+00 0. -1.
         25    2    1    2    0    0  0.33682964815E+02  0.15011383088E+02 -0.95783815101E+02  0.16180551745E+03  0.12508638015E+03 0.  0.
         23    2    1    2    0    0 -0.33682964815E+02 -0.15011383088E+02 -0.98688305530E+02  0.13644257202E+03  0.86702422522E+02 0.  0.
          5    1    3    3  502    0  0.31765010851E+02  0.51056204406E+01  0.24732572493E+02  0.40795291598E+02  0.41800000000E+01 0.  1.
         -5    1    3    3    0  502  0.19179539646E+01  0.99057626473E+01 -0.12051638759E+03  0.12101022585E+03  0.41800000000E+01 0.  1.
        -11    1    4    4    0    0 -0.31505135521E+02  0.20248814950E+02 -0.68879060596E+01  0.38079276791E+02  0.00000000000E+00 0.  1.
         11    1    4    4    0    0 -0.21778292949E+01 -0.35260198038E+02 -0.91800399470E+02  0.98363295233E+02  0.00000000000E+00 0. -1.
</event>
<event>
 8    1  0.6869405E-009  0.1087046E+03  0.7561462E-02  0.1262988E+00
          2   -1    0    0  501    0  0.00000000000E+00  0.00000000000E+00  0.46996467436E+02  0.46996467436E+02  0.00000000000E+00 0. -1.
         -2   -1    0    0    0  501 -0.00000000000E+00 -0.00000000000E+00 -0.43930944804E+03  0.43930944804E+03  0.00000000000E+00 0.  1.
         25    2    1    2    0    0 -0.86011569919E+02  0.36521311062E+02 -0.24470065185E+03  0.29027089982E+03  0.12508792885E+03 0.  0.
         23    2    1    2    0    0  0.86011569919E+02 -0.36521311062E+02 -0.14761232875E+03  0.19603501565E+03  0.88929924328E+02 0.  0.
          5    1    3    3  502    0 -0.76932100520E+02  0.35628362790E+02 -0.25913910907E+03  0.27268751085E+03  0.41800000000E+01 0. -1.
         -5    1    3    3    0  502 -0.90794693994E+01  0.89294827234E+00  0.14438457212E+02  0.17583388975E+02  0.41800000000E+01 0. -1.
        -11    1    4    4    0    0 -0.82873581961E+00  0.19259370273E+02 -0.51548566032E+02  0.55035123388E+02  0.00000000000E+00 0.  1.
         11    1    4    4    0    0  0.86840305739E+02 -0.55780681335E+02 -0.96063762719E+02  0.14099989226E+03  0.00000000000E+00 0. -1.
</event>
<event>
 8    1  0.6869405E-009  0.1542364E+03  0.7561462E-02  0.1195362E+00
          1   -1    0    0  501    0  0.00000000000E+00  0.00000000000E+00  0.36124060411E+03  0.36124060411E+03  0.00000000000E+00 0. -1.
         -1   -1    0    0    0  501 -0.00000000000E+00 -0.00000000000E+00 -0.74970632953E+02  0.74970632953E+02  0.00000000000E+00 0.  1.
         25    2    1    2    0    0  0.17408856325E+02 -0.11729664431E+03  0.19841295212E+03  0.26282065544E+03  0.12508167857E+03 0.  0.
         23    2    1    2    0    0 -0.17408856325E+02  0.11729664431E+03  0.87857019033E+02  0.17339058161E+03  0.91015751128E+02 0.  0.
          5    1    3    3  502    0  0.51054528875E+02 -0.11981173920E+03  0.18497814316E+03  0.22626489700E+03  0.41800000000E+01 0. -1.
         -5    1    3    3    0  502 -0.33645672550E+02  0.25150948852E+01  0.13434808964E+02  0.36555758445E+02  0.41800000000E+01 0. -1.
        -11    1    4    4    0    0  0.31167486622E+02  0.68803432026E+02  0.68763818421E+02  0.10214591135E+03  0.00000000000E+00 0.  1.
         11    1    4    4    0    0 -0.48576342947E+02  0.48493212287E+02  0.19093200612E+02  0.71244670268E+02  0.00000000000E+00 0. -1.
</event>
<event>
 8    1  0.6869405E-009  0.1991086E+03  0.7561462E-02  0.1150493E+00
         -4   -1    0    0    0  501 -0.00000000000E+00  0.00000000000E+00  0.18959275069E+03  0.18959275069E+03  0.00000000000E+00 0.  1.
          4   -1    0    0  501    0  0.00000000000E+00 -0.00000000000E+00 -0.25052367709E+03  0.25052367709E+03  0.00000000000E+00 0. -1.
         25    2    1    2    0    0  0.40736424113E+02 -0.18200611436E+03 -0.59221222664E+02  0.23225176229E+03  0.12509214988E+03 0.  0.
         23    2    1    2    0    0 -0.40736424113E+02  0.18200611436E+03 -0.17097037315E+01  0.20786466549E+03  0.91755730927E+02 0.  0.
          5    1    3    3  502    0  0.73853735742E+02 -0.11464131265E+03  0.18084955994E+00  0.13643500268E+03  0.41800000000E+01 0. -1.
         -5    1    3    3    0  502 -0.33117311628E+02 -0.67364801712E+02 -0.59402072224E+02  0.95816759618E+02  0.41800000000E+01 0. -1.
        -11    1    4    4    0    0 -0.43378619251E+01  0.29146762495E+02  0.35748691577E+02  0.46328390427E+02  0.00000000000E+00 0.  1.
         11    1    4    4    0    0 -0.36398562188E+02  0.15285935187E+03 -0.37458395309E+02  0.16153627506E+03  0.00000000000E+00 0. -1.
</event>
<event>
 8    1  0.6869405E-009  0.2062407E+03  0.7561462E-02  0.1144578E+00
          2   -1    0    0  501    0  0.00000000000E+00  0.00000000000E+00  0.21747576717E+04  0.21747576717E+04  0.00000000000E+00 0. -1.
         -2   -1    0    0    0  501 -0.00000000000E+00 -0.00000000000E+00 -0.24463111704E+02  0.24463111704E+02  0.00000000000E+00 0.  1.
         25    2    1    2    0    0  0.15107020347E+03 -0.12118771020E+03  0.14094648131E+04  0.14281973260E+04  0.12509146712E+03 0.  0.
         23    2    1    2    0    0 -0.15107020347E+03  0.12118771020E+03  0.74082974684E+03  0.77102345734E+03  0.90220787496E+02 0.  0.
          5    1    3    3  502    0  0.77868739533E+00 -0.13459412523E+02  0.49570145262E+03  0.49590237413E+03  0.41800000000E+01 0. -1.
         -5    1    3    3    0  502  0.15029151608E+03 -0.10772829768E+03  0.91376336052E+03  0.93229495191E+03  0.41800000000E+01 0. -1.
        -11    1    4    4    0    0 -0.21306769116E+02 -0.14409719030E+02  0.10208937343E+03  0.10527990587E+03  0.00000000000E+00 0. -1.
         11    1    4    4    0    0 -0.12976343436E+03  0.13559742923E+03  0.63874037340E+03  0.66574355147E+03  0.00000000000E+00 0.  1.
</event>
<event>
 8    1  0.6869405E-009  0.1182743E+03  0.7561462E-02  0.1245971E+00
         -2   -1    0    0    0  501 -0.00000000000E+00  0.00000000000E+00  0.38376270178E+02  0.38376270178E+02  0.00000000000E+00 0.  1.
          2   -1    0    0  501    0  0.00000000000E+00 -0.00000000000E+00 -0.49418986911E+03  0.49418986911E+03  0.00000000000E+00 0. -1.
         25    2    1    2    0    0 -0.88672510589E+02 -0.20566425461E+02 -0.31540628517E+03  0.35130326964E+03  0.12508825101E+03 0.  0.
         23    2    1    2    0    0  0.88672510589E+02  0.20566425461E+02 -0.14040731376E+03  0.18126286965E+03  0.69686599616E+02 0.  0.
          5    1    3    3  502    0 -0.48317579823E+02  0.37366270611E+02 -0.24096383571E+03  0.24861992925E+03  0.41800000000E+01 0. -1.
         -5    1    3    3    0  502 -0.40354930766E+02 -0.57932696072E+02 -0.74442449457E+02  0.10268334038E+03  0.41800000000E+01 0. -1.
        -11    1    4    4    0    0  0.87165564558E+01 -0.14795710351E+02 -0.16390141028E+01  0.17250442559E+02  0.00000000000E+00 0.  1.
         11    1    4    4    0    0  0.79955954133E+02  0.35362135812E+02 -0.13876829966E+03  0.16401242709E+03  0.00000000000E+00 0. -1.
</event>
<event>
 8    1  0.6869405E-009  0.1425944E+03  0.7561462E-02  0.1209880E+00
         -2   -1    0    0    0  501 -0.00000000000E+00  0.00000000000E+00  0.12094321036E+03  0.12094321036E+03  0.00000000000E+00 0.  1.
          2   -1    0    0  501    0  0.00000000000E+00 -0.00000000000E+00 -0.23419483963E+03  0.23419483963E+03  0.00000000000E+00 0. -1.
         25    2    1    2    0    0 -0.49493450589E+02 -0.10544796555E+03 -0.11033727549E+03  0.20344799197E+03  0.12509155042E+03 0.  0.
         23    2    1    2    0    0  0.49493450589E+02  0.10544796555E+03 -0.29143537844E+01  0.15169005802E+03  0.97121085018E+02 0.  0.
          5    1    3    3  502    0 -0.83202919474E+02 -0.36543782889E+02 -0.78983483368E+02  0.12047421683E+03  0.41800000000E+01 0.  1.
         -5    1    3    3    0  502  0.33709468886E+02 -0.68904182662E+02 -0.31353792118E+02  0.82973775140E+02  0.41800000000E+01 0.  1.
        -11    1    4    4    0    0  0.41875526278E+02  0.98714061229E+02  0.34717340618E+02  0.11270900286E+03  0.00000000000E+00 0.  1.
         11    1    4    4    0    0  0.76179243112E+01  0.67339043213E+01 -0.37631694403E+02  0.38981055166E+02  0.00000000000E+00 0. -1.
</event>
<event>
 8    1  0.6869405E-009  0.1196845E+03  0.7561462E-02  0.1243618E+00
          2   -1    0    0  501    0  0.00000000000E+00  0.00000000000E+00  0.67960568189E+03  0.67960568189E+03  0.00000000000E+00 0. -1.
         -2   -1    0    0    0  501 -0.00000000000E+00 -0.00000000000E+00 -0.28679850691E+02  0.28679850691E+02  0.00000000000E+00 0.  1.
         25    2    1    2    0    0  0.88074557731E+02  0.22799579772E+01  0.37364604774E+03  0.40375850213E+03  0.12508890086E+03 0.  0.
         23    2    1    2    0    0 -0.88074557731E+02 -0.22799579772E+01  0.27727978346E+03  0.30452703046E+03  0.89946139635E+02 0.  0.
          5    1    3    3  502    0  0.10879540482E+03  0.92156019367E+01  0.36301379058E+03  0.37910137428E+03  0.41800000000E+01 0.  1.
         -5    1    3    3    0  502 -0.20720847093E+02 -0.69356439594E+01  0.10632257164E+02  0.24657127849E+02  0.41800000000E+01 0.  1.
        -11    1    4    4    0    0 -0.34277161023E+02  0.29629336004E+02  0.44561725954E+02  0.63549734380E+02  0.00000000000E+00 0.  1.
         11    1    4    4    0    0 -0.53797396708E+02 -0.31909293981E+02  0.23271805750E+03  0.24097729608E+03  0.00000000000E+00 0. -1.
</event>
<event>
 8    1  0.6869405E-009  0.8533739E+02  0.7561462E-02  0.1314553E+00
          2   -1    0    0  501    0  0.00000000000E+00  0.00000000000E+00  0.26246634900E+03  0.26246634900E+03  0.00000000000E+00 0. -1.
         -2   -1    0    0    0  501 -0.00000000000E+00 -0.00000000000E+00 -0.62307155528E+02  0.62307155528E+02  0.00000000000E+00 0.  1.
         25    2    1    2    0    0  0.42965480819E+02 -0.12552725294E+02  0.19446075750E+03  0.23551378466E+03  0.12509257812E+03 0.  0.
         23    2    1    2    0    0 -0.42965480819E+02  0.12552725294E+02  0.56984359756E+01  0.89259719875E+02  0.77014426994E+02 0.  0.
          5    1    3    3  502    0 -0.19229549581E+02 -0.70875728210E+01 -0.89094455029E+01  0.22734552662E+02  0.41800000000E+01 0. -1.
         -5    1    3    3    0  502  0.62195030401E+02 -0.54651524734E+01  0.20337020300E+03  0.21277923199E+03  0.41800000000E+01 0. -1.
        -11    1    4    4    0    0 -0.61702806568E+02 -0.44760797111E+01 -0.43537384542E+01  0.62017954388E+02  0.00000000000E+00 0.  1.
         11    1    4    4    0    0  0.18737325748E+02  0.17028805006E+02  0.10052174430E+02  0.27241765488E+02  0.00000000000E+00 0. -1.
</event>
<event>
 8    1  0.6869405E-009  0.1130907E+03  0.7561462E-02  0.1254951E+00
         -3   -1    0    0    0  501 -0.00000000000E+00  0.00000000000E+00  0.23384311148E+03  0.23384311148E+03  0.00000000000E+00 0.  1.
          3   -1    0    0  501    0  0.00000000000E+00 -0.00000000000E+00 -0.60293105939E+02  0.60293105939E+02  0.00000000000E+00 0. -1.
         25    2    1    2    0    0  0.12458845604E+02  0.36791036820E+02  0.57897819172E+02  0.14320645186E+03  0.12508847735E+03 0.  0.
         23    2    1    2    0    0 -0.12458845604E+02 -0.36791036820E+02  0.11565218637E+03  0.15092976555E+03  0.88856978876E+02 0.  0.
          5    1    3    3  502    0  0.47096388243E+02 -0.28530413895E+02  0.36230986339E+02  0.66047036827E+02  0.41800000000E+01 0.  1.
         -5    1    3    3    0  502 -0.34637542639E+02  0.65321450715E+02  0.21666832833E+02  0.77159415035E+02  0.41800000000E+01 0.  1.
        -11    1    4    4    0    0 -0.50910739890E+02 -0.17116185217E+02  0.61202764174E+02  0.81428776088E+02  0.00000000000E+00 0. -1.
         11    1    4    4    0    0  0.38451894286E+02 -0.19674851602E+02  0.54449422191E+02  0.69500989466E+02  0.00000000000E+00 0.  1.
</event>
<event>
 8    1  0.6869405E-009  0.7768696E+02  0.7561462E-02  0.1335747E+00
         -3   -1    0    0    0  501 -0.00000000000E+00  0.00000000000E+00  0.94747670553E+02  0.94747670553E+02  0.00000000000E+00 0.  1.
          3   -1    0    0  501    0  0.00000000000E+00 -0.00000000000E+00 -0.19257870012E+03  0.19257870012E+03  0.00000000000E+00 0. -1.
         25    2    1    2    0    0  0.17001313076E+02  0.59310206075E+02 -0.86867717453E+00  0.13947969869E+03  0.12508831503E+03 0.  0.
         23    2    1    2    0    0 -0.17001313076E+02 -0.59310206075E+02 -0.96962352396E+02  0.14784667198E+03  0.93006426894E+02 0.  0.
          5    1    3    3  502    0  0.28324074958E+00  0.17564693366E+02 -0.61375376652E+02  0.63976620242E+02  0.41800000000E+01 0. -1.
         -5    1    3    3    0  502  0.16718072326E+02  0.41745512709E+02  0.60506699478E+02  0.75503078449E+02  0.41800000000E+01 0. -1.
        -11    1    4    4    0    0  0.16086958684E+02 -0.56728229386E+02 -0.17149601102E+02  0.61408395736E+02  0.00000000000E+00 0.  1.
         11    1    4    4    0    0 -0.33088271760E+02 -0.25819766896E+01 -0.79812751293E+02  0.86438276248E+02  0.00000000000E+00 0. -1.
</event>
<event>
 8    1  0.6869405E-009  0.1240882E+03  0.7561462E-02  0.1236501E+00
          2   -1    0    0  501    0  0.00000000000E+00  0.00000000000E+00  0.54324107735E+03  0.54324107735E+03  0.00000000000E+00 0. -1.
         -2   -1    0    0    0  501 -0.00000000000E+00 -0.00000000000E+00 -0.64248125664E+02  0.64248125664E+02  0.00000000000E+00 0.  1.
         25    2    1    2    0    0  0.93127006141E+02  0.10790887005E+02  0.44441720720E+03  0.47110815446E+03  0.12508859509E+03 0.  0.
         23    2    1    2    0    0 -0.93127006141E+02 -0.10790887005E+02  0.34575744478E+02  0.13638104855E+03  0.92818240573E+02 0.  0.
          5    1    3    3  502    0 -0.10589903930E+02  0.66470065995E+01 -0.14831301560E+01  0.13266530708E+02  0.41800000000E+01 0.  1.
         -5    1    3    3    0  502  0.10371691007E+03  0.41438804054E+01  0.44590033736E+03  0.45784162375E+03  0.41800000000E+01 0.  1.
        -11    1    4    4    0    0 -0.67349886716E+02 -0.50212697227E+02  0.29365228787E+02  0.88992352847E+02  0.00000000000E+00 0.  1.
         11    1    4    4    0    0 -0.25777119424E+02  0.39421810222E+02  0.52105156910E+01  0.47388695706E+02  0.00000000000E+00 0. -1.
</event>
<event>
 8    1  0.6869405E-009  0.8891521E+02  0.7561462E-02  0.1305500E+00
          1   -1    0    0  501    0  0.00000000000E+00  0.00000000000E+00  0.11294423571E+03  0.11294423571E+03  0.00000000000E+00 0. -1.
         -1   -1    0    0    0  501 -0.00000000000E+00 -0.00000000000E+00 -0.13948353096E+03  0.13948353096E+03  0.00000000000E+00 0.  1.
         25    2    1    2    0    0  0.54683229985E+02  0.43418925913E+02 -0.56068947611E+01  0.14332288986E+03  0.12503821304E+03 0.  0.
         23    2    1    2    0    0 -0.54683229985E+02 -0.43418925913E+02 -0.20932400486E+02  0.10910487681E+03  0.81180354666E+02 0.  0.
          5    1    3    3  502    0  0.34922530393E+02 -0.12536942818E+02  0.49654030695E+02  0.62126912273E+02  0.41800000000E+01 0. -1.
         -5    1    3    3    0  502  0.19760699592E+02  0.55955868731E+02 -0.55260925456E+02  0.81195977586E+02  0.41800000000E+01 0. -1.
        -11    1    4    4    0    0 -0.19122610178E+02 -0.41140849994E+02 -0.46717034281E+02  0.65120849582E+02  0.00000000000E+00 0.  1.
         11    1    4    4    0    0 -0.35560619807E+02 -0.22780759189E+01  0.25784633795E+02  0.43984027225E+02  0.00000000000E+00 0. -1.
</event>
<event>
 8    1  0.6869405E-009  0.9378093E+02  0.7561462E-02  0.1293946E+00
          4   -1    0    0  501    0  0.00000000000E+00  0.00000000000E+00  0.10359883182E+03  0.10359883182E+03  0.00000000000E+00 0.  1.
         -4   -1    0    0    0  501 -0.00000000000E+00 -0.00000000000E+00 -0.16064792088E+03  0.16064792088E+03  0.00000000000E+00 0. -1.
         25    2    1    2    0    0  0.23209708328E+02 -0.29280100306E+02 -0.92915036382E+02  0.16023831110E+03  0.12508835886E+03 0.  0.
         23    2    1    2    0    0 -0.23209708328E+02  0.29280100306E+02  0.35865947323E+02  0.10400844160E+03  0.90196313184E+02 0.  0.
          5    1    3    3  502    0  0.53156394850E+01 -0.76520810003E+02 -0.38694242856E+02  0.86013994308E+02  0.41800000000E+01 0. -1.
         -5    1    3    3    0  502  0.17894068843E+02  0.47240709697E+02 -0.54220793526E+02  0.74224316791E+02  0.41800000000E+01 0. -1.
        -11    1    4    4    0    0 -0.20228172604E+02 -0.86549645914E+01  0.56563238942E+02  0.60691740612E+02  0.00000000000E+00 0.  1.
         11    1    4    4    0    0 -0.29815357237E+01  0.37935064897E+02 -0.20697291619E+02  0.43316700987E+02  0.00000000000E+00 0. -1.
</event>
<event>
 8    1  0.6869405E-009  0.1575205E+03  0.7561462E-02  0.1191525E+00
         -1   -1    0    0    0  501 -0.00000000000E+00  0.00000000000E+00  0.11160906808E+03  0.11160906808E+03  0.00000000000E+00 0.  1.
          1   -1    0    0  501    0  0.00000000000E+00 -0.00000000000E+00 -0.29216957949E+03  0.29216957949E+03  0.00000000000E+00 0. -1.
         25    2    1    2    0    0 -0.13836494719E+03 -0.22260539421E+02 -0.63805800030E+02  0.19839175196E+03  0.12509083460E+03 0.  0.
         23    2    1    2    0    0  0.13836494719E+03  0.22260539421E+02 -0.11675471138E+03  0.20538689562E+03  0.94401928143E+02 0.  0.
          5    1    3    3  502    0 -0.14341810487E+03  0.12233239871E+01 -0.84408219036E+02  0.16647062553E+03  0.41800000000E+01 0. -1.
         -5    1    3    3    0  502  0.50531576783E+01 -0.23483863408E+02  0.20602419006E+02  0.31921126421E+02  0.41800000000E+01 0. -1.
        -11    1    4    4    0    0  0.88425870749E+02 -0.79926655305E+01 -0.17894348927E+02  0.90571656955E+02  0.00000000000E+00 0.  1.
         11    1    4    4    0    0  0.49939076439E+02  0.30253204952E+02 -0.98860362452E+02  0.11481523867E+03  0.00000000000E+00 0. -1.
</event>
<event>
 8    1  0.6869405E-009  0.7694776E+02  0.7561462E-02  0.1337943E+00
          2   -1    0    0  501    0  0.00000000000E+00  0.00000000000E+00  0.30806152461E+03  0.30806152461E+03  0.00000000000E+00 0.  1.
         -2   -1    0    0    0  501 -0.00000000000E+00 -0.00000000000E+00 -0.45135376376E+02  0.45135376376E+02  0.00000000000E+00 0. -1.
         25    2    1    2    0    0 -0.26513439464E+01  0.41047637173E+02  0.18684229831E+03  0.22858102993E+03  0.12508918685E+03 0.  0.
         23    2    1    2    0    0  0.26513439464E+01 -0.41047637173E+02  0.76083849929E+02  0.12461587105E+03  0.89713014421E+02 0.  0.
          5    1    3    3  502    0 -0.14019510004E+02  0.40520405701E+02  0.17749220964E+01  0.43116965192E+02  0.41800000000E+01 0. -1.
         -5    1    3    3    0  502  0.11368166057E+02  0.52723147188E+00  0.18506737621E+03  0.18546406474E+03  0.41800000000E+01 0. -1.
        -11    1    4    4    0    0 -0.16148459174E+02 -0.65718745691E+02  0.52532486733E+02  0.85670230718E+02  0.00000000000E+00 0. -1.
         11    1    4    4    0    0  0.18799803121E+02  0.24671108518E+02  0.23551363196E+02  0.38945640337E+02  0.00000000000E+00 0.  1.
</event>
<event>
 8    1  0.6869405E-009  0.6926280E+02  0.7561462E-02  0.1362618E+00
         -2   -1    0    0    0  501 -0.00000000000E+00  0.00000000000E+00  0.58493058352E+02  0.58493058352E+02  0.00000000000E+00 0.  1.
          2   -1    0    0  501    0  0.00000000000E+00 -0.00000000000E+00 -0.21009887096E+03  0.21009887096E+03  0.00000000000E+00 0. -1.
         25    2    1    2    0    0  0.81778039330E+01 -0.14153184898E+02 -0.51522429628E+02  0.13626669471E+03  0.12508741828E+03 0.  0.
         23    2    1    2    0    0 -0.81778039330E+01  0.14153184898E+02 -0.10008338298E+03  0.13232523460E+03  0.85006441196E+02 0.  0.
          5    1    3    3  502    0 -0.78043733073E+01 -0.35600000538E+02 -0.85373884338E+02  0.92921691806E+02  0.41800000000E+01 0. -1.
         -5    1    3    3    0  502  0.15982177240E+02  0.21446815640E+02  0.33851454710E+02  0.43345002900E+02  0.41800000000E+01 0. -1.
        -11    1    4    4    0    0  0.31833714690E+02  0.13953948238E+02 -0.14139200409E+02  0.37523526628E+02  0.00000000000E+00 0.  1.
         11    1    4    4    0    0 -0.40011518623E+02  0.19923665983E+00 -0.85944182567E+02  0.94801707975E+02  0.00000000000E+00 0. -1.
</event>
<event>
 8    1  0.6869405E-009  0.8515984E+02  0.7561462E-02  0.1315015E+00
         -2   -1    0    0    0  501 -0.00000000000E+00  0.00000000000E+00  0.24863356937E+02  0.24863356937E+02  0.00000000000E+00 0.  1.
          2   -1    0    0  501    0  0.00000000000E+00 -0.00000000000E+00 -0.59293609862E+03  0.59293609862E+03  0.00000000000E+00 0. -1.
         25    2    1    2    0    0  0.28732226223E+02  0.51162992558E+01 -0.43755175856E+03  0.45601673613E+03  0.12509198565E+03 0.  0.
         23    2    1    2    0    0 -0.28732226223E+02 -0.51162992558E+01 -0.13052098312E+03  0.16178271942E+03  0.91028588512E+02 0.  0.
          5    1    3    3  502    0 -0.18771340325E+02 -0.40754248315E+02 -0.30013745455E+03  0.30350162437E+03  0.41800000000E+01 0.  1.
         -5    1    3    3    0  502  0.47503566547E+02  0.45870547571E+02 -0.13741430401E+03  0.15251511176E+03  0.41800000000E+01 0.  1.
        -11    1    4    4    0    0 -0.42948524905E+02 -0.99253824860E+01 -0.13810384345E+03  0.14496813645E+03  0.00000000000E+00 0. -1.
         11    1    4    4    0    0  0.14216298683E+02  0.48090832302E+01  0.75828603304E+01  0.16814582973E+02  0.00000000000E+00 0.  1.
</event>
<event>
 8    1  0.6869405E-009  0.1201542E+03  0.7561462E-02  0.1242843E+00
          2   -1    0    0  501    0  0.00000000000E+00  0.00000000000E+00  0.17980162682E+03  0.17980162682E+03  0.00000000000E+00 0. -1.
         -2   -1    0    0    0  501 -0.00000000000E+00 -0.00000000000E+00 -0.13231392596E+03  0.13231392596E+03  0.00000000000E+00 0.  1.
         25    2    1    2    0    0  0.40733120386E+02  0.86317627662E+02 -0.21284495812E+02  0.15877783086E+03  0.12508976724E+03 0.  0.
         23    2    1    2    0    0 -0.40733120386E+02 -0.86317627662E+02  0.68772196669E+02  0.15333772192E+03  0.98351014165E+02 0.  0.
          5    1    3    3  502    0  0.70484140115E+01 -0.13878441913E+02  0.35300637908E+02  0.38805910976E+02  0.41800000000E+01 0.  1.
         -5    1    3    3    0  502  0.33684706374E+02  0.10019606957E+03 -0.56585133720E+02  0.11997191988E+03  0.41800000000E+01 0.  1.
        -11    1    4    4    0    0  0.17826289539E+02 -0.39817349249E+02 -0.99670433674E+01  0.44749746965E+02  0.00000000000E+00 0.  1.
         11    1    4    4    0    0 -0.58559409924E+02 -0.46500278413E+02  0.78739240037E+02  0.10858797495E+03  0.00000000000E+00 0. -1.
</event>
<event>
 8    1  0.6869405E-009  0.9388961E+02  0.7561462E-02  0.1293697E+00
          4   -1    0    0  501    0  0.00000000000E+00  0.00000000000E+00  0.37587684710E+03  0.37587684710E+03  0.00000000000E+00 0.  1.
         -4   -1    0    0    0  501 -0.00000000000E+00 -0.00000000000E+00 -0.35816252190E+02  0.35816252190E+02  0.00000000000E+00 0. -1.
         25    2    1    2    0    0  0.92220832533E+01 -0.41611695684E+02  0.18080623639E+03  0.22395191273E+03  0.12508790533E+03 0.  0.
         23    2    1    2    0    0 -0.92220832533E+01  0.41611695684E+02  0.15925435852E+03  0.18774118656E+03  0.89823284212E+02 0.  0.
          5    1    3    3  502    0 -0.21289921535E+02 -0.55081889019E+02  0.24496827913E+02  0.64069042717E+02  0.41800000000E+01 0. -1.
         -5    1    3    3    0  502  0.30512004788E+02  0.13470193335E+02  0.15630940848E+03  0.15988287001E+03  0.41800000000E+01 0. -1.
        -11    1    4    4    0    0  0.25277249601E+01 -0.26109389251E+02  0.72240613069E+02  0.76855681489E+02  0.00000000000E+00 0.  1.
         11    1    4    4    0    0 -0.11749808213E+02  0.67721084935E+02  0.87013745454E+02  0.11088550508E+03  0.00000000000E+00 0. -1.
</event>
<event>
 8    1  0.6869405E-009  0.1114702E+03  0.7561462E-02  0.1257871E+00
          2   -1    0    0  501    0  0.00000000000E+00  0.00000000000E+00  0.24722967344E+03  0.24722967344E+03  0.00000000000E+00 0. -1.
         -2   -1    0    0    0  501 -0.00000000000E+00 -0.00000000000E+00 -0.68418196168E+02  0.68418196168E+02  0.00000000000E+00 0.  1.
         25    2    1    2    0    0 -0.37039804470E+02  0.30977815767E+02  0.58824163956E+02  0.14642189018E+03  0.12509002948E+03 0.  0.
         23    2    1    2    0    0  0.37039804470E+02 -0.30977815767E+02  0.11998731332E+03  0.16922597943E+03  0.10912792755E+03 0.  0.
          5    1    3    3  502    0 -0.71713292987E+02 -0.26378282594E+01  0.65795827534E+02  0.97449052586E+02  0.41800000000E+01 0. -1.
         -5    1    3    3    0  502  0.34673488517E+02  0.33615644027E+02 -0.69716635782E+01  0.48972837597E+02  0.41800000000E+01 0. -1.
        -11    1    4    4    0    0 -0.30360330502E+02 -0.83866587848E+01  0.83666728567E+02  0.89399145314E+02  0.00000000000E+00 0. -1.
         11    1    4    4    0    0  0.67400134971E+02 -0.22591156983E+02  0.36320584754E+02  0.79826834115E+02  0.00000000000E+00 0.  1.
</event>
<event>
 8    1  0.6869405E-009  0.1156786E+03  0.7561462E-02  0.1250401E+00
          1   -1    0    0  501    0  0.00000000000E+00  0.00000000000E+00  0.19812093584E+02  0.19812093584E+02  0.00000000000E+00 0. -1.
         -1   -1    0    0    0  501 -0.00000000000E+00 -0.00000000000E+00 -0.77947641462E+03  0.77947641462E+03  0.00000000000E+00 0.  1.
         25    2    1    2    0    0  0.47872348065E+02 -0.91178125636E+01 -0.53448570634E+03  0.55107573161E+03  0.12503837600E+03 0.  0.
         23    2    1    2    0    0 -0.47872348065E+02  0.91178125636E+01 -0.22517861470E+03  0.24821277659E+03  0.92354088878E+02 0.  0.
          5    1    3    3  502    0 -0.40849099139E+02 -0.15643803062E+02 -0.14359142497E+03  0.15016440057E+03  0.41800000000E+01 0.  1.
         -5    1    3    3    0  502  0.88721447204E+02  0.65259904988E+01 -0.39089428137E+03  0.40091133104E+03  0.41800000000E+01 0.  1.
        -11    1    4    4    0    0 -0.27365618837E+02  0.47511731233E+02 -0.82626721406E+02  0.99163586005E+02  0.00000000000E+00 0. -1.
         11    1    4    4    0    0 -0.20506729228E+02 -0.38393918669E+02 -0.14255189329E+03  0.14904919059E+03  0.00000000000E+00 0.  1.
</event>
<event>
 8    1  0.6869405E-009  0.1973021E+03  0.7561462E-02  0.1152035E+00
         -1   -1    0    0    0  501 -0.00000000000E+00  0.00000000000E+00  0.50356307674E+03  0.50356307674E+03  0.00000000000E+00 0.  1.
          1   -1    0    0  501    0  0.00000000000E+00 -0.00000000000E+00 -0.95400955341E+02  0.95400955341E+02  0.00000000000E+00 0. -1.
         25    2    1    2    0    0 -0.18298426638E+03  0.15640285273E+02  0.27839085710E+03  0.35620008138E+03  0.12509663623E+03 0.  0.
         23    2    1    2    0    0  0.18298426638E+03 -0.15640285273E+02  0.12977126430E+03  0.24276395070E+03  0.91465263646E+02 0.  0.
          5    1    3    3  502    0  0.83296317889E+01 -0.12627910308E+02  0.70537523482E+02  0.72262448779E+02  0.41800000000E+01 0.  1.
         -5    1    3    3    0  502 -0.19131389817E+03  0.28268195581E+02  0.20785333361E+03  0.28393763260E+03  0.41800000000E+01 0.  1.
        -11    1    4    4    0    0  0.28826693155E+02 -0.12132724391E+02 -0.11805381584E+02  0.33429751327E+02  0.00000000000E+00 0. -1.
         11    1    4    4    0    0  0.15415757322E+03 -0.35075608812E+01  0.14157664589E+03  0.20933419937E+03  0.00000000000E+00 0.  1.
</event>
<event>
 8    1  0.6869405E-009  0.1443328E+03  0.7561462E-02  0.1207615E+00
          1   -1    0    0  501    0  0.00000000000E+00  0.00000000000E+00  0.98891992271E+03  0.98891992271E+03  0.00000000000E+00 0. -1.
         -1   -1    0    0    0  501 -0.00000000000E+00 -0.00000000000E+00 -0.30518405106E+02  0.30518405106E+02  0.00000000000E+00 0.  1.
         25    2    1    2    0    0  0.17821679253E+02  0.13214900999E+03  0.44004740753E+03  0.47652026035E+03  0.12509542182E+03 0.  0.
         23    2    1    2    0    0 -0.17821679253E+02 -0.13214900999E+03  0.51835411007E+03  0.54291806746E+03  0.91038845864E+02 0.  0.
          5    1    3    3  502    0 -0.28645302516E+02  0.26032524996E+02  0.26654715209E+02  0.47182538685E+02  0.41800000000E+01 0.  1.
         -5    1    3    3    0  502  0.46466981769E+02  0.10611648499E+03  0.41339269232E+03  0.42933772167E+03  0.41800000000E+01 0.  1.
        -11    1    4    4    0    0 -0.13095622067E+01 -0.50231439591E+02  0.66220164218E+02  0.83126545854E+02  0.00000000000E+00 0.  1.
         11    1    4    4    0    0 -0.16512117046E+02 -0.81917570395E+02  0.45213394586E+03  0.45979152161E+03  0.00000000000E+00 0. -1.
</event>
<event>
 8    1  0.6869405E-009  0.1242419E+03  0.7561462E-02  0.1236259E+00
         -2   -1    0    0    0  501 -0.00000000000E+00  0.00000000000E+00  0.24553011431E+02  0.24553011431E+02  0.00000000000E+00 0.  1.
          2   -1    0    0  501    0  0.00000000000E+00 -0.00000000000E+00 -0.74259898211E+03  0.74259898211E+03  0.00000000000E+00 0. -1.
         25    2    1    2    0    0  0.25435219090E+02  0.74456272276E+02 -0.44414994261E+03  0.46809015927E+03  0.12509411989E+03 0.  0.
         23    2    1    2    0    0 -0.25435219090E+02 -0.74456272276E+02 -0.27389602807E+03  0.29906183427E+03  0.90709755130E+02 0.  0.
          5    1    3    3  502    0  0.72722410488E+02  0.35739310183E+02 -0.31289684206E+03  0.32324565496E+03  0.41800000000E+01 0.  1.
         -5    1    3    3    0  502 -0.47287191398E+02  0.38716962093E+02 -0.13125310055E+03  0.14484450430E+03  0.41800000000E+01 0.  1.
        -11    1    4    4    0    0 -0.48911093570E+02 -0.34884833881E+02 -0.22068753935E+03  0.22871868471E+03  0.00000000000E+00 0.  1.
         11    1    4    4    0    0  0.23475874481E+02 -0.39571438395E+02 -0.53208488717E+02  0.70343149566E+02  0.00000000000E+00 0. -1.
</event>
<event>
 8    1  0.6869405E-009  0.6955865E+02  0.7561462E-02  0.1361600E+00
         -3   -1    0    0    0  501 -0.00000000000E+00  0.00000000000E+00  0.10195898318E+03  0.10195898318E+03  0.00000000000E+00 0.  1.
          3   -1    0    0  501    0  0.00000000000E+00 -0.00000000000E+00 -0.36367176316E+03  0.36367176316E+03  0.00000000000E+00 0. -1.
         25    2    1    2    0    0  0.30608448503E+02 -0.35370111900E+01 -0.32542699149E+03  0.34999967225E+03  0.12509059204E+03 0.  0.
         23    2    1    2    0    0 -0.30608448503E+02  0.35370111900E+01  0.63714211515E+02  0.11563107409E+03  0.91442096315E+02 0.  0.
          5    1    3    3  502    0 -0.83602089269E+01  0.65522621506E+00  0.91573739053E+01  0.13101614845E+02  0.41800000000E+01 0.  1.
         -5    1    3    3    0  502  0.38968657430E+02 -0.41922374051E+01 -0.33458436540E+03  0.33689805741E+03  0.41800000000E+01 0.  1.
        -11    1    4    4    0    0  0.28028431778E+02 -0.10682679705E+02  0.31813075503E+01  0.30163443957E+02  0.00000000000E+00 0. -1.
         11    1    4    4    0    0 -0.58636880281E+02  0.14219690895E+02  0.60532903965E+02  0.85467630134E+02  0.00000000000E+00 0.  1.
</event>
<event>
 7    1  0.6869405E-009  0.1233237E+03  0.7561462E-02  0.1237713E+00
         -2   -1    0    0    0  501 -0.00000000000E+00  0.00000000000E+00  0.11476813882E+03  0.11476813882E+03  0.00000000000E+00 0.  1.
          2   -1    0    0  501    0  0.00000000000E+00 -0.00000000000E+00 -0.27703861649E+03  0.27703861649E+03  0.00000000000E+00 0. -1.
         23    2    1    2    0    0  0.44444522611E+02  0.88536403281E+02  0.35755274762E+02  0.13746066563E+03  0.88334504168E+02 0.  0.
          5    1    1    2  502    0  0.27809479093E+02 -0.60334061391E+02 -0.14711247610E+03  0.16147172854E+03  0.41800000000E+01 0. -1.
         -5    1    1    2    0  502 -0.72254001704E+02 -0.28202341891E+02 -0.50913276334E+02  0.92874361141E+02  0.41800000000E+01 0. -1.
        -11    1    3    3    0    0  0.21136555451E+02  0.16866846994E+02  0.53579926891E+02  0.60017106474E+02  0.00000000000E+00 0.  1.
         11    1    3    3    0    0  0.23307967160E+02  0.71669556287E+02 -0.17824652129E+02  0.77443559158E+02  0.00000000000E+00 0. -1.
</event>
<event>
 8    1  0.6869405E-009  0.2653611E+03  0.7561462E-02  0.1103964E+00
          1   -1    0    0  501    0  0.00000000000E+00  0.00000000000E+00  0.83439228673E+03  0.83439228673E+03  0.00000000000E+00 0. -1.
         -1   -1    0    0    0  501 -0.00000000000E+00 -0.00000000000E+00 -0.10006145314E+03  0.10006145314E+03  0.00000000000E+00 0.  1.
         25    2    1    2    0    0  0.17264760354E+03 -0.19087280889E+03  0.49150249070E+03  0.56873876117E+03  0.12509778536E+03 0.  0.
         23    2    1    2    0    0 -0.17264760354E+03  0.19087280889E+03  0.24282834288E+03  0.36571497871E+03  0.92424116777E+02 0.  0.
          5    1    3    3  502    0  0.81154972148E+01 -0.64200845868E+02  0.20406200787E+03  0.21411769044E+03  0.41800000000E+01 0. -1.
         -5    1    3    3    0  502  0.16453210633E+03 -0.12667196302E+03  0.28744048284E+03  0.35462107073E+03  0.41800000000E+01 0. -1.
        -11    1    4    4    0    0 -0.36662122694E+02  0.53810235248E+02  0.12102675486E+03  0.13743044805E+03  0.00000000000E+00 0.  1.
         11    1    4    4    0    0 -0.13598548085E+03  0.13706257364E+03  0.12180158802E+03  0.22828453066E+03  0.00000000000E+00 0. -1.
</event>
<event>
 8    1  0.6869405E-009  0.1555720E+03  0.7561462E-02  0.1193789E+00
          2   -1    0    0  501    0  0.00000000000E+00  0.00000000000E+00  0.56459123042E+03  0.56459123042E+03  0.00000000000E+00 0.  1.
         -2   -1    0    0    0  501 -0.00000000000E+00 -0.00000000000E+00 -0.47552205694E+02  0.47552205694E+02  0.00000000000E+00 0. -1.
         25    2    1    2    0    0 -0.10069518537E+03 -0.56725294118E+02  0.35102462682E+03  0.39015739745E+03  0.12508887561E+03 0.  0.
         23    2    1    2    0    0  0.10069518537E+03  0.56725294118E+02  0.16601439791E+03  0.22198603867E+03  0.91431623081E+02 0.  0.
          5    1    3    3  502    0 -0.11444055612E+03 -0.35575111192E+01  0.25267070174E+03  0.27743333017E+03  0.41800000000E+01 0. -1.
         -5    1    3    3    0  502  0.13745370750E+02 -0.53167782998E+02  0.98353925079E+02  0.11272406728E+03  0.41800000000E+01 0. -1.
        -11    1    4    4    0    0  0.44660300301E+02 -0.17952938522E+02  0.29028611482E+02  0.56209525074E+02  0.00000000000E+00 0. -1.
         11    1    4    4    0    0  0.56034885072E+02  0.74678232639E+02  0.13698578643E+03  0.16577651359E+03  0.00000000000E+00 0.  1.
</event>
<event>
 8    1  0.6869405E-009  0.1294598E+03  0.7561462E-02  0.1228259E+00
          1   -1    0    0  501    0  0.00000000000E+00  0.00000000000E+00  0.57982605018E+02  0.57982605018E+02  0.00000000000E+00 0. -1.
         -1   -1    0    0    0  501 -0.00000000000E+00 -0.00000000000E+00 -0.42500771819E+03  0.42500771819E+03  0.00000000000E+00 0.  1.
         25    2    1    2    0    0 -0.84333629419E+02 -0.14745593607E+02 -0.31152039265E+03  0.34644173375E+03  0.12508927317E+03 0.  0.
         23    2    1    2    0    0  0.84333629419E+02  0.14745593607E+02 -0.55504720520E+02  0.13654858946E+03  0.90747725599E+02 0.  0.
          5    1    3    3  502    0  0.18255822405E+02 -0.26272572975E+02 -0.15886903937E+03  0.16211220563E+03  0.41800000000E+01 0. -1.
         -5    1    3    3    0  502 -0.10258945182E+03  0.11526979368E+02 -0.15265135328E+03  0.18432952812E+03  0.41800000000E+01 0. -1.
        -11    1    4    4    0    0  0.14162403104E+02 -0.34709760549E+02 -0.26596479069E+02  0.45964266969E+02  0.00000000000E+00 0.  1.
         11    1    4    4    0    0  0.70171226315E+02  0.49455354157E+02 -0.28908241451E+02  0.90584322491E+02  0.00000000000E+00 0. -1.
</event>
<event>
 8    1  0.6869405E-009  0.1008630E+03  0.7561462E-02  0.1278492E+00
         -2   -1    0    0    0  501 -0.00000000000E+00  0.00000000000E+00  0.14392932790E+02  0.14392932790E+02  0.00000000000E+00 0.  1.
          2   -1    0    0  501    0  0.00000000000E+00 -0.00000000000E+00 -0.86675259942E+03  0.86675259942E+03  0.00000000000E+00 0. -1.
         25    2    1    2    0    0  0.14291076529E+01  0.28780033449E+02 -0.48384963528E+03  0.50058765658E+03  0.12508876721E+03 0.  0.
         23    2    1    2    0    0 -0.14291076529E+01 -0.28780033449E+02 -0.36851003135E+03  0.38055787563E+03  0.90522487962E+02 0.  0.
          5    1    3    3  502    0 -0.26725111516E+02  0.62214762532E+02 -0.16019171190E+03  0.17396483905E+03  0.41800000000E+01 0.  1.
         -5    1    3    3    0  502  0.28154219169E+02 -0.33434729082E+02 -0.32365792338E+03  0.32662281753E+03  0.41800000000E+01 0.  1.
        -11    1    4    4    0    0  0.31845605363E+02 -0.43234904427E+02 -0.15623996638E+03  0.16520994715E+03  0.00000000000E+00 0.  1.
         11    1    4    4    0    0 -0.33274713016E+02  0.14454870977E+02 -0.21227006496E+03  0.21534792848E+03  0.00000000000E+00 0. -1.
</event>
<event>
 8    1  0.6869405E-009  0.1010911E+03  0.7561462E-02  0.1278018E+00
          1   -1    0    0  501    0  0.00000000000E+00  0.00000000000E+00  0.36705303263E+03  0.36705303263E+03  0.00000000000E+00 0. -1.
         -1   -1    0    0    0  501 -0.00000000000E+00 -0.00000000000E+00 -0.70017285730E+02  0.70017285730E+02  0.00000000000E+00 0.  1.
         25    2    1    2    0    0 -0.72654631837E+02 -0.29781297979E+02  0.28767682758E+03  0.32337268506E+03  0.12508523127E+03 0.  0.
         23    2    1    2    0    0  0.72654631837E+02  0.29781297979E+02  0.93589193218E+01  0.11369763330E+03  0.81694193243E+02 0.  0.
          5    1    3    3  502    0 -0.30329392423E+02 -0.44009923436E+02  0.29227755159E+02  0.61061276413E+02  0.41800000000E+01 0. -1.
         -5    1    3    3    0  502 -0.42325239413E+02  0.14228625457E+02  0.25844907242E+03  0.26231140865E+03  0.41800000000E+01 0. -1.
        -11    1    4    4    0    0  0.49808438116E+02  0.51892439890E+02 -0.15207506424E+02  0.73518528800E+02  0.00000000000E+00 0. -1.
         11    1    4    4    0    0  0.22846193721E+02 -0.22111141911E+02  0.24566425746E+02  0.40179104496E+02  0.00000000000E+00 0.  1.
</event>
<event>
 8    1  0.6869405E-009  0.2000794E+03  0.7561462E-02  0.1149672E+00
          1   -1    0    0  501    0  0.00000000000E+00  0.00000000000E+00  0.15328005487E+03  0.15328005487E+03  0.00000000000E+00 0. -1.
         -1   -1    0    0    0  501 -0.00000000000E+00 -0.00000000000E+00 -0.31456740208E+03  0.31456740208E+03  0.00000000000E+00 0.  1.
         25    2    1    2    0    0  0.15570103485E+03  0.68009046252E+02 -0.17581663553E+03  0.27464091833E+03  0.12509237413E+03 0.  0.
         23    2    1    2    0    0 -0.15570103485E+03 -0.68009046252E+02  0.14529288324E+02  0.19320653863E+03  0.90827439277E+02 0.  0.
          5    1    3    3  502    0 -0.29614636953E+01 -0.26005698034E+02 -0.21176640979E+02  0.33926230569E+02  0.41800000000E+01 0.  1.
         -5    1    3    3    0  502  0.15866249854E+03  0.94014744285E+02 -0.15463999455E+03  0.24071468776E+03  0.41800000000E+01 0.  1.
        -11    1    4    4    0    0 -0.15714477638E+03 -0.41364931608E+02  0.25254436451E+02  0.16444854779E+03  0.00000000000E+00 0. -1.
         11    1    4    4    0    0  0.14437415316E+01 -0.26644114644E+02 -0.10725148127E+02  0.28757990839E+02  0.00000000000E+00 0.  1.
</event>
<event>
 8    1  0.6869405E-009  0.8957460E+02  0.7561462E-02  0.1303885E+00
         -1   -1    0    0    0  501 -0.00000000000E+00  0.00000000000E+00  0.10169127266E+03  0.10169127266E+03  0.00000000000E+00 0.  1.
          1   -1    0    0  501    0  0.00000000000E+00 -0.00000000000E+00 -0.16379831166E+03  0.16379831166E+03  0.00000000000E+00 0. -1.
         25    2    1    2    0    0 -0.15762688938E+02  0.26200937775E+02  0.30049004626E+02  0.13223197766E+03  0.12508957484E+03 0.  0.
         23    2    1    2    0    0  0.15762688938E+02 -0.26200937775E+02 -0.92156043626E+02  0.13325760666E+03  0.91268295991E+02 0.  0.
          5    1    3    3  502    0 -0.49743675367E+02  0.22833926692E+02  0.63713023230E+02  0.84099008177E+02  0.41800000000E+01 0.  1.
         -5    1    3    3    0  502  0.33980986429E+02  0.33670110829E+01 -0.33664018604E+02  0.48132969479E+02  0.41800000000E+01 0.  1.
        -11    1    4    4    0    0 -0.28015921725E+02 -0.35373722944E+02 -0.70145461854E+02  0.83406102677E+02  0.00000000000E+00 0. -1.
         11    1    4    4    0    0  0.43778610664E+02  0.91727851692E+01 -0.22010581772E+02  0.49851503983E+02  0.00000000000E+00 0.  1.
</event>
<event>
 8    1  0.6869405E-009  0.1997168E+03  0.7561462E-02  0.1149978E+00
          1   -1    0    0  501    0  0.00000000000E+00  0.00000000000E+00  0.26908789760E+03  0.26908789760E+03  0.00000000000E+00 0. -1.
         -1   -1    0    0    0  501 -0.00000000000E+00 -0.00000000000E+00 -0.18959253823E+03  0.18959253823E+03  0.00000000000E+00 0.  1.
         25    2    1    2    0    0  0.10746355943E+03  0.14749579852E+03  0.11716535932E+03  0.25035761677E+03  0.12509111745E+03 0.  0.
         23    2    1    2    0    0 -0.10746355943E+03 -0.14749579852E+03 -0.37669999957E+02  0.20832281905E+03  0.93144730687E+02 0.  0.
          5    1    3    3  502    0  0.36766444533E+02 -0.14249039136E+02  0.23107749700E+01  0.39719247738E+02  0.41800000000E+01 0. -1.
         -5    1    3    3    0  502  0.70697114899E+02  0.16174483766E+03  0.11485458435E+03  0.21063836904E+03  0.41800000000E+01 0. -1.
        -11    1    4    4    0    0 -0.88422391859E+02 -0.13082387995E+03 -0.65282970201E+02  0.17086624344E+03  0.00000000000E+00 0.  1.
         11    1    4    4    0    0 -0.19041167574E+02 -0.16671918569E+02  0.27612970244E+02  0.37456575618E+02  0.00000000000E+00 0. -1.
</event>
<event>
 8    1  0.6869405E-009  0.1085451E+03  0.7561462E-02  0.1263288E+00
          2   -1    0    0  501    0  0.00000000000E+00  0.00000000000E+00  0.96814768170E+03  0.96814768170E+03  0.00000000000E+00 0. -1.
         -2   -1    0    0    0  501 -0.00000000000E+00 -0.00000000000E+00 -0.19711934583E+02  0.19711934583E+02  0.00000000000E+00 0.  1.
         25    2    1    2    0    0  0.10218151613E+02 -0.83189296834E+02  0.57449372539E+03  0.59389367433E+03  0.12506712667E+03 0.  0.
         23    2    1    2    0    0 -0.10218151613E+02  0.83189296834E+02  0.37394202173E+03  0.39396594195E+03  0.91387406524E+02 0.  0.
          5    1    3    3  502    0 -0.22418071031E+02 -0.49499315861E+02  0.51567119800E+03  0.51854316024E+03  0.41800000000E+01 0.  1.
         -5    1    3    3    0  502  0.32636222644E+02 -0.33689980974E+02  0.58822527384E+02  0.75350514095E+02  0.41800000000E+01 0.  1.
        -11    1    4    4    0    0  0.32345981759E+02  0.56955797402E+02  0.27986621836E+03  0.28742881827E+03  0.00000000000E+00 0.  1.
         11    1    4    4    0    0 -0.42564133372E+02  0.26233499432E+02  0.94075803372E+02  0.10653712368E+03  0.00000000000E+00 0. -1.
</event>
<event>
 8    1  0.6869405E-009  0.1478469E+03  0.7561462E-02  0.1203144E+00
         -1   -1    0    0    0  501 -0.00000000000E+00  0.00000000000E+00  0.10431946303E+04  0.10431946303E+04  0.00000000000E+00 0.  1.
          1   -1    0    0  501    0  0.00000000000E+00 -0.00000000000E+00 -0.23647503646E+02  0.23647503646E+02  0.00000000000E+00 0. -1.
         25    2    1    2    0    0 -0.98978363999E+02 -0.41357735294E+02  0.67111998741E+03  0.69105611781E+03  0.12509732868E+03 0.  0.
         23    2    1    2    0    0  0.98978363999E+02  0.41357735294E+02  0.34842713927E+03  0.37578601617E+03  0.91139891156E+02 0.  0.
          5    1    3    3  502    0 -0.42444867856E+02  0.39713265439E+02  0.35706482032E+03  0.36178925989E+03  0.41800000000E+01 0.  1.
         -5    1    3    3    0  502 -0.56533496143E+02 -0.81071000733E+02  0.31405516709E+03  0.32926685792E+03  0.41800000000E+01 0.  1.
        -11    1    4    4    0    0  0.79985650492E+02 -0.12888849786E+02  0.16975967641E+03  0.18810150044E+03  0.00000000000E+00 0.  1.
         11    1    4    4    0    0  0.18992713507E+02  0.54246585080E+02  0.17866746286E+03  0.18768451573E+03  0.00000000000E+00 0. -1.
</event>
<event>
 8    1  0.6869405E-009  0.1613668E+03  0.7561462E-02  0.1187162E+00
         -1   -1    0    0    0  501 -0.00000000000E+00  0.00000000000E+00  0.22967993426E+03  0.22967993426E+03  0.00000000000E+00 0.  1.
          1   -1    0    0  501    0  0.00000000000E+00 -0.00000000000E+00 -0.15077621786E+03  0.15077621786E+03  0.00000000000E+00 0. -1.
         25    2    1    2    0    0 -0.66292099901E+02  0.12751562667E+03 -0.52483800752E+01  0.19059991070E+03  0.12508358370E+03 0.  0.
         23    2    1    2    0    0  0.66292099901E+02 -0.12751562667E+03  0.84152096477E+02  0.18985624142E+03  0.91153384525E+02 0.  0.
          5    1    3    3  502    0  0.19700068089E+02  0.31564872337E+01  0.29068171148E+02  0.35503338832E+02  0.41800000000E+01 0. -1.
         -5    1    3    3    0  502 -0.85992167989E+02  0.12435913944E+03 -0.34316551223E+02  0.15509657187E+03  0.41800000000E+01 0. -1.
        -11    1    4    4    0    0  0.13897187175E+02 -0.77246176512E+02  0.87024212945E+02  0.11718923686E+03  0.00000000000E+00 0.  1.
         11    1    4    4    0    0  0.52394912726E+02 -0.50269450161E+02 -0.28721164680E+01  0.72667004562E+02  0.00000000000E+00 0. -1.
</event>
<event>
 8    1  0.6869405E-009  0.1147612E+03  0.7561462E-02  0.1251999E+00
          1   -1    0    0  501    0  0.00000000000E+00  0.00000000000E+00  0.61481871861E+03  0.61481871861E+03  0.00000000000E+00 0. -1.
         -1   -1    0    0    0  501 -0.00000000000E+00 -0.00000000000E+00 -0.21848606345E+02  0.21848606345E+02  0.00000000000E+00 0.  1.
         25    2    1    2    0    0 -0.34507287143E+02 -0.21187137327E+02  0.32383770499E+03  0.34951251121E+03  0.12509391937E+03 0.  0.
         23    2    1    2    0    0  0.34507287143E+02  0.21187137327E+02  0.26913240728E+03  0.28715481375E+03  0.91575033485E+02 0.  0.
          5    1    3    3  502    0  0.46978980733E+02 -0.32741290771E+01  0.10056255789E+03  0.11112175755E+03  0.41800000000E+01 0.  1.
         -5    1    3    3    0  502 -0.81486267877E+02 -0.17913008250E+02  0.22327514709E+03  0.23839075365E+03  0.41800000000E+01 0.  1.
        -11    1    4    4    0    0 -0.79738407306E+01  0.47878026366E+02  0.10830818959E+03  0.11868677886E+03  0.00000000000E+00 0. -1.
         11    1    4    4    0    0  0.42481127874E+02 -0.26690889039E+02  0.16082421770E+03  0.16846803489E+03  0.00000000000E+00 0.  1.
</event>
<event>
 8    1  0.6869405E-009  0.2132596E+03  0.7561462E-02  0.1139010E+00
         -2   -1    0    0    0  501 -0.00000000000E+00  0.00000000000E+00  0.35902406013E+03  0.35902406013E+03  0.00000000000E+00 0.  1.
          2   -1    0    0  501    0  0.00000000000E+00 -0.00000000000E+00 -0.15049972894E+03  0.15049972894E+03  0.00000000000E+00 0. -1.
         25    2    1    2    0    0 -0.67991564669E+02  0.19210795546E+03  0.78400815612E+02  0.25163470322E+03  0.12508004060E+03 0.  0.
         23    2    1    2    0    0  0.67991564669E+02 -0.19210795546E+03  0.13012351557E+03  0.25788908586E+03  0.89701348279E+02 0.  0.
          5    1    3    3  502    0 -0.33034796948E+02  0.98708795628E+02  0.10544098651E+03  0.14822279912E+03  0.41800000000E+01 0. -1.
         -5    1    3    3    0  502 -0.34956767720E+02  0.93399159831E+02 -0.27040170895E+02  0.10341190410E+03  0.41800000000E+01 0. -1.
        -11    1    4    4    0    0  0.73742608506E+02 -0.74645502395E+02  0.65626675707E+02  0.12376099507E+03  0.00000000000E+00 0.  1.
         11    1    4    4    0    0 -0.57510438378E+01 -0.11746245306E+03  0.64496839867E+02  0.13412809079E+03  0.00000000000E+00 0. -1.
</event>
<event>
 8    1  0.6869405E-009  0.1771625E+03  0.7561462E-02  0.1170578E+00
          2   -1    0    0  501    0  0.00000000000E+00  0.00000000000E+00  0.14646449802E+03  0.14646449802E+03  0.00000000000E+00 0. -1.
         -2   -1    0    0    0  501 -0.00000000000E+00 -0.00000000000E+00 -0.22504867217E+03  0.22504867217E+03  0.00000000000E+00 0.  1.
         25    2    1    2    0    0 -0.13030269033E+03  0.62222529250E+02 -0.67206057759E+02  0.20251124667E+03  0.12507484389E+03 0.  0.
         23    2    1    2    0    0  0.13030269033E+03 -0.62222529250E+02 -0.11378116390E+02  0.16900192351E+03  0.87073270092E+02 0.  0.
          5    1    3    3  502    0 -0.25743572357E+02  0.77657259451E+02 -0.10776927342E+02  0.82625637825E+02  0.41800000000E+01 0. -1.
         -5    1    3    3    0  502 -0.10455911798E+03 -0.15434730201E+02 -0.56429130417E+02  0.11988560885E+03  0.41800000000E+01 0. -1.
        -11    1    4    4    0    0  0.44335376471E+02  0.19117103287E+02 -0.15120446079E+02  0.50593647176E+02  0.00000000000E+00 0.  1.
         11    1    4    4    0    0  0.85967313862E+02 -0.81339632537E+02  0.37423296888E+01  0.11840827634E+03  0.00000000000E+00 0. -1.
</event>
<event>
 8    1  0.6869405E-009  0.1125410E+03  0.7561462E-02  0.1255935E+00
          2   -1    0    0  501    0  0.00000000000E+00  0.00000000000E+00  0.13757132254E+03  0.13757132254E+03  0.00000000000E+00 0.  1.
         -2   -1    0    0    0  501 -0.00000000000E+00 -0.00000000000E+00 -0.10073575415E+03  0.10073575415E+03  0.00000000000E+00 0. -1.
         25    2    1    2    0    0  0.28835766132E+02  0.31855271232E+02  0.36060934594E+02  0.13710743014E+03  0.12510714081E+03 0.  0.
         23    2    1    2    0    0 -0.28835766132E+02 -0.31855271232E+02  0.77463379775E+00  0.10119964656E+03  0.91621551461E+02 0.  0.
          5    1    3    3  502    0  0.55941281539E+01  0.78638034670E+02  0.13682525030E+02  0.80124394898E+02  0.41800000000E+01 0. -1.
         -5    1    3    3    0  502  0.23241637978E+02 -0.46782763438E+02  0.22378409564E+02  0.56983035242E+02  0.41800000000E+01 0. -1.
        -11    1    4    4    0    0 -0.23612505448E+02 -0.60326616041E+02 -0.17325698572E+02  0.67059904917E+02  0.00000000000E+00 0.  1.
         11    1    4    4    0    0 -0.52232606834E+01  0.28471344809E+02  0.18100332370E+02  0.34139741640E+02  0.00000000000E+00 0. -1.
</event>
<event>
 8    1  0.6869405E-009  0.1505604E+03  0.7561462E-02  0.1199786E+00
          2   -1    0    0  501    0  0.00000000000E+00  0.00000000000E+00  0.16654069697E+03  0.16654069697E+03  0.00000000000E+00 0. -1.
         -2   -1    0    0    0  501 -0.00000000000E+00 -0.00000000000E+00 -0.29708353259E+03  0.29708353259E+03  0.00000000000E+00 0.  1.
         25    2    1    2    0    0  0.10572259056E+03 -0.73196683274E+02 -0.21954110237E+03  0.28351479352E+03  0.12508925579E+03 0.  0.
         23    2    1    2    0    0 -0.10572259056E+03  0.73196683274E+02  0.88998266753E+02  0.18010943605E+03  0.89351535352E+02 0.  0.
          5    1    3    3  502    0  0.12164883326E+03 -0.73997519642E+02 -0.13124355276E+03  0.19369154367E+03  0.41800000000E+01 0. -1.
         -5    1    3    3    0  502 -0.15926242700E+02  0.80083636873E+00 -0.88297549615E+02  0.89823249849E+02  0.41800000000E+01 0. -1.
        -11    1    4    4    0    0 -0.50562243521E+02  0.35989792654E-01 -0.24968752887E+01  0.50623869384E+02  0.00000000000E+00 0.  1.
         11    1    4    4    0    0 -0.55160347042E+02  0.73160693481E+02  0.91495142042E+02  0.12948556666E+03  0.00000000000E+00 0. -1.
</event>
<event>
 8    1  0.6869405E-009  0.1290892E+03  0.7561462E-02  0.1228814E+00
         -1   -1    0    0    0  501 -0.00000000000E+00  0.00000000000E+00  0.10921811660E+04  0.10921811660E+04  0.00000000000E+00 0. -1.
          1   -1    0    0  501    0  0.00000000000E+00 -0.00000000000E+00 -0.23149523023E+02  0.23149523023E+02  0.00000000000E+00 0.  1.
         25    2    1    2    0    0 -0.88650765984E+02  0.75378562985E+02  0.56186144512E+03  0.58726178326E+03  0.12508889839E+03 0.  0.
         23    2    1    2    0    0  0.88650765984E+02 -0.75378562985E+02  0.50717019787E+03  0.52806890577E+03  0.89968180876E+02 0.  0.
          5    1    3    3  502    0 -0.38242841746E+01  0.14960090618E+01 -0.59787008894E+01  0.83714071031E+01  0.41800000000E+01 0. -1.
         -5    1    3    3    0  502 -0.84826481809E+02  0.73882553924E+02  0.56784014601E+03  0.57889037616E+03  0.41800000000E+01 0. -1.
        -11    1    4    4    0    0  0.48107362633E+01 -0.52670093418E+02  0.11780750777E+03  0.12913516489E+03  0.00000000000E+00 0. -1.
         11    1    4    4    0    0  0.83840029721E+02 -0.22708469567E+02  0.38936269011E+03  0.39893374089E+03  0.00000000000E+00 0.  1.
</event>
<event>
 8    1  0.6869405E-009  0.1071119E+03  0.7561462E-02  0.1266014E+00
          1   -1    0    0  501    0  0.00000000000E+00  0.00000000000E+00  0.96789928846E+02  0.96789928846E+02  0.00000000000E+00 0. -1.
         -1   -1    0    0    0  501 -0.00000000000E+00 -0.00000000000E+00 -0.23613477675E+03  0.23613477675E+03  0.00000000000E+00 0.  1.
         25    2    1    2    0    0 -0.78001006819E+02  0.62140221047E+02 -0.10157182748E+03  0.18949811535E+03  0.12508851046E+03 0.  0.
         23    2    1    2    0    0  0.78001006819E+02 -0.62140221047E+02 -0.37773020429E+02  0.14342659024E+03  0.95910487332E+02 0.  0.
          5    1    3    3  502    0 -0.29802015914E+02 -0.61969078791E+01 -0.10120702499E+03  0.10576812434E+03  0.41800000000E+01 0. -1.
         -5    1    3    3    0  502 -0.48198990905E+02  0.68337128926E+02 -0.36480248991E+00  0.83729991012E+02  0.41800000000E+01 0. -1.
        -11    1    4    4    0    0  0.41582135666E+02 -0.31275847221E+02 -0.68972577016E+02  0.86397158554E+02  0.00000000000E+00 0.  1.
         11    1    4    4    0    0  0.36418871153E+02 -0.30864373826E+02  0.31199556587E+02  0.57029431691E+02  0.00000000000E+00 0. -1.
</event>
<event>
 8    1  0.6869405E-009  0.1209970E+03  0.7561462E-02  0.1241461E+00
         -2   -1    0    0    0  501 -0.00000000000E+00  0.00000000000E+00  0.21639475706E+03  0.21639475706E+03  0.00000000000E+00 0.  1.
          2   -1    0    0  501    0  0.00000000000E+00 -0.00000000000E+00 -0.11026293809E+03  0.11026293809E+03  0.00000000000E+00 0. -1.
         25    2    1    2    0    0 -0.10417633985E+03  0.13189633615E+02  0.92337846974E+02  0.18761771741E+03  0.12508978248E+03 0.  0.
         23    2    1    2    0    0  0.10417633985E+03 -0.13189633615E+02  0.13793971997E+02  0.13903997775E+03  0.90084213543E+02 0.  0.
          5    1    3    3  502    0  0.25497428659E+01 -0.19654067386E+02 -0.20495956140E+02  0.28815623742E+02  0.41800000000E+01 0.  1.
         -5    1    3    3    0  502 -0.10672608272E+03  0.32843701002E+02  0.11283380311E+03  0.15880209367E+03  0.41800000000E+01 0.  1.
        -11    1    4    4    0    0  0.80081337961E+02  0.43397777808E+01  0.48165546992E+02  0.93550918103E+02  0.00000000000E+00 0.  1.
         11    1    4    4    0    0  0.24095001889E+02 -0.17529411396E+02 -0.34371574995E+02  0.45489059647E+02  0.00000000000E+00 0. -1.
</event>
<event>
 8    1  0.6869405E-009  0.1086831E+03  0.7561462E-02  0.1263028E+00
          2   -1    0    0  501    0  0.00000000000E+00  0.00000000000E+00  0.59404424764E+03  0.59404424764E+03  0.00000000000E+00 0. -1.
         -2   -1    0    0    0  501 -0.00000000000E+00 -0.00000000000E+00 -0.30406547264E+02  0.30406547264E+02  0.00000000000E+00 0.  1.
         25    2    1    2    0    0 -0.32719953549E+02  0.56769368594E+02  0.40612171518E+03  0.42997164085E+03  0.12508959917E+03 0.  0.
         23    2    1    2    0    0  0.32719953549E+02 -0.56769368594E+02  0.15751598519E+03  0.19447915405E+03  0.93367548962E+02 0.  0.
          5    1    3    3  502    0 -0.72035781307E+02  0.40112174850E+02  0.34842383116E+03  0.35807091320E+03  0.41800000000E+01 0. -1.
         -5    1    3    3    0  502  0.39315827758E+02  0.16657193744E+02  0.57697884023E+02  0.71900727649E+02  0.41800000000E+01 0. -1.
        -11    1    4    4    0    0  0.50900336732E+02 -0.28614819206E+02  0.36392479431E+02  0.68804539943E+02  0.00000000000E+00 0.  1.
         11    1    4    4    0    0 -0.18180383183E+02 -0.28154549388E+02  0.12112350576E+03  0.12567461411E+03  0.00000000000E+00 0. -1.
</event>
<event>
 8    1  0.6869405E-009  0.1257184E+03  0.7561462E-02  0.1233951E+00
         -1   -1    0    0    0  501 -0.00000000000E+00  0.00000000000E+00  0.27207268232E+02  0.27207268232E+02  0.00000000000E+00 0. -1.
          1   -1    0    0  501    0  0.00000000000E+00 -0.00000000000E+00 -0.66879491685E+03  0.66879491685E+03  0.00000000000E+00 0.  1.
         25    2    1    2    0    0 -0.20294495469E+02 -0.76828762596E+02 -0.31805920557E+03  0.35088891973E+03  0.12508737120E+03 0.  0.
         23    2    1    2    0    0  0.20294495469E+02  0.76828762596E+02 -0.32352844305E+03  0.34511326535E+03  0.90099873208E+02 0.  0.
          5    1    3    3  502    0 -0.73139334729E+02 -0.38345409413E+02 -0.17789905872E+03  0.19617665559E+03  0.41800000000E+01 0. -1.
         -5    1    3    3    0  502  0.52844839260E+02 -0.38483353183E+02 -0.14016014685E+03  0.15471226414E+03  0.41800000000E+01 0. -1.
        -11    1    4    4    0    0  0.24210317123E+02 -0.20229412741E+01 -0.19947562162E+02  0.31434646217E+02  0.00000000000E+00 0. -1.
         11    1    4    4    0    0 -0.39158216535E+01  0.78851703870E+02 -0.30358088089E+03  0.31367861914E+03  0.00000000000E+00 0.  1.
</event>
<event>
 8    1  0.6869405E-009  0.1160299E+03  0.7561462E-02  0.1249794E+00
         -2   -1    0    0    0  501 -0.00000000000E+00  0.00000000000E+00  0.57487408706E+02  0.57487408706E+02  0.00000000000E+00 0.  1.
          2   -1    0    0  501    0  0.00000000000E+00 -0.00000000000E+00 -0.32778679494E+03  0.32778679494E+03  0.00000000000E+00 0. -1.
         25    2    1    2    0    0  0.82684602005E+02 -0.12678402669E+02 -0.16083442165E+03  0.22025371157E+03  0.12508597432E+03 0.  0.
         23    2    1    2    0    0 -0.82684602005E+02  0.12678402669E+02 -0.10946496459E+03  0.16502049208E+03  0.90838862993E+02 0.  0.
          5    1    3    3  502    0  0.73650756086E+02  0.46480605043E+02 -0.11718430451E+03  0.14606339083E+03  0.41800000000E+01 0.  1.
         -5    1    3    3    0  502  0.90338459189E+01 -0.59159007712E+02 -0.43650117132E+02  0.74190320738E+02  0.41800000000E+01 0.  1.
        -11    1    4    4    0    0 -0.14224196158E+02  0.78516671988E+01  0.15496768472E+02  0.22452756339E+02  0.00000000000E+00 0.  1.
         11    1    4    4    0    0 -0.68460405847E+02  0.48267354707E+01 -0.12496173306E+03  0.14256773574E+03  0.00000000000E+00 0. -1.
</event>
<event>
 8    1  0.6869405E-009  0.9173847E+02  0.7561462E-02  0.1298696E+00
         -2   -1    0    0    0  501 -0.00000000000E+00  0.00000000000E+00  0.46947208375E+02  0.46947208375E+02  0.00000000000E+00 0.  1.
          2   -1    0    0  501    0  0.00000000000E+00 -0.00000000000E+00 -0.36380547368E+03  0.36380547368E+03  0.00000000000E+00 0. -1.
         25    2    1    2    0    0  0.70754325794E+02  0.90611442458E+01 -0.15302076747E+03  0.21012247367E+03  0.12509124553E+03 0.  0.
         23    2    1    2    0    0 -0.70754325794E+02 -0.90611442458E+01 -0.16383749784E+03  0.20063020839E+03  0.91222123789E+02 0.  0.
          5    1    3    3  502    0  0.47817752570E+02 -0.16010034872E+02 -0.16597552695E+03  0.17351716522E+03  0.41800000000E+01 0.  1.
         -5    1    3    3    0  502  0.22936573224E+02  0.25071179118E+02  0.12954759480E+02  0.36605308451E+02  0.41800000000E+01 0.  1.
        -11    1    4    4    0    0  0.69105562491E+01 -0.19117066578E+02 -0.14911959100E+01  0.20382386697E+02  0.00000000000E+00 0.  1.
         11    1    4    4    0    0 -0.77664882043E+02  0.10055922332E+02 -0.16234630193E+03  0.18024782170E+03  0.00000000000E+00 0. -1.
</event>
<event>
 8    1  0.6869405E-009  0.1132227E+03  0.7561462E-02  0.1254716E+00
          2   -1    0    0  501    0  0.00000000000E+00  0.00000000000E+00  0.11130594009E+03  0.11130594009E+03  0.00000000000E+00 0. -1.
         -2   -1    0    0    0  501 -0.00000000000E+00 -0.00000000000E+00 -0.20135133183E+03  0.20135133183E+03  0.00000000000E+00 0.  1.
         25    2    1    2    0    0 -0.21561880941E+02 -0.46607890790E+02  0.42509334097E+02  0.14174256219E+03  0.12508677091E+03 0.  0.
         23    2    1    2    0    0  0.21561880941E+02  0.46607890790E+02 -0.13255472583E+03  0.17091470973E+03  0.94888737314E+02 0.  0.
          5    1    3    3  502    0 -0.52559438957E+02 -0.68803955878E+02  0.30817297523E+01  0.86737814280E+02  0.41800000000E+01 0.  1.
         -5    1    3    3    0  502  0.30997558016E+02  0.22196065087E+02  0.39427604344E+02  0.55004747910E+02  0.41800000000E+01 0.  1.
        -11    1    4    4    0    0 -0.28296310754E+02 -0.60031748374E+01 -0.67826290749E+02  0.73736863421E+02  0.00000000000E+00 0.  1.
         11    1    4    4    0    0  0.49858191695E+02  0.52611065628E+02 -0.64728435083E+02  0.97177846312E+02  0.00000000000E+00 0. -1.
</event>
<event>
 8    1  0.6869405E-009  0.1937287E+03  0.7561462E-02  0.1155141E+00
          2   -1    0    0  501    0  0.00000000000E+00  0.00000000000E+00  0.38896429959E+02  0.38896429959E+02  0.00000000000E+00 0. -1.
         -2   -1    0    0    0  501 -0.00000000000E+00 -0.00000000000E+00 -0.10015603539E+04  0.10015603539E+04  0.00000000000E+00 0.  1.
         25    2    1    2    0    0 -0.12909785262E+03  0.10149209184E+03 -0.48664563539E+03  0.52861912257E+03  0.12508917636E+03 0.  0.
         23    2    1    2    0    0  0.12909785262E+03 -0.10149209184E+03 -0.47601828857E+03  0.51183766131E+03  0.91746826782E+02 0.  0.
          5    1    3    3  502    0 -0.10252117907E+03  0.12743017867E+03 -0.34041675515E+03  0.37769045816E+03  0.41800000000E+01 0.  1.
         -5    1    3    3    0  502 -0.26576673555E+02 -0.25938086829E+02 -0.14622888024E+03  0.15092866441E+03  0.41800000000E+01 0.  1.
        -11    1    4    4    0    0  0.79820975133E+02 -0.72690818676E+01 -0.23841606680E+03  0.25152822611E+03  0.00000000000E+00 0.  1.
         11    1    4    4    0    0  0.49276877490E+02 -0.94223009974E+02 -0.23760222177E+03  0.26030943520E+03  0.00000000000E+00 0. -1.
</event>
<event>
 8    1  0.6869405E-009  0.1503322E+03  0.7561462E-02  0.1200065E+00
          2   -1    0    0  501    0  0.00000000000E+00  0.00000000000E+00  0.22944485444E+03  0.22944485444E+03  0.00000000000E+00 0. -1.
         -2   -1    0    0    0  501 -0.00000000000E+00 -0.00000000000E+00 -0.12479777227E+03  0.12479777227E+03  0.00000000000E+00 0.  1.
         25    2    1    2    0    0 -0.27173806873E+02 -0.12237377873E+03  0.17484811024E+02  0.17795165336E+03  0.12508922742E+03 0.  0.
         23    2    1    2    0    0  0.27173806873E+02  0.12237377873E+03  0.87162271138E+02  0.17629097335E+03  0.88133355057E+02 0.  0.
          5    1    3    3  502    0 -0.15839967895E+02 -0.14693483455E+03  0.51640926861E+01  0.14793542659E+03  0.41800000000E+01 0.  1.
         -5    1    3    3    0  502 -0.11333838977E+02  0.24561055823E+02  0.12320718338E+02  0.30016226769E+02  0.41800000000E+01 0.  1.
        -11    1    4    4    0    0  0.15929372354E+02  0.82260079242E+02  0.10205939400E+03  0.13204766353E+03  0.00000000000E+00 0. -1.
         11    1    4    4    0    0  0.11244434519E+02  0.40113699489E+02 -0.14897122859E+02  0.44243309820E+02  0.00000000000E+00 0.  1.
</event>
<event>
 8    1  0.6869405E-009  0.1666709E+03  0.7561462E-02  0.1181365E+00
         -3   -1    0    0    0  501 -0.00000000000E+00  0.00000000000E+00  0.91584526152E+03  0.91584526152E+03  0.00000000000E+00 0.  1.
          3   -1    0    0  501    0  0.00000000000E+00 -0.00000000000E+00 -0.36838437002E+02  0.36838437002E+02  0.00000000000E+00 0. -1.
         25    2    1    2    0    0  0.42963295889E+02 -0.12123818556E+03  0.27879235343E+03  0.33154599775E+03  0.12511206922E+03 0.  0.
         23    2    1    2    0    0 -0.42963295889E+02  0.12123818556E+03  0.60021447108E+03  0.62113770077E+03  0.94921491681E+02 0.  0.
          5    1    3    3  502    0  0.29500939485E+02 -0.14696272047E+03  0.23804690426E+03  0.28133991481E+03  0.41800000000E+01 0. -1.
         -5    1    3    3    0  502  0.13462356404E+02  0.25724534912E+02  0.40745449173E+02  0.50206082945E+02  0.41800000000E+01 0. -1.
        -11    1    4    4    0    0  0.12596300794E+02  0.88863184415E+02  0.42800557527E+03  0.43731465194E+03  0.00000000000E+00 0.  1.
         11    1    4    4    0    0 -0.55559596683E+02  0.32375001141E+02  0.17220889581E+03  0.18382304883E+03  0.00000000000E+00 0. -1.
</event>
<event>
 8    1  0.6869405E-009  0.1560416E+03  0.7561462E-02  0.1193240E+00
          1   -1    0    0  501    0  0.00000000000E+00  0.00000000000E+00  0.68319040776E+03  0.68319040776E+03  0.00000000000E+00 0. -1.
         -1   -1    0    0    0  501 -0.00000000000E+00 -0.00000000000E+00 -0.50418707910E+02  0.50418707910E+02  0.00000000000E+00 0.  1.
         25    2    1    2    0    0  0.39423087994E+02 -0.12253513090E+03  0.49251454406E+03  0.52419875783E+03  0.12507886886E+03 0.  0.
         23    2    1    2    0    0 -0.39423087994E+02  0.12253513090E+03  0.14025715579E+03  0.20941035784E+03  0.87244427023E+02 0.  0.
          5    1    3    3  502    0 -0.29840621104E+02 -0.53596645655E+02  0.83767008138E+02  0.10391076530E+03  0.41800000000E+01 0. -1.
         -5    1    3    3    0  502  0.69263709098E+02 -0.68938485244E+02  0.40874753592E+03  0.42028799253E+03  0.41800000000E+01 0. -1.
        -11    1    4    4    0    0  0.21581031020E+02  0.66630165165E+02  0.83921514522E+02  0.10930754965E+03  0.00000000000E+00 0. -1.
         11    1    4    4    0    0 -0.61004119013E+02  0.55904965734E+02  0.56335641273E+02  0.10010280819E+03  0.00000000000E+00 0.  1.
</event>
<event>
 8    1  0.6869405E-009  0.1188951E+03  0.7561462E-02  0.1244931E+00
         -1   -1    0    0    0  501 -0.00000000000E+00  0.00000000000E+00  0.12154349157E+03  0.12154349157E+03  0.00000000000E+00 0.  1.
          1   -1    0    0  501    0  0.00000000000E+00 -0.00000000000E+00 -0.16891682352E+03  0.16891682352E+03  0.00000000000E+00 0. -1.
         25    2    1    2    0    0 -0.86070349064E+02  0.30223070673E+02 -0.50503558190E+02  0.16284990085E+03  0.12509173365E+03 0.  0.
         23    2    1    2    0    0  0.86070349064E+02 -0.30223070673E+02  0.31302262317E+01  0.12761041424E+03  0.89180045517E+02 0.  0.
          5    1    3    3  502    0  0.49255937387E+01  0.19458061766E+02  0.32971993213E+02  0.38826567938E+02  0.41800000000E+01 0.  1.
         -5    1    3    3    0  502 -0.90995942803E+02  0.10765008907E+02 -0.83475551403E+02  0.12402333291E+03  0.41800000000E+01 0.  1.
        -11    1    4    4    0    0  0.71989934941E+02  0.18925673805E+02 -0.92452475247E+01  0.75008042659E+02  0.00000000000E+00 0.  1.
         11    1    4    4    0    0  0.14080414124E+02 -0.49148744478E+02  0.12375473756E+02  0.52602371585E+02  0.00000000000E+00 0. -1.
</event>
<event>
 8    1  0.6869405E-009  0.1204464E+03  0.7561462E-02  0.1242362E+00
          2   -1    0    0  501    0  0.00000000000E+00  0.00000000000E+00  0.23998269778E+02  0.23998269778E+02  0.00000000000E+00 0. -1.
         -2   -1    0    0    0  501 -0.00000000000E+00 -0.00000000000E+00 -0.62974025531E+03  0.62974025531E+03  0.00000000000E+00 0.  1.
         25    2    1    2    0    0 -0.49473690416E+02  0.29273934143E+02 -0.28577399094E+03  0.31720466419E+03  0.12508963114E+03 0.  0.
         23    2    1    2    0    0  0.49473690416E+02 -0.29273934143E+02 -0.31996799459E+03  0.33653386091E+03  0.87010991888E+02 0.  0.
          5    1    3    3  502    0  0.47420561988E+01  0.69346335805E+02 -0.15834994317E+03  0.17298432960E+03  0.41800000000E+01 0. -1.
         -5    1    3    3    0  502 -0.54215746615E+02 -0.40072401662E+02 -0.12742404777E+03  0.14422033458E+03  0.41800000000E+01 0. -1.
        -11    1    4    4    0    0  0.74475837205E+02 -0.22734746418E+02 -0.25463651618E+03  0.26627668767E+03  0.00000000000E+00 0. -1.
         11    1    4    4    0    0 -0.25002146789E+02 -0.65391877247E+01 -0.65331478409E+02  0.70257173237E+02  0.00000000000E+00 0.  1.
</event>
<event>
 8    1  0.6869405E-009  0.2877971E+03  0.7561462E-02  0.1091505E+00
         -1   -1    0    0    0  501 -0.00000000000E+00  0.00000000000E+00  0.48027881987E+02  0.48027881987E+02  0.00000000000E+00 0.  1.
          1   -1    0    0  501    0  0.00000000000E+00 -0.00000000000E+00 -0.23091148308E+04  0.23091148308E+04  0.00000000000E+00 0. -1.
         25    2    1    2    0    0 -0.20426355345E+03 -0.18980863377E+03 -0.16638533139E+04  0.16916872671E+04  0.12508814016E+03 0.  0.
         23    2    1    2    0    0  0.20426355345E+03  0.18980863377E+03 -0.59723363492E+03  0.66545544568E+03  0.91607962452E+02 0.  0.
          5    1    3    3  502    0 -0.82928454790E+02 -0.23288269056E+02 -0.74687999557E+03  0.75184218575E+03  0.41800000000E+01 0.  1.
         -5    1    3    3    0  502 -0.12133509866E+03 -0.16652036472E+03 -0.91697331832E+03  0.93984508135E+03  0.41800000000E+01 0.  1.
        -11    1    4    4    0    0  0.30179538510E+02  0.72842683455E+01 -0.13864019922E+03  0.14207381866E+03  0.00000000000E+00 0. -1.
         11    1    4    4    0    0  0.17408401494E+03  0.18252436543E+03 -0.45859343570E+03  0.52338162702E+03  0.00000000000E+00 0.  1.
</event>
<event>
 8    1  0.6869405E-009  0.9619915E+02  0.7561462E-02  0.1288498E+00
          1   -1    0    0  501    0  0.00000000000E+00  0.00000000000E+00  0.97199134592E+03  0.97199134592E+03  0.00000000000E+00 0. -1.
         -1   -1    0    0    0  501 -0.00000000000E+00 -0.00000000000E+00 -0.15021269693E+02  0.15021269693E+02  0.00000000000E+00 0.  1.
         25    2    1    2    0    0  0.77304721319E+00 -0.63270341753E+02  0.53833222286E+03  0.55628509008E+03  0.12509110889E+03 0.  0.
         23    2    1    2    0    0 -0.77304721319E+00  0.63270341753E+02  0.41863785336E+03  0.43072752553E+03  0.79150585823E+02 0.  0.
          5    1    3    3  502    0  0.60062531507E+01 -0.78095506397E+02  0.16601029630E+03  0.18360793576E+03  0.41800000000E+01 0. -1.
         -5    1    3    3    0  502 -0.52332059375E+01  0.14825164644E+02  0.37232192656E+03  0.37267715432E+03  0.41800000000E+01 0. -1.
        -11    1    4    4    0    0  0.30696955307E+02  0.58224392102E+02  0.33083091570E+03  0.33731510148E+03  0.00000000000E+00 0. -1.
         11    1    4    4    0    0 -0.31470002520E+02  0.50459496514E+01  0.87806937659E+02  0.93412424053E+02  0.00000000000E+00 0.  1.
</event>
<event>
 8    1  0.6869405E-009  0.1669434E+03  0.7561462E-02  0.1181073E+00
         -2   -1    0    0    0  501 -0.00000000000E+00  0.00000000000E+00  0.13073736702E+04  0.13073736702E+04  0.00000000000E+00 0.  1.
          2   -1    0    0  501    0  0.00000000000E+00 -0.00000000000E+00 -0.36276405630E+02  0.36276405630E+02  0.00000000000E+00 0. -1.
         25    2    1    2    0    0 -0.10040794985E+03 -0.13188587496E+03  0.93586068633E+03  0.95862309390E+03  0.12508945415E+03 0.  0.
         23    2    1    2    0    0  0.10040794985E+03  0.13188587496E+03  0.33523657827E+03  0.38502698196E+03  0.91578234398E+02 0.  0.
          5    1    3    3  502    0 -0.61436689542E+02 -0.83622555778E+02  0.26095583879E+03  0.28086050071E+03  0.41800000000E+01 0.  1.
         -5    1    3    3    0  502 -0.38971260312E+02 -0.48263319187E+02  0.67490484754E+03  0.67776259320E+03  0.41800000000E+01 0.  1.
        -11    1    4    4    0    0  0.81158930487E+02  0.86753797388E+02  0.13947894615E+03  0.18321399995E+03  0.00000000000E+00 0. -1.
         11    1    4    4    0    0  0.19249019368E+02  0.45132077577E+02  0.19575763212E+03  0.20181298201E+03  0.00000000000E+00 0.  1.
</event>
<event>
 8    1  0.6869405E-009  0.7670858E+02  0.7561462E-02  0.1338660E+00
          1   -1    0    0  501    0  0.00000000000E+00  0.00000000000E+00  0.94973723619E+02  0.94973723619E+02  0.00000000000E+00 0. -1.
         -1   -1    0    0    0  501 -0.00000000000E+00 -0.00000000000E+00 -0.14083648500E+03  0.14083648500E+03  0.00000000000E+00 0.  1.
         25    2    1    2    0    0 -0.24944317293E+02 -0.46925797084E+01 -0.63884931355E+02  0.14273595703E+03  0.12509208490E+03 0.  0.
         23    2    1    2    0    0  0.24944317293E+02  0.46925797084E+01  0.18022169978E+02  0.93074251588E+02  0.87714186016E+02 0.  0.
          5    1    3    3  502    0 -0.23276196220E+02  0.23652891927E+02  0.29773213577E+02  0.44778982276E+02  0.41800000000E+01 0.  1.
         -5    1    3    3    0  502 -0.16681210727E+01 -0.28345471636E+02 -0.93658144932E+02  0.97956974750E+02  0.41800000000E+01 0.  1.
        -11    1    4    4    0    0 -0.23879069163E+02  0.28308170298E+02  0.59074494147E+01  0.37502805339E+02  0.00000000000E+00 0.  1.
         11    1    4    4    0    0  0.48823386455E+02 -0.23615590590E+02  0.12114720564E+02  0.55571446249E+02  0.00000000000E+00 0. -1.
</event>
<event>
 8    1  0.6869405E-009  0.1197618E+03  0.7561462E-02  0.1243490E+00
         -2   -1    0    0    0  501 -0.00000000000E+00  0.00000000000E+00  0.36508762113E+02  0.36508762113E+02  0.00000000000E+00 0.  1.
          2   -1    0    0  501    0  0.00000000000E+00 -0.00000000000E+00 -0.45908299779E+03  0.45908299779E+03  0.00000000000E+00 0. -1.
         25    2    1    2    0    0  0.66763913743E+02  0.19111874306E+02 -0.26026506643E+03  0.29699749214E+03  0.12508765574E+03 0.  0.
         23    2    1    2    0    0 -0.66763913743E+02 -0.19111874306E+02 -0.16230916924E+03  0.19859426776E+03  0.90954564744E+02 0.  0.
          5    1    3    3  502    0 -0.36276204986E+02  0.15955987047E+02 -0.76033833481E+02  0.85843886239E+02  0.41800000000E+01 0.  1.
         -5    1    3    3    0  502  0.10304011873E+03  0.31558872590E+01 -0.18423123295E+03  0.21115360591E+03  0.41800000000E+01 0.  1.
        -11    1    4    4    0    0 -0.24357380357E+02  0.25282504480E+02 -0.11737751324E+03  0.12251517304E+03  0.00000000000E+00 0.  1.
         11    1    4    4    0    0 -0.42406533386E+02 -0.44394378786E+02 -0.44931656000E+02  0.76079094714E+02  0.00000000000E+00 0. -1.
</event>
<event>
 8    1  0.6869405E-009  0.1145133E+03  0.7561462E-02  0.1252433E+00
          1   -1    0    0  501    0  0.00000000000E+00  0.00000000000E+00  0.21847878486E+03  0.21847878486E+03  0.00000000000E+00 0.  1.
         -1   -1    0    0    0  501 -0.00000000000E+00 -0.00000000000E+00 -0.84578338255E+02  0.84578338255E+02  0.00000000000E+00 0. -1.
         25    2    1    2    0    0  0.36339148499E+02  0.39755594414E+02  0.27603185310E+01  0.13622308843E+03  0.12509224381E+03 0.  0.
         23    2    1    2    0    0 -0.36339148499E+02 -0.39755594414E+02  0.13114012808E+03  0.16683403469E+03  0.87947830776E+02 0.  0.
          5    1    3    3  502    0 -0.34794916360E+02 -0.13428752922E+02 -0.22538806909E+02  0.43777709241E+02  0.41800000000E+01 0.  1.
         -5    1    3    3    0  502  0.71134064859E+02  0.53184347337E+02  0.25299125440E+02  0.92445379187E+02  0.41800000000E+01 0.  1.
        -11    1    4    4    0    0 -0.28024782449E+01  0.27386078953E+02  0.27882114494E+02  0.39182438840E+02  0.00000000000E+00 0.  1.
         11    1    4    4    0    0 -0.33536670254E+02 -0.67141673367E+02  0.10325801358E+03  0.12765159585E+03  0.00000000000E+00 0. -1.
</event>
<event>
 8    1  0.6869405E-009  0.8276991E+02  0.7561462E-02  0.1321370E+00
          2   -1    0    0  501    0  0.00000000000E+00  0.00000000000E+00  0.20529143215E+03  0.20529143215E+03  0.00000000000E+00 0. -1.
         -2   -1    0    0    0  501 -0.00000000000E+00 -0.00000000000E+00 -0.65938086905E+02  0.65938086905E+02  0.00000000000E+00 0.  1.
         25    2    1    2    0    0  0.44658120207E+02 -0.20702253376E+02  0.11843261645E+03  0.17915567790E+03  0.12509013267E+03 0.  0.
         23    2    1    2    0    0 -0.44658120207E+02  0.20702253376E+02  0.20920728801E+02  0.92073841154E+02  0.74946543190E+02 0.  0.
          5    1    3    3  502    0 -0.62813227757E+01 -0.48511894542E+02  0.21672416139E+01  0.49142937072E+02  0.41800000000E+01 0.  1.
         -5    1    3    3    0  502  0.50939442982E+02  0.27809641166E+02  0.11626537483E+03  0.13001274083E+03  0.41800000000E+01 0.  1.
        -11    1    4    4    0    0 -0.28873595732E+02 -0.37888434087E+01 -0.24536622756E+02  0.38079991086E+02  0.00000000000E+00 0.  1.
         11    1    4    4    0    0 -0.15784524475E+02  0.24491096784E+02  0.45457351557E+02  0.53993850068E+02  0.00000000000E+00 0. -1.
</event>
<event>
 8    1  0.6869405E-009  0.7496363E+02  0.7561462E-02  0.1343984E+00
          1   -1    0    0  501    0  0.00000000000E+00  0.00000000000E+00  0.17648230906E+03  0.17648230906E+03  0.00000000000E+00 0. -1.
         -1   -1    0    0    0  501 -0.00000000000E+00 -0.00000000000E+00 -0.71572362056E+02  0.71572362056E+02  0.00000000000E+00 0.  1.
         25    2    1    2    0    0  0.83074029519E+01  0.76165200128E+01  0.31489952591E+02  0.12948490170E+03  0.12509076038E+03 0.  0.
         23    2    1    2    0    0 -0.83074029519E+01 -0.76165200128E+01  0.73419994417E+02  0.11856976942E+03  0.92418993285E+02 0.  0.
          5    1    3    3  502    0 -0.41418714971E+02  0.29254514791E+01  0.59033026613E+02  0.72294113504E+02  0.41800000000E+01 0. -1.
         -5    1    3    3    0  502  0.49726117923E+02  0.46910685337E+01 -0.27543074023E+02  0.57190788194E+02  0.41800000000E+01 0. -1.
        -11    1    4    4    0    0 -0.38216084582E+01 -0.32533121249E+02  0.84729734715E+02  0.90841271536E+02  0.00000000000E+00 0. -1.
         11    1    4    4    0    0 -0.44857944938E+01  0.24916601236E+02 -0.11309740299E+02  0.27728497886E+02  0.00000000000E+00 0.  1.
</event>
<event>
 8    1  0.6869405E-009  0.7884829E+02  0.7561462E-02  0.1332352E+00
          2   -1    0    0  501    0  0.00000000000E+00  0.00000000000E+00  0.10005123225E+03  0.10005123225E+03  0.00000000000E+00 0. -1.
         -2   -1    0    0    0  501 -0.00000000000E+00 -0.00000000000E+00 -0.14837333459E+03  0.14837333459E+03  0.00000000000E+00 0.  1.
         25    2    1    2    0    0 -0.45355460353E+02 -0.95194327727E+01  0.30467487034E+01  0.13343155374E+03  0.12508780705E+03 0.  0.
         23    2    1    2    0    0  0.45355460353E+02  0.95194327727E+01 -0.51368851045E+02  0.11499301311E+03  0.91852582007E+02 0.  0.
          5    1    3    3  502    0 -0.42463806962E+02 -0.40280362728E+02  0.49984933937E+02  0.77082089644E+02  0.41800000000E+01 0.  1.
         -5    1    3    3    0  502 -0.28916533906E+01  0.30760929956E+02 -0.46938185233E+02  0.56349464097E+02  0.41800000000E+01 0.  1.
        -11    1    4    4    0    0  0.55581221980E+02  0.12921273037E+02  0.52995800065E+01  0.57308961619E+02  0.00000000000E+00 0. -1.
         11    1    4    4    0    0 -0.10225761627E+02 -0.34018402640E+01 -0.56668431051E+02  0.57684051486E+02  0.00000000000E+00 0.  1.
</event>
<event>
 8    1  0.6869405E-009  0.1772175E+03  0.7561462E-02  0.1170523E+00
         -2   -1    0    0    0  501 -0.00000000000E+00  0.00000000000E+00  0.18701368659E+03  0.18701368659E+03  0.00000000000E+00 0.  1.
          2   -1    0    0  501    0  0.00000000000E+00 -0.00000000000E+00 -0.18920772878E+03  0.18920772878E+03  0.00000000000E+00 0. -1.
         25    2    1    2    0    0 -0.11116470598E+02  0.15217406428E+03  0.23689395732E+02  0.19871854628E+03  0.12508937367E+03 0.  0.
         23    2    1    2    0    0  0.11116470598E+02 -0.15217406428E+03 -0.25883437925E+02  0.17750286910E+03  0.86929824695E+02 0.  0.
          5    1    3    3  502    0  0.49319420013E+02  0.79047761608E+02  0.41535311858E+02  0.10209607405E+03  0.41800000000E+01 0.  1.
         -5    1    3    3    0  502 -0.60435890611E+02  0.73126302672E+02 -0.17845916126E+02  0.96622472225E+02  0.41800000000E+01 0.  1.
        -11    1    4    4    0    0  0.37954163341E+02 -0.10851959782E+03  0.93033353392E+01  0.11534111875E+03  0.00000000000E+00 0.  1.
         11    1    4    4    0    0 -0.26837692744E+02 -0.43654466457E+02 -0.35186773264E+02  0.62161750347E+02  0.00000000000E+00 0. -1.
</event>
<event>
 8    1  0.6869405E-009  0.1671737E+03  0.7561462E-02  0.1180828E+00
          2   -1    0    0  501    0  0.00000000000E+00  0.00000000000E+00  0.67470974595E+03  0.67470974595E+03  0.00000000000E+00 0.  1.
         -2   -1    0    0    0  501 -0.00000000000E+00 -0.00000000000E+00 -0.47098137275E+02  0.47098137275E+02  0.00000000000E+00 0. -1.
         25    2    1    2    0    0  0.78802640297E+02 -0.11602842953E+03  0.36061784475E+03  0.40665117374E+03  0.12508994594E+03 0.  0.
         23    2    1    2    0    0 -0.78802640297E+02  0.11602842953E+03  0.26699376392E+03  0.31515670948E+03  0.91463812413E+02 0.  0.
          5    1    3    3  502    0 -0.17795129040E+02  0.87253614769E+01  0.99470163815E+02  0.10151149905E+03  0.41800000000E+01 0. -1.
         -5    1    3    3    0  502  0.96597769337E+02 -0.12475379100E+03  0.26114768094E+03  0.30513967469E+03  0.41800000000E+01 0. -1.
        -11    1    4    4    0    0 -0.87747497822E+02  0.78695246779E+02  0.14277598036E+03  0.18514196123E+03  0.00000000000E+00 0.  1.
         11    1    4    4    0    0  0.89448575257E+01  0.37333182749E+02  0.12421778356E+03  0.13001474825E+03  0.00000000000E+00 0. -1.
</event>
<event>
 8    1  0.6869405E-009  0.1252001E+03  0.7561462E-02  0.1234757E+00
          4   -1    0    0  501    0  0.00000000000E+00  0.00000000000E+00  0.16979027247E+03  0.16979027247E+03  0.00000000000E+00 0. -1.
         -4   -1    0    0    0  501 -0.00000000000E+00 -0.00000000000E+00 -0.14789295400E+03  0.14789295400E+03  0.00000000000E+00 0.  1.
         25    2    1    2    0    0  0.25934569122E+02  0.83098210432E+02  0.87099509256E+02  0.17553320811E+03  0.12509063987E+03 0.  0.
         23    2    1    2    0    0 -0.25934569122E+02 -0.83098210432E+02 -0.65202190779E+02  0.14215001836E+03  0.91528069925E+02 0.  0.
          5    1    3    3  502    0 -0.46812500603E+02  0.45832346170E+02  0.61042390186E+02  0.89641842729E+02  0.41800000000E+01 0. -1.
         -5    1    3    3    0  502  0.72747069725E+02  0.37265864262E+02  0.26057119070E+02  0.85891365381E+02  0.41800000000E+01 0. -1.
        -11    1    4    4    0    0  0.15174310629E+02 -0.76598353800E+01  0.16429331327E+02  0.23640129208E+02  0.00000000000E+00 0. -1.
         11    1    4    4    0    0 -0.41108879751E+02 -0.75438375052E+02 -0.81631522106E+02  0.11850988915E+03  0.00000000000E+00 0.  1.
</event>
<event>
 8    1  0.6869405E-009  0.8858623E+02  0.7561462E-02  0.1306312E+00
          1   -1    0    0  501    0  0.00000000000E+00  0.00000000000E+00  0.30874361739E+03  0.30874361739E+03  0.00000000000E+00 0. -1.
         -1   -1    0    0    0  501 -0.00000000000E+00 -0.00000000000E+00 -0.47749192747E+02  0.47749192747E+02  0.00000000000E+00 0.  1.
         25    2    1    2    0    0 -0.10163439305E+02 -0.17549997065E+02  0.69203583080E+02  0.14439151128E+03  0.12509386365E+03 0.  0.
         23    2    1    2    0    0  0.10163439305E+02  0.17549997065E+02  0.19179084157E+03  0.21210129886E+03  0.88271944432E+02 0.  0.
          5    1    3    3  502    0 -0.28732941883E+02  0.33383588110E+02  0.77645278226E+02  0.89366143115E+02  0.41800000000E+01 0. -1.
         -5    1    3    3    0  502  0.18569502578E+02 -0.50933585175E+02 -0.84416951462E+01  0.55025368166E+02  0.41800000000E+01 0. -1.
        -11    1    4    4    0    0 -0.33202380721E+02  0.78008827556E+01  0.33957055222E+02  0.48128302034E+02  0.00000000000E+00 0.  1.
         11    1    4    4    0    0  0.43365820026E+02  0.97491143095E+01  0.15783378634E+03  0.16397299683E+03  0.00000000000E+00 0. -1.
</event>
<event>
 8    1  0.6869405E-009  0.3839228E+03  0.7561462E-02  0.1049493E+00
          2   -1    0    0  501    0  0.00000000000E+00  0.00000000000E+00  0.20052024315E+04  0.20052024315E+04  0.00000000000E+00 0.  1.
         -2   -1    0    0    0  501 -0.00000000000E+00 -0.00000000000E+00 -0.79550092126E+02  0.79550092126E+02  0.00000000000E+00 0. -1.
         25    2    1    2    0    0 -0.33868607979E+03 -0.17657528776E+03  0.86192289500E+03  0.95102335780E+03  0.12508899736E+03 0.  0.
         23    2    1    2    0    0  0.33868607979E+03  0.17657528776E+03  0.10637294443E+04  0.11337291658E+04  0.89075236314E+02 0.  0.
          5    1    3    3  502    0 -0.54060818930E+02 -0.83486237487E+01  0.24511740784E+03  0.25118178215E+03  0.41800000000E+01 0. -1.
         -5    1    3    3    0  502 -0.28462526086E+03 -0.16822666401E+03  0.61680548717E+03  0.69984157565E+03  0.41800000000E+01 0. -1.
        -11    1    4    4    0    0  0.17266070248E+03  0.99657747597E+02  0.67975477620E+03  0.70838544635E+03  0.00000000000E+00 0.  1.
         11    1    4    4    0    0  0.16602537731E+03  0.76917540160E+02  0.38397466815E+03  0.42534371945E+03  0.00000000000E+00 0. -1.
</event>
<event>
 8    1  0.6869405E-009  0.2047951E+03  0.7561462E-02  0.1145755E+00
         -2   -1    0    0    0  501 -0.00000000000E+00  0.00000000000E+00  0.70866790486E+02  0.70866790486E+02  0.00000000000E+00 0.  1.
          2   -1    0    0  501    0  0.00000000000E+00 -0.00000000000E+00 -0.91450806669E+03  0.91450806669E+03  0.00000000000E+00 0. -1.
         25    2    1    2    0    0 -0.13344113987E+03 -0.11221315571E+03 -0.72487814132E+03  0.75597181233E+03  0.12508689442E+03 0.  0.
         23    2    1    2    0    0  0.13344113987E+03  0.11221315571E+03 -0.11876313489E+03  0.22940304485E+03  0.90126270597E+02 0.  0.
          5    1    3    3  502    0 -0.13162214236E+03 -0.34911923178E+02 -0.42793399768E+03  0.44909710477E+03  0.41800000000E+01 0. -1.
         -5    1    3    3    0  502 -0.18189975113E+01 -0.77301232527E+02 -0.29694414364E+03  0.30687470757E+03  0.41800000000E+01 0. -1.
        -11    1    4    4    0    0  0.59272663989E+02 -0.24884837228E+01 -0.42346973421E+02  0.72888321462E+02  0.00000000000E+00 0.  1.
         11    1    4    4    0    0  0.74168475886E+02  0.11470163943E+03 -0.76416161467E+02  0.15651472338E+03  0.00000000000E+00 0. -1.
</event>
<event>
 8    1  0.6869405E-009  0.8981063E+02  0.7561462E-02  0.1303311E+00
          3   -1    0    0  501    0  0.00000000000E+00  0.00000000000E+00  0.11356210224E+03  0.11356210224E+03  0.00000000000E+00 0. -1.
         -3   -1    0    0    0  501 -0.00000000000E+00 -0.00000000000E+00 -0.11751514731E+03  0.11751514731E+03  0.00000000000E+00 0.  1.
         25    2    1    2    0    0 -0.20509813280E+02 -0.31155537981E+02 -0.27051545507E+02  0.13330636026E+03  0.12508988601E+03 0.  0.
         23    2    1    2    0    0  0.20509813280E+02  0.31155537981E+02  0.23098500443E+02  0.97770889290E+02  0.87374401755E+02 0.  0.
          5    1    3    3  502    0  0.11839453586E+02  0.39395018084E+02  0.16140014719E+02  0.44385950324E+02  0.41800000000E+01 0. -1.
         -5    1    3    3    0  502 -0.32349266866E+02 -0.70550556065E+02 -0.43191560226E+02  0.88920409933E+02  0.41800000000E+01 0. -1.
        -11    1    4    4    0    0 -0.15046373738E+02  0.15797986686E+02  0.47307834937E+02  0.52096074635E+02  0.00000000000E+00 0. -1.
         11    1    4    4    0    0  0.35556187018E+02  0.15357551295E+02 -0.24209334494E+02  0.45674814654E+02  0.00000000000E+00 0.  1.
</event>
<event>
 8    1  0.6869405E-009  0.1097883E+03  0.7561462E-02  0.1260962E+00
         -1   -1    0    0    0  501 -0.00000000000E+00  0.00000000000E+00  0.12419338020E+03  0.12419338020E+03  0.00000000000E+00 0.  1.
          1   -1    0    0  501    0  0.00000000000E+00 -0.00000000000E+00 -0.22762912906E+03  0.22762912906E+03  0.00000000000E+00 0. -1.
         25    2    1    2    0    0 -0.23736844478E+02  0.88271964740E+00 -0.18719236760E+03  0.22639174751E+03  0.12509206158E+03 0.  0.
         23    2    1    2    0    0  0.23736844478E+02 -0.88271964740E+00  0.83756618747E+02  0.12543076175E+03  0.90296665661E+02 0.  0.
          5    1    3    3  502    0  0.15689501580E+02  0.56273803631E+02 -0.97913489579E+02  0.11409393181E+03  0.41800000000E+01 0. -1.
         -5    1    3    3    0  502 -0.39426346058E+02 -0.55391083984E+02 -0.89278878023E+02  0.11229781569E+03  0.41800000000E+01 0. -1.
        -11    1    4    4    0    0  0.46599990245E+02 -0.30335446296E+02  0.43828091091E+02  0.70800423456E+02  0.00000000000E+00 0.  1.
         11    1    4    4    0    0 -0.22863145766E+02  0.29452726649E+02  0.39928527656E+02  0.54630338294E+02  0.00000000000E+00 0. -1.
</event>
<event>
 8    1  0.6869405E-009  0.1336985E+03  0.7561462E-02  0.1222069E+00
          4   -1    0    0  501    0  0.00000000000E+00  0.00000000000E+00  0.16372316591E+03  0.16372316591E+03  0.00000000000E+00 0. -1.
         -4   -1    0    0    0  501 -0.00000000000E+00 -0.00000000000E+00 -0.11960632823E+03  0.11960632823E+03  0.00000000000E+00 0.  1.
         25    2    1    2    0    0 -0.32264899081E+01 -0.92816493273E+02  0.27494180508E+02  0.15820394451E+03  0.12508895409E+03 0.  0.
         23    2    1    2    0    0  0.32264899081E+01  0.92816493273E+02  0.16622657175E+02  0.12512554963E+03  0.82187461196E+02 0.  0.
          5    1    3    3  502    0  0.51616577099E+02 -0.28574362380E+02  0.41807601291E+02  0.72430056900E+02  0.41800000000E+01 0.  1.
         -5    1    3    3    0  502 -0.54843067008E+02 -0.64242130893E+02 -0.14313420783E+02  0.85773887606E+02  0.41800000000E+01 0.  1.
        -11    1    4    4    0    0  0.32950609892E+02  0.81445443457E+01  0.86953688730E+01  0.35038346632E+02  0.00000000000E+00 0. -1.
         11    1    4    4    0    0 -0.29724119984E+02  0.84671948927E+02  0.79272883023E+01  0.90087202997E+02  0.00000000000E+00 0.  1.
</event>
<event>
 8    1  0.6869405E-009  0.7224641E+02  0.7561462E-02  0.1352616E+00
          1   -1    0    0  501    0  0.00000000000E+00  0.00000000000E+00  0.80511163581E+02  0.80511163581E+02  0.00000000000E+00 0. -1.
         -1   -1    0    0    0  501 -0.00000000000E+00 -0.00000000000E+00 -0.23684992779E+03  0.23684992779E+03  0.00000000000E+00 0.  1.
         25    2    1    2    0    0 -0.39648603308E+02 -0.41790879662E+02 -0.15811115969E+03  0.20967779136E+03  0.12508856064E+03 0.  0.
         23    2    1    2    0    0  0.39648603308E+02  0.41790879662E+02  0.17723954773E+01  0.10768330002E+03  0.90961873056E+02 0.  0.
          5    1    3    3  502    0  0.78800973491E+00 -0.15153301329E+02 -0.16025742871E+03  0.16102844270E+03  0.41800000000E+01 0. -1.
         -5    1    3    3    0  502 -0.40436613043E+02 -0.26637578332E+02  0.21462690257E+01  0.48649348655E+02  0.41800000000E+01 0. -1.
        -11    1    4    4    0    0  0.36565706339E+02  0.55299761465E+02 -0.30190467694E+02  0.72846268523E+02  0.00000000000E+00 0.  1.
         11    1    4    4    0    0  0.30828969693E+01 -0.13508881804E+02  0.31962863171E+02  0.34837031495E+02  0.00000000000E+00 0. -1.
</event>
<event>
 8    1  0.6869405E-009  0.1116101E+03  0.7561462E-02  0.1257617E+00
         -1   -1    0    0    0  501 -0.00000000000E+00  0.00000000000E+00  0.27309248329E+02  0.27309248329E+02  0.00000000000E+00 0.  1.
          1   -1    0    0  501    0  0.00000000000E+00 -0.00000000000E+00 -0.46804160533E+03  0.46804160533E+03  0.00000000000E+00 0. -1.
         25    2    1    2    0    0 -0.12889405176E+02 -0.25536274784E+02 -0.28911162284E+03  0.31630702885E+03  0.12508544257E+03 0.  0.
         23    2    1    2    0    0  0.12889405176E+02  0.25536274784E+02 -0.15162073416E+03  0.17904382481E+03  0.90827342138E+02 0.  0.
          5    1    3    3  502    0 -0.66460117504E+02 -0.32312157125E+02 -0.17416172019E+03  0.18923741675E+03  0.41800000000E+01 0.  1.
         -5    1    3    3    0  502  0.53570712328E+02  0.67758823417E+01 -0.11494990264E+03  0.12706961210E+03  0.41800000000E+01 0.  1.
        -11    1    4    4    0    0 -0.37732174222E+02  0.23355888428E+02 -0.65307056816E+02  0.78957115992E+02  0.00000000000E+00 0.  1.
         11    1    4    4    0    0  0.50621579398E+02  0.21803863552E+01 -0.86313677342E+02  0.10008670882E+03  0.00000000000E+00 0. -1.
</event>
<event>
 8    1  0.6869405E-009  0.2023873E+03  0.7561462E-02  0.1147740E+00
          1   -1    0    0  501    0  0.00000000000E+00  0.00000000000E+00  0.32593492729E+03  0.32593492729E+03  0.00000000000E+00 0. -1.
         -1   -1    0    0    0  501 -0.00000000000E+00 -0.00000000000E+00 -0.17411182623E+03  0.17411182623E+03  0.00000000000E+00 0.  1.
         25    2    1    2    0    0 -0.18428451228E+03 -0.64985693701E+02 -0.72351118257E+01  0.23212384531E+03  0.12508081735E+03 0.  0.
         23    2    1    2    0    0  0.18428451228E+03  0.64985693701E+02  0.15905821289E+03  0.26792290821E+03  0.91100207507E+02 0.  0.
          5    1    3    3  502    0 -0.18519546286E+03 -0.58023445549E+02 -0.40136098807E+02  0.19822325424E+03  0.41800000000E+01 0. -1.
         -5    1    3    3    0  502  0.91095057921E+00 -0.69622481512E+01  0.32900986981E+02  0.33900591066E+02  0.41800000000E+01 0. -1.
        -11    1    4    4    0    0  0.12452245965E+03  0.16665019153E+02  0.51613614087E+02  0.13582168818E+03  0.00000000000E+00 0.  1.
         11    1    4    4    0    0  0.59762052624E+02  0.48320674548E+02  0.10744459880E+03  0.13210122003E+03  0.00000000000E+00 0. -1.
</event>
<event>
 8    1  0.6869405E-009  0.1518913E+03  0.7561462E-02  0.1198168E+00
          3   -1    0    0  501    0  0.00000000000E+00  0.00000000000E+00  0.11133241090E+03  0.11133241090E+03  0.00000000000E+00 0. -1.
         -3   -1    0    0    0  501 -0.00000000000E+00 -0.00000000000E+00 -0.24155383619E+03  0.24155383619E+03  0.00000000000E+00 0.  1.
         25    2    1    2    0    0 -0.14296720247E+01 -0.11879781694E+03 -0.31306831490E+02  0.17533567239E+03  0.12509002775E+03 0.  0.
         23    2    1    2    0    0  0.14296720247E+01  0.11879781694E+03 -0.98914593801E+02  0.17755057470E+03  0.87322073033E+02 0.  0.
          5    1    3    3  502    0  0.50404954825E+02 -0.59702073393E+02  0.20762998881E+02  0.80954132451E+02  0.41800000000E+01 0. -1.
         -5    1    3    3    0  502 -0.51834626850E+02 -0.59095743545E+02 -0.52069830371E+02  0.94381539936E+02  0.41800000000E+01 0. -1.
        -11    1    4    4    0    0  0.31948225257E+02  0.94874780624E+01 -0.15816358091E+02  0.36889815943E+02  0.00000000000E+00 0. -1.
         11    1    4    4    0    0 -0.30518553232E+02  0.10931033887E+03 -0.83098235709E+02  0.14066075876E+03  0.00000000000E+00 0.  1.
</event>
<event>
 8    1  0.6869405E-009  0.8641008E+02  0.7561462E-02  0.1311786E+00
         -2   -1    0    0    0  501 -0.00000000000E+00  0.00000000000E+00  0.25586862540E+02  0.25586862540E+02  0.00000000000E+00 0.  1.
          2   -1    0    0  501    0  0.00000000000E+00 -0.00000000000E+00 -0.52931343162E+03  0.52931343162E+03  0.00000000000E+00 0. -1.
         25    2    1    2    0    0  0.20688505556E+02 -0.38838451129E+02 -0.28127952018E+03  0.31097011023E+03  0.12509117247E+03 0.  0.
         23    2    1    2    0    0 -0.20688505556E+02  0.38838451129E+02 -0.22244704890E+03  0.24393018394E+03  0.89904424384E+02 0.  0.
          5    1    3    3  502    0  0.36562583116E+02 -0.43254932580E+02 -0.40890568327E+02  0.69980873492E+02  0.41800000000E+01 0. -1.
         -5    1    3    3    0  502 -0.15874077560E+02  0.44164814506E+01 -0.24038895186E+03  0.24098923673E+03  0.41800000000E+01 0. -1.
        -11    1    4    4    0    0 -0.46934928127E+02  0.51678434682E+02 -0.13961591456E+03  0.15609661011E+03  0.00000000000E+00 0.  1.
         11    1    4    4    0    0  0.26246422571E+02 -0.12839983553E+02 -0.82831134337E+02  0.87833573825E+02  0.00000000000E+00 0. -1.
</event>
<event>
 8    1  0.6869405E-009  0.4470640E+03  0.7561462E-02  0.1028601E+00
         -2   -1    0    0    0  501 -0.00000000000E+00  0.00000000000E+00  0.43271296101E+03  0.43271296101E+03  0.00000000000E+00 0.  1.
          2   -1    0    0  501    0  0.00000000000E+00 -0.00000000000E+00 -0.49275192863E+03  0.49275192863E+03  0.00000000000E+00 0. -1.
         25    2    1    2    0    0  0.34307843832E+03  0.27446867622E+03  0.61815031242E+02  0.46098119462E+03  0.12508674846E+03 0.  0.
         23    2    1    2    0    0 -0.34307843832E+03 -0.27446867622E+03 -0.12185399886E+03  0.46448369503E+03  0.88661360490E+02 0.  0.
          5    1    3    3  502    0  0.26376840574E+03  0.26051869783E+03  0.22948574567E+02  0.37146719002E+03  0.41800000000E+01 0.  1.
         -5    1    3    3    0  502  0.79310032579E+02  0.13949978386E+02  0.38866456675E+02  0.89514004598E+02  0.41800000000E+01 0.  1.
        -11    1    4    4    0    0 -0.10562893118E+03 -0.11797874634E+03 -0.92591382918E+01  0.15862593524E+03  0.00000000000E+00 0.  1.
         11    1    4    4    0    0 -0.23744950714E+03 -0.15648992988E+03 -0.11259486056E+03  0.30585775978E+03  0.00000000000E+00 0. -1.
</event>
<event>
 8    1  0.6869405E-009  0.1138982E+03  0.7561462E-02  0.1253517E+00
          1   -1    0    0  501    0  0.00000000000E+00  0.00000000000E+00  0.20157429497E+03  0.20157429497E+03  0.00000000000E+00 0. -1.
         -1   -1    0    0    0  501 -0.00000000000E+00 -0.00000000000E+00 -0.17521727360E+03  0.17521727360E+03  0.00000000000E+00 0.  1.
         25    2    1    2    0    0  0.90003407202E+01  0.40833207888E+02  0.16189629424E+03  0.20882083713E+03  0.12508946770E+03 0.  0.
         23    2    1    2    0    0 -0.90003407202E+01 -0.40833207888E+02 -0.13553927287E+03  0.16797073144E+03  0.89971746285E+02 0.  0.
          5    1    3    3  502    0  0.66048001430E+02  0.15594871441E+02  0.99317691484E+02  0.12036201540E+03  0.41800000000E+01 0.  1.
         -5    1    3    3    0  502 -0.57047660710E+02  0.25238336447E+02  0.62578602757E+02  0.88458821731E+02  0.41800000000E+01 0.  1.
        -11    1    4    4    0    0 -0.23475482351E+02  0.22379559478E+02 -0.61641614938E+02  0.69653654938E+02  0.00000000000E+00 0.  1.
         11    1    4    4    0    0  0.14475141631E+02 -0.63212767366E+02 -0.73897657932E+02  0.98317076499E+02  0.00000000000E+00 0. -1.
</event>
<event>
 8    1  0.6869405E-009  0.1756026E+03  0.7561462E-02  0.1172128E+00
         -1   -1    0    0    0  501 -0.00000000000E+00  0.00000000000E+00  0.78958526461E+03  0.78958526461E+03  0.00000000000E+00 0.  1.
          1   -1    0    0  501    0  0.00000000000E+00 -0.00000000000E+00 -0.45488118031E+02  0.45488118031E+02  0.00000000000E+00 0. -1.
         25    2    1    2    0    0 -0.10221787304E+03 -0.11655646962E+03  0.41466984426E+03  0.46003542916E+03  0.12509041595E+03 0.  0.
         23    2    1    2    0    0  0.10221787304E+03  0.11655646962E+03  0.32942730232E+03  0.37503795348E+03  0.89984525663E+02 0.  0.
          5    1    3    3  502    0 -0.10924144605E+03 -0.80587903854E+02  0.19710346870E+03  0.23936447847E+03  0.41800000000E+01 0. -1.
         -5    1    3    3    0  502  0.70235730083E+01 -0.35968565771E+02  0.21756637557E+03  0.22067095069E+03  0.41800000000E+01 0. -1.
        -11    1    4    4    0    0 -0.15492055958E+02  0.24869584952E+02  0.67699895011E+02  0.73768393218E+02  0.00000000000E+00 0. -1.
         11    1    4    4    0    0  0.11770992900E+03  0.91686884673E+02  0.26172740731E+03  0.30126956026E+03  0.00000000000E+00 0.  1.
</event>
<event>
 8    1  0.6869405E-009  0.1000754E+03  0.7561462E-02  0.1280138E+00
         -3   -1    0    0    0  501 -0.00000000000E+00  0.00000000000E+00  0.38216453626E+02  0.38216453626E+02  0.00000000000E+00 0.  1.
          3   -1    0    0  501    0  0.00000000000E+00 -0.00000000000E+00 -0.42580400744E+03  0.42580400744E+03  0.00000000000E+00 0. -1.
         25    2    1    2    0    0 -0.57141353851E+02 -0.29824947800E+02 -0.24530382279E+03  0.28279976855E+03  0.12508829597E+03 0.  0.
         23    2    1    2    0    0  0.57141353851E+02  0.29824947800E+02 -0.14228373102E+03  0.18122069251E+03  0.91878275173E+02 0.  0.
          5    1    3    3  502    0  0.49384721523E+00  0.32186099860E+02 -0.15729934666E+03  0.16061365374E+03  0.41800000000E+01 0.  1.
         -5    1    3    3    0  502 -0.57635201066E+02 -0.62011047660E+02 -0.88004476133E+02  0.12218611481E+03  0.41800000000E+01 0.  1.
        -11    1    4    4    0    0  0.26155391115E+02 -0.13679700689E+02 -0.29480778330E+00  0.29518224997E+02  0.00000000000E+00 0.  1.
         11    1    4    4    0    0  0.30985962736E+02  0.43504648490E+02 -0.14198892324E+03  0.15170246751E+03  0.00000000000E+00 0. -1.
</event>
<event>
 8    1  0.6869405E-009  0.1098898E+03  0.7561462E-02  0.1260774E+00
          1   -1    0    0  501    0  0.00000000000E+00  0.00000000000E+00  0.80234348396E+03  0.80234348396E+03  0.00000000000E+00 0. -1.
         -1   -1    0    0    0  501 -0.00000000000E+00 -0.00000000000E+00 -0.51146583704E+02  0.51146583704E+02  0.00000000000E+00 0.  1.
         25    2    1    2    0    0 -0.68326568870E+02  0.35630248602E+02  0.71174626973E+03  0.72675052598E+03  0.12508213264E+03 0.  0.
         23    2    1    2    0    0  0.68326568870E+02 -0.35630248602E+02  0.39450630522E+02  0.12673954168E+03  0.92566325130E+02 0.  0.
          5    1    3    3  502    0 -0.32163578782E+02 -0.26630969167E+02  0.75084266225E+02  0.86016415605E+02  0.41800000000E+01 0.  1.
         -5    1    3    3    0  502 -0.36162990087E+02  0.62261217769E+02  0.63666200351E+03  0.64073411038E+03  0.41800000000E+01 0.  1.
        -11    1    4    4    0    0  0.41354272634E+02  0.18429924693E+02  0.47697613325E+02  0.65763974228E+02  0.00000000000E+00 0. -1.
         11    1    4    4    0    0  0.26972296236E+02 -0.54060173295E+02 -0.82469828036E+01  0.60975567453E+02  0.00000000000E+00 0.  1.
</event>
<event>
 8    1  0.6869405E-009  0.1531399E+03  0.7561462E-02  0.1196667E+00
          1   -1    0    0  501    0  0.00000000000E+00  0.00000000000E+00  0.14797625239E+04  0.14797625239E+04  0.00000000000E+00 0. -1.
         -1   -1    0    0    0  501 -0.00000000000E+00 -0.00000000000E+00 -0.18465666758E+02  0.18465666758E+02  0.00000000000E+00 0.  1.
         25    2    1    2    0    0 -0.11620305586E+03 -0.33258273511E+02  0.89863126365E+03  0.91531066691E+03  0.12508479528E+03 0.  0.
         23    2    1    2    0    0  0.11620305586E+03  0.33258273511E+02  0.56266559350E+03  0.58291752376E+03  0.92687682249E+02 0.  0.
          5    1    3    3  502    0  0.20179884612E+02  0.41167704447E+01  0.27645842373E+03  0.27725603328E+03  0.41800000000E+01 0.  1.
         -5    1    3    3    0  502 -0.13638294047E+03 -0.37375043955E+02  0.62217283992E+03  0.63805463363E+03  0.41800000000E+01 0.  1.
        -11    1    4    4    0    0  0.36966867100E+02 -0.25703310709E+02  0.97667773935E+02  0.10754628543E+03  0.00000000000E+00 0.  1.
         11    1    4    4    0    0  0.79236188759E+02  0.58961584219E+02  0.46499781957E+03  0.47537123833E+03  0.00000000000E+00 0. -1.
</event>
<event>
 8    1  0.6869405E-009  0.1052422E+03  0.7561462E-02  0.1269643E+00
          2   -1    0    0  501    0  0.00000000000E+00  0.00000000000E+00  0.14128883045E+04  0.14128883045E+04  0.00000000000E+00 0. -1.
         -2   -1    0    0    0  501 -0.00000000000E+00 -0.00000000000E+00 -0.19128552421E+02  0.19128552421E+02  0.00000000000E+00 0.  1.
         25    2    1    2    0    0  0.62377558489E+02  0.37588121083E+02  0.11838965869E+04  0.11927121037E+04  0.12508879746E+03 0.  0.
         23    2    1    2    0    0 -0.62377558489E+02 -0.37588121083E+02  0.20986316520E+03  0.23930475321E+03  0.88996573835E+02 0.  0.
          5    1    3    3  502    0  0.64170550055E+02  0.69231949389E+02  0.10770100688E+04  0.10811471144E+04  0.41800000000E+01 0.  1.
         -5    1    3    3    0  502 -0.17929915667E+01 -0.31643828307E+02  0.10688651813E+03  0.11156498934E+03  0.41800000000E+01 0.  1.
        -11    1    4    4    0    0  0.54323982283E+00 -0.18167260527E+02 -0.11930046880E+01  0.18214492163E+02  0.00000000000E+00 0.  1.
         11    1    4    4    0    0 -0.62920798312E+02 -0.19420860556E+02  0.21105616988E+03  0.22109026105E+03  0.00000000000E+00 0. -1.
</event>
<event>
 8    1  0.6869405E-009  0.9803882E+02  0.7561462E-02  0.1284475E+00
         -2   -1    0    0    0  501 -0.00000000000E+00  0.00000000000E+00  0.12488911535E+03  0.12488911535E+03  0.00000000000E+00 0. -1.
          2   -1    0    0  501    0  0.00000000000E+00 -0.00000000000E+00 -0.16639192431E+03  0.16639192431E+03  0.00000000000E+00 0.  1.
         25    2    1    2    0    0 -0.40549808527E+02 -0.16198384645E+02 -0.10822698679E+03  0.17108560728E+03  0.12510207717E+03 0.  0.
         23    2    1    2    0    0  0.40549808527E+02  0.16198384645E+02  0.66724177839E+02  0.12019543238E+03  0.89934150463E+02 0.  0.
          5    1    3    3  502    0  0.53217816376E+00  0.32651807384E+02 -0.10157293866E+03  0.10677526870E+03  0.41800000000E+01 0.  1.
         -5    1    3    3    0  502 -0.41081986691E+02 -0.48850192029E+02 -0.66540481352E+01  0.64310338580E+02  0.41800000000E+01 0.  1.
        -11    1    4    4    0    0 -0.28513360481E+02  0.81755811528E+01  0.27052719153E+02  0.40146001877E+02  0.00000000000E+00 0.  1.
         11    1    4    4    0    0  0.69063169008E+02  0.80228034918E+01  0.39671458685E+02  0.80049430501E+02  0.00000000000E+00 0. -1.
</event>
<event>
 8    1  0.6869405E-009  0.1093218E+03  0.7561462E-02  0.1261831E+00
         -2   -1    0    0    0  501 -0.00000000000E+00  0.00000000000E+00  0.21064547533E+02  0.21064547533E+02  0.00000000000E+00 0.  1.
          2   -1    0    0  501    0  0.00000000000E+00 -0.00000000000E+00 -0.92610383905E+03  0.92610383905E+03  0.00000000000E+00 0. -1.
         25    2    1    2    0    0 -0.21169498903E+02  0.82142206526E+02 -0.54797222422E+03  0.56843108428E+03  0.12507937193E+03 0.  0.
         23    2    1    2    0    0  0.21169498903E+02 -0.82142206526E+02 -0.35706706730E+03  0.37873730230E+03  0.93539103220E+02 0.  0.
          5    1    3    3  502    0  0.24705099894E+01  0.58517538271E+02 -0.52353669987E+03  0.52681928042E+03  0.41800000000E+01 0.  1.
         -5    1    3    3    0  502 -0.23640008892E+02  0.23624668255E+02 -0.24435524345E+02  0.41611803861E+02  0.41800000000E+01 0.  1.
        -11    1    4    4    0    0 -0.35923742337E+02 -0.17376803873E+02 -0.10904365869E+03  0.11611626965E+03  0.00000000000E+00 0.  1.
         11    1    4    4    0    0  0.57093241240E+02 -0.64765402653E+02 -0.24802340861E+03  0.26262103266E+03  0.00000000000E+00 0. -1.
</event>
<event>
 8    1  0.6869405E-009  0.1094398E+03  0.7561462E-02  0.1261611E+00
          1   -1    0    0  501    0  0.00000000000E+00  0.00000000000E+00  0.25586706878E+03  0.25586706878E+03  0.00000000000E+00 0. -1.
         -1   -1    0    0    0  501 -0.00000000000E+00 -0.00000000000E+00 -0.81005901152E+02  0.81005901152E+02  0.00000000000E+00 0.  1.
         25    2    1    2    0    0 -0.61578312430E+02  0.42555517917E+00  0.95973486453E+01  0.13975611476E+03  0.12509033876E+03 0.  0.
         23    2    1    2    0    0  0.61578312430E+02 -0.42555517917E+00  0.16526381898E+03  0.19711685518E+03  0.88038940651E+02 0.  0.
          5    1    3    3  502    0  0.23878583080E+02 -0.34879066895E+02 -0.13112617033E+02  0.44453899298E+02  0.41800000000E+01 0.  1.
         -5    1    3    3    0  502 -0.85456895509E+02  0.35304622074E+02  0.22709965678E+02  0.95302215457E+02  0.41800000000E+01 0.  1.
        -11    1    4    4    0    0  0.14194434183E+02 -0.26279955107E+02  0.81078630735E+01  0.30949239827E+02  0.00000000000E+00 0.  1.
         11    1    4    4    0    0  0.47383878246E+02  0.25854399928E+02  0.15715595591E+03  0.16616761535E+03  0.00000000000E+00 0. -1.
</event>
<event>
 7    1  0.6869405E-009  0.8962471E+02  0.7561462E-02  0.1303763E+00
         -3   -1    0    0    0  501 -0.00000000000E+00  0.00000000000E+00  0.21787316374E+03  0.21787316374E+03  0.00000000000E+00 0.  1.
          3   -1    0    0  501    0  0.00000000000E+00 -0.00000000000E+00 -0.61248850444E+02  0.61248850444E+02  0.00000000000E+00 0. -1.
         23    2    1    2    0    0  0.29976064450E+02 -0.60140022763E+00  0.10237592409E+03  0.13944591346E+03  0.89807610066E+02 0.  0.
          5    1    1    2  502    0  0.21683396932E+02  0.46173867573E+02  0.48351849768E+02  0.70410010121E+02  0.41800000000E+01 0.  1.
         -5    1    1    2    0  502 -0.51659461382E+02 -0.45572467346E+02  0.58965394428E+01  0.69266090605E+02  0.41800000000E+01 0.  1.
        -11    1    3    3    0    0  0.87834750303E+01 -0.25139159179E+02 -0.51632584802E+01  0.27125375499E+02  0.00000000000E+00 0. -1.
         11    1    3    3    0    0  0.21192589420E+02  0.24537758951E+02  0.10753918257E+03  0.11232053796E+03  0.00000000000E+00 0.  1.
</event>
<event>
 8    1  0.6869405E-009  0.1282181E+03  0.7561462E-02  0.1230124E+00
         -1   -1    0    0    0  501 -0.00000000000E+00  0.00000000000E+00  0.15059646090E+02  0.15059646090E+02  0.00000000000E+00 0.  1.
          1   -1    0    0  501    0  0.00000000000E+00 -0.00000000000E+00 -0.17038775269E+04  0.17038775269E+04  0.00000000000E+00 0. -1.
         25    2    1    2    0    0 -0.58890436734E+02 -0.59416479516E+02 -0.13457437216E+04  0.13541316274E+04  0.12509155997E+03 0.  0.
         23    2    1    2    0    0  0.58890436734E+02  0.59416479516E+02 -0.34307415924E+03  0.36480554567E+03  0.91568585442E+02 0.  0.
          5    1    3    3  502    0 -0.95671113601E+01 -0.83347355041E+02 -0.10474858246E+04  0.10508483889E+04  0.41800000000E+01 0.  1.
         -5    1    3    3    0  502 -0.49323325374E+02  0.23930875524E+02 -0.29825789700E+03  0.30328323850E+03  0.41800000000E+01 0. -1.
        -11    1    4    4    0    0  0.27607188202E+02  0.76839412595E+02 -0.17713408543E+03  0.19504598532E+03  0.00000000000E+00 0.  1.
         11    1    4    4    0    0  0.31283248532E+02 -0.17422933078E+02 -0.16594007381E+03  0.16975956035E+03  0.00000000000E+00 0. -1.
</event>
<event>
 8    1  0.6869405E-009  0.6877801E+02  0.7561462E-02  0.1364298E+00
          2   -1    0    0  501    0  0.00000000000E+00  0.00000000000E+00  0.66406282479E+03  0.66406282479E+03  0.00000000000E+00 0. -1.
         -2   -1    0    0    0  501 -0.00000000000E+00 -0.00000000000E+00 -0.24681468307E+02  0.24681468307E+02  0.00000000000E+00 0.  1.
         25    2    1    2    0    0 -0.80899739624E+01  0.16928495925E+02  0.52580369290E+03  0.54080375429E+03  0.12508859074E+03 0.  0.
         23    2    1    2    0    0  0.80899739624E+01 -0.16928495925E+02  0.11357766358E+03  0.14794053880E+03  0.92921987193E+02 0.  0.
          5    1    3    3  502    0 -0.27632380581E+02  0.38533541047E+02  0.49815149106E+03  0.50042058580E+03  0.41800000000E+01 0. -1.
         -5    1    3    3    0  502  0.19542406618E+02 -0.21605045123E+02  0.27652201843E+02  0.40383168498E+02  0.41800000000E+01 0. -1.
        -11    1    4    4    0    0 -0.23433595554E+02  0.23855084153E+01 -0.47005864094E+01  0.24019149934E+02  0.00000000000E+00 0.  1.
         11    1    4    4    0    0  0.31523569516E+02 -0.19314004340E+02  0.11827824999E+03  0.12392138887E+03  0.00000000000E+00 0. -1.
</event>
<event>
 8    1  0.6869405E-009  0.1701820E+03  0.7561462E-02  0.1177658E+00
         -1   -1    0    0    0  501 -0.00000000000E+00  0.00000000000E+00  0.72667944107E+03  0.72667944107E+03  0.00000000000E+00 0.  1.
          1   -1    0    0  501    0  0.00000000000E+00 -0.00000000000E+00 -0.43053739689E+02  0.43053739689E+02  0.00000000000E+00 0. -1.
         25    2    1    2    0    0  0.11504540365E+03 -0.77019170325E+02  0.39518547906E+03  0.43702573964E+03  0.12511009851E+03 0.  0.
         23    2    1    2    0    0 -0.11504540365E+03  0.77019170325E+02  0.28844022231E+03  0.33270744111E+03  0.91263804558E+02 0.  0.
          5    1    3    3  502    0  0.36931897141E+02 -0.97877785970E+02  0.20081333858E+03  0.22646742672E+03  0.41800000000E+01 0.  1.
         -5    1    3    3    0  502  0.78113506512E+02  0.20858615645E+02  0.19437214048E+03  0.21055831292E+03  0.41800000000E+01 0.  1.
        -11    1    4    4    0    0 -0.12354976315E+03  0.63958759560E+02  0.28440344349E+03  0.31660793667E+03  0.00000000000E+00 0. -1.
         11    1    4    4    0    0  0.85043594953E+01  0.13060410764E+02  0.40367788272E+01  0.16099504435E+02  0.00000000000E+00 0.  1.
</event>
<event>
 8    1  0.6869405E-009  0.9923023E+02  0.7561462E-02  0.1281923E+00
         -2   -1    0    0    0  501 -0.00000000000E+00  0.00000000000E+00  0.12363604733E+02  0.12363604733E+02  0.00000000000E+00 0.  1.
          2   -1    0    0  501    0  0.00000000000E+00 -0.00000000000E+00 -0.14059857054E+04  0.14059857054E+04  0.00000000000E+00 0. -1.
         25    2    1    2    0    0 -0.23703239812E+02 -0.18941500101E+02 -0.11076950360E+04  0.11151487206E+04  0.12509097569E+03 0.  0.
         23    2    1    2    0    0  0.23703239812E+02  0.18941500101E+02 -0.28592706469E+03  0.30320058959E+03  0.96206482116E+02 0.  0.
          5    1    3    3  502    0 -0.30754840268E+02  0.40424709555E+02 -0.23822479891E+03  0.24361556715E+03  0.41800000000E+01 0.  1.
         -5    1    3    3    0  502  0.70516004556E+01 -0.59366209656E+02 -0.86947023708E+03  0.87153315341E+03  0.41800000000E+01 0.  1.
        -11    1    4    4    0    0 -0.17695478166E+02 -0.22743080070E+02 -0.34260795051E+02  0.44768065807E+02  0.00000000000E+00 0.  1.
         11    1    4    4    0    0  0.41398717978E+02  0.41684580171E+02 -0.25166626964E+03  0.25843252378E+03  0.00000000000E+00 0. -1.
</event>
<event>
 8    1  0.6869405E-009  0.1163308E+03  0.7561462E-02  0.1249276E+00
         -4   -1    0    0    0  501 -0.00000000000E+00  0.00000000000E+00  0.19332010428E+03  0.19332010428E+03  0.00000000000E+00 0.  1.
          4   -1    0    0  501    0  0.00000000000E+00 -0.00000000000E+00 -0.16593456797E+03  0.16593456797E+03  0.00000000000E+00 0. -1.
         25    2    1    2    0    0  0.15978449744E+02 -0.74256092007E+02 -0.10547066836E+03  0.18039331661E+03  0.12509359991E+03 0.  0.
         23    2    1    2    0    0 -0.15978449744E+02  0.74256092007E+02  0.13285620467E+03  0.17886135564E+03  0.92581506596E+02 0.  0.
          5    1    3    3  502    0 -0.12741589199E+02 -0.10392831393E+03 -0.77696780257E+02  0.13045192445E+03  0.41800000000E+01 0. -1.
         -5    1    3    3    0  502  0.28720038942E+02  0.29672221920E+02 -0.27773888105E+02  0.49941392161E+02  0.41800000000E+01 0. -1.
        -11    1    4    4    0    0  0.10198776820E+02  0.48791076290E+02  0.10193059964E+02  0.50877132836E+02  0.00000000000E+00 0. -1.
         11    1    4    4    0    0 -0.26177226563E+02  0.25465015717E+02  0.12266314471E+03  0.12798422280E+03  0.00000000000E+00 0.  1.
</event>
<event>
 8    1  0.6869405E-009  0.9072079E+02  0.7561462E-02  0.1301116E+00
         -1   -1    0    0    0  501 -0.00000000000E+00  0.00000000000E+00  0.46401483681E+03  0.46401483681E+03  0.00000000000E+00 0.  1.
          1   -1    0    0  501    0  0.00000000000E+00 -0.00000000000E+00 -0.43523931136E+02  0.43523931136E+02  0.00000000000E+00 0. -1.
         25    2    1    2    0    0  0.36053189533E+02  0.12470407534E+02  0.37868711872E+03  0.40063295728E+03  0.12508992378E+03 0.  0.
         23    2    1    2    0    0 -0.36053189533E+02 -0.12470407534E+02  0.41803786955E+02  0.10690581067E+03  0.90697035300E+02 0.  0.
          5    1    3    3  502    0  0.58929963592E+02 -0.33321567241E+01  0.36425293795E+03  0.36902780258E+03  0.41800000000E+01 0. -1.
         -5    1    3    3    0  502 -0.22876774059E+02  0.15802564258E+02  0.14434180777E+02  0.31605154693E+02  0.41800000000E+01 0. -1.
        -11    1    4    4    0    0 -0.57215968271E+02  0.15311161332E+02  0.40884668054E+02  0.71969818455E+02  0.00000000000E+00 0.  1.
         11    1    4    4    0    0  0.21162778739E+02 -0.27781568866E+02  0.91911890095E+00  0.34935992217E+02  0.00000000000E+00 0. -1.
</event>
<event>
 8    1  0.6869405E-009  0.9805990E+02  0.7561462E-02  0.1284429E+00
         -4   -1    0    0    0  501 -0.00000000000E+00  0.00000000000E+00  0.33964159259E+03  0.33964159259E+03  0.00000000000E+00 0. -1.
          4   -1    0    0  501    0  0.00000000000E+00 -0.00000000000E+00 -0.46831024391E+02  0.46831024391E+02  0.00000000000E+00 0.  1.
         25    2    1    2    0    0 -0.19229684729E+02 -0.56138607595E+02  0.17905698554E+03  0.22634233289E+03  0.12509246000E+03 0.  0.
         23    2    1    2    0    0  0.19229684729E+02  0.56138607595E+02  0.11375358266E+03  0.16013028409E+03  0.95814958533E+02 0.  0.
          5    1    3    3  502    0 -0.37634043065E+02 -0.65317579255E+02  0.18870205489E+03  0.20324528353E+03  0.41800000000E+01 0. -1.
         -5    1    3    3    0  502  0.18404358336E+02  0.91789716601E+01 -0.96450693471E+01  0.23097049361E+02  0.41800000000E+01 0. -1.
        -11    1    4    4    0    0  0.34963549667E+02  0.70268351960E+02  0.11467613232E+03  0.13896296779E+03  0.00000000000E+00 0. -1.
         11    1    4    4    0    0 -0.15733864938E+02 -0.14129744365E+02 -0.92254966163E+00  0.21167316306E+02  0.00000000000E+00 0.  1.
</event>
<event>
 8    1  0.6869405E-009  0.2115397E+03  0.7561462E-02  0.1140352E+00
          2   -1    0    0  501    0  0.00000000000E+00  0.00000000000E+00  0.74033200730E+03  0.74033200730E+03  0.00000000000E+00 0. -1.
         -2   -1    0    0    0  501 -0.00000000000E+00 -0.00000000000E+00 -0.77407168725E+02  0.77407168725E+02  0.00000000000E+00 0.  1.
         25    2    1    2    0    0  0.18276761303E+03 -0.63569210529E+02  0.49578389612E+03  0.54671179298E+03  0.12508824099E+03 0.  0.
         23    2    1    2    0    0 -0.18276761303E+03  0.63569210529E+02  0.16714094246E+03  0.27102738305E+03  0.89859350176E+02 0.  0.
          5    1    3    3  502    0  0.14913724754E+03 -0.10003684065E+03  0.36591275250E+03  0.40762593506E+03  0.41800000000E+01 0. -1.
         -5    1    3    3    0  502  0.33630365490E+02  0.36467630117E+02  0.12987114361E+03  0.13908585792E+03  0.41800000000E+01 0. -1.
        -11    1    4    4    0    0 -0.45672682300E+02  0.19518538641E+02  0.10102839640E+03  0.11257754722E+03  0.00000000000E+00 0. -1.
         11    1    4    4    0    0 -0.13709493073E+03  0.44050671888E+02  0.66112546055E+02  0.15844983582E+03  0.00000000000E+00 0.  1.
</event>
<event>
 8    1  0.6869405E-009  0.1812615E+03  0.7561462E-02  0.1166588E+00
          2   -1    0    0  501    0  0.00000000000E+00  0.00000000000E+00  0.12345815536E+04  0.12345815536E+04  0.00000000000E+00 0. -1.
         -2   -1    0    0    0  501 -0.00000000000E+00 -0.00000000000E+00 -0.32552780142E+02  0.32552780142E+02  0.00000000000E+00 0.  1.
         25    2    1    2    0    0 -0.12147928383E+03 -0.76475640272E+02  0.89406694924E+03  0.91411637893E+03  0.12508918634E+03 0.  0.
         23    2    1    2    0    0  0.12147928383E+03  0.76475640272E+02  0.30796182424E+03  0.35301795484E+03  0.95788576015E+02 0.  0.
          5    1    3    3  502    0 -0.93310500464E+02  0.14739028346E+02  0.41966057998E+03  0.43018201176E+03  0.41800000000E+01 0. -1.
         -5    1    3    3    0  502 -0.28168783363E+02 -0.91214668618E+02  0.47440636926E+03  0.48393436716E+03  0.41800000000E+01 0. -1.
        -11    1    4    4    0    0  0.76272583431E+02 -0.79030011186E+01  0.12931839095E+03  0.15034364186E+03  0.00000000000E+00 0. -1.
         11    1    4    4    0    0  0.45206700396E+02  0.84378641391E+02  0.17864343328E+03  0.20267431297E+03  0.00000000000E+00 0.  1.
</event>
<event>
 8    1  0.6869405E-009  0.7436586E+02  0.7561462E-02  0.1345846E+00
          3   -1    0    0  501    0  0.00000000000E+00  0.00000000000E+00  0.13508938147E+03  0.13508938147E+03  0.00000000000E+00 0. -1.
         -3   -1    0    0    0  501 -0.00000000000E+00 -0.00000000000E+00 -0.10910871496E+03  0.10910871496E+03  0.00000000000E+00 0.  1.
         25    2    1    2    0    0 -0.13732635564E+02  0.48164072949E+02  0.38615959647E+02  0.14016869151E+03  0.12509079318E+03 0.  0.
         23    2    1    2    0    0  0.13732635564E+02 -0.48164072949E+02 -0.12635293137E+02  0.10402940492E+03  0.90300073376E+02 0.  0.
          5    1    3    3  502    0  0.31941441012E+02  0.35934880609E+01 -0.31547624891E+02  0.45231558083E+02  0.41800000000E+01 0. -1.
         -5    1    3    3    0  502 -0.45674076576E+02  0.44570584889E+02  0.70163584538E+02  0.94937133428E+02  0.41800000000E+01 0. -1.
        -11    1    4    4    0    0  0.16864407503E+02 -0.35262391469E+02 -0.50525753781E+02  0.63880327861E+02  0.00000000000E+00 0.  1.
         11    1    4    4    0    0 -0.31317719389E+01 -0.12901681481E+02  0.37890460644E+02  0.40149077054E+02  0.00000000000E+00 0. -1.
</event>
<event>
 8    1  0.6869405E-009  0.1278221E+03  0.7561462E-02  0.1230724E+00
          1   -1    0    0  501    0  0.00000000000E+00  0.00000000000E+00  0.63368086030E+02  0.63368086030E+02  0.00000000000E+00 0. -1.
         -1   -1    0    0    0  501 -0.00000000000E+00 -0.00000000000E+00 -0.47605192340E+03  0.47605192340E+03  0.00000000000E+00 0.  1.
         25    2    1    2    0    0 -0.70579560635E+01  0.11529614590E+03 -0.34177917122E+03  0.38184345920E+03  0.12509360275E+03 0.  0.
         23    2    1    2    0    0  0.70579560635E+01 -0.11529614590E+03 -0.70904666148E+02  0.15757655023E+03  0.80373388002E+02 0.  0.
          5    1    3    3  502    0 -0.20552967742E+02  0.10965700672E+03 -0.34795399368E+03  0.36542651481E+03  0.41800000000E+01 0. -1.
         -5    1    3    3    0  502  0.13495011679E+02  0.56391391799E+01  0.61748224566E+01  0.16416944395E+02  0.41800000000E+01 0. -1.
        -11    1    4    4    0    0  0.22566988108E+02 -0.11016423135E+03 -0.80806144358E+02  0.13847404012E+03  0.00000000000E+00 0.  1.
         11    1    4    4    0    0 -0.15509032044E+02 -0.51319145487E+01  0.99014782099E+01  0.19102510113E+02  0.00000000000E+00 0. -1.
</event>
<event>
 7    1  0.6869405E-009  0.9063452E+02  0.7561462E-02  0.1301322E+00
         -3   -1    0    0    0  501 -0.00000000000E+00  0.00000000000E+00  0.13357174790E+03  0.13357174790E+03  0.00000000000E+00 0.  1.
          3   -1    0    0  501    0  0.00000000000E+00 -0.00000000000E+00 -0.11624916941E+03  0.11624916941E+03  0.00000000000E+00 0. -1.
         23    2    1    2    0    0 -0.13429198207E+02 -0.56434369357E+02 -0.21695216226E+02  0.10644918953E+03  0.86576937667E+02 0.  0.
          5    1    1    2  502    0 -0.14323077580E+02  0.81221720634E+00  0.71545931301E+02  0.73089691023E+02  0.41800000000E+01 0. -1.
         -5    1    1    2    0  502  0.27752275787E+02  0.55622152151E+02 -0.32528136585E+02  0.70282036759E+02  0.41800000000E+01 0. -1.
        -11    1    3    3    0    0  0.26247168519E+02  0.87906386993E+01 -0.86326632747E+01  0.28995035079E+02  0.00000000000E+00 0. -1.
         11    1    3    3    0    0 -0.39676366726E+02 -0.65225008056E+02 -0.13062552951E+02  0.77454154454E+02  0.00000000000E+00 0.  1.
</event>
<event>
 8    1  0.6869405E-009  0.7822711E+02  0.7561462E-02  0.1334159E+00
          1   -1    0    0  501    0  0.00000000000E+00  0.00000000000E+00  0.20574871438E+02  0.20574871438E+02  0.00000000000E+00 0. -1.
         -1   -1    0    0    0  501 -0.00000000000E+00 -0.00000000000E+00 -0.58239311107E+03  0.58239311107E+03  0.00000000000E+00 0.  1.
         25    2    1    2    0    0  0.36171294394E+02  0.43587839897E+01 -0.33145032630E+03  0.35613898586E+03  0.12509315293E+03 0.  0.
         23    2    1    2    0    0 -0.36171294394E+02 -0.43587839897E+01 -0.23036791334E+03  0.24682899665E+03  0.80794904278E+02 0.  0.
          5    1    3    3  502    0  0.10355972363E+02 -0.26798682071E+02 -0.30763593224E+03  0.30900283935E+03  0.41800000000E+01 0.  1.
         -5    1    3    3    0  502  0.25815322031E+02  0.31157466061E+02 -0.23814394060E+02  0.47136146506E+02  0.41800000000E+01 0.  1.
        -11    1    4    4    0    0 -0.38645785615E+02  0.32077170951E+02 -0.15763253965E+03  0.16544019826E+03  0.00000000000E+00 0.  1.
         11    1    4    4    0    0  0.24744912213E+01 -0.36435954941E+02 -0.72735373682E+02  0.81388798393E+02  0.00000000000E+00 0. -1.
</event>
<event>
 8    1  0.6869405E-009  0.2065819E+03  0.7561462E-02  0.1144302E+00
         -1   -1    0    0    0  501 -0.00000000000E+00  0.00000000000E+00  0.36595660593E+03  0.36595660593E+03  0.00000000000E+00 0.  1.
          1   -1    0    0  501    0  0.00000000000E+00 -0.00000000000E+00 -0.17027293481E+03  0.17027293481E+03  0.00000000000E+00 0. -1.
         25    2    1    2    0    0 -0.18491209264E+03  0.65683846015E+02 -0.22379643771E+02  0.23378650510E+03  0.12509369240E+03 0.  0.
         23    2    1    2    0    0  0.18491209264E+03 -0.65683846015E+02  0.21806331489E+03  0.30244303565E+03  0.73575341522E+02 0.  0.
          5    1    3    3  502    0 -0.92668489675E+02  0.61260929494E+02  0.44442387014E+02  0.11972029329E+03  0.41800000000E+01 0. -1.
         -5    1    3    3    0  502 -0.92243602963E+02  0.44229165214E+01 -0.66822030785E+02  0.11406621181E+03  0.41800000000E+01 0. -1.
        -11    1    4    4    0    0  0.81990622592E+02  0.88670250093E+01  0.87729134926E+02  0.12040551250E+03  0.00000000000E+00 0. -1.
         11    1    4    4    0    0  0.10292147005E+03 -0.74550871025E+02  0.13033417997E+03  0.18203752315E+03  0.00000000000E+00 0.  1.
</event>
<event>
 8    1  0.6869405E-009  0.1411860E+03  0.7561462E-02  0.1211742E+00
         -1   -1    0    0    0  501 -0.00000000000E+00  0.00000000000E+00  0.14408615731E+03  0.14408615731E+03  0.00000000000E+00 0.  1.
          1   -1    0    0  501    0  0.00000000000E+00 -0.00000000000E+00 -0.21738614891E+03  0.21738614891E+03  0.00000000000E+00 0. -1.
         25    2    1    2    0    0 -0.47611994403E+02 -0.11448103545E+03 -0.10514798133E+03  0.20512689129E+03  0.12509250202E+03 0.  0.
         23    2    1    2    0    0  0.47611994403E+02  0.11448103545E+03  0.31847989730E+02  0.15634541494E+03  0.89759594666E+02 0.  0.
          5    1    3    3  502    0  0.74894262208E+01 -0.10116515850E+03 -0.21155915037E+02  0.10370885180E+03  0.41800000000E+01 0.  1.
         -5    1    3    3    0  502 -0.55101420624E+02 -0.13315876946E+02 -0.83992066293E+02  0.10141803949E+03  0.41800000000E+01 0.  1.
        -11    1    4    4    0    0  0.29680531966E+02  0.73804216284E+02  0.63490987010E+02  0.10177967258E+03  0.00000000000E+00 0.  1.
         11    1    4    4    0    0  0.17931462438E+02  0.40676819165E+02 -0.31642997279E+02  0.54565742360E+02  0.00000000000E+00 0. -1.
</event>
<event>
 8    1  0.6869405E-009  0.1851760E+03  0.7561462E-02  0.1162886E+00
          3   -1    0    0  501    0  0.00000000000E+00  0.00000000000E+00  0.10383274109E+03  0.10383274109E+03  0.00000000000E+00 0. -1.
         -3   -1    0    0    0  501 -0.00000000000E+00 -0.00000000000E+00 -0.41345920806E+03  0.41345920806E+03  0.00000000000E+00 0.  1.
         25    2    1    2    0    0 -0.13596455872E+03 -0.11335575675E+03 -0.16664529930E+03  0.27341161858E+03  0.12508944231E+03 0.  0.
         23    2    1    2    0    0  0.13596455872E+03  0.11335575675E+03 -0.14298116766E+03  0.24388033057E+03  0.87738888299E+02 0.  0.
          5    1    3    3  502    0 -0.11996894919E+02 -0.30326102638E+02  0.16791917497E+02  0.36919356470E+02  0.41800000000E+01 0. -1.
         -5    1    3    3    0  502 -0.12396766380E+03 -0.83029654114E+02 -0.18343721680E+03  0.23649226211E+03  0.41800000000E+01 0. -1.
        -11    1    4    4    0    0  0.47101966862E+02  0.39574024501E+01 -0.65453690494E+01  0.47718949825E+02  0.00000000000E+00 0. -1.
         11    1    4    4    0    0  0.88862591855E+02  0.10939835430E+03 -0.13643579861E+03  0.19616138075E+03  0.00000000000E+00 0.  1.
</event>
<event>
 8    1  0.6869405E-009  0.7497472E+02  0.7561462E-02  0.1343949E+00
          2   -1    0    0  501    0  0.00000000000E+00  0.00000000000E+00  0.78570288907E+02  0.78570288907E+02  0.00000000000E+00 0. -1.
         -2   -1    0    0    0  501 -0.00000000000E+00 -0.00000000000E+00 -0.25296554037E+03  0.25296554037E+03  0.00000000000E+00 0.  1.
         25    2    1    2    0    0 -0.18788754120E+02  0.15169987510E+02 -0.19860049234E+03  0.23595367152E+03  0.12509529865E+03 0.  0.
         23    2    1    2    0    0  0.18788754120E+02 -0.15169987510E+02  0.24205240873E+02  0.95582157761E+02  0.89257545306E+02 0.  0.
          5    1    3    3  502    0 -0.56675283507E+02 -0.21631766179E+00 -0.33837343086E+02  0.66140552923E+02  0.41800000000E+01 0.  1.
         -5    1    3    3    0  502  0.37886529386E+02  0.15386305172E+02 -0.16476314925E+03  0.16981311859E+03  0.41800000000E+01 0.  1.
        -11    1    4    4    0    0  0.44664405836E+00 -0.29024875279E+02 -0.26880725272E+02  0.39562814195E+02  0.00000000000E+00 0.  1.
         11    1    4    4    0    0  0.18342110062E+02  0.13854887768E+02  0.51085966145E+02  0.56019343566E+02  0.00000000000E+00 0. -1.
</event>
<event>
 8    1  0.6869405E-009  0.9420258E+02  0.7561462E-02  0.1292982E+00
         -2   -1    0    0    0  501 -0.00000000000E+00  0.00000000000E+00  0.94434661017E+01  0.94434661017E+01  0.00000000000E+00 0.  1.
          2   -1    0    0  501    0  0.00000000000E+00 -0.00000000000E+00 -0.15048817519E+04  0.15048817519E+04  0.00000000000E+00 0. -1.
         25    2    1    2    0    0 -0.12793106917E+02  0.43563623031E+02 -0.95541582112E+03  0.96463880682E+03  0.12508870268E+03 0.  0.
         23    2    1    2    0    0  0.12793106917E+02 -0.43563623031E+02 -0.54002246466E+03  0.54968641117E+03  0.92029535722E+02 0.  0.
          5    1    3    3  502    0 -0.32457393211E+02 -0.56049829629E+01 -0.68385647715E+02  0.76019520002E+02  0.41800000000E+01 0. -1.
         -5    1    3    3    0  502  0.19664286293E+02  0.49168605994E+02 -0.88703017341E+03  0.88861928682E+03  0.41800000000E+01 0. -1.
        -11    1    4    4    0    0 -0.39759135632E+02 -0.18018983471E+02 -0.20354685428E+03  0.20817491327E+03  0.00000000000E+00 0.  1.
         11    1    4    4    0    0  0.52552242549E+02 -0.25544639561E+02 -0.33647561039E+03  0.34151149789E+03  0.00000000000E+00 0. -1.
</event>
<event>
 8    1  0.6869405E-009  0.9494345E+02  0.7561462E-02  0.1291303E+00
          1   -1    0    0  501    0  0.00000000000E+00  0.00000000000E+00  0.50417669171E+03  0.50417669171E+03  0.00000000000E+00 0. -1.
         -1   -1    0    0    0  501 -0.00000000000E+00 -0.00000000000E+00 -0.22956281049E+02  0.22956281049E+02  0.00000000000E+00 0.  1.
         25    2    1    2    0    0  0.29480222578E+00 -0.44921906397E+00  0.27057544430E+03  0.29809294476E+03  0.12509214185E+03 0.  0.
         23    2    1    2    0    0 -0.29480222578E+00  0.44921906397E+00  0.21064496636E+03  0.22904002800E+03  0.89931884593E+02 0.  0.
          5    1    3    3  502    0  0.22926117508E+02  0.51095230663E+02  0.19991464576E+03  0.20765275691E+03  0.41800000000E+01 0. -1.
         -5    1    3    3    0  502 -0.22631315282E+02 -0.51544449727E+02  0.70660798539E+02  0.90440187856E+02  0.41800000000E+01 0. -1.
        -11    1    4    4    0    0 -0.37570185108E+02 -0.93926820579E+01  0.46922412157E+02  0.60839576330E+02  0.00000000000E+00 0. -1.
         11    1    4    4    0    0  0.37275382883E+02  0.98419011219E+01  0.16372255420E+03  0.16820045167E+03  0.00000000000E+00 0.  1.
</event>
<event>
 8    1  0.6869405E-009  0.1545385E+03  0.7561462E-02  0.1195004E+00
         -2   -1    0    0    0  501 -0.00000000000E+00  0.00000000000E+00  0.32158744216E+03  0.32158744216E+03  0.00000000000E+00 0.  1.
          2   -1    0    0  501    0  0.00000000000E+00 -0.00000000000E+00 -0.12176595880E+03  0.12176595880E+03  0.00000000000E+00 0. -1.
         25    2    1    2    0    0 -0.25336221410E+02  0.15112655729E+03  0.36732222732E+02  0.20119398733E+03  0.12509438003E+03 0.  0.
         23    2    1    2    0    0  0.25336221410E+02 -0.15112655729E+03  0.16308926062E+03  0.24215941363E+03  0.92530612489E+02 0.  0.
          5    1    3    3  502    0 -0.30626379782E+02  0.13150972301E+03  0.77289198315E+02  0.15564020997E+03  0.41800000000E+01 0.  1.
         -5    1    3    3    0  502  0.52901583716E+01  0.19616834285E+02 -0.40556975583E+02  0.45553777356E+02  0.41800000000E+01 0.  1.
        -11    1    4    4    0    0  0.18824747778E+02 -0.10904129815E+03  0.16597080723E+03  0.19947602533E+03  0.00000000000E+00 0.  1.
         11    1    4    4    0    0  0.65114736329E+01 -0.42085259141E+02 -0.28815466083E+01  0.42683388299E+02  0.00000000000E+00 0. -1.
</event>
<event>
 8    1  0.6869405E-009  0.1036367E+03  0.7561462E-02  0.1272829E+00
          2   -1    0    0  501    0  0.00000000000E+00  0.00000000000E+00  0.10831122604E+03  0.10831122604E+03  0.00000000000E+00 0. -1.
         -2   -1    0    0    0  501 -0.00000000000E+00 -0.00000000000E+00 -0.17944058933E+03  0.17944058933E+03  0.00000000000E+00 0.  1.
         25    2    1    2    0    0  0.21817012354E+02 -0.22494912688E+02  0.40930548980E+02  0.13529466215E+03  0.12508929866E+03 0.  0.
         23    2    1    2    0    0 -0.21817012354E+02  0.22494912688E+02 -0.11205991228E+03  0.15245715323E+03  0.98507646937E+02 0.  0.
          5    1    3    3  502    0  0.46770461815E+02 -0.59756316696E+02  0.47731690491E+02  0.89744527190E+02  0.41800000000E+01 0.  1.
         -5    1    3    3    0  502 -0.24953449460E+02  0.37261404008E+02 -0.68011415115E+01  0.45550134955E+02  0.41800000000E+01 0.  1.
        -11    1    4    4    0    0 -0.48712131667E+02  0.31340218535E+02 -0.10969196503E+03  0.12404599252E+03  0.00000000000E+00 0.  1.
         11    1    4    4    0    0  0.26895119313E+02 -0.88453058472E+01 -0.23679472522E+01  0.28411160705E+02  0.00000000000E+00 0. -1.
</event>
<event>
 8    1  0.6869405E-009  0.1261599E+03  0.7561462E-02  0.1233268E+00
         -1   -1    0    0    0  501 -0.00000000000E+00  0.00000000000E+00  0.22274487101E+02  0.22274487101E+02  0.00000000000E+00 0.  1.
          1   -1    0    0  501    0  0.00000000000E+00 -0.00000000000E+00 -0.10792185720E+04  0.10792185720E+04  0.00000000000E+00 0. -1.
         25    2    1    2    0    0  0.59026403938E+02 -0.74790768596E+02 -0.76473970483E+03  0.78073803092E+03  0.12508909370E+03 0.  0.
         23    2    1    2    0    0 -0.59026403938E+02  0.74790768596E+02 -0.29220438009E+03  0.32075502820E+03  0.91774794691E+02 0.  0.
          5    1    3    3  502    0 -0.18023285534E+02 -0.75615543576E+02 -0.44948523849E+03  0.45617650232E+03  0.41800000000E+01 0.  1.
         -5    1    3    3    0  502  0.77049689472E+02  0.82477497930E+00 -0.31525446634E+03  0.32456152860E+03  0.41800000000E+01 0.  1.
        -11    1    4    4    0    0 -0.10029816270E+02  0.27245822412E+02 -0.10465434236E+02  0.30861908027E+02  0.00000000000E+00 0.  1.
         11    1    4    4    0    0 -0.48996587668E+02  0.47544946184E+02 -0.28173894585E+03  0.28989312017E+03  0.00000000000E+00 0. -1.
</event>
<event>
 8    1  0.6869405E-009  0.1140799E+03  0.7561462E-02  0.1253196E+00
          2   -1    0    0  501    0  0.00000000000E+00  0.00000000000E+00  0.48198289352E+03  0.48198289352E+03  0.00000000000E+00 0. -1.
         -2   -1    0    0    0  501 -0.00000000000E+00 -0.00000000000E+00 -0.35647493061E+02  0.35647493061E+02  0.00000000000E+00 0.  1.
         25    2    1    2    0    0 -0.53379704887E+02 -0.26407641364E+02  0.33144803397E+03  0.35923786858E+03  0.12508913055E+03 0.  0.
         23    2    1    2    0    0  0.53379704887E+02  0.26407641364E+02  0.11488736649E+03  0.15839251800E+03  0.91336336495E+02 0.  0.
          5    1    3    3  502    0 -0.56088726497E+02 -0.65186569673E+02  0.28889044874E+03  0.30144717262E+03  0.41800000000E+01 0. -1.
         -5    1    3    3    0  502  0.27090216094E+01  0.38778928309E+02  0.42557585230E+02  0.57790695960E+02  0.41800000000E+01 0. -1.
        -11    1    4    4    0    0  0.58674386309E+02  0.51041686059E+02  0.60767204621E+02  0.98694429843E+02  0.00000000000E+00 0.  1.
         11    1    4    4    0    0 -0.52946814219E+01 -0.24634044695E+02  0.54120161868E+02  0.59698088160E+02  0.00000000000E+00 0. -1.
</event>
<event>
 8    1  0.6869405E-009  0.1235585E+03  0.7561462E-02  0.1237339E+00
         -1   -1    0    0    0  501 -0.00000000000E+00  0.00000000000E+00  0.19433303418E+03  0.19433303418E+03  0.00000000000E+00 0.  1.
          1   -1    0    0  501    0  0.00000000000E+00 -0.00000000000E+00 -0.12950256913E+03  0.12950256913E+03  0.00000000000E+00 0. -1.
         25    2    1    2    0    0  0.10488644550E+03 -0.22167653159E+01  0.83874912475E+02  0.18354673854E+03  0.12509326036E+03 0.  0.
         23    2    1    2    0    0 -0.10488644550E+03  0.22167653159E+01 -0.19044447428E+02  0.14028886477E+03  0.91171235065E+02 0.  0.
          5    1    3    3  502    0  0.58873603438E+02 -0.28420046235E+02 -0.18623185960E+02  0.68103565729E+02  0.41800000000E+01 0.  1.
         -5    1    3    3    0  502  0.46012842061E+02  0.26203280920E+02  0.10249809843E+03  0.11544317281E+03  0.41800000000E+01 0.  1.
        -11    1    4    4    0    0 -0.37297187054E+02  0.36950728053E+02  0.18322156247E+02  0.55606994842E+02  0.00000000000E+00 0.  1.
         11    1    4    4    0    0 -0.67589258445E+02 -0.34733962737E+02 -0.37366603675E+02  0.84681869930E+02  0.00000000000E+00 0. -1.
</event>
<event>
 8    1  0.6869405E-009  0.1778901E+03  0.7561462E-02  0.1169861E+00
          2   -1    0    0  501    0  0.00000000000E+00  0.00000000000E+00  0.54389186076E+03  0.54389186076E+03  0.00000000000E+00 0.  1.
         -2   -1    0    0    0  501 -0.00000000000E+00 -0.00000000000E+00 -0.68187355001E+02  0.68187355001E+02  0.00000000000E+00 0. -1.
         25    2    1    2    0    0 -0.15563263097E+03  0.86758463482E+01  0.20787803126E+03  0.28836875171E+03  0.12508587030E+03 0.  0.
         23    2    1    2    0    0  0.15563263097E+03 -0.86758463482E+01  0.26782647451E+03  0.32371046406E+03  0.93598386552E+02 0.  0.
          5    1    3    3  502    0 -0.27224464951E+02  0.56383949289E+02  0.62083577103E+02  0.88273235893E+02  0.41800000000E+01 0.  1.
         -5    1    3    3    0  502 -0.12840816601E+03 -0.47708102940E+02  0.14579445416E+03  0.20009551581E+03  0.41800000000E+01 0.  1.
        -11    1    4    4    0    0  0.95238101438E+02 -0.25023230494E+01  0.74103054958E+02  0.12069722590E+03  0.00000000000E+00 0. -1.
         11    1    4    4    0    0  0.60394529528E+02 -0.61735232988E+01  0.19372341955E+03  0.20301323816E+03  0.00000000000E+00 0.  1.
</event>
<event>
 8    1  0.6869405E-009  0.1448231E+03  0.7561462E-02  0.1206983E+00
         -3   -1    0    0    0  501 -0.00000000000E+00  0.00000000000E+00  0.16785342843E+03  0.16785342843E+03  0.00000000000E+00 0.  1.
          3   -1    0    0  501    0  0.00000000000E+00 -0.00000000000E+00 -0.16468323936E+03  0.16468323936E+03  0.00000000000E+00 0. -1.
         25    2    1    2    0    0 -0.10326330142E+03 -0.70341633464E+02  0.15521797776E+02  0.17748246109E+03  0.12509133850E+03 0.  0.
         23    2    1    2    0    0  0.10326330142E+03  0.70341633464E+02 -0.12351608709E+02  0.15505420671E+03  0.90983459827E+02 0.  0.
          5    1    3    3  502    0  0.21084610173E+02 -0.22687848136E+02 -0.22987373851E+02  0.38796791050E+02  0.41800000000E+01 0. -1.
         -5    1    3    3    0  502 -0.12434791159E+03 -0.47653785328E+02  0.38509171627E+02  0.13868567004E+03  0.41800000000E+01 0. -1.
        -11    1    4    4    0    0  0.56015763999E+02  0.33716424231E+02  0.39100852261E+02  0.76180310625E+02  0.00000000000E+00 0.  1.
         11    1    4    4    0    0  0.47247537422E+02  0.36625209233E+02 -0.51452460970E+02  0.78873896086E+02  0.00000000000E+00 0. -1.
</event>
<event>
 8    1  0.6869405E-009  0.1157449E+03  0.7561462E-02  0.1250286E+00
         -2   -1    0    0    0  501 -0.00000000000E+00  0.00000000000E+00  0.23034187249E+02  0.23034187249E+02  0.00000000000E+00 0.  1.
          2   -1    0    0  501    0  0.00000000000E+00 -0.00000000000E+00 -0.62893459925E+03  0.62893459925E+03  0.00000000000E+00 0. -1.
         25    2    1    2    0    0 -0.22744572091E+02  0.40491745524E+02 -0.27868044469E+03  0.30897757661E+03  0.12508979006E+03 0.  0.
         23    2    1    2    0    0  0.22744572091E+02 -0.40491745524E+02 -0.32721996731E+03  0.34299120989E+03  0.91723312422E+02 0.  0.
          5    1    3    3  502    0 -0.68191291007E+02  0.51660665772E+02 -0.16336084673E+03  0.18445355839E+03  0.41800000000E+01 0. -1.
         -5    1    3    3    0  502  0.45446718917E+02 -0.11168920248E+02 -0.11531959796E+03  0.12452401822E+03  0.41800000000E+01 0. -1.
        -11    1    4    4    0    0  0.23473084221E+02  0.24457182201E+02 -0.16102447589E+03  0.16455400718E+03  0.00000000000E+00 0. -1.
         11    1    4    4    0    0 -0.72851213012E+00 -0.64948927726E+02 -0.16619549142E+03  0.17843720271E+03  0.00000000000E+00 0.  1.
</event>
<event>
 8    1  0.6869405E-009  0.8660066E+02  0.7561462E-02  0.1311299E+00
         -1   -1    0    0    0  501 -0.00000000000E+00  0.00000000000E+00  0.13526140023E+03  0.13526140023E+03  0.00000000000E+00 0.  1.
          1   -1    0    0  501    0  0.00000000000E+00 -0.00000000000E+00 -0.12653915941E+03  0.12653915941E+03  0.00000000000E+00 0. -1.
         25    2    1    2    0    0 -0.27164706970E+01 -0.77348139642E+01  0.76856884728E+02  0.14704570488E+03  0.12509297355E+03 0.  0.
         23    2    1    2    0    0  0.27164706970E+01  0.77348139642E+01 -0.68134643909E+02  0.11475485476E+03  0.91973585506E+02 0.  0.
          5    1    3    3  502    0 -0.15920074795E+02  0.53649055101E+02  0.59457267252E+02  0.81757623032E+02  0.41800000000E+01 0.  1.
         -5    1    3    3    0  502  0.13203604098E+02 -0.61383869065E+02  0.17399617475E+02  0.65288081844E+02  0.41800000000E+01 0.  1.
        -11    1    4    4    0    0  0.32956218993E+01  0.30854658339E+02  0.10524429448E+02  0.32766365074E+02  0.00000000000E+00 0.  1.
         11    1    4    4    0    0 -0.57915120229E+00 -0.23119844375E+02 -0.78659073357E+02  0.81988489688E+02  0.00000000000E+00 0. -1.
</event>
<event>
 8    1  0.6869405E-009  0.1791347E+03  0.7561462E-02  0.1168643E+00
         -3   -1    0    0    0  501 -0.00000000000E+00  0.00000000000E+00  0.73250782572E+02  0.73250782572E+02  0.00000000000E+00 0.  1.
          3   -1    0    0  501    0  0.00000000000E+00 -0.00000000000E+00 -0.48829628744E+03  0.48829628744E+03  0.00000000000E+00 0. -1.
         25    2    1    2    0    0 -0.14966159635E+03 -0.22760350059E+02 -0.17248864867E+03  0.26136505860E+03  0.12507091179E+03 0.  0.
         23    2    1    2    0    0  0.14966159635E+03  0.22760350059E+02 -0.24255685619E+03  0.30018201141E+03  0.91426388590E+02 0.  0.
          5    1    3    3  502    0 -0.10504541016E+03 -0.61953418945E+02 -0.64426409155E+02  0.13798912606E+03  0.41800000000E+01 0.  1.
         -5    1    3    3    0  502 -0.44616186192E+02  0.39193068886E+02 -0.10806223952E+03  0.12337593253E+03  0.41800000000E+01 0.  1.
        -11    1    4    4    0    0  0.14292984961E+03  0.47855513754E+02 -0.21095639017E+03  0.25927146133E+03  0.00000000000E+00 0. -1.
         11    1    4    4    0    0  0.67317467400E+01 -0.25095163694E+02 -0.31600466029E+02  0.40910550085E+02  0.00000000000E+00 0.  1.
</event>
<event>
 8    1  0.6869405E-009  0.1202580E+03  0.7561462E-02  0.1242672E+00
         -2   -1    0    0    0  501 -0.00000000000E+00  0.00000000000E+00  0.60486850541E+02  0.60486850541E+02  0.00000000000E+00 0.  1.
          2   -1    0    0  501    0  0.00000000000E+00 -0.00000000000E+00 -0.37678169318E+03  0.37678169318E+03  0.00000000000E+00 0. -1.
         25    2    1    2    0    0 -0.24628400298E+02 -0.80027514685E+02 -0.86861457616E+02  0.17379129068E+03  0.12509012226E+03 0.  0.
         23    2    1    2    0    0  0.24628400298E+02  0.80027514685E+02 -0.22943338502E+03  0.26347725304E+03  0.98841405801E+02 0.  0.
          5    1    3    3  502    0 -0.34309244244E+02 -0.10071567419E+03 -0.27390200780E+02  0.10994756371E+03  0.41800000000E+01 0. -1.
         -5    1    3    3    0  502  0.96808439462E+01  0.20688159502E+02 -0.59471256835E+02  0.63843726964E+02  0.41800000000E+01 0. -1.
        -11    1    4    4    0    0  0.22346410152E+01  0.87254581924E+02 -0.22240479103E+03  0.23891891252E+03  0.00000000000E+00 0. -1.
         11    1    4    4    0    0  0.22393759283E+02 -0.72270672388E+01 -0.70285939918E+01  0.24558340522E+02  0.00000000000E+00 0.  1.
</event>
<event>
 8    1  0.6869405E-009  0.1401281E+03  0.7561462E-02  0.1213157E+00
          3   -1    0    0  501    0  0.00000000000E+00  0.00000000000E+00  0.45100613999E+03  0.45100613999E+03  0.00000000000E+00 0. -1.
         -3   -1    0    0    0  501 -0.00000000000E+00 -0.00000000000E+00 -0.46232273627E+02  0.46232273627E+02  0.00000000000E+00 0.  1.
         25    2    1    2    0    0  0.21456524989E+01 -0.93641875940E+02  0.24675622222E+03  0.29207805888E+03  0.12509018554E+03 0.  0.
         23    2    1    2    0    0 -0.21456524989E+01  0.93641875940E+02  0.15801764415E+03  0.20516035474E+03  0.91366243999E+02 0.  0.
          5    1    3    3  502    0 -0.31536075668E+02  0.15348486353E+02  0.27059645113E+02  0.44494908647E+02  0.41800000000E+01 0.  1.
         -5    1    3    3    0  502  0.33681728167E+02 -0.10899036229E+03  0.21969657711E+03  0.24758315023E+03  0.41800000000E+01 0.  1.
        -11    1    4    4    0    0 -0.31680459904E+02  0.96059665112E+02  0.11945351736E+03  0.15652556856E+03  0.00000000000E+00 0. -1.
         11    1    4    4    0    0  0.29534807406E+02 -0.24177891720E+01  0.38564126781E+02  0.48634786186E+02  0.00000000000E+00 0.  1.
</event>
<event>
 8    1  0.6869405E-009  0.7368307E+02  0.7561462E-02  0.1347998E+00
          2   -1    0    0  501    0  0.00000000000E+00  0.00000000000E+00  0.38026041869E+02  0.38026041869E+02  0.00000000000E+00 0. -1.
         -2   -1    0    0    0  501 -0.00000000000E+00 -0.00000000000E+00 -0.35652170830E+03  0.35652170830E+03  0.00000000000E+00 0.  1.
         25    2    1    2    0    0 -0.36706567695E+02 -0.74742125351E+01 -0.21013528159E+03  0.24739935944E+03  0.12508545286E+03 0.  0.
         23    2    1    2    0    0  0.36706567695E+02  0.74742125351E+01 -0.10836038484E+03  0.14714839073E+03  0.92235784415E+02 0.  0.
          5    1    3    3  502    0 -0.14661808955E+02 -0.54978155863E+02 -0.17533156727E+03  0.18438057692E+03  0.41800000000E+01 0.  1.
         -5    1    3    3    0  502 -0.22044758740E+02  0.47503943328E+02 -0.34803714320E+02  0.63018782519E+02  0.41800000000E+01 0.  1.
        -11    1    4    4    0    0  0.21108982574E+02  0.67519379012E+01 -0.12345635480E+03  0.12542985829E+03  0.00000000000E+00 0.  1.
         11    1    4    4    0    0  0.15597585121E+02  0.72227463383E+00  0.15095969960E+02  0.21718532438E+02  0.00000000000E+00 0. -1.
</event>
<event>
 8    1  0.6869405E-009  0.9302647E+02  0.7561462E-02  0.1295684E+00
         -1   -1    0    0    0  501 -0.00000000000E+00  0.00000000000E+00  0.14047438596E+03  0.14047438596E+03  0.00000000000E+00 0.  1.
          1   -1    0    0  501    0  0.00000000000E+00 -0.00000000000E+00 -0.16825316062E+03  0.16825316062E+03  0.00000000000E+00 0. -1.
         25    2    1    2    0    0 -0.62650798252E+02 -0.10537749093E+02  0.73962042875E+02  0.15860338976E+03  0.12509390384E+03 0.  0.
         23    2    1    2    0    0  0.62650798252E+02  0.10537749093E+02 -0.10174081754E+03  0.15012415683E+03  0.90276806724E+02 0.  0.
          5    1    3    3  502    0 -0.38541684931E+02  0.36004816514E+02 -0.15237538461E+02  0.55058725629E+02  0.41800000000E+01 0. -1.
         -5    1    3    3    0  502 -0.24109113321E+02 -0.46542565607E+02  0.89199581337E+02  0.10354466413E+03  0.41800000000E+01 0. -1.
        -11    1    4    4    0    0  0.55230462801E+02 -0.12270537619E+02 -0.11086129291E+03  0.12446363477E+03  0.00000000000E+00 0. -1.
         11    1    4    4    0    0  0.74203354502E+01  0.22808286713E+02  0.91204753761E+01  0.25660522053E+02  0.00000000000E+00 0.  1.
</event>
<event>
 8    1  0.6869405E-009  0.8045207E+02  0.7561462E-02  0.1327773E+00
          1   -1    0    0  501    0  0.00000000000E+00  0.00000000000E+00  0.30562392570E+03  0.30562392570E+03  0.00000000000E+00 0. -1.
         -1   -1    0    0    0  501 -0.00000000000E+00 -0.00000000000E+00 -0.50374793847E+02  0.50374793847E+02  0.00000000000E+00 0.  1.
         25    2    1    2    0    0 -0.37625990567E+02 -0.34021606684E+02  0.94719236195E+02  0.16489812564E+03  0.12508586350E+03 0.  0.
         23    2    1    2    0    0  0.37625990567E+02  0.34021606684E+02  0.16052989565E+03  0.19110059390E+03  0.90423474296E+02 0.  0.
          5    1    3    3  502    0  0.89664274945E+01  0.11484838230E+02  0.98372678552E+02  0.99533685839E+02  0.41800000000E+01 0. -1.
         -5    1    3    3    0  502 -0.46592418061E+02 -0.45506444915E+02 -0.36534423564E+01  0.65364439802E+02  0.41800000000E+01 0. -1.
        -11    1    4    4    0    0  0.39202624407E+02 -0.66661816534E+01  0.19459650222E+02  0.44271454968E+02  0.00000000000E+00 0.  1.
         11    1    4    4    0    0 -0.15766338398E+01  0.40687788338E+02  0.14107024543E+03  0.14682913893E+03  0.00000000000E+00 0. -1.
</event>
<event>
 7    1  0.6869405E-009  0.1806039E+03  0.7561462E-02  0.1167220E+00
          1   -1    0    0  501    0  0.00000000000E+00  0.00000000000E+00  0.22924904390E+03  0.22924904390E+03  0.00000000000E+00 0. -1.
         -1   -1    0    0    0  501 -0.00000000000E+00 -0.00000000000E+00 -0.23110508877E+03  0.23110508877E+03  0.00000000000E+00 0.  1.
         23    2    1    2    0    0  0.15331721000E+03  0.56291412041E+02 -0.12027932036E+03  0.22304977838E+03  0.92785768168E+02 0.  0.
          5    1    1    2  502    0 -0.91915965712E+01 -0.52260064842E+02  0.63747126979E+02  0.83046784543E+02  0.41800000000E+01 0.  1.
         -5    1    1    2    0  502 -0.14412561343E+03 -0.40313471989E+01  0.54676148507E+02  0.15425756974E+03  0.41800000000E+01 0. -1.
        -11    1    3    3    0    0  0.66978110008E+02  0.18463618450E+02 -0.10739813350E+03  0.12791142054E+03  0.00000000000E+00 0.  1.
         11    1    3    3    0    0  0.86339099996E+02  0.37827793591E+02 -0.12881186860E+02  0.95138357832E+02  0.00000000000E+00 0. -1.
</event>
<event>
 8    1  0.6869405E-009  0.2179994E+03  0.7561462E-02  0.1135383E+00
         -2   -1    0    0    0  501 -0.00000000000E+00  0.00000000000E+00  0.69891108933E+02  0.69891108933E+02  0.00000000000E+00 0.  1.
          2   -1    0    0  501    0  0.00000000000E+00 -0.00000000000E+00 -0.94579274380E+03  0.94579274380E+03  0.00000000000E+00 0. -1.
         25    2    1    2    0    0 -0.20060355278E+03 -0.36567345321E+02 -0.22877024795E+03  0.33100012650E+03  0.12508517605E+03 0.  0.
         23    2    1    2    0    0  0.20060355278E+03  0.36567345321E+02 -0.64713138692E+03  0.68468372623E+03  0.91835814923E+02 0.  0.
          5    1    3    3  502    0 -0.90109580000E+01  0.17316791525E+02 -0.80077174209E+02  0.82528145879E+02  0.41800000000E+01 0.  1.
         -5    1    3    3    0  502 -0.19159259478E+03 -0.53884136846E+02 -0.14869307374E+03  0.24847198062E+03  0.41800000000E+01 0.  1.
        -11    1    4    4    0    0  0.13172463966E+03  0.59265920778E+02 -0.34594520111E+03  0.37488919994E+03  0.00000000000E+00 0. -1.
         11    1    4    4    0    0  0.68878913111E+02 -0.22698575458E+02 -0.30118618580E+03  0.30979452629E+03  0.00000000000E+00 0.  1.
</event>
<event>
 8    1  0.6869405E-009  0.1130991E+03  0.7561462E-02  0.1254936E+00
          1   -1    0    0  501    0  0.00000000000E+00  0.00000000000E+00  0.65298491460E+02  0.65298491460E+02  0.00000000000E+00 0. -1.
         -1   -1    0    0    0  501 -0.00000000000E+00 -0.00000000000E+00 -0.22679333345E+03  0.22679333345E+03  0.00000000000E+00 0.  1.
         25    2    1    2    0    0 -0.13549058578E+02 -0.44356950139E+02 -0.55368385069E+02  0.14445085900E+03  0.12509706866E+03 0.  0.
         23    2    1    2    0    0  0.13549058578E+02  0.44356950139E+02 -0.10612645692E+03  0.14764096591E+03  0.91563715207E+02 0.  0.
          5    1    3    3  502    0  0.52076967013E+02  0.21740131881E+00 -0.10761901247E+02  0.53341809822E+02  0.41800000000E+01 0.  1.
         -5    1    3    3    0  502 -0.65626025592E+02 -0.44574351458E+02 -0.44606483821E+02  0.91109049176E+02  0.41800000000E+01 0.  1.
        -11    1    4    4    0    0 -0.20532529602E+02  0.55079551818E+02 -0.92095272597E+02  0.10925603432E+03  0.00000000000E+00 0.  1.
         11    1    4    4    0    0  0.34081588180E+02 -0.10722601679E+02 -0.14031184319E+02  0.38384931588E+02  0.00000000000E+00 0. -1.
</event>
<event>
 8    1  0.6869405E-009  0.1021304E+03  0.7561462E-02  0.1275879E+00
         -2   -1    0    0    0  501 -0.00000000000E+00  0.00000000000E+00  0.61636165654E+02  0.61636165654E+02  0.00000000000E+00 0.  1.
          2   -1    0    0  501    0  0.00000000000E+00 -0.00000000000E+00 -0.23419019279E+03  0.23419019279E+03  0.00000000000E+00 0. -1.
         25    2    1    2    0    0  0.22657860528E+02  0.41496244554E+02 -0.66360038174E+02  0.14928874931E+03  0.12509260189E+03 0.  0.
         23    2    1    2    0    0 -0.22657860528E+02 -0.41496244554E+02 -0.10619398896E+03  0.14653760913E+03  0.89223262907E+02 0.  0.
          5    1    3    3  502    0  0.55316665334E+02  0.44902559758E+02 -0.85246873981E+02  0.11117857375E+03  0.41800000000E+01 0. -1.
         -5    1    3    3    0  502 -0.32658804806E+02 -0.34063152038E+01  0.18886835807E+02  0.38110175563E+02  0.41800000000E+01 0. -1.
        -11    1    4    4    0    0 -0.24046700226E+02 -0.68578442583E+02 -0.66778287228E+02  0.98694408271E+02  0.00000000000E+00 0.  1.
         11    1    4    4    0    0  0.13888396985E+01  0.27082198029E+02 -0.39415701733E+02  0.47843200864E+02  0.00000000000E+00 0. -1.
</event>
<event>
 8    1  0.6869405E-009  0.1148907E+03  0.7561462E-02  0.1251772E+00
          2   -1    0    0  501    0  0.00000000000E+00  0.00000000000E+00  0.43347916778E+03  0.43347916778E+03  0.00000000000E+00 0. -1.
         -2   -1    0    0    0  501 -0.00000000000E+00 -0.00000000000E+00 -0.37653106622E+02  0.37653106622E+02  0.00000000000E+00 0.  1.
         25    2    1    2    0    0  0.42619252668E+02  0.63442050225E+01  0.31498193125E+03  0.34164017068E+03  0.12509092522E+03 0.  0.
         23    2    1    2    0    0 -0.42619252668E+02 -0.63442050225E+01  0.80844129910E+02  0.12949210373E+03  0.91519298245E+02 0.  0.
          5    1    3    3  502    0  0.84580882479E+02  0.15670986715E+02  0.17326299012E+03  0.19348654126E+03  0.41800000000E+01 0.  1.
         -5    1    3    3    0  502 -0.41961629811E+02 -0.93267816922E+01  0.14171894113E+03  0.14815362942E+03  0.41800000000E+01 0.  1.
        -11    1    4    4    0    0  0.20564068290E+02 -0.27052164205E+02  0.34638905499E+02  0.48523749515E+02  0.00000000000E+00 0.  1.
         11    1    4    4    0    0 -0.63183320958E+02  0.20707959183E+02  0.46205224411E+02  0.80968354211E+02  0.00000000000E+00 0. -1.
</event>
<event>
 8    1  0.6869405E-009  0.1150072E+03  0.7561462E-02  0.1251569E+00
         -1   -1    0    0    0  501 -0.00000000000E+00  0.00000000000E+00  0.64706896488E+03  0.64706896488E+03  0.00000000000E+00 0.  1.
          1   -1    0    0  501    0  0.00000000000E+00 -0.00000000000E+00 -0.24809618426E+02  0.24809618426E+02  0.00000000000E+00 0. -1.
         25    2    1    2    0    0 -0.52548984364E+02  0.25790540695E+02  0.42900072569E+03  0.45068327269E+03  0.12508893593E+03 0.  0.
         23    2    1    2    0    0  0.52548984364E+02 -0.25790540695E+02  0.19325862077E+03  0.22119531062E+03  0.90288001372E+02 0.  0.
          5    1    3    3  502    0 -0.12462284335E+02 -0.47988886027E+02  0.10893307959E+03  0.11975863201E+03  0.41800000000E+01 0.  1.
         -5    1    3    3    0  502 -0.40086700029E+02  0.73779426722E+02  0.32006764610E+03  0.33092464068E+03  0.41800000000E+01 0.  1.
        -11    1    4    4    0    0 -0.12706189501E+02  0.14669216506E+02  0.86327658101E+01  0.21240475749E+02  0.00000000000E+00 0. -1.
         11    1    4    4    0    0  0.65255173865E+02 -0.40459757201E+02  0.18462585496E+03  0.19995483487E+03  0.00000000000E+00 0.  1.
</event>
<event>
 8    1  0.6869405E-009  0.1488532E+03  0.7561462E-02  0.1201889E+00
          1   -1    0    0  501    0  0.00000000000E+00  0.00000000000E+00  0.28558634601E+03  0.28558634601E+03  0.00000000000E+00 0. -1.
         -1   -1    0    0    0  501 -0.00000000000E+00 -0.00000000000E+00 -0.90421390537E+02  0.90421390537E+02  0.00000000000E+00 0.  1.
         25    2    1    2    0    0  0.94754713070E+02 -0.52564527268E+02  0.57206386562E+02  0.17512689005E+03  0.12512142814E+03 0.  0.
         23    2    1    2    0    0 -0.94754713070E+02  0.52564527268E+02  0.13795856891E+03  0.20088084650E+03  0.97872685548E+02 0.  0.
          5    1    3    3  502    0 -0.24391874160E+02 -0.31710234105E+02 -0.22385575903E+01  0.40286300551E+02  0.41800000000E+01 0. -1.
         -5    1    3    3    0  502  0.11914658723E+03 -0.20854293163E+02  0.59444944152E+02  0.13484058950E+03  0.41800000000E+01 0. -1.
        -11    1    4    4    0    0 -0.10971789573E+03  0.39573513707E+02  0.84960953165E+02  0.14429983781E+03  0.00000000000E+00 0.  1.
         11    1    4    4    0    0  0.14963182658E+02  0.12991013560E+02  0.52997615748E+02  0.56581008683E+02  0.00000000000E+00 0. -1.
</event>
<event>
 8    1  0.6869405E-009  0.1448538E+03  0.7561462E-02  0.1206943E+00
          2   -1    0    0  501    0  0.00000000000E+00  0.00000000000E+00  0.12892273947E+03  0.12892273947E+03  0.00000000000E+00 0.  1.
         -2   -1    0    0    0  501 -0.00000000000E+00 -0.00000000000E+00 -0.20216589886E+03  0.20216589886E+03  0.00000000000E+00 0. -1.
         25    2    1    2    0    0  0.43023006302E+02 -0.10331535431E+03 -0.86578883649E+02  0.18886060086E+03  0.12508949579E+03 0.  0.
         23    2    1    2    0    0 -0.43023006302E+02  0.10331535431E+03  0.13335724258E+02  0.14222803747E+03  0.86752127307E+02 0.  0.
          5    1    3    3  502    0 -0.42439214920E+02 -0.25555248285E+02 -0.11579467873E+02  0.51046196275E+02  0.41800000000E+01 0.  1.
         -5    1    3    3    0  502  0.85462221222E+02 -0.77760106027E+02 -0.74999415776E+02  0.13781440459E+03  0.41800000000E+01 0.  1.
        -11    1    4    4    0    0 -0.47053828417E+02  0.42445613869E+02 -0.27226152961E+02  0.68970691678E+02  0.00000000000E+00 0. -1.
         11    1    4    4    0    0  0.40308221150E+01  0.60869740442E+02  0.40561877219E+02  0.73257345789E+02  0.00000000000E+00 0.  1.
</event>
<event>
 8    1  0.6869405E-009  0.1005751E+03  0.7561462E-02  0.1279091E+00
          2   -1    0    0  501    0  0.00000000000E+00  0.00000000000E+00  0.20430613718E+03  0.20430613718E+03  0.00000000000E+00 0. -1.
         -2   -1    0    0    0  501 -0.00000000000E+00 -0.00000000000E+00 -0.80746116717E+02  0.80746116717E+02  0.00000000000E+00 0.  1.
         25    2    1    2    0    0  0.55216555027E+02  0.40600546069E+02  0.51344273157E+02  0.15158255446E+03  0.12507503405E+03 0.  0.
         23    2    1    2    0    0 -0.55216555027E+02 -0.40600546069E+02  0.72215747305E+02  0.13346969943E+03  0.88891924366E+02 0.  0.
          5    1    3    3  502    0  0.12378368007E+02  0.75599505740E+02  0.57345558029E+02  0.95783582562E+02  0.41800000000E+01 0. -1.
         -5    1    3    3    0  502  0.42838187019E+02 -0.34998959671E+02 -0.60012848724E+01  0.55798971901E+02  0.41800000000E+01 0. -1.
        -11    1    4    4    0    0 -0.11957354716E+02 -0.51246212648E+01 -0.21029917784E+02  0.24728475831E+02  0.00000000000E+00 0.  1.
         11    1    4    4    0    0 -0.43259200310E+02 -0.35475924804E+02  0.93245665089E+02  0.10874122360E+03  0.00000000000E+00 0. -1.
</event>
<event>
 8    1  0.6869405E-009  0.1119795E+03  0.7561462E-02  0.1256947E+00
         -2   -1    0    0    0  501 -0.00000000000E+00  0.00000000000E+00  0.26780043752E+03  0.26780043752E+03  0.00000000000E+00 0.  1.
          2   -1    0    0  501    0  0.00000000000E+00 -0.00000000000E+00 -0.58955121699E+02  0.58955121699E+02  0.00000000000E+00 0. -1.
         25    2    1    2    0    0  0.50152694766E+02  0.12050068130E+02  0.68184533248E+02  0.15151461971E+03  0.12508817881E+03 0.  0.
         23    2    1    2    0    0 -0.50152694766E+02 -0.12050068130E+02  0.14066078258E+03  0.17524093951E+03  0.90903433336E+02 0.  0.
          5    1    3    3  502    0 -0.25730668080E+02  0.33468522934E+02 -0.63955333215E+01  0.42902034377E+02  0.41800000000E+01 0. -1.
         -5    1    3    3    0  502  0.75883362846E+02 -0.21418454804E+02  0.74580066570E+02  0.10861258533E+03  0.41800000000E+01 0. -1.
        -11    1    4    4    0    0 -0.48456554964E+02  0.32274203571E+02  0.96141934149E+02  0.11239632306E+03  0.00000000000E+00 0. -1.
         11    1    4    4    0    0 -0.16961398017E+01 -0.44324271701E+02  0.44518848428E+02  0.62844616455E+02  0.00000000000E+00 0.  1.
</event>
<event>
 8    1  0.6869405E-009  0.1016077E+03  0.7561462E-02  0.1276951E+00
         -2   -1    0    0    0  501 -0.00000000000E+00  0.00000000000E+00  0.37479589333E+02  0.37479589333E+02  0.00000000000E+00 0. -1.
          2   -1    0    0  501    0  0.00000000000E+00 -0.00000000000E+00 -0.29930264789E+03  0.29930264789E+03  0.00000000000E+00 0.  1.
         25    2    1    2    0    0 -0.90292622472E+01  0.45733927733E+02 -0.20016263291E+03  0.24059468465E+03  0.12509037910E+03 0.  0.
         23    2    1    2    0    0  0.90292622472E+01 -0.45733927733E+02 -0.61660425648E+02  0.96187552579E+02  0.57244366163E+02 0.  0.
          5    1    3    3  502    0 -0.38351189763E+01 -0.41535274215E+02 -0.39292559558E+02  0.57456633893E+02  0.41800000000E+01 0. -1.
         -5    1    3    3    0  502 -0.51941432709E+01  0.87269201948E+02 -0.16087007335E+03  0.18313805075E+03  0.41800000000E+01 0. -1.
        -11    1    4    4    0    0 -0.19602069550E+02 -0.40037526850E+02 -0.35463205771E+02  0.56963880227E+02  0.00000000000E+00 0.  1.
         11    1    4    4    0    0  0.28631331797E+02 -0.56964008829E+01 -0.26197219877E+02  0.39223672352E+02  0.00000000000E+00 0. -1.
</event>
<event>
 8    1  0.6869405E-009  0.2517811E+03  0.7561462E-02  0.1112184E+00
          1   -1    0    0  501    0  0.00000000000E+00  0.00000000000E+00  0.43678375614E+02  0.43678375614E+02  0.00000000000E+00 0. -1.
         -1   -1    0    0    0  501 -0.00000000000E+00 -0.00000000000E+00 -0.16038223356E+04  0.16038223356E+04  0.00000000000E+00 0.  1.
         25    2    1    2    0    0  0.23133490499E+03 -0.34930180349E+02 -0.96325449817E+03  0.99912089235E+03  0.12508946210E+03 0.  0.
         23    2    1    2    0    0 -0.23133490499E+03  0.34930180349E+02 -0.59688946183E+03  0.64837981887E+03  0.96867972602E+02 0.  0.
          5    1    3    3  502    0 -0.13924901208E+02  0.69304041969E+01 -0.72002945804E+02  0.73782314821E+02  0.41800000000E+01 0.  1.
         -5    1    3    3    0  502  0.24525980619E+03 -0.41860584546E+02 -0.89125155236E+03  0.92533857753E+03  0.41800000000E+01 0.  1.
        -11    1    4    4    0    0 -0.43989785872E+02  0.25907976323E+02 -0.23821788782E+03  0.24362694140E+03  0.00000000000E+00 0.  1.
         11    1    4    4    0    0 -0.18734511911E+03  0.90222040261E+01 -0.35867157400E+03  0.40475287747E+03  0.00000000000E+00 0. -1.
</event>
<event>
 8    1  0.6869405E-009  0.9264721E+02  0.7561462E-02  0.1296565E+00
         -1   -1    0    0    0  501 -0.00000000000E+00  0.00000000000E+00  0.26834969273E+03  0.26834969273E+03  0.00000000000E+00 0. -1.
          1   -1    0    0  501    0  0.00000000000E+00 -0.00000000000E+00 -0.45360416722E+02  0.45360416722E+02  0.00000000000E+00 0.  1.
         25    2    1    2    0    0  0.19330637179E+02 -0.12698850529E+02  0.12455601742E+03  0.17803432120E+03  0.12508830366E+03 0.  0.
         23    2    1    2    0    0 -0.19330637179E+02  0.12698850529E+02  0.98433258595E+02  0.13567578826E+03  0.90464793058E+02 0.  0.
          5    1    3    3  502    0 -0.88574548424E+01  0.40303229825E+02  0.10789667804E+03  0.11559398934E+03  0.41800000000E+01 0. -1.
         -5    1    3    3    0  502  0.28188092021E+02 -0.53002080354E+02  0.16659339377E+02  0.62440331854E+02  0.41800000000E+01 0. -1.
        -11    1    4    4    0    0  0.31643743465E+02  0.34026613770E+01  0.10321614902E+02  0.33458038483E+02  0.00000000000E+00 0.  1.
         11    1    4    4    0    0 -0.50974380643E+02  0.92961891521E+01  0.88111643692E+02  0.10221774977E+03  0.00000000000E+00 0. -1.
</event>
<event>
 8    1  0.6869405E-009  0.1139825E+03  0.7561462E-02  0.1253368E+00
         -1   -1    0    0    0  501 -0.00000000000E+00  0.00000000000E+00  0.97145439687E+02  0.97145439687E+02  0.00000000000E+00 0.  1.
          1   -1    0    0  501    0  0.00000000000E+00 -0.00000000000E+00 -0.21958819158E+03  0.21958819158E+03  0.00000000000E+00 0. -1.
         25    2    1    2    0    0 -0.92668134335E+02 -0.31142598143E+02 -0.74124055762E+02  0.17521350135E+03  0.12509256921E+03 0.  0.
         23    2    1    2    0    0  0.92668134335E+02  0.31142598143E+02 -0.48318696130E+02  0.14152012992E+03  0.90199812840E+02 0.  0.
          5    1    3    3  502    0 -0.80118075301E+02 -0.39517375265E+02 -0.10660895745E+03  0.13915269005E+03  0.41800000000E+01 0. -1.
         -5    1    3    3    0  502 -0.12550059034E+02  0.83747771223E+01  0.32484901693E+02  0.36060811300E+02  0.41800000000E+01 0. -1.
        -11    1    4    4    0    0  0.26687507434E+02  0.47872518160E+02 -0.48895482935E+02  0.73449093251E+02  0.00000000000E+00 0. -1.
         11    1    4    4    0    0  0.65980626901E+02 -0.16729920017E+02  0.57678680458E+00  0.68071036667E+02  0.00000000000E+00 0.  1.
</event>
<event>
 8    1  0.6869405E-009  0.9705938E+02  0.7561462E-02  0.1286604E+00
          2   -1    0    0  501    0  0.00000000000E+00  0.00000000000E+00  0.16739930460E+03  0.16739930460E+03  0.00000000000E+00 0. -1.
         -2   -1    0    0    0  501 -0.00000000000E+00 -0.00000000000E+00 -0.87326773385E+02  0.87326773385E+02  0.00000000000E+00 0.  1.
         25    2    1    2    0    0 -0.14572616667E+02  0.37030840030E+02  0.19393364826E+01  0.13128055475E+03  0.12508868358E+03 0.  0.
         23    2    1    2    0    0  0.14572616667E+02 -0.37030840030E+02  0.78133194731E+02  0.12344552324E+03  0.86892789220E+02 0.  0.
          5    1    3    3  502    0  0.40222435871E+02  0.59333803449E+02  0.42322713276E+01  0.71928638939E+02  0.41800000000E+01 0. -1.
         -5    1    3    3    0  502 -0.54795052538E+02 -0.22302963419E+02 -0.22929348450E+01  0.59351915809E+02  0.41800000000E+01 0. -1.
        -11    1    4    4    0    0 -0.12502960662E+02  0.46201180118E+01  0.72193666837E+02  0.73413861410E+02  0.00000000000E+00 0. -1.
         11    1    4    4    0    0  0.27075577330E+02 -0.41650958041E+02  0.59395278938E+01  0.50031661826E+02  0.00000000000E+00 0.  1.
</event>
<event>
 8    1  0.6869405E-009  0.1851559E+03  0.7561462E-02  0.1162904E+00
          1   -1    0    0  501    0  0.00000000000E+00  0.00000000000E+00  0.13580795325E+03  0.13580795325E+03  0.00000000000E+00 0. -1.
         -1   -1    0    0    0  501 -0.00000000000E+00 -0.00000000000E+00 -0.39702858369E+03  0.39702858369E+03  0.00000000000E+00 0.  1.
         25    2    1    2    0    0 -0.15423391995E+03 -0.48638308327E+02 -0.27934864508E+03  0.34617503154E+03  0.12509076645E+03 0.  0.
         23    2    1    2    0    0  0.15423391995E+03  0.48638308327E+02  0.18128014631E+02  0.18666150541E+03  0.91433612998E+02 0.  0.
          5    1    3    3  502    0  0.19340557466E+02  0.75174684986E+01 -0.20468346644E+02  0.29444780693E+02  0.41800000000E+01 0. -1.
         -5    1    3    3    0  502 -0.17357447742E+03 -0.56155776825E+02 -0.25888029844E+03  0.31673025084E+03  0.41800000000E+01 0. -1.
        -11    1    4    4    0    0  0.12507520373E+03  0.21654264183E+02 -0.23527712920E+02  0.12909789704E+03  0.00000000000E+00 0.  1.
         11    1    4    4    0    0  0.29158716217E+02  0.26984044144E+02  0.41655727551E+02  0.57563608361E+02  0.00000000000E+00 0. -1.
</event>
<event>
 8    1  0.6869405E-009  0.8370520E+02  0.7561462E-02  0.1318854E+00
          1   -1    0    0  501    0  0.00000000000E+00  0.00000000000E+00  0.62661307319E+02  0.62661307319E+02  0.00000000000E+00 0. -1.
         -1   -1    0    0    0  501 -0.00000000000E+00 -0.00000000000E+00 -0.25569317694E+03  0.25569317694E+03  0.00000000000E+00 0.  1.
         25    2    1    2    0    0 -0.36133401719E+02  0.25654914902E+02 -0.16467955415E+03  0.21149606175E+03  0.12508969263E+03 0.  0.
         23    2    1    2    0    0  0.36133401719E+02 -0.25654914902E+02 -0.28352315468E+02  0.10685842251E+03  0.93011135302E+02 0.  0.
          5    1    3    3  502    0  0.56069196709E+01  0.33686231646E+02 -0.16523769682E+03  0.16878142256E+03  0.41800000000E+01 0. -1.
         -5    1    3    3    0  502 -0.41740321389E+02 -0.80313167442E+01  0.55814266479E+00  0.42714639195E+02  0.41800000000E+01 0. -1.
        -11    1    4    4    0    0 -0.25219716429E+02 -0.76477185338E+01 -0.33600114311E+02  0.42702334565E+02  0.00000000000E+00 0.  1.
         11    1    4    4    0    0  0.61353118148E+02 -0.18007196368E+02  0.52477988427E+01  0.64156087944E+02  0.00000000000E+00 0. -1.
</event>
<event>
 8    1  0.6869405E-009  0.1766363E+03  0.7561462E-02  0.1171099E+00
         -2   -1    0    0    0  501 -0.00000000000E+00  0.00000000000E+00  0.28854830203E+03  0.28854830203E+03  0.00000000000E+00 0.  1.
          2   -1    0    0  501    0  0.00000000000E+00 -0.00000000000E+00 -0.13758802663E+03  0.13758802663E+03  0.00000000000E+00 0. -1.
         25    2    1    2    0    0  0.14254147935E+03 -0.86310643992E+02  0.70142420919E+02  0.21985038616E+03  0.12508649999E+03 0.  0.
         23    2    1    2    0    0 -0.14254147935E+03  0.86310643992E+02  0.80817854477E+02  0.20628594251E+03  0.90855731095E+02 0.  0.
          5    1    3    3  502    0 -0.91969072062E+00 -0.30453625719E+02  0.57645698001E+02  0.65335809848E+02  0.41800000000E+01 0.  1.
         -5    1    3    3    0  502  0.14346117007E+03 -0.55857018274E+02  0.12496722918E+02  0.15451457631E+03  0.41800000000E+01 0.  1.
        -11    1    4    4    0    0 -0.81858680922E+02  0.63810974497E+02  0.13530358959E+01  0.10380036038E+03  0.00000000000E+00 0.  1.
         11    1    4    4    0    0 -0.60682798426E+02  0.22499669496E+02  0.79464818581E+02  0.10248558213E+03  0.00000000000E+00 0. -1.
</event>
<event>
 8    1  0.6869405E-009  0.9925273E+02  0.7561462E-02  0.1281875E+00
          1   -1    0    0  501    0  0.00000000000E+00  0.00000000000E+00  0.35629229710E+02  0.35629229710E+02  0.00000000000E+00 0. -1.
         -1   -1    0    0    0  501 -0.00000000000E+00 -0.00000000000E+00 -0.37660328781E+03  0.37660328781E+03  0.00000000000E+00 0.  1.
         25    2    1    2    0    0  0.17710048193E+02 -0.23499166157E+02 -0.23422059611E+03  0.26715699446E+03  0.12509082873E+03 0.  0.
         23    2    1    2    0    0 -0.17710048193E+02  0.23499166157E+02 -0.10675346200E+03  0.14507552306E+03  0.93726992517E+02 0.  0.
          5    1    3    3  502    0  0.16066694808E+02 -0.69835793300E+02 -0.18934863589E+03  0.20249828400E+03  0.41800000000E+01 0.  1.
         -5    1    3    3    0  502  0.16433533855E+01  0.46336627142E+02 -0.44871960216E+02  0.64658710464E+02  0.41800000000E+01 0.  1.
        -11    1    4    4    0    0 -0.42503702834E+02 -0.45345680959E+01 -0.97596557885E+02  0.10654677458E+03  0.00000000000E+00 0.  1.
         11    1    4    4    0    0  0.24793654641E+02  0.28033734253E+02 -0.91569041107E+01  0.38528748481E+02  0.00000000000E+00 0. -1.
</event>
<event>
 8    1  0.6869405E-009  0.1077328E+03  0.7561462E-02  0.1264827E+00
         -2   -1    0    0    0  501 -0.00000000000E+00  0.00000000000E+00  0.15568047592E+02  0.15568047592E+02  0.00000000000E+00 0.  1.
          2   -1    0    0  501    0  0.00000000000E+00 -0.00000000000E+00 -0.12528909116E+04  0.12528909116E+04  0.00000000000E+00 0. -1.
         25    2    1    2    0    0  0.43872451339E+02  0.67256820114E+01 -0.10186006898E+04  0.10272121605E+04  0.12508969050E+03 0.  0.
         23    2    1    2    0    0 -0.43872451339E+02 -0.67256820114E+01 -0.21872217429E+03  0.24124679876E+03  0.91600227070E+02 0.  0.
          5    1    3    3  502    0 -0.70681262161E+01 -0.46403375456E+02 -0.62447991702E+03  0.62625543576E+03  0.41800000000E+01 0. -1.
         -5    1    3    3    0  502  0.50940577555E+02  0.53129057468E+02 -0.39412077274E+03  0.40095672471E+03  0.41800000000E+01 0. -1.
        -11    1    4    4    0    0 -0.26830866872E+02  0.38135895090E+02 -0.15246613507E+03  0.15943702285E+03  0.00000000000E+00 0.  1.
         11    1    4    4    0    0 -0.17041584467E+02 -0.44861577102E+02 -0.66256039223E+02  0.81809775911E+02  0.00000000000E+00 0. -1.
</event>
<event>
 7    1  0.6869405E-009  0.8874470E+02  0.7561462E-02  0.1305920E+00
          3   -1    0    0  501    0  0.00000000000E+00  0.00000000000E+00  0.16783813692E+03  0.16783813692E+03  0.00000000000E+00 0. -1.
         -3   -1    0    0    0  501 -0.00000000000E+00 -0.00000000000E+00 -0.10927253668E+03  0.10927253668E+03  0.00000000000E+00 0.  1.
         23    2    1    2    0    0  0.77070722907E+02 -0.17835988280E+02  0.52645293832E+01  0.11973212365E+03  0.89722056133E+02 0.  0.
          5    1    1    2  502    0 -0.46732242510E+01  0.35113207535E+01 -0.38699402468E+02  0.39360952094E+02  0.41800000000E+01 0. -1.
         -5    1    1    2    0  502 -0.72397498656E+02  0.14324667526E+02  0.92000473324E+02  0.11801759785E+03  0.41800000000E+01 0. -1.
        -11    1    3    3    0    0  0.82467264370E+02 -0.51850986252E+01  0.32840113046E+02  0.88916859848E+02  0.00000000000E+00 0. -1.
         11    1    3    3    0    0 -0.53965414626E+01 -0.12650889655E+02 -0.27575583663E+02  0.30815263801E+02  0.00000000000E+00 0.  1.
</event>
<event>
 8    1  0.6869405E-009  0.9349851E+02  0.7561462E-02  0.1294594E+00
         -2   -1    0    0    0  501 -0.00000000000E+00  0.00000000000E+00  0.10836202236E+03  0.10836202236E+03  0.00000000000E+00 0. -1.
          2   -1    0    0  501    0  0.00000000000E+00 -0.00000000000E+00 -0.11475015579E+03  0.11475015579E+03  0.00000000000E+00 0.  1.
         25    2    1    2    0    0  0.13985586317E+02  0.10691339247E+02  0.12220588085E+02  0.12691728830E+03  0.12509497967E+03 0.  0.
         23    2    1    2    0    0 -0.13985586317E+02 -0.10691339247E+02 -0.18608721515E+02  0.96194889844E+02  0.92721469769E+02 0.  0.
          5    1    3    3  502    0  0.25880987091E+02 -0.40845840356E+02 -0.31758759891E+02  0.58002580951E+02  0.41800000000E+01 0. -1.
         -5    1    3    3    0  502 -0.11895400773E+02  0.51537179603E+02  0.43979347976E+02  0.68914707352E+02  0.41800000000E+01 0. -1.
        -11    1    4    4    0    0  0.17945570691E+02 -0.38873285706E+02  0.11144532967E+02  0.44242247502E+02  0.00000000000E+00 0.  1.
         11    1    4    4    0    0 -0.31931157008E+02  0.28181946459E+02 -0.29753254481E+02  0.51952642342E+02  0.00000000000E+00 0. -1.
</event>
<event>
 8    1  0.6869405E-009  0.1530998E+03  0.7561462E-02  0.1196715E+00
         -1   -1    0    0    0  501 -0.00000000000E+00  0.00000000000E+00  0.36410536164E+02  0.36410536164E+02  0.00000000000E+00 0.  1.
          1   -1    0    0  501    0  0.00000000000E+00 -0.00000000000E+00 -0.85425020909E+03  0.85425020909E+03  0.00000000000E+00 0. -1.
         25    2    1    2    0    0 -0.13013847378E+03 -0.23220126265E+02 -0.53878236232E+03  0.56869055538E+03  0.12508923696E+03 0.  0.
         23    2    1    2    0    0  0.13013847378E+03  0.23220126265E+02 -0.27905731061E+03  0.32197018988E+03  0.91195525913E+02 0.  0.
          5    1    3    3  502    0 -0.11285214160E+02  0.19068867373E+02 -0.27856459481E+03  0.27947572997E+03  0.41800000000E+01 0.  1.
         -5    1    3    3    0  502 -0.11885325962E+03 -0.42288993638E+02 -0.26021776751E+03  0.28921482540E+03  0.41800000000E+01 0.  1.
        -11    1    4    4    0    0  0.10576924970E+03 -0.20159220341E+02 -0.21853788578E+03  0.24362334836E+03  0.00000000000E+00 0. -1.
         11    1    4    4    0    0  0.24369224081E+02  0.43379346606E+02 -0.60519424830E+02  0.78346841519E+02  0.00000000000E+00 0.  1.
</event>
<event>
 8    1  0.6869405E-009  0.1470845E+03  0.7561462E-02  0.1204102E+00
          2   -1    0    0  501    0  0.00000000000E+00  0.00000000000E+00  0.89949080860E+03  0.89949080860E+03  0.00000000000E+00 0. -1.
         -2   -1    0    0    0  501 -0.00000000000E+00 -0.00000000000E+00 -0.29577993021E+02  0.29577993021E+02  0.00000000000E+00 0.  1.
         25    2    1    2    0    0 -0.28615066215E+02 -0.11304460161E+03  0.55133129614E+03  0.57724587852E+03  0.12509477285E+03 0.  0.
         23    2    1    2    0    0  0.28615066215E+02  0.11304460161E+03  0.31858151944E+03  0.35182292310E+03  0.93205583123E+02 0.  0.
          5    1    3    3  502    0 -0.42999183321E+01 -0.11945197584E+03  0.53193486462E+03  0.54521503687E+03  0.41800000000E+01 0.  1.
         -5    1    3    3    0  502 -0.24315147883E+02  0.64073742269E+01  0.19396431520E+02  0.32030841650E+02  0.41800000000E+01 0.  1.
        -11    1    4    4    0    0  0.34337335644E+02 -0.15179701742E+01  0.81474400168E+02  0.88427567733E+02  0.00000000000E+00 0.  1.
         11    1    4    4    0    0 -0.57222694288E+01  0.11456257178E+03  0.23710711927E+03  0.26339535537E+03  0.00000000000E+00 0. -1.
</event>
<event>
 8    1  0.6869405E-009  0.9567576E+02  0.7561462E-02  0.1289661E+00
          1   -1    0    0  501    0  0.00000000000E+00  0.00000000000E+00  0.23765126710E+03  0.23765126710E+03  0.00000000000E+00 0. -1.
         -1   -1    0    0    0  501 -0.00000000000E+00 -0.00000000000E+00 -0.59799177956E+02  0.59799177956E+02  0.00000000000E+00 0.  1.
         25    2    1    2    0    0  0.37778336422E+02  0.27361987252E+02  0.11539880505E+03  0.17646758792E+03  0.12509214335E+03 0.  0.
         23    2    1    2    0    0 -0.37778336422E+02 -0.27361987252E+02  0.62453284095E+02  0.12098285714E+03  0.92523283440E+02 0.  0.
          5    1    3    3  502    0 -0.11846865165E+02  0.35698578443E+02 -0.11776794468E+02  0.39634606154E+02  0.41800000000E+01 0.  1.
         -5    1    3    3    0  502  0.49625201587E+02 -0.83365911908E+01  0.12717559952E+03  0.13683298176E+03  0.41800000000E+01 0.  1.
        -11    1    4    4    0    0 -0.30380497530E+02  0.31456052004E+02  0.20121318942E+02  0.48138605234E+02  0.00000000000E+00 0.  1.
         11    1    4    4    0    0 -0.73978388919E+01 -0.58818039256E+02  0.42331965153E+02  0.72844251907E+02  0.00000000000E+00 0. -1.
</event>
<event>
 8    1  0.6869405E-009  0.3846527E+03  0.7561462E-02  0.1049227E+00
         -2   -1    0    0    0  501 -0.00000000000E+00  0.00000000000E+00  0.80206794897E+03  0.80206794897E+03  0.00000000000E+00 0.  1.
          2   -1    0    0  501    0  0.00000000000E+00 -0.00000000000E+00 -0.24905274948E+03  0.24905274948E+03  0.00000000000E+00 0. -1.
         25    2    1    2    0    0 -0.30509265940E+03  0.21658215451E+03  0.53728632165E+03  0.66656904551E+03  0.12509332725E+03 0.  0.
         23    2    1    2    0    0  0.30509265940E+03 -0.21658215451E+03  0.15728877835E+02  0.38455165295E+03  0.87425486650E+02 0.  0.
          5    1    3    3  502    0 -0.86247030503E+02  0.24315634574E+00  0.13053129807E+03  0.15650719335E+03  0.41800000000E+01 0. -1.
         -5    1    3    3    0  502 -0.21884562890E+03  0.21633899816E+03  0.40675502358E+03  0.51006185215E+03  0.41800000000E+01 0. -1.
        -11    1    4    4    0    0  0.20688344403E+03 -0.16259896796E+03  0.48983492380E+02  0.26765381806E+03  0.00000000000E+00 0. -1.
         11    1    4    4    0    0  0.98209215370E+02 -0.53983186549E+02 -0.33254614545E+02  0.11689783489E+03  0.00000000000E+00 0.  1.
</event>
<event>
 8    1  0.6869405E-009  0.3131422E+03  0.7561462E-02  0.1078849E+00
          2   -1    0    0  501    0  0.00000000000E+00  0.00000000000E+00  0.27924042610E+04  0.27924042610E+04  0.00000000000E+00 0. -1.
         -2   -1    0    0    0  501 -0.00000000000E+00 -0.00000000000E+00 -0.37479146865E+02  0.37479146865E+02  0.00000000000E+00 0.  1.
         25    2    1    2    0    0  0.26457418579E+03 -0.15726057878E+03  0.15082218636E+04  0.15443805221E+04  0.12509043910E+03 0.  0.
         23    2    1    2    0    0 -0.26457418579E+03  0.15726057878E+03  0.12467032505E+04  0.12855028857E+04  0.59315131639E+02 0.  0.
          5    1    3    3  502    0  0.78571672282E+02 -0.12545821363E+02  0.63227205764E+03  0.63727257323E+03  0.41800000000E+01 0. -1.
         -5    1    3    3    0  502  0.18600251351E+03 -0.14471475741E+03  0.87594980594E+03  0.90710794891E+03  0.41800000000E+01 0. -1.
        -11    1    4    4    0    0 -0.17765233538E+03  0.12883512243E+03  0.80124634721E+03  0.83075540922E+03  0.00000000000E+00 0.  1.
         11    1    4    4    0    0 -0.86921850415E+02  0.28425456342E+02  0.44545690330E+03  0.45474747646E+03  0.00000000000E+00 0. -1.
</event>
<event>
 8    1  0.6869405E-009  0.1361480E+03  0.7561462E-02  0.1218608E+00
          2   -1    0    0  501    0  0.00000000000E+00  0.00000000000E+00  0.35467369340E+03  0.35467369340E+03  0.00000000000E+00 0. -1.
         -2   -1    0    0    0  501 -0.00000000000E+00 -0.00000000000E+00 -0.12327471635E+03  0.12327471635E+03  0.00000000000E+00 0.  1.
         25    2    1    2    0    0 -0.57315090968E+02  0.10113375362E+03  0.27438194904E+03  0.32317975842E+03  0.12508655610E+03 0.  0.
         23    2    1    2    0    0  0.57315090968E+02 -0.10113375362E+03 -0.42982971992E+02  0.15476865133E+03  0.92697053784E+02 0.  0.
          5    1    3    3  502    0 -0.64382237533E+02  0.76600618330E+02  0.27941734394E+03  0.29682360373E+03  0.41800000000E+01 0. -1.
         -5    1    3    3    0  502  0.70671465657E+01  0.24533135290E+02 -0.50353949015E+01  0.26356154681E+02  0.41800000000E+01 0. -1.
        -11    1    4    4    0    0  0.19795024476E+01  0.16319368310E+02 -0.14332361027E+02  0.21809557185E+02  0.00000000000E+00 0.  1.
         11    1    4    4    0    0  0.55335588520E+02 -0.11745312193E+03 -0.28650610965E+02  0.13295909415E+03  0.00000000000E+00 0. -1.
</event>
<event>
 8    1  0.6869405E-009  0.1206478E+03  0.7561462E-02  0.1242032E+00
          1   -1    0    0  501    0  0.00000000000E+00  0.00000000000E+00  0.12298051323E+03  0.12298051323E+03  0.00000000000E+00 0. -1.
         -1   -1    0    0    0  501 -0.00000000000E+00 -0.00000000000E+00 -0.16760033626E+03  0.16760033626E+03  0.00000000000E+00 0.  1.
         25    2    1    2    0    0  0.57922140659E+02  0.34687311158E+02 -0.88376598901E+02  0.16738027895E+03  0.12509016994E+03 0.  0.
         23    2    1    2    0    0 -0.57922140659E+02 -0.34687311158E+02  0.43756775874E+02  0.12320057053E+03  0.93303489810E+02 0.  0.
          5    1    3    3  502    0  0.55333234341E+02  0.75027388419E+02 -0.85624249498E+02  0.12664857022E+03  0.41800000000E+01 0. -1.
         -5    1    3    3    0  502  0.25889063181E+01 -0.40340077262E+02 -0.27523494035E+01  0.40731708737E+02  0.41800000000E+01 0. -1.
        -11    1    4    4    0    0 -0.68784066537E+02  0.22664852770E+01  0.57053716090E+01  0.69057483520E+02  0.00000000000E+00 0.  1.
         11    1    4    4    0    0  0.10861925878E+02 -0.36953796435E+02  0.38051404265E+02  0.54143087013E+02  0.00000000000E+00 0. -1.
</event>
<event>
 8    1  0.6869405E-009  0.1349049E+03  0.7561462E-02  0.1220354E+00
         -4   -1    0    0    0  501 -0.00000000000E+00  0.00000000000E+00  0.25119373342E+03  0.25119373342E+03  0.00000000000E+00 0.  1.
          4   -1    0    0  501    0  0.00000000000E+00 -0.00000000000E+00 -0.81109154463E+02  0.81109154463E+02  0.00000000000E+00 0. -1.
         25    2    1    2    0    0  0.86477033429E+02  0.28618027194E+02  0.73413253271E+02  0.17127252808E+03  0.12508998493E+03 0.  0.
         23    2    1    2    0    0 -0.86477033429E+02 -0.28618027194E+02  0.96671325690E+02  0.16103035980E+03  0.91039347408E+02 0.  0.
          5    1    3    3  502    0  0.94317779984E+02 -0.17130132587E+02  0.79061952509E+02  0.12432839498E+03  0.41800000000E+01 0. -1.
         -5    1    3    3    0  502 -0.78407465558E+01  0.45748159781E+02 -0.56486992375E+01  0.46944133105E+02  0.41800000000E+01 0. -1.
        -11    1    4    4    0    0 -0.85683109191E+02  0.12096295790E+02  0.53761845411E+02  0.10187370414E+03  0.00000000000E+00 0. -1.
         11    1    4    4    0    0 -0.79392423713E+00 -0.40714322985E+02  0.42909480279E+02  0.59156655666E+02  0.00000000000E+00 0.  1.
</event>
<event>
 8    1  0.6869405E-009  0.1096065E+03  0.7561462E-02  0.1261300E+00
          3   -1    0    0  501    0  0.00000000000E+00  0.00000000000E+00  0.71917705751E+02  0.71917705751E+02  0.00000000000E+00 0. -1.
         -3   -1    0    0    0  501 -0.00000000000E+00 -0.00000000000E+00 -0.25168794026E+03  0.25168794026E+03  0.00000000000E+00 0.  1.
         25    2    1    2    0    0  0.55694953567E+02  0.41776972476E+02 -0.13939580673E+03  0.19981333353E+03  0.12508770539E+03 0.  0.
         23    2    1    2    0    0 -0.55694953567E+02 -0.41776972476E+02 -0.40374427784E+02  0.12379231249E+03  0.94059549912E+02 0.  0.
          5    1    3    3  502    0  0.87944892006E+02  0.33894232910E+02 -0.13689931139E+03  0.16625888522E+03  0.41800000000E+01 0. -1.
         -5    1    3    3    0  502 -0.32249938439E+02  0.78827395665E+01 -0.24964953378E+01  0.33554448310E+02  0.41800000000E+01 0. -1.
        -11    1    4    4    0    0 -0.15111218723E+02 -0.48025385234E+02  0.17087045813E+02  0.53167223858E+02  0.00000000000E+00 0. -1.
         11    1    4    4    0    0 -0.40583734844E+02  0.62484127578E+01 -0.57461473596E+02  0.70625088628E+02  0.00000000000E+00 0.  1.
</event>
<event>
 8    1  0.6869405E-009  0.8162113E+02  0.7561462E-02  0.1324513E+00
          2   -1    0    0  501    0  0.00000000000E+00  0.00000000000E+00  0.37390926121E+03  0.37390926121E+03  0.00000000000E+00 0. -1.
         -2   -1    0    0    0  501 -0.00000000000E+00 -0.00000000000E+00 -0.86902578605E+02  0.86902578605E+02  0.00000000000E+00 0.  1.
         25    2    1    2    0    0  0.69137313688E+02 -0.35837293437E+02  0.30465893063E+03  0.33842085137E+03  0.12508928366E+03 0.  0.
         23    2    1    2    0    0 -0.69137313688E+02  0.35837293437E+02 -0.17652248021E+02  0.12239098845E+03  0.92755983354E+02 0.  0.
          5    1    3    3  502    0  0.24043820395E+02 -0.14446152891E+02  0.28204559222E+03  0.28346778498E+03  0.41800000000E+01 0. -1.
         -5    1    3    3    0  502  0.45093493293E+02 -0.21391140546E+02  0.22613338404E+02  0.54953066384E+02  0.41800000000E+01 0. -1.
        -11    1    4    4    0    0 -0.58216663653E+02  0.42433163055E+02 -0.49951348291E+02  0.87663506945E+02  0.00000000000E+00 0.  1.
         11    1    4    4    0    0 -0.10920650034E+02 -0.65958696178E+01  0.32299100271E+02  0.34727481502E+02  0.00000000000E+00 0. -1.
</event>
<event>
 8    1  0.6869405E-009  0.1410410E+03  0.7561462E-02  0.1211935E+00
          2   -1    0    0  501    0  0.00000000000E+00  0.00000000000E+00  0.63182887951E+03  0.63182887951E+03  0.00000000000E+00 0. -1.
         -2   -1    0    0    0  501 -0.00000000000E+00 -0.00000000000E+00 -0.53219878449E+02  0.53219878449E+02  0.00000000000E+00 0.  1.
         25    2    1    2    0    0 -0.12743433225E+03 -0.19223870531E+02  0.17059023087E+03  0.24770431005E+03  0.12508929658E+03 0.  0.
         23    2    1    2    0    0  0.12743433225E+03  0.19223870531E+02  0.40801877020E+03  0.43734444791E+03  0.90453209169E+02 0.  0.
          5    1    3    3  502    0 -0.79505310285E+02 -0.26873035747E+02  0.15892922431E+02  0.85517903372E+02  0.41800000000E+01 0.  1.
         -5    1    3    3    0  502 -0.47929021964E+02  0.76491652161E+01  0.15469730844E+03  0.16218640668E+03  0.41800000000E+01 0.  1.
        -11    1    4    4    0    0  0.66567996975E+02  0.47944488458E+02  0.15313485645E+03  0.17372465701E+03  0.00000000000E+00 0. -1.
         11    1    4    4    0    0  0.60866335274E+02 -0.28720617928E+02  0.25488391375E+03  0.26361979089E+03  0.00000000000E+00 0.  1.
</event>
<event>
 8    1  0.6869405E-009  0.1063449E+03  0.7561462E-02  0.1267492E+00
          2   -1    0    0  501    0  0.00000000000E+00  0.00000000000E+00  0.51235607851E+03  0.51235607851E+03  0.00000000000E+00 0. -1.
         -2   -1    0    0    0  501 -0.00000000000E+00 -0.00000000000E+00 -0.40842263309E+02  0.40842263309E+02  0.00000000000E+00 0.  1.
         25    2    1    2    0    0 -0.71394770650E+02  0.63557182743E+02  0.24180934902E+03  0.28854199897E+03  0.12509194676E+03 0.  0.
         23    2    1    2    0    0  0.71394770650E+02 -0.63557182743E+02  0.22970446618E+03  0.26465634284E+03  0.90233637139E+02 0.  0.
          5    1    3    3  502    0 -0.19679373375E+02 -0.13406041167E+02 -0.51478953639E+01  0.24717866066E+02  0.41800000000E+01 0.  1.
         -5    1    3    3    0  502 -0.51715397275E+02  0.76963223909E+02  0.24695724438E+03  0.26382413290E+03  0.41800000000E+01 0.  1.
        -11    1    4    4    0    0  0.35985993953E+02 -0.28978018128E+02  0.20345203718E+03  0.20863232905E+03  0.00000000000E+00 0. -1.
         11    1    4    4    0    0  0.35408776697E+02 -0.34579164615E+02  0.26252429002E+02  0.56024013790E+02  0.00000000000E+00 0.  1.
</event>
<event>
 8    1  0.6869405E-009  0.1102614E+03  0.7561462E-02  0.1260087E+00
          2   -1    0    0  501    0  0.00000000000E+00  0.00000000000E+00  0.13168545932E+03  0.13168545932E+03  0.00000000000E+00 0. -1.
         -2   -1    0    0    0  501 -0.00000000000E+00 -0.00000000000E+00 -0.13074164428E+03  0.13074164428E+03  0.00000000000E+00 0.  1.
         25    2    1    2    0    0 -0.38795217928E+02 -0.41544842845E+02 -0.47656109935E+02  0.14542818012E+03  0.12508879989E+03 0.  0.
         23    2    1    2    0    0  0.38795217928E+02  0.41544842845E+02  0.48599924975E+02  0.11699892348E+03  0.89976399604E+02 0.  0.
          5    1    3    3  502    0 -0.75032283414E+02 -0.41569505885E+02 -0.59051681195E+00  0.85881828601E+02  0.41800000000E+01 0. -1.
         -5    1    3    3    0  502  0.36237065486E+02  0.24663040580E-01 -0.47065593123E+02  0.59546351520E+02  0.41800000000E+01 0. -1.
        -11    1    4    4    0    0  0.62369382313E+02  0.18157996466E+02  0.52556409632E+02  0.83557338871E+02  0.00000000000E+00 0. -1.
         11    1    4    4    0    0 -0.23574164385E+02  0.23386846379E+02 -0.39564846572E+01  0.33441584604E+02  0.00000000000E+00 0.  1.
</event>
<event>
 8    1  0.6869405E-009  0.1208530E+03  0.7561462E-02  0.1241697E+00
         -2   -1    0    0    0  501 -0.00000000000E+00  0.00000000000E+00  0.38906739137E+02  0.38906739137E+02  0.00000000000E+00 0.  1.
          2   -1    0    0  501    0  0.00000000000E+00 -0.00000000000E+00 -0.59786757108E+03  0.59786757108E+03  0.00000000000E+00 0. -1.
         25    2    1    2    0    0 -0.17421450805E+02  0.93907766551E+02 -0.40813003805E+03  0.43741897554E+03  0.12507220570E+03 0.  0.
         23    2    1    2    0    0  0.17421450805E+02 -0.93907766551E+02 -0.15083079389E+03  0.19935533467E+03  0.88715531392E+02 0.  0.
          5    1    3    3  502    0 -0.37564179956E+02  0.74083965655E+02 -0.10989298398E+03  0.13781669678E+03  0.41800000000E+01 0. -1.
         -5    1    3    3    0  502  0.20142729151E+02  0.19823800896E+02 -0.29823705407E+03  0.29960227876E+03  0.41800000000E+01 0. -1.
        -11    1    4    4    0    0 -0.35821918195E+02 -0.46341245004E+02 -0.60379512033E+02  0.84121378288E+02  0.00000000000E+00 0. -1.
         11    1    4    4    0    0  0.53243369000E+02 -0.47566521546E+02 -0.90451281859E+02  0.11523395639E+03  0.00000000000E+00 0.  1.
</event>
<event>
 8    1  0.6869405E-009  0.1458620E+03  0.7561462E-02  0.1205652E+00
         -1   -1    0    0    0  501 -0.00000000000E+00  0.00000000000E+00  0.90136974128E+02  0.90136974128E+02  0.00000000000E+00 0.  1.
          1   -1    0    0  501    0  0.00000000000E+00 -0.00000000000E+00 -0.27512473663E+03  0.27512473663E+03  0.00000000000E+00 0. -1.
         25    2    1    2    0    0  0.31619168166E+02 -0.10938916831E+03 -0.81507931926E+02  0.18776752758E+03  0.12508932611E+03 0.  0.
         23    2    1    2    0    0 -0.31619168166E+02  0.10938916831E+03 -0.10347983058E+03  0.17749418318E+03  0.88489252377E+02 0.  0.
          5    1    3    3  502    0  0.43511553414E+02  0.11642276684E+02 -0.36138648724E+02  0.57898810165E+02  0.41800000000E+01 0.  1.
         -5    1    3    3    0  502 -0.11892385249E+02 -0.12103144500E+03 -0.45369283201E+02  0.12986871742E+03  0.41800000000E+01 0.  1.
        -11    1    4    4    0    0  0.11961606236E+02  0.48311640218E+02 -0.11844705147E+00  0.49770559912E+02  0.00000000000E+00 0.  1.
         11    1    4    4    0    0 -0.43580774402E+02  0.61077528096E+02 -0.10336138353E+03  0.12772362327E+03  0.00000000000E+00 0. -1.
</event>
<event>
 8    1  0.6869405E-009  0.1088523E+03  0.7561462E-02  0.1262710E+00
         -2   -1    0    0    0  501 -0.00000000000E+00  0.00000000000E+00  0.13267265072E+02  0.13267265072E+02  0.00000000000E+00 0.  1.
          2   -1    0    0  501    0  0.00000000000E+00 -0.00000000000E+00 -0.13139350670E+04  0.13139350670E+04  0.00000000000E+00 0. -1.
         25    2    1    2    0    0 -0.12901760561E+02 -0.35616226248E+02 -0.10657648478E+04  0.10737488127E+04  0.12508729404E+03 0.  0.
         23    2    1    2    0    0  0.12901760561E+02  0.35616226248E+02 -0.23490295413E+03  0.25345351930E+03  0.87317338420E+02 0.  0.
          5    1    3    3  502    0  0.35472828374E+02 -0.64796477577E+02 -0.61964147909E+03  0.62404321971E+03  0.41800000000E+01 0. -1.
         -5    1    3    3    0  502 -0.48374588936E+02  0.29180251328E+02 -0.44612336868E+03  0.44970559304E+03  0.41800000000E+01 0. -1.
        -11    1    4    4    0    0 -0.32413649951E+02  0.60893219034E+01 -0.14355075878E+03  0.14729068161E+03  0.00000000000E+00 0. -1.
         11    1    4    4    0    0  0.45315410512E+02  0.29526904345E+02 -0.91352195354E+02  0.10616283769E+03  0.00000000000E+00 0.  1.
</event>
<event>
 8    1  0.6869405E-009  0.1334000E+03  0.7561462E-02  0.1222496E+00
         -2   -1    0    0    0  501 -0.00000000000E+00  0.00000000000E+00  0.97940710046E+02  0.97940710046E+02  0.00000000000E+00 0.  1.
          2   -1    0    0  501    0  0.00000000000E+00 -0.00000000000E+00 -0.23967917330E+03  0.23967917330E+03  0.00000000000E+00 0. -1.
         25    2    1    2    0    0 -0.58325719792E+02 -0.90169414464E+02 -0.95879234026E+02  0.19071779133E+03  0.12509210814E+03 0.  0.
         23    2    1    2    0    0  0.58325719792E+02  0.90169414464E+02 -0.45859229229E+02  0.14690209202E+03  0.89133286933E+02 0.  0.
          5    1    3    3  502    0  0.39645133573E+01  0.15012614825E+02 -0.61638057966E+02  0.63701009096E+02  0.41800000000E+01 0.  1.
         -5    1    3    3    0  502 -0.62290233149E+02 -0.10518202929E+03 -0.34241176061E+02  0.12701678223E+03  0.41800000000E+01 0.  1.
        -11    1    4    4    0    0  0.10746677552E+02  0.78744040045E+02 -0.55623673779E+02  0.97005711201E+02  0.00000000000E+00 0. -1.
         11    1    4    4    0    0  0.47579042240E+02  0.11425374419E+02  0.97644445503E+01  0.49896380815E+02  0.00000000000E+00 0.  1.
</event>
<event>
 8    1  0.6869405E-009  0.1356686E+03  0.7561462E-02  0.1219279E+00
          2   -1    0    0  501    0  0.00000000000E+00  0.00000000000E+00  0.10438741581E+04  0.10438741581E+04  0.00000000000E+00 0. -1.
         -2   -1    0    0    0  501 -0.00000000000E+00 -0.00000000000E+00 -0.18295476604E+02  0.18295476604E+02  0.00000000000E+00 0.  1.
         25    2    1    2    0    0  0.63407393670E+02  0.17885330769E+02  0.51887137519E+03  0.53778727643E+03  0.12508904058E+03 0.  0.
         23    2    1    2    0    0 -0.63407393670E+02 -0.17885330769E+02  0.50670730633E+03  0.52438235829E+03  0.11783115366E+03 0.  0.
          5    1    3    3  502    0  0.60938507057E+02  0.67056560410E+02  0.30026119959E+03  0.31366278758E+03  0.41800000000E+01 0.  1.
         -5    1    3    3    0  502  0.24688866127E+01 -0.49171229641E+02  0.21861017560E+03  0.22412448885E+03  0.41800000000E+01 0.  1.
        -11    1    4    4    0    0  0.22732342864E+02 -0.36587453048E+02  0.11307735435E+03  0.12100367432E+03  0.00000000000E+00 0.  1.
         11    1    4    4    0    0 -0.86139736533E+02  0.18702122279E+02  0.39362995198E+03  0.40337868397E+03  0.00000000000E+00 0. -1.
</event>
<event>
 8    1  0.6869405E-009  0.7533346E+02  0.7561462E-02  0.1342842E+00
          2   -1    0    0  501    0  0.00000000000E+00  0.00000000000E+00  0.73515479275E+02  0.73515479275E+02  0.00000000000E+00 0. -1.
         -2   -1    0    0    0  501 -0.00000000000E+00 -0.00000000000E+00 -0.16875625087E+03  0.16875625087E+03  0.00000000000E+00 0.  1.
         25    2    1    2    0    0 -0.13812486292E+02 -0.28494733969E+01 -0.66279445741E+02  0.14226588533E+03  0.12509081870E+03 0.  0.
         23    2    1    2    0    0  0.13812486292E+02  0.28494733969E+01 -0.28961325853E+02  0.10000584482E+03  0.94675795882E+02 0.  0.
          5    1    3    3  502    0 -0.58195787134E+02 -0.54066609768E+01 -0.76594082964E+02  0.96437065323E+02  0.41800000000E+01 0. -1.
         -5    1    3    3    0  502  0.44383300842E+02  0.25571875799E+01  0.10314637224E+02  0.45828820004E+02  0.41800000000E+01 0. -1.
        -11    1    4    4    0    0 -0.19954690761E+01  0.22280212342E+02 -0.57699125765E+02  0.61883591305E+02  0.00000000000E+00 0.  1.
         11    1    4    4    0    0  0.15807955368E+02 -0.19430738945E+02  0.28737799912E+02  0.38122253510E+02  0.00000000000E+00 0. -1.
</event>
<event>
 8    1  0.6869405E-009  0.2155908E+03  0.7561462E-02  0.1137214E+00
          2   -1    0    0  501    0  0.00000000000E+00  0.00000000000E+00  0.40767842119E+03  0.40767842119E+03  0.00000000000E+00 0. -1.
         -2   -1    0    0    0  501 -0.00000000000E+00 -0.00000000000E+00 -0.22611524520E+03  0.22611524520E+03  0.00000000000E+00 0.  1.
         25    2    1    2    0    0 -0.78476451290E+02  0.18192667793E+03  0.30311185341E+03  0.38311863382E+03  0.12508885782E+03 0.  0.
         23    2    1    2    0    0  0.78476451290E+02 -0.18192667793E+03 -0.12154867742E+03  0.25067503258E+03  0.93851059803E+02 0.  0.
          5    1    3    3  502    0 -0.86517380578E+02  0.10408394740E+03  0.26127944477E+03  0.29428412446E+03  0.41800000000E+01 0. -1.
         -5    1    3    3    0  502  0.80409292883E+01  0.77842730535E+02  0.41832408638E+02  0.88834509361E+02  0.41800000000E+01 0. -1.
        -11    1    4    4    0    0  0.73381141447E+02 -0.58435565582E+02 -0.68608550154E+02  0.11621807260E+03  0.00000000000E+00 0. -1.
         11    1    4    4    0    0  0.50953098433E+01 -0.12349111235E+03 -0.52940127266E+02  0.13445695998E+03  0.00000000000E+00 0.  1.
</event>
<event>
 8    1  0.6869405E-009  0.5938074E+02  0.7561462E-02  0.1400449E+00
         -1   -1    0    0    0  501 -0.00000000000E+00  0.00000000000E+00  0.46693041744E+03  0.46693041744E+03  0.00000000000E+00 0.  1.
          1   -1    0    0  501    0  0.00000000000E+00 -0.00000000000E+00 -0.28182021388E+02  0.28182021388E+02  0.00000000000E+00 0. -1.
         25    2    1    2    0    0 -0.15242980051E+01  0.33799092415E+02  0.27467287536E+03  0.30370694221E+03  0.12509203074E+03 0.  0.
         23    2    1    2    0    0  0.15242980051E+01 -0.33799092415E+02  0.16407552068E+03  0.19140549661E+03  0.92577456830E+02 0.  0.
          5    1    3    3  502    0 -0.23162719627E+02  0.89290001362E-01  0.25966094285E+03  0.26072552080E+03  0.41800000000E+01 0.  1.
         -5    1    3    3    0  502  0.21638421622E+02  0.33709802413E+02  0.15011932514E+02  0.42981421415E+02  0.41800000000E+01 0.  1.
        -11    1    4    4    0    0  0.70208797172E+01  0.92156197846E+01 -0.79159407265E+01  0.14031483086E+02  0.00000000000E+00 0. -1.
         11    1    4    4    0    0 -0.54965817121E+01 -0.43014712199E+02  0.17199146141E+03  0.17737401353E+03  0.00000000000E+00 0.  1.
</event>
<event>
 8    1  0.6869405E-009  0.1527098E+03  0.7561462E-02  0.1197182E+00
         -1   -1    0    0    0  501 -0.00000000000E+00  0.00000000000E+00  0.20456280622E+03  0.20456280622E+03  0.00000000000E+00 0.  1.
          1   -1    0    0  501    0  0.00000000000E+00 -0.00000000000E+00 -0.14619825644E+03  0.14619825644E+03  0.00000000000E+00 0. -1.
         25    2    1    2    0    0 -0.13486048410E+03  0.62312770565E+01  0.50888541561E+02  0.19095361097E+03  0.12508980333E+03 0.  0.
         23    2    1    2    0    0  0.13486048410E+03 -0.62312770565E+01  0.74760082135E+01  0.15980745169E+03  0.85184223479E+02 0.  0.
          5    1    3    3  502    0 -0.15118882180E+03  0.90640338008E+01  0.68614600131E+02  0.16632995009E+03  0.41800000000E+01 0.  1.
         -5    1    3    3    0  502  0.16328337700E+02 -0.28327567443E+01 -0.17726058571E+02  0.24623660883E+02  0.41800000000E+01 0.  1.
        -11    1    4    4    0    0  0.73784284649E+02  0.76401178062E+01 -0.37093655053E+02  0.82936308734E+02  0.00000000000E+00 0. -1.
         11    1    4    4    0    0  0.61076199453E+02 -0.13871394863E+02  0.44569663267E+02  0.76871142952E+02  0.00000000000E+00 0.  1.
</event>
<event>
 8    1  0.6869405E-009  0.2846871E+03  0.7561462E-02  0.1093156E+00
          1   -1    0    0  501    0  0.00000000000E+00  0.00000000000E+00  0.31294356174E+03  0.31294356174E+03  0.00000000000E+00 0. -1.
         -1   -1    0    0    0  501 -0.00000000000E+00 -0.00000000000E+00 -0.29806551908E+03  0.29806551908E+03  0.00000000000E+00 0.  1.
         25    2    1    2    0    0  0.14357254642E+03  0.24430554045E+03 -0.27041266608E+02  0.31092770787E+03  0.12508611529E+03 0.  0.
         23    2    1    2    0    0 -0.14357254642E+03 -0.24430554045E+03  0.41919309263E+02  0.30008137295E+03  0.89405417721E+02 0.  0.
          5    1    3    3  502    0  0.13016475998E+03  0.20916563760E+03 -0.67555994820E+02  0.25548857808E+03  0.41800000000E+01 0.  1.
         -5    1    3    3    0  502  0.13407786444E+02  0.35139902858E+02  0.40514728212E+02  0.55439129793E+02  0.41800000000E+01 0.  1.
        -11    1    4    4    0    0 -0.10042895621E+03 -0.19693058312E+03 -0.42554926886E+01  0.22110119636E+03  0.00000000000E+00 0. -1.
         11    1    4    4    0    0 -0.43143590209E+02 -0.47374957338E+02  0.46174801951E+02  0.78980176590E+02  0.00000000000E+00 0.  1.
</event>
<event>
 8    1  0.6869405E-009  0.2305838E+03  0.7561462E-02  0.1126230E+00
         -2   -1    0    0    0  501 -0.00000000000E+00  0.00000000000E+00  0.73411108736E+02  0.73411108736E+02  0.00000000000E+00 0.  1.
          2   -1    0    0  501    0  0.00000000000E+00 -0.00000000000E+00 -0.10023725118E+04  0.10023725118E+04  0.00000000000E+00 0. -1.
         25    2    1    2    0    0 -0.13930929872E+03 -0.15922455053E+03 -0.21858323812E+03  0.32891611573E+03  0.12509053122E+03 0.  0.
         23    2    1    2    0    0  0.13930929872E+03  0.15922455053E+03 -0.71037816497E+03  0.74686750482E+03  0.91730007635E+02 0.  0.
          5    1    3    3  502    0 -0.15257220284E+03 -0.16979439744E+03 -0.20325032982E+03  0.30567398230E+03  0.41800000000E+01 0.  1.
         -5    1    3    3    0  502  0.13262904121E+02  0.10569846915E+02 -0.15332908296E+02  0.23242133429E+02  0.41800000000E+01 0.  1.
        -11    1    4    4    0    0  0.43794084521E+02  0.80381164930E+02 -0.17665356975E+03  0.19896114500E+03  0.00000000000E+00 0.  1.
         11    1    4    4    0    0  0.95515214201E+02  0.78843385599E+02 -0.53372459522E+03  0.54790635983E+03  0.00000000000E+00 0. -1.
</event>
<event>
 8    1  0.6869405E-009  0.7304183E+02  0.7561462E-02  0.1350044E+00
          3   -1    0    0  501    0  0.00000000000E+00  0.00000000000E+00  0.11850809307E+03  0.11850809307E+03  0.00000000000E+00 0. -1.
         -3   -1    0    0    0  501 -0.00000000000E+00 -0.00000000000E+00 -0.11308910348E+03  0.11308910348E+03  0.00000000000E+00 0.  1.
         25    2    1    2    0    0 -0.10799913371E+01  0.39175519294E+02 -0.11527083874E+02  0.13159343565E+03  0.12509224977E+03 0.  0.
         23    2    1    2    0    0  0.10799913371E+01 -0.39175519294E+02  0.16946073458E+02  0.10000376090E+03  0.90430609280E+02 0.  0.
          5    1    3    3  502    0  0.21872844878E+02  0.64475009145E+02  0.32625323508E+02  0.75613043063E+02  0.41800000000E+01 0. -1.
         -5    1    3    3    0  502 -0.22952836215E+02 -0.25299489851E+02 -0.44152407382E+02  0.55980392591E+02  0.41800000000E+01 0. -1.
        -11    1    4    4    0    0  0.94117087136E+01 -0.13452550026E+02 -0.36547055874E+02  0.40065429689E+02  0.00000000000E+00 0.  1.
         11    1    4    4    0    0 -0.83317173766E+01 -0.25722969268E+02  0.53493129331E+02  0.59938331209E+02  0.00000000000E+00 0. -1.
</event>
<event>
 8    1  0.6869405E-009  0.2222880E+03  0.7561462E-02  0.1132189E+00
         -2   -1    0    0    0  501 -0.00000000000E+00  0.00000000000E+00  0.52551843376E+02  0.52551843376E+02  0.00000000000E+00 0.  1.
          2   -1    0    0  501    0  0.00000000000E+00 -0.00000000000E+00 -0.12299686903E+04  0.12299686903E+04  0.00000000000E+00 0. -1.
         25    2    1    2    0    0 -0.18059014009E+03 -0.10127995622E+03 -0.85850244388E+03  0.89193334230E+03  0.12509281646E+03 0.  0.
         23    2    1    2    0    0  0.18059014009E+03  0.10127995622E+03 -0.31891440306E+03  0.39058719140E+03  0.89339405477E+02 0.  0.
          5    1    3    3  502    0 -0.13506327770E+03 -0.12395708768E+03 -0.56454791162E+03  0.59358172603E+03  0.41800000000E+01 0. -1.
         -5    1    3    3    0  502 -0.45526862388E+02  0.22677131466E+02 -0.29395453227E+03  0.29835161627E+03  0.41800000000E+01 0. -1.
        -11    1    4    4    0    0  0.88205501266E+02  0.28931135145E+02 -0.72939979429E+02  0.11805702704E+03  0.00000000000E+00 0. -1.
         11    1    4    4    0    0  0.92384638826E+02  0.72348821072E+02 -0.24597442363E+03  0.27253016436E+03  0.00000000000E+00 0.  1.
</event>
<event>
 8    1  0.6869405E-009  0.7729285E+02  0.7561462E-02  0.1336914E+00
         -2   -1    0    0    0  501 -0.00000000000E+00  0.00000000000E+00  0.36641749915E+02  0.36641749915E+02  0.00000000000E+00 0.  1.
          2   -1    0    0  501    0  0.00000000000E+00 -0.00000000000E+00 -0.61193947078E+03  0.61193947078E+03  0.00000000000E+00 0. -1.
         25    2    1    2    0    0 -0.44031563886E+02 -0.23321633722E+02 -0.50710078622E+03  0.52467171400E+03  0.12508606184E+03 0.  0.
         23    2    1    2    0    0  0.44031563886E+02  0.23321633722E+02 -0.68196934641E+02  0.12390950669E+03  0.90664583696E+02 0.  0.
          5    1    3    3  502    0 -0.24986846050E+01  0.28457908157E+02 -0.38112107450E+03  0.38221308427E+03  0.41800000000E+01 0. -1.
         -5    1    3    3    0  502 -0.41532879281E+02 -0.51779541879E+02 -0.12597971173E+03  0.14245862973E+03  0.41800000000E+01 0. -1.
        -11    1    4    4    0    0 -0.17864721768E+01  0.11833841548E+02  0.20317146198E+02  0.23580027952E+02  0.00000000000E+00 0.  1.
         11    1    4    4    0    0  0.45818036063E+02  0.11487792175E+02 -0.88514080838E+02  0.10032947874E+03  0.00000000000E+00 0. -1.
</event>
<event>
 8    1  0.6869405E-009  0.1039921E+03  0.7561462E-02  0.1272118E+00
          2   -1    0    0  501    0  0.00000000000E+00  0.00000000000E+00  0.16986868738E+03  0.16986868738E+03  0.00000000000E+00 0. -1.
         -2   -1    0    0    0  501 -0.00000000000E+00 -0.00000000000E+00 -0.89791634803E+02  0.89791634803E+02  0.00000000000E+00 0.  1.
         25    2    1    2    0    0  0.60388268572E+02  0.54064735461E+00  0.45153311520E+02  0.14606001984E+03  0.12509065743E+03 0.  0.
         23    2    1    2    0    0 -0.60388268572E+02 -0.54064735461E+00  0.34923741055E+02  0.11360030234E+03  0.89656710407E+02 0.  0.
          5    1    3    3  502    0  0.76967671702E+02  0.44652953763E+02  0.42435457721E+02  0.98671927310E+02  0.41800000000E+01 0. -1.
         -5    1    3    3    0  502 -0.16579403130E+02 -0.44112306409E+02  0.27178537998E+01  0.47388092535E+02  0.41800000000E+01 0. -1.
        -11    1    4    4    0    0 -0.44122055789E+02 -0.18070668855E+02 -0.21511556340E+02  0.52307283777E+02  0.00000000000E+00 0.  1.
         11    1    4    4    0    0 -0.16266212783E+02  0.17530021500E+02  0.56435297395E+02  0.61293018560E+02  0.00000000000E+00 0. -1.
</event>
<event>
 8    1  0.6869405E-009  0.1226488E+03  0.7561462E-02  0.1238790E+00
          2   -1    0    0  501    0  0.00000000000E+00  0.00000000000E+00  0.15155750596E+03  0.15155750596E+03  0.00000000000E+00 0. -1.
         -2   -1    0    0    0  501 -0.00000000000E+00 -0.00000000000E+00 -0.16697271160E+03  0.16697271160E+03  0.00000000000E+00 0.  1.
         25    2    1    2    0    0  0.89049509797E+02  0.28565187002E+02 -0.76869419366E+02  0.17407679792E+03  0.12509212141E+03 0.  0.
         23    2    1    2    0    0 -0.89049509797E+02 -0.28565187002E+02  0.61454213725E+02  0.14445341964E+03  0.91347605107E+02 0.  0.
          5    1    3    3  502    0 -0.29029089758E+02 -0.85491797893E+00 -0.34188399672E+02  0.45052613787E+02  0.41800000000E+01 0.  1.
         -5    1    3    3    0  502  0.11807859956E+03  0.29420104981E+02 -0.42681019693E+02  0.12902418414E+03  0.41800000000E+01 0.  1.
        -11    1    4    4    0    0 -0.49576953050E+02 -0.99980629373E+01 -0.18106915365E+02  0.53718673851E+02  0.00000000000E+00 0.  1.
         11    1    4    4    0    0 -0.39472556747E+02 -0.18567124065E+02  0.79561129090E+02  0.90734745794E+02  0.00000000000E+00 0. -1.
</event>
<event>
 8    1  0.6869405E-009  0.9208001E+02  0.7561462E-02  0.1297891E+00
          1   -1    0    0  501    0  0.00000000000E+00  0.00000000000E+00  0.21604116067E+03  0.21604116067E+03  0.00000000000E+00 0. -1.
         -1   -1    0    0    0  501 -0.00000000000E+00 -0.00000000000E+00 -0.70757401456E+02  0.70757401456E+02  0.00000000000E+00 0.  1.
         25    2    1    2    0    0 -0.26549778036E+02  0.31026125602E+02  0.31055544723E+02  0.13520119404E+03  0.12508958721E+03 0.  0.
         23    2    1    2    0    0  0.26549778036E+02 -0.31026125602E+02  0.11422821449E+03  0.15159736809E+03  0.90918457100E+02 0.  0.
          5    1    3    3  502    0 -0.62144914632E+02  0.32718589362E+02 -0.19683709722E+02  0.73057630216E+02  0.41800000000E+01 0.  1.
         -5    1    3    3    0  502  0.35595136596E+02 -0.16924637603E+01  0.50739254445E+02  0.62143563822E+02  0.41800000000E+01 0.  1.
        -11    1    4    4    0    0  0.31382562454E+02 -0.49620790314E+02  0.31421904051E+02  0.66591471764E+02  0.00000000000E+00 0.  1.
         11    1    4    4    0    0 -0.48327844180E+01  0.18594664712E+02  0.82806310440E+02  0.85005896322E+02  0.00000000000E+00 0. -1.
</event>
<event>
 8    1  0.6869405E-009  0.8932339E+02  0.7561462E-02  0.1304499E+00
          4   -1    0    0  501    0  0.00000000000E+00  0.00000000000E+00  0.38694487062E+02  0.38694487062E+02  0.00000000000E+00 0. -1.
         -4   -1    0    0    0  501 -0.00000000000E+00 -0.00000000000E+00 -0.34764162755E+03  0.34764162755E+03  0.00000000000E+00 0.  1.
         25    2    1    2    0    0 -0.13005348177E+02 -0.12498592025E+02 -0.23841493229E+03  0.26984170349E+03  0.12509001207E+03 0.  0.
         23    2    1    2    0    0  0.13005348177E+02  0.12498592025E+02 -0.70532208194E+02  0.11649441112E+03  0.90943947270E+02 0.  0.
          5    1    3    3  502    0 -0.24968628160E+02 -0.47839857820E+02 -0.22262799170E+03  0.22911302773E+03  0.41800000000E+01 0. -1.
         -5    1    3    3    0  502  0.11963279983E+02  0.35341265794E+02 -0.15786940591E+02  0.40728675759E+02  0.41800000000E+01 0. -1.
        -11    1    4    4    0    0 -0.31347314886E+01  0.47935246583E+02 -0.58589329202E+02  0.75764925281E+02  0.00000000000E+00 0.  1.
         11    1    4    4    0    0  0.16140079666E+02 -0.35436654558E+02 -0.11942878992E+02  0.40729485836E+02  0.00000000000E+00 0. -1.
</event>
<event>
 8    1  0.6869405E-009  0.9303981E+02  0.7561462E-02  0.1295653E+00
          1   -1    0    0  501    0  0.00000000000E+00  0.00000000000E+00  0.39325538771E+02  0.39325538771E+02  0.00000000000E+00 0. -1.
         -1   -1    0    0    0  501 -0.00000000000E+00 -0.00000000000E+00 -0.33991539794E+03  0.33991539794E+03  0.00000000000E+00 0.  1.
         25    2    1    2    0    0  0.13703815730E+02 -0.17185236405E+02 -0.11531440755E+03  0.17154503039E+03  0.12508860039E+03 0.  0.
         23    2    1    2    0    0 -0.13703815730E+02  0.17185236405E+02 -0.18527545162E+03  0.20769590632E+03  0.91254970341E+02 0.  0.
          5    1    3    3  502    0  0.10450099560E+02 -0.65838665499E+02 -0.10001573582E+03  0.12026867533E+03  0.41800000000E+01 0. -1.
         -5    1    3    3    0  502  0.32537161697E+01  0.48653429093E+02 -0.15298671731E+02  0.51276355060E+02  0.41800000000E+01 0. -1.
        -11    1    4    4    0    0 -0.40722091987E+02  0.62559922760E+01 -0.16974066409E+03  0.17466917090E+03  0.00000000000E+00 0.  1.
         11    1    4    4    0    0  0.27018276257E+02  0.10929244129E+02 -0.15534787532E+02  0.33026735425E+02  0.00000000000E+00 0. -1.
</event>
<event>
 8    1  0.6869405E-009  0.1393128E+03  0.7561462E-02  0.1214257E+00
          1   -1    0    0  501    0  0.00000000000E+00  0.00000000000E+00  0.33851517723E+02  0.33851517723E+02  0.00000000000E+00 0. -1.
         -1   -1    0    0    0  501 -0.00000000000E+00 -0.00000000000E+00 -0.60857816875E+03  0.60857816875E+03  0.00000000000E+00 0.  1.
         25    2    1    2    0    0  0.76775864311E+02  0.41259942427E+02 -0.23752973045E+03  0.28224860848E+03  0.12508792087E+03 0.  0.
         23    2    1    2    0    0 -0.76775864311E+02 -0.41259942427E+02 -0.33719692057E+03  0.36018107800E+03  0.91824449426E+02 0.  0.
          5    1    3    3  502    0  0.67888710920E+02  0.84074626384E+02 -0.15951244006E+03  0.19271510269E+03  0.41800000000E+01 0. -1.
         -5    1    3    3    0  502  0.88871533908E+01 -0.42814683958E+02 -0.78017290391E+02  0.89533505783E+02  0.41800000000E+01 0. -1.
        -11    1    4    4    0    0 -0.97657840929E+02 -0.27176439323E+02 -0.27398108756E+03  0.29213224589E+03  0.00000000000E+00 0.  1.
         11    1    4    4    0    0  0.20881976618E+02 -0.14083503103E+02 -0.63215833017E+02  0.68048832107E+02  0.00000000000E+00 0. -1.
</event>
<event>
 8    1  0.6869405E-009  0.1004285E+03  0.7561462E-02  0.1279397E+00
          2   -1    0    0  501    0  0.00000000000E+00  0.00000000000E+00  0.11592737689E+03  0.11592737689E+03  0.00000000000E+00 0. -1.
         -2   -1    0    0    0  501 -0.00000000000E+00 -0.00000000000E+00 -0.11031289619E+03  0.11031289619E+03  0.00000000000E+00 0.  1.
         25    2    1    2    0    0  0.29800498190E+02 -0.35188321133E+02 -0.50983507720E+01  0.13341642417E+03  0.12509061284E+03 0.  0.
         23    2    1    2    0    0 -0.29800498190E+02  0.35188321133E+02  0.10712831472E+02  0.92823848910E+02  0.79844940553E+02 0.  0.
          5    1    3    3  502    0  0.22337463421E+02 -0.71805060296E+02  0.30855775939E+02  0.81390910211E+02  0.41800000000E+01 0.  1.
         -5    1    3    3    0  502  0.74630347686E+01  0.36616739162E+02 -0.35954126711E+02  0.52025513956E+02  0.41800000000E+01 0.  1.
        -11    1    4    4    0    0  0.62711376986E+01 -0.20584124730E+02 -0.93169315661E+01  0.23448636906E+02  0.00000000000E+00 0.  1.
         11    1    4    4    0    0 -0.36071635888E+02  0.55772445864E+02  0.20029763038E+02  0.69375212004E+02  0.00000000000E+00 0. -1.
</event>
<event>
 8    1  0.6869405E-009  0.3026774E+03  0.7561462E-02  0.1083910E+00
          2   -1    0    0  501    0  0.00000000000E+00  0.00000000000E+00  0.50680552158E+02  0.50680552158E+02  0.00000000000E+00 0. -1.
         -2   -1    0    0    0  501 -0.00000000000E+00 -0.00000000000E+00 -0.21888961263E+04  0.21888961263E+04  0.00000000000E+00 0.  1.
         25    2    1    2    0    0 -0.19173150746E+03  0.21450956248E+03 -0.15126160595E+04  0.15448075250E+04  0.12509045734E+03 0.  0.
         23    2    1    2    0    0  0.19173150746E+03 -0.21450956248E+03 -0.62559951460E+03  0.69476915341E+03  0.92488380420E+02 0.  0.
          5    1    3    3  502    0  0.16145762462E+02  0.34740809976E+02 -0.21045345115E+03  0.21395265136E+03  0.41800000000E+01 0. -1.
         -5    1    3    3    0  502 -0.20787726992E+03  0.17976875250E+03 -0.13021626084E+04  0.13308548737E+04  0.41800000000E+01 0. -1.
        -11    1    4    4    0    0  0.38720862352E+02 -0.77225163435E+02 -0.27605207316E+03  0.28925382995E+03  0.00000000000E+00 0. -1.
         11    1    4    4    0    0  0.15301064511E+03 -0.13728439905E+03 -0.34954744145E+03  0.40551532346E+03  0.00000000000E+00 0.  1.
</event>
<event>
 8    1  0.6869405E-009  0.1023198E+03  0.7561462E-02  0.1275492E+00
         -2   -1    0    0    0  501 -0.00000000000E+00  0.00000000000E+00  0.20612435581E+03  0.20612435581E+03  0.00000000000E+00 0.  1.
          2   -1    0    0  501    0  0.00000000000E+00 -0.00000000000E+00 -0.72719543374E+02  0.72719543374E+02  0.00000000000E+00 0. -1.
         25    2    1    2    0    0 -0.11419260333E+02 -0.72890228386E+01  0.11844750618E+02  0.12637064804E+03  0.12508282540E+03 0.  0.
         23    2    1    2    0    0  0.11419260333E+02  0.72890228386E+01  0.12156006182E+03  0.15247325114E+03  0.91036884416E+02 0.  0.
          5    1    3    3  502    0  0.53258888352E+02 -0.40212632528E+01 -0.15766322053E+02  0.55845582258E+02  0.41800000000E+01 0. -1.
         -5    1    3    3    0  502 -0.64678148684E+02 -0.32677595858E+01  0.27611072671E+02  0.70525065785E+02  0.41800000000E+01 0. -1.
        -11    1    4    4    0    0 -0.23384099251E+02  0.34717155624E+02  0.86041112546E+02  0.95682652767E+02  0.00000000000E+00 0.  1.
         11    1    4    4    0    0  0.34803359584E+02 -0.27428132786E+02  0.35518949272E+02  0.56790598375E+02  0.00000000000E+00 0. -1.
</event>
<event>
 8    1  0.6869405E-009  0.1118987E+03  0.7561462E-02  0.1257094E+00
         -3   -1    0    0    0  501 -0.00000000000E+00  0.00000000000E+00  0.56647964575E+02  0.56647964575E+02  0.00000000000E+00 0.  1.
          3   -1    0    0  501    0  0.00000000000E+00 -0.00000000000E+00 -0.37734498316E+03  0.37734498316E+03  0.00000000000E+00 0. -1.
         25    2    1    2    0    0 -0.49500113593E+02  0.78677043107E+02 -0.21945367300E+03  0.26915001323E+03  0.12506588931E+03 0.  0.
         23    2    1    2    0    0  0.49500113593E+02 -0.78677043107E+02 -0.10124334558E+03  0.16484293451E+03  0.91009008756E+02 0.  0.
          5    1    3    3  502    0 -0.41822087279E+02  0.69400022898E+02 -0.42228038865E+02  0.91466550328E+02  0.41800000000E+01 0. -1.
         -5    1    3    3    0  502 -0.76780263143E+01  0.92770202091E+01 -0.17722563414E+03  0.17768346290E+03  0.41800000000E+01 0. -1.
        -11    1    4    4    0    0 -0.20631401044E+02 -0.50105629254E+02 -0.46443499614E+02  0.71366851187E+02  0.00000000000E+00 0.  1.
         11    1    4    4    0    0  0.70131514637E+02 -0.28571413853E+02 -0.54799845966E+02  0.93476083320E+02  0.00000000000E+00 0. -1.
</event>
<event>
 8    1  0.6869405E-009  0.8281030E+02  0.7561462E-02  0.1321260E+00
         -1   -1    0    0    0  501 -0.00000000000E+00  0.00000000000E+00  0.23673185547E+02  0.23673185547E+02  0.00000000000E+00 0.  1.
          1   -1    0    0  501    0  0.00000000000E+00 -0.00000000000E+00 -0.96898452350E+03  0.96898452350E+03  0.00000000000E+00 0. -1.
         25    2    1    2    0    0 -0.23614599180E+02  0.41463252220E+02 -0.82896266162E+03  0.83970431720E+03  0.12508954946E+03 0.  0.
         23    2    1    2    0    0  0.23614599180E+02 -0.41463252220E+02 -0.11634867633E+03  0.15295339185E+03  0.87068220459E+02 0.  0.
          5    1    3    3  502    0 -0.48815545690E+02  0.11916893960E+02 -0.74917123731E+03  0.75086615657E+03  0.41800000000E+01 0. -1.
         -5    1    3    3    0  502  0.25200946510E+02  0.29546358260E+02 -0.79791424305E+02  0.88838160630E+02  0.41800000000E+01 0. -1.
        -11    1    4    4    0    0 -0.43515818585E+01 -0.47359265873E+02 -0.18523877336E+02  0.51038910257E+02  0.00000000000E+00 0.  1.
         11    1    4    4    0    0  0.27966181038E+02  0.58960136522E+01 -0.97824798998E+02  0.10191448159E+03  0.00000000000E+00 0. -1.
</event>
<event>
 8    1  0.6869405E-009  0.1096673E+03  0.7561462E-02  0.1261187E+00
          1   -1    0    0  501    0  0.00000000000E+00  0.00000000000E+00  0.76285613348E+02  0.76285613348E+02  0.00000000000E+00 0. -1.
         -1   -1    0    0    0  501 -0.00000000000E+00 -0.00000000000E+00 -0.20288603126E+03  0.20288603126E+03  0.00000000000E+00 0.  1.
         25    2    1    2    0    0  0.11451997976E+02 -0.53066638888E+02 -0.93199832805E+02  0.16516272873E+03  0.12508118047E+03 0.  0.
         23    2    1    2    0    0 -0.11451997976E+02  0.53066638888E+02 -0.33400585109E+02  0.11400891588E+03  0.94526278850E+02 0.  0.
          5    1    3    3  502    0 -0.43872680412E+02 -0.26337790155E+02 -0.89852906633E+02  0.10348675523E+03  0.41800000000E+01 0. -1.
         -5    1    3    3    0  502  0.55324678388E+02 -0.26728848733E+02 -0.33469261719E+01  0.61675973508E+02  0.41800000000E+01 0. -1.
        -11    1    4    4    0    0  0.69566771443E+01 -0.25129202548E+02 -0.19316997383E+02  0.32450247541E+02  0.00000000000E+00 0.  1.
         11    1    4    4    0    0 -0.18408675121E+02  0.78195841435E+02 -0.14083587726E+02  0.81558668336E+02  0.00000000000E+00 0. -1.
</event>
<event>
 8    1  0.6869405E-009  0.1990928E+03  0.7561462E-02  0.1150507E+00
          2   -1    0    0  501    0  0.00000000000E+00  0.00000000000E+00  0.11507158435E+04  0.11507158435E+04  0.00000000000E+00 0. -1.
         -2   -1    0    0    0  501 -0.00000000000E+00 -0.00000000000E+00 -0.94111552162E+02  0.94111552162E+02  0.00000000000E+00 0.  1.
         25    2    1    2    0    0 -0.12562876502E+03  0.15064795627E+03  0.99267925673E+03  0.10195766527E+04  0.12508817146E+03 0.  0.
         23    2    1    2    0    0  0.12562876502E+03 -0.15064795627E+03  0.63925034621E+02  0.22525074298E+03  0.90410695340E+02 0.  0.
          5    1    3    3  502    0 -0.23388956813E+02  0.60570128574E+02  0.60769942953E+03  0.61117252296E+03  0.41800000000E+01 0.  1.
         -5    1    3    3    0  502 -0.10223980821E+03  0.90077827701E+02  0.38497982720E+03  0.40840412973E+03  0.41800000000E+01 0.  1.
        -11    1    4    4    0    0  0.57683046551E+02 -0.56977192198E+02  0.73102979962E+02  0.10916858509E+03  0.00000000000E+00 0. -1.
         11    1    4    4    0    0  0.67945718474E+02 -0.93670764076E+02 -0.91779453410E+01  0.11608215790E+03  0.00000000000E+00 0.  1.
</event>
<event>
 8    1  0.6869405E-009  0.1451650E+03  0.7561462E-02  0.1206543E+00
         -3   -1    0    0    0  501 -0.00000000000E+00  0.00000000000E+00  0.43603728728E+03  0.43603728728E+03  0.00000000000E+00 0.  1.
          3   -1    0    0  501    0  0.00000000000E+00 -0.00000000000E+00 -0.53405332561E+02  0.53405332561E+02  0.00000000000E+00 0. -1.
         25    2    1    2    0    0 -0.72777577866E+02 -0.75728448919E+02  0.23462502658E+03  0.28588256401E+03  0.12509421846E+03 0.  0.
         23    2    1    2    0    0  0.72777577866E+02  0.75728448919E+02  0.14800692814E+03  0.20356005583E+03  0.92191494927E+02 0.  0.
          5    1    3    3  502    0 -0.20041451808E+02  0.34909507335E+02  0.51758455009E+02  0.65701929636E+02  0.41800000000E+01 0. -1.
         -5    1    3    3    0  502 -0.52736126058E+02 -0.11063795625E+03  0.18286657157E+03  0.22018063437E+03  0.41800000000E+01 0. -1.
        -11    1    4    4    0    0 -0.28822261443E+01 -0.11442013813E+02  0.52307433100E+02  0.53621772305E+02  0.00000000000E+00 0.  1.
         11    1    4    4    0    0  0.75659804011E+02  0.87170462731E+02  0.95699495038E+02  0.14993828352E+03  0.00000000000E+00 0. -1.
</event>
<event>
 8    1  0.6869405E-009  0.1119190E+03  0.7561462E-02  0.1257057E+00
         -2   -1    0    0    0  501 -0.00000000000E+00  0.00000000000E+00  0.49893350244E+02  0.49893350244E+02  0.00000000000E+00 0.  1.
          2   -1    0    0  501    0  0.00000000000E+00 -0.00000000000E+00 -0.50437656324E+03  0.50437656324E+03  0.00000000000E+00 0. -1.
         25    2    1    2    0    0 -0.29919529689E+02  0.79201872845E+02 -0.37667743608E+03  0.40581665222E+03  0.12503259356E+03 0.  0.
         23    2    1    2    0    0  0.29919529689E+02 -0.79201872845E+02 -0.77805776918E+02  0.14845326126E+03  0.93896309505E+02 0.  0.
          5    1    3    3  502    0 -0.78317025571E+01 -0.26984196601E+02 -0.17014822533E+03  0.17250325624E+03  0.41800000000E+01 0. -1.
         -5    1    3    3    0  502 -0.22087827132E+02  0.10618606945E+03 -0.20652921075E+03  0.23331339598E+03  0.41800000000E+01 0. -1.
        -11    1    4    4    0    0  0.31663155051E+02 -0.62150671791E+02 -0.10003987229E+01  0.69758599394E+02  0.00000000000E+00 0.  1.
         11    1    4    4    0    0 -0.17436253622E+01 -0.17051201054E+02 -0.76805378195E+02  0.78694661868E+02  0.00000000000E+00 0. -1.
</event>
<event>
 8    1  0.6869405E-009  0.1061277E+03  0.7561462E-02  0.1267914E+00
         -1   -1    0    0    0  501 -0.00000000000E+00  0.00000000000E+00  0.97325572622E+02  0.97325572622E+02  0.00000000000E+00 0.  1.
          1   -1    0    0  501    0  0.00000000000E+00 -0.00000000000E+00 -0.16634910012E+03  0.16634910012E+03  0.00000000000E+00 0. -1.
         25    2    1    2    0    0 -0.24810374734E+02  0.11794498312E+02  0.26404792035E+02  0.13076348196E+03  0.12508880960E+03 0.  0.
         23    2    1    2    0    0  0.24810374734E+02 -0.11794498312E+02 -0.95428319531E+02  0.13291119078E+03  0.88341131876E+02 0.  0.
          5    1    3    3  502    0 -0.26598329775E+02 -0.52338920983E+02  0.30590274612E+02  0.66333031721E+02  0.41800000000E+01 0. -1.
         -5    1    3    3    0  502  0.17879550414E+01  0.64133419295E+02 -0.41854825765E+01  0.64430450240E+02  0.41800000000E+01 0. -1.
        -11    1    4    4    0    0 -0.29768724750E+02 -0.16991500596E+02 -0.20073527055E+02  0.39721965639E+02  0.00000000000E+00 0.  1.
         11    1    4    4    0    0  0.54579099484E+02  0.51970022842E+01 -0.75354792476E+02  0.93189225141E+02  0.00000000000E+00 0. -1.
</event>
<event>
 7    1  0.6869405E-009  0.9879763E+02  0.7561462E-02  0.1282845E+00
          2   -1    0    0  501    0  0.00000000000E+00  0.00000000000E+00  0.63474232230E+03  0.63474232230E+03  0.00000000000E+00 0. -1.
         -2   -1    0    0    0  501 -0.00000000000E+00 -0.00000000000E+00 -0.31178324214E+02  0.31178324214E+02  0.00000000000E+00 0.  1.
         25    2    1    2    0    0 -0.52775311454E+02  0.40875780672E+02  0.57273308355E+03  0.59002150851E+03  0.12508450169E+03 0.  0.
          5    1    3    3  502    0  0.12261008673E+02 -0.30034643823E+02  0.60142132051E+02  0.68461380434E+02  0.41800000000E+01 0.  1.
         -5    1    3    3    0  502 -0.65036320127E+02  0.70910424495E+02  0.51259095150E+03  0.52156012808E+03  0.41800000000E+01 0.  1.
        -11    1    1    2    0    0  0.11626206385E+02 -0.18191581080E+02  0.45582033899E+01  0.22065346479E+02  0.00000000000E+00 0.  1.
         11    1    1    2    0    0  0.41149105069E+02 -0.22684199591E+02  0.26272711143E+02  0.53833791524E+02  0.00000000000E+00 0. -1.
</event>
<event>
 8    1  0.6869405E-009  0.6822161E+02  0.7561462E-02  0.1366247E+00
          2   -1    0    0  501    0  0.00000000000E+00  0.00000000000E+00  0.44492114812E+03  0.44492114812E+03  0.00000000000E+00 0. -1.
         -2   -1    0    0    0  501 -0.00000000000E+00 -0.00000000000E+00 -0.35231584312E+02  0.35231584312E+02  0.00000000000E+00 0.  1.
         25    2    1    2    0    0 -0.35048474872E+02 -0.34042934565E+02  0.15204312506E+03  0.20286024584E+03  0.12509136852E+03 0.  0.
         23    2    1    2    0    0  0.35048474872E+02  0.34042934565E+02  0.25764643875E+03  0.27729248660E+03  0.90122798105E+02 0.  0.
          5    1    3    3  502    0 -0.59185844692E+01 -0.17201990450E+02 -0.20087985991E+02  0.27421482431E+02  0.41800000000E+01 0. -1.
         -5    1    3    3    0  502 -0.29129890403E+02 -0.16840944114E+02  0.17213111105E+03  0.17543876341E+03  0.41800000000E+01 0. -1.
        -11    1    4    4    0    0 -0.17241434545E+01 -0.19137621149E+02  0.10640400684E+02  0.21964501830E+02  0.00000000000E+00 0.  1.
         11    1    4    4    0    0  0.36772618327E+02  0.53180555714E+02  0.24700603806E+03  0.25532798477E+03  0.00000000000E+00 0. -1.
</event>
<event>
 8    1  0.6869405E-009  0.9710590E+02  0.7561462E-02  0.1286502E+00
          1   -1    0    0  501    0  0.00000000000E+00  0.00000000000E+00  0.14796569886E+03  0.14796569886E+03  0.00000000000E+00 0. -1.
         -1   -1    0    0    0  501 -0.00000000000E+00 -0.00000000000E+00 -0.93534114415E+02  0.93534114415E+02  0.00000000000E+00 0.  1.
         25    2    1    2    0    0  0.31788222657E+02 -0.34819089462E+02  0.38571860755E+02  0.13913312320E+03  0.12508947773E+03 0.  0.
         23    2    1    2    0    0 -0.31788222657E+02  0.34819089462E+02  0.15859723686E+02  0.10236669007E+03  0.89468141312E+02 0.  0.
          5    1    3    3  502    0  0.74198855250E+02 -0.24232842697E+02 -0.36003455019E+01  0.78250467559E+02  0.41800000000E+01 0.  1.
         -5    1    3    3    0  502 -0.42410632593E+02 -0.10586246765E+02  0.42172206257E+02  0.60882655642E+02  0.41800000000E+01 0.  1.
        -11    1    4    4    0    0 -0.42850544419E+02  0.86405821326E+01 -0.26676406310E+02  0.51209954797E+02  0.00000000000E+00 0.  1.
         11    1    4    4    0    0  0.11062321762E+02  0.26178507329E+02  0.42536129996E+02  0.51156735273E+02  0.00000000000E+00 0. -1.
</event>
<event>
 8    1  0.6869405E-009  0.1039831E+03  0.7561462E-02  0.1272136E+00
         -1   -1    0    0    0  501 -0.00000000000E+00  0.00000000000E+00  0.26595667627E+02  0.26595667627E+02  0.00000000000E+00 0.  1.
          1   -1    0    0  501    0  0.00000000000E+00 -0.00000000000E+00 -0.59793438633E+03  0.59793438633E+03  0.00000000000E+00 0. -1.
         25    2    1    2    0    0 -0.37527673177E+02  0.20083731128E+02 -0.39452570556E+03  0.41606420381E+03  0.12508879580E+03 0.  0.
         23    2    1    2    0    0  0.37527673177E+02 -0.20083731128E+02 -0.17681301314E+03  0.20846585014E+03  0.10189939426E+03 0.  0.
          5    1    3    3  502    0 -0.39762903715E+02 -0.45443148056E+02 -0.12843587374E+03  0.14198385218E+03  0.41800000000E+01 0.  1.
         -5    1    3    3    0  502  0.22352305377E+01  0.65526879184E+02 -0.26608983183E+03  0.27408035164E+03  0.41800000000E+01 0.  1.
        -11    1    4    4    0    0  0.34785316362E+02 -0.44885775897E+02 -0.40158599860E+02  0.69551881751E+02  0.00000000000E+00 0.  1.
         11    1    4    4    0    0  0.27423568146E+01  0.24802044769E+02 -0.13665441328E+03  0.13891396839E+03  0.00000000000E+00 0. -1.
</event>
<event>
 8    1  0.6869405E-009  0.9904679E+02  0.7561462E-02  0.1282313E+00
          2   -1    0    0  501    0  0.00000000000E+00  0.00000000000E+00  0.21304130180E+03  0.21304130180E+03  0.00000000000E+00 0. -1.
         -2   -1    0    0    0  501 -0.00000000000E+00 -0.00000000000E+00 -0.79110444951E+02  0.79110444951E+02  0.00000000000E+00 0.  1.
         25    2    1    2    0    0 -0.22265464807E+02  0.29334535857E+02  0.66463232621E+01  0.13056829271E+03  0.12509052535E+03 0.  0.
         23    2    1    2    0    0  0.22265464807E+02 -0.29334535857E+02  0.12728453359E+03  0.16158345404E+03  0.92474830150E+02 0.  0.
          5    1    3    3  502    0  0.48489215218E+02  0.47692114213E+01  0.22606900435E+02  0.53874796680E+02  0.41800000000E+01 0.  1.
         -5    1    3    3    0  502 -0.70754680025E+02  0.24565324436E+02 -0.15960577173E+02  0.76693496033E+02  0.41800000000E+01 0.  1.
        -11    1    4    4    0    0 -0.10509376778E+02  0.15447043125E+02 -0.39517613013E+01  0.19096454094E+02  0.00000000000E+00 0.  1.
         11    1    4    4    0    0  0.32774841585E+02 -0.44781578982E+02  0.13123629489E+03  0.14248699995E+03  0.00000000000E+00 0. -1.
</event>
<event>
 7    1  0.6869405E-009  0.9611556E+02  0.7561462E-02  0.1288683E+00
         -1   -1    0    0    0  501 -0.00000000000E+00  0.00000000000E+00  0.30496292038E+02  0.30496292038E+02  0.00000000000E+00 0.  1.
          1   -1    0    0  501    0  0.00000000000E+00 -0.00000000000E+00 -0.59832320236E+03  0.59832320236E+03  0.00000000000E+00 0. -1.
         23    2    1    2    0    0 -0.54803379741E+02  0.41793839262E+01 -0.11698470952E+03  0.15774473109E+03  0.90427320233E+02 0.  0.
          5    1    1    2  502    0  0.91351790636E+02  0.15116125985E+02 -0.26808062408E+03  0.28365179415E+03  0.41800000000E+01 0. -1.
         -5    1    1    2    0  502 -0.36548410895E+02 -0.19295509911E+02 -0.18276157672E+03  0.18742296916E+03  0.41800000000E+01 0. -1.
        -11    1    3    3    0    0 -0.16711089178E+02  0.99905689560E+01  0.12172689777E+02  0.22961845439E+02  0.00000000000E+00 0.  1.
         11    1    3    3    0    0 -0.38092290563E+02 -0.58111850298E+01 -0.12915739929E+03  0.13478288565E+03  0.00000000000E+00 0. -1.
</event>
<event>
 8    1  0.6869405E-009  0.1657220E+03  0.7561462E-02  0.1182384E+00
         -2   -1    0    0    0  501 -0.00000000000E+00  0.00000000000E+00  0.38265771522E+03  0.38265771522E+03  0.00000000000E+00 0.  1.
          2   -1    0    0  501    0  0.00000000000E+00 -0.00000000000E+00 -0.10286717708E+03  0.10286717708E+03  0.00000000000E+00 0. -1.
         25    2    1    2    0    0  0.53096479305E+02 -0.12844822571E+03  0.35577370085E+02  0.19034788713E+03  0.12509350931E+03 0.  0.
         23    2    1    2    0    0 -0.53096479305E+02  0.12844822571E+03  0.24421316806E+03  0.29517700517E+03  0.90394746114E+02 0.  0.
          5    1    3    3  502    0 -0.93593038634E+01  0.17619483318E+02  0.23301817066E+02  0.30959487072E+02  0.41800000000E+01 0.  1.
         -5    1    3    3    0  502  0.62455783168E+02 -0.14606770902E+03  0.12275553019E+02  0.15938840006E+03  0.41800000000E+01 0.  1.
        -11    1    4    4    0    0 -0.46603207919E+02  0.34528077743E+02  0.40438364631E+02  0.70705788129E+02  0.00000000000E+00 0. -1.
         11    1    4    4    0    0 -0.64932713855E+01  0.93920147964E+02  0.20377480343E+03  0.22447121704E+03  0.00000000000E+00 0.  1.
</event>
<event>
 8    1  0.6869405E-009  0.2116055E+03  0.7561462E-02  0.1140301E+00
         -2   -1    0    0    0  501 -0.00000000000E+00  0.00000000000E+00  0.78761820131E+02  0.78761820131E+02  0.00000000000E+00 0.  1.
          2   -1    0    0  501    0  0.00000000000E+00 -0.00000000000E+00 -0.64030928907E+03  0.64030928907E+03  0.00000000000E+00 0. -1.
         25    2    1    2    0    0 -0.18023025757E+03 -0.43925277185E+02 -0.18619988590E+03  0.29108541858E+03  0.12509175704E+03 0.  0.
         23    2    1    2    0    0  0.18023025757E+03  0.43925277185E+02 -0.37534758304E+03  0.42798569062E+03  0.88733125522E+02 0.  0.
          5    1    3    3  502    0 -0.10055442744E+03  0.37221261573E+02 -0.68155283891E+02  0.12711896127E+03  0.41800000000E+01 0.  1.
         -5    1    3    3    0  502 -0.79675830131E+02 -0.81146538758E+02 -0.11804460201E+03  0.16396645731E+03  0.41800000000E+01 0.  1.
        -11    1    4    4    0    0  0.15299046477E+03  0.66413589779E+02 -0.33594525348E+03  0.37506807456E+03  0.00000000000E+00 0.  1.
         11    1    4    4    0    0  0.27239792801E+02 -0.22488312594E+02 -0.39402329558E+02  0.52917616063E+02  0.00000000000E+00 0. -1.
</event>
<event>
 8    1  0.6869405E-009  0.3422829E+03  0.7561462E-02  0.1065828E+00
          2   -1    0    0  501    0  0.00000000000E+00  0.00000000000E+00  0.11097342376E+04  0.11097342376E+04  0.00000000000E+00 0. -1.
         -2   -1    0    0    0  501 -0.00000000000E+00 -0.00000000000E+00 -0.12011948685E+03  0.12011948685E+03  0.00000000000E+00 0.  1.
         25    2    1    2    0    0 -0.25945447913E+03 -0.20391411740E+03  0.31741232434E+03  0.47465707112E+03  0.12510458627E+03 0.  0.
         23    2    1    2    0    0  0.25945447913E+03  0.20391411740E+03  0.67220242641E+03  0.75519665333E+03  0.97817631973E+02 0.  0.
          5    1    3    3  502    0 -0.17326887732E+03 -0.58140259615E+02  0.17972320866E+03  0.25635970387E+03  0.41800000000E+01 0. -1.
         -5    1    3    3    0  502 -0.86185601805E+02 -0.14577385778E+03  0.13768911568E+03  0.21829736725E+03  0.41800000000E+01 0. -1.
        -11    1    4    4    0    0  0.17197754844E+02  0.26429668532E+01  0.10485391436E+03  0.10628777635E+03  0.00000000000E+00 0.  1.
         11    1    4    4    0    0  0.24225672428E+03  0.20127115054E+03  0.56734851205E+03  0.64890887698E+03  0.00000000000E+00 0. -1.
</event>
<event>
 8    1  0.6869405E-009  0.1188236E+03  0.7561462E-02  0.1245050E+00
          2   -1    0    0  501    0  0.00000000000E+00  0.00000000000E+00  0.32553415879E+02  0.32553415879E+02  0.00000000000E+00 0.  1.
         -2   -1    0    0    0  501 -0.00000000000E+00 -0.00000000000E+00 -0.51274464339E+03  0.51274464339E+03  0.00000000000E+00 0. -1.
         25    2    1    2    0    0 -0.59334754308E+02 -0.30138722605E+02 -0.31288954394E+03  0.34347315911E+03  0.12507992906E+03 0.  0.
         23    2    1    2    0    0  0.59334754308E+02  0.30138722605E+02 -0.16730168357E+03  0.20182490016E+03  0.91183777774E+02 0.  0.
          5    1    3    3  502    0  0.30036179077E+02 -0.15720204149E+02 -0.17613968264E+03  0.17942117230E+03  0.41800000000E+01 0. -1.
         -5    1    3    3    0  502 -0.89370933385E+02 -0.14418518456E+02 -0.13674986131E+03  0.16405198681E+03  0.41800000000E+01 0. -1.
        -11    1    4    4    0    0  0.24416328438E+02 -0.32799942756E+02 -0.58765307843E+02  0.71591582920E+02  0.00000000000E+00 0.  1.
         11    1    4    4    0    0  0.34918425869E+02  0.62938665361E+02 -0.10853637573E+03  0.13023331724E+03  0.00000000000E+00 0. -1.
</event>
<event>
 8    1  0.6869405E-009  0.1344423E+03  0.7561462E-02  0.1221009E+00
          3   -1    0    0  501    0  0.00000000000E+00  0.00000000000E+00  0.60883578139E+03  0.60883578139E+03  0.00000000000E+00 0. -1.
         -3   -1    0    0    0  501 -0.00000000000E+00 -0.00000000000E+00 -0.35581696658E+02  0.35581696658E+02  0.00000000000E+00 0.  1.
         25    2    1    2    0    0  0.81076968947E+02 -0.47901877797E+02  0.27904799934E+03  0.31997496474E+03  0.12509247513E+03 0.  0.
         23    2    1    2    0    0 -0.81076968947E+02  0.47901877797E+02  0.29420608539E+03  0.32444251331E+03  0.99184973514E+02 0.  0.
          5    1    3    3  502    0 -0.20941687862E+02  0.79096422824E+01  0.12424662892E+03  0.12631632487E+03  0.41800000000E+01 0.  1.
         -5    1    3    3    0  502  0.10201865681E+03 -0.55811520079E+02  0.15480137042E+03  0.19365863987E+03  0.41800000000E+01 0.  1.
        -11    1    4    4    0    0 -0.97697544666E+02  0.23940419231E+02  0.17623388138E+03  0.20291952803E+03  0.00000000000E+00 0.  1.
         11    1    4    4    0    0  0.16620575718E+02  0.23961458566E+02  0.11797220401E+03  0.12152298528E+03  0.00000000000E+00 0. -1.
</event>
<event>
 8    1  0.6869405E-009  0.1363427E+03  0.7561462E-02  0.1218337E+00
         -1   -1    0    0    0  501 -0.00000000000E+00  0.00000000000E+00  0.17476856725E+03  0.17476856725E+03  0.00000000000E+00 0.  1.
          1   -1    0    0  501    0  0.00000000000E+00 -0.00000000000E+00 -0.11266296908E+03  0.11266296908E+03  0.00000000000E+00 0. -1.
         25    2    1    2    0    0  0.55097810382E+02  0.68831346434E+02  0.24021305332E+02  0.15491285907E+03  0.12508975911E+03 0.  0.
         23    2    1    2    0    0 -0.55097810382E+02 -0.68831346434E+02  0.38084292841E+02  0.13251867726E+03  0.91308616793E+02 0.  0.
          5    1    3    3  502    0 -0.40526819330E+01 -0.31082125502E+02  0.22336188563E+02  0.38715636068E+02  0.41800000000E+01 0. -1.
         -5    1    3    3    0  502  0.59150492315E+02  0.99913471937E+02  0.16851167684E+01  0.11619722301E+03  0.41800000000E+01 0. -1.
        -11    1    4    4    0    0 -0.67495388276E+02 -0.14350612924E+02  0.91816218704E+01  0.69612281316E+02  0.00000000000E+00 0. -1.
         11    1    4    4    0    0  0.12397577894E+02 -0.54480733511E+02  0.28902670971E+02  0.62906395944E+02  0.00000000000E+00 0.  1.
</event>
<event>
 8    1  0.6869405E-009  0.1629139E+03  0.7561462E-02  0.1185446E+00
         -2   -1    0    0    0  501 -0.00000000000E+00  0.00000000000E+00  0.31983729530E+02  0.31983729530E+02  0.00000000000E+00 0.  1.
          2   -1    0    0  501    0  0.00000000000E+00 -0.00000000000E+00 -0.92958724389E+03  0.92958724389E+03  0.00000000000E+00 0. -1.
         25    2    1    2    0    0 -0.40546938413E+02  0.12199832396E+03 -0.57420423400E+03  0.60156916805E+03  0.12508923350E+03 0.  0.
         23    2    1    2    0    0  0.40546938413E+02 -0.12199832396E+03 -0.32339928036E+03  0.36000180537E+03  0.92122527489E+02 0.  0.
          5    1    3    3  502    0  0.42651719938E+02  0.56922928503E+02 -0.28095012617E+03  0.28984450106E+03  0.41800000000E+01 0. -1.
         -5    1    3    3    0  502 -0.83198658351E+02  0.65075395459E+02 -0.29325410784E+03  0.31172466699E+03  0.41800000000E+01 0. -1.
        -11    1    4    4    0    0 -0.20093439054E+02 -0.54723396450E+02 -0.19014857345E+03  0.19888407778E+03  0.00000000000E+00 0. -1.
         11    1    4    4    0    0  0.60640377467E+02 -0.67274927512E+02 -0.13325070692E+03  0.16111772759E+03  0.00000000000E+00 0.  1.
</event>
<event>
 8    1  0.6869405E-009  0.2318035E+03  0.7561462E-02  0.1125377E+00
         -2   -1    0    0    0  501 -0.00000000000E+00  0.00000000000E+00  0.45279463621E+03  0.45279463621E+03  0.00000000000E+00 0.  1.
          2   -1    0    0  501    0  0.00000000000E+00 -0.00000000000E+00 -0.13832665728E+03  0.13832665728E+03  0.00000000000E+00 0. -1.
         25    2    1    2    0    0 -0.17409293995E+03 -0.12260323461E+03  0.24847762309E+03  0.35032626871E+03  0.12508980973E+03 0.  0.
         23    2    1    2    0    0  0.17409293995E+03  0.12260323461E+03  0.65990355839E+02  0.24079502478E+03  0.91036322527E+02 0.  0.
          5    1    3    3  502    0 -0.11460191408E+03 -0.14354548640E+03  0.18677544515E+03  0.26199512341E+03  0.41800000000E+01 0.  1.
         -5    1    3    3    0  502 -0.59491025870E+02  0.20942251792E+02  0.61702177940E+02  0.88331145310E+02  0.41800000000E+01 0.  1.
        -11    1    4    4    0    0  0.13317445837E+03  0.71340893241E+02  0.48958806764E+01  0.15115862217E+03  0.00000000000E+00 0.  1.
         11    1    4    4    0    0  0.40918481588E+02  0.51262341364E+02  0.61094475163E+02  0.89636402611E+02  0.00000000000E+00 0. -1.
</event>
<event>
 8    1  0.6869405E-009  0.9211639E+02  0.7561462E-02  0.1297806E+00
          3   -1    0    0  501    0  0.00000000000E+00  0.00000000000E+00  0.11425401231E+03  0.11425401231E+03  0.00000000000E+00 0. -1.
         -3   -1    0    0    0  501 -0.00000000000E+00 -0.00000000000E+00 -0.16153317275E+03  0.16153317275E+03  0.00000000000E+00 0.  1.
         25    2    1    2    0    0  0.22290394415E+02  0.27394733676E+02  0.49329311247E+02  0.13902305000E+03  0.12508674737E+03 0.  0.
         23    2    1    2    0    0 -0.22290394415E+02 -0.27394733676E+02 -0.96608471682E+02  0.13676413506E+03  0.90132672886E+02 0.  0.
          5    1    3    3  502    0  0.38974909294E+02 -0.25341238999E+02 -0.19532575371E+02  0.50598575564E+02  0.41800000000E+01 0. -1.
         -5    1    3    3    0  502 -0.16684514879E+02  0.52735972675E+02  0.68861886619E+02  0.88424474437E+02  0.41800000000E+01 0. -1.
        -11    1    4    4    0    0 -0.14781025978E+02 -0.53197573805E+02 -0.25635778911E+02  0.60874081086E+02  0.00000000000E+00 0. -1.
         11    1    4    4    0    0 -0.75093684373E+01  0.25802840128E+02 -0.70972692771E+02  0.75890053974E+02  0.00000000000E+00 0.  1.
</event>
<event>
 8    1  0.6869405E-009  0.1287365E+03  0.7561462E-02  0.1229343E+00
         -2   -1    0    0    0  501 -0.00000000000E+00  0.00000000000E+00  0.50387585289E+02  0.50387585289E+02  0.00000000000E+00 0.  1.
          2   -1    0    0  501    0  0.00000000000E+00 -0.00000000000E+00 -0.75623413211E+03  0.75623413211E+03  0.00000000000E+00 0. -1.
         25    2    1    2    0    0 -0.89977919405E+02  0.54676053735E+02 -0.62425585382E+03  0.64531268797E+03  0.12509035688E+03 0.  0.
         23    2    1    2    0    0  0.89977919405E+02 -0.54676053735E+02 -0.81590693000E+02  0.16130902944E+03  0.90983871983E+02 0.  0.
          5    1    3    3  502    0 -0.45090760983E+02  0.80666007563E+02 -0.23431385326E+03  0.25191394509E+03  0.41800000000E+01 0. -1.
         -5    1    3    3    0  502 -0.44887158422E+02 -0.25989953828E+02 -0.38994200056E+03  0.39339874287E+03  0.41800000000E+01 0. -1.
        -11    1    4    4    0    0  0.51053184678E+02 -0.72358647483E+01 -0.85471971420E+02  0.99821056410E+02  0.00000000000E+00 0.  1.
         11    1    4    4    0    0  0.38924734727E+02 -0.47440188987E+02  0.38812784206E+01  0.61487973026E+02  0.00000000000E+00 0. -1.
</event>
<event>
 8    1  0.6869405E-009  0.1200057E+03  0.7561462E-02  0.1243088E+00
          2   -1    0    0  501    0  0.00000000000E+00  0.00000000000E+00  0.77334509956E+03  0.77334509956E+03  0.00000000000E+00 0. -1.
         -2   -1    0    0    0  501 -0.00000000000E+00 -0.00000000000E+00 -0.23498642166E+02  0.23498642166E+02  0.00000000000E+00 0.  1.
         25    2    1    2    0    0 -0.69563251721E+02  0.11700171303E+02  0.56403010736E+03  0.58203595510E+03  0.12513972597E+03 0.  0.
         23    2    1    2    0    0  0.69563251721E+02 -0.11700171303E+02  0.18581635003E+03  0.21480778663E+03  0.81478397501E+02 0.  0.
          5    1    3    3  502    0  0.28592423114E+02 -0.12308974723E+02  0.57609136613E+02  0.65614956676E+02  0.41800000000E+01 0.  1.
         -5    1    3    3    0  502 -0.98155674834E+02  0.24009146026E+02  0.50642097075E+03  0.51642099842E+03  0.41800000000E+01 0.  1.
        -11    1    4    4    0    0  0.30413349559E+02  0.35104839215E+02  0.88375024234E+02  0.99837199861E+02  0.00000000000E+00 0. -1.
         11    1    4    4    0    0  0.39149902162E+02 -0.46805010518E+02  0.97441325798E+02  0.11497058677E+03  0.00000000000E+00 0.  1.
</event>
<event>
 8    1  0.6869405E-009  0.1321175E+03  0.7561462E-02  0.1224347E+00
         -2   -1    0    0    0  501 -0.00000000000E+00  0.00000000000E+00  0.33573735756E+02  0.33573735756E+02  0.00000000000E+00 0.  1.
          2   -1    0    0  501    0  0.00000000000E+00 -0.00000000000E+00 -0.58850003139E+03  0.58850003139E+03  0.00000000000E+00 0. -1.
         25    2    1    2    0    0 -0.38738755770E+02  0.73782073351E+02 -0.36552805676E+03  0.39522651895E+03  0.12509498571E+03 0.  0.
         23    2    1    2    0    0  0.38738755770E+02 -0.73782073351E+02 -0.18939823887E+03  0.22684724820E+03  0.92970401649E+02 0.  0.
          5    1    3    3  502    0 -0.70582351734E+02  0.80522416214E+02 -0.32952766560E+03  0.34651361111E+03  0.41800000000E+01 0.  1.
         -5    1    3    3    0  502  0.31843595964E+02 -0.67403428629E+01 -0.36000391167E+02  0.48712907838E+02  0.41800000000E+01 0.  1.
        -11    1    4    4    0    0  0.51451323278E+02 -0.89989915463E+02 -0.14915724419E+03  0.18164059856E+03  0.00000000000E+00 0.  1.
         11    1    4    4    0    0 -0.12712567508E+02  0.16207842113E+02 -0.40240994682E+02  0.45206649639E+02  0.00000000000E+00 0. -1.
</event>
<event>
 8    1  0.6869405E-009  0.1351028E+03  0.7561462E-02  0.1220075E+00
         -2   -1    0    0    0  501 -0.00000000000E+00  0.00000000000E+00  0.10237112868E+03  0.10237112868E+03  0.00000000000E+00 0.  1.
          2   -1    0    0  501    0  0.00000000000E+00 -0.00000000000E+00 -0.28296952211E+03  0.28296952211E+03  0.00000000000E+00 0. -1.
         25    2    1    2    0    0 -0.46577200887E+02 -0.93049685158E+02 -0.64154752877E+01  0.16283777620E+03  0.12508918213E+03 0.  0.
         23    2    1    2    0    0  0.46577200887E+02  0.93049685158E+02 -0.17418291814E+03  0.22250287458E+03  0.91324480150E+02 0.  0.
          5    1    3    3  502    0 -0.10199510580E+02  0.18526399778E+02  0.32610465121E+02  0.39091844932E+02  0.41800000000E+01 0.  1.
         -5    1    3    3    0  502 -0.36377690307E+02 -0.11157608494E+03 -0.39025940408E+02  0.12374593127E+03  0.41800000000E+01 0.  1.
        -11    1    4    4    0    0  0.55307234873E+02  0.21822478118E+02 -0.44412818712E+02  0.74213268669E+02  0.00000000000E+00 0.  1.
         11    1    4    4    0    0 -0.87300339862E+01  0.71227207040E+02 -0.12977009943E+03  0.14828960591E+03  0.00000000000E+00 0. -1.
</event>
<event>
 8    1  0.6869405E-009  0.1692231E+03  0.7561462E-02  0.1178660E+00
          2   -1    0    0  501    0  0.00000000000E+00  0.00000000000E+00  0.29281980187E+03  0.29281980187E+03  0.00000000000E+00 0. -1.
         -2   -1    0    0    0  501 -0.00000000000E+00 -0.00000000000E+00 -0.10234193603E+03  0.10234193603E+03  0.00000000000E+00 0.  1.
         25    2    1    2    0    0  0.49212205610E+02  0.12085129602E+03  0.64541453320E+02  0.19193623100E+03  0.12508813151E+03 0.  0.
         23    2    1    2    0    0 -0.49212205610E+02 -0.12085129602E+03  0.12593641252E+03  0.20322550691E+03  0.91726494151E+02 0.  0.
          5    1    3    3  502    0 -0.40438680898E+02  0.59057245094E+02  0.22538801147E+02  0.75156603622E+02  0.41800000000E+01 0.  1.
         -5    1    3    3    0  502  0.89650886508E+02  0.61794050922E+02  0.42002652173E+02  0.11677962738E+03  0.41800000000E+01 0.  1.
        -11    1    4    4    0    0 -0.74581426478E+02 -0.77514718553E+02  0.71491672659E+02  0.12915873965E+03  0.00000000000E+00 0.  1.
         11    1    4    4    0    0  0.25369220867E+02 -0.43336577463E+02  0.54444739861E+02  0.74066767259E+02  0.00000000000E+00 0. -1.
</event>
<event>
 8    1  0.6869405E-009  0.8919006E+02  0.7561462E-02  0.1304825E+00
         -2   -1    0    0    0  501 -0.00000000000E+00  0.00000000000E+00  0.89731325758E+02  0.89731325758E+02  0.00000000000E+00 0.  1.
          2   -1    0    0  501    0  0.00000000000E+00 -0.00000000000E+00 -0.19159986136E+03  0.19159986136E+03  0.00000000000E+00 0. -1.
         25    2    1    2    0    0  0.22403123593E+02  0.39257982211E+02  0.54546118414E+01  0.13311913625E+03  0.12509141670E+03 0.  0.
         23    2    1    2    0    0 -0.22403123593E+02 -0.39257982211E+02 -0.10732314744E+03  0.14821205086E+03  0.91681322690E+02 0.  0.
          5    1    3    3  502    0  0.31986438333E+02 -0.35730181477E+02 -0.21539954799E+02  0.52737274848E+02  0.41800000000E+01 0. -1.
         -5    1    3    3    0  502 -0.95833147396E+01  0.74988163688E+02  0.26994566641E+02  0.80381861405E+02  0.41800000000E+01 0. -1.
        -11    1    4    4    0    0  0.49879238426E+01 -0.21062262074E+02  0.11786877391E+02  0.24646069596E+02  0.00000000000E+00 0.  1.
         11    1    4    4    0    0 -0.27391047436E+02 -0.18195720137E+02 -0.11911002483E+03  0.12356598126E+03  0.00000000000E+00 0. -1.
</event>
<event>
 8    1  0.6869405E-009  0.1248008E+03  0.7561462E-02  0.1235381E+00
          1   -1    0    0  501    0  0.00000000000E+00  0.00000000000E+00  0.19178148471E+03  0.19178148471E+03  0.00000000000E+00 0. -1.
         -1   -1    0    0    0  501 -0.00000000000E+00 -0.00000000000E+00 -0.90538073175E+02  0.90538073175E+02  0.00000000000E+00 0.  1.
         25    2    1    2    0    0 -0.72207151014E+02  0.10453210287E+02  0.72676459857E+02  0.16202615204E+03  0.12508982319E+03 0.  0.
         23    2    1    2    0    0  0.72207151014E+02 -0.10453210287E+02  0.28566951681E+02  0.12029340584E+03  0.91275903164E+02 0.  0.
          5    1    3    3  502    0 -0.91524323098E+01  0.55890639367E+02  0.18932285571E+01  0.56820659099E+02  0.41800000000E+01 0. -1.
         -5    1    3    3    0  502 -0.63054718704E+02 -0.45437429080E+02  0.70783231300E+02  0.10520549294E+03  0.41800000000E+01 0. -1.
        -11    1    4    4    0    0  0.11152204507E+02 -0.43947783278E+02  0.87109266110E+00  0.45349069702E+02  0.00000000000E+00 0.  1.
         11    1    4    4    0    0  0.61054946507E+02  0.33494572991E+02  0.27695859020E+02  0.74944336142E+02  0.00000000000E+00 0. -1.
</event>
<event>
 8    1  0.6869405E-009  0.1027953E+03  0.7561462E-02  0.1274525E+00
         -1   -1    0    0    0  501 -0.00000000000E+00  0.00000000000E+00  0.42102453223E+02  0.42102453223E+02  0.00000000000E+00 0.  1.
          1   -1    0    0  501    0  0.00000000000E+00 -0.00000000000E+00 -0.52475138296E+03  0.52475138296E+03  0.00000000000E+00 0. -1.
         25    2    1    2    0    0  0.55137778483E+02 -0.63994190294E+02 -0.36546960174E+03  0.39541215176E+03  0.12508920400E+03 0.  0.
         23    2    1    2    0    0 -0.55137778483E+02  0.63994190294E+02 -0.11717932799E+03  0.17144168442E+03  0.92335395377E+02 0.  0.
          5    1    3    3  502    0  0.12432744232E+02 -0.28371303907E+00 -0.28074346766E+03  0.28104985440E+03  0.41800000000E+01 0. -1.
         -5    1    3    3    0  502  0.42705034251E+02 -0.63710477255E+02 -0.84726134074E+02  0.11436229736E+03  0.41800000000E+01 0. -1.
        -11    1    4    4    0    0  0.16507994842E+02  0.34370908978E+02 -0.10468310464E+02  0.39540596880E+02  0.00000000000E+00 0.  1.
         11    1    4    4    0    0 -0.71645773325E+02  0.29623281316E+02 -0.10671101753E+03  0.13190108754E+03  0.00000000000E+00 0. -1.
</event>
<event>
 8    1  0.6869405E-009  0.1908327E+03  0.7561462E-02  0.1157712E+00
          1   -1    0    0  501    0  0.00000000000E+00  0.00000000000E+00  0.78959542091E+03  0.78959542091E+03  0.00000000000E+00 0. -1.
         -1   -1    0    0    0  501 -0.00000000000E+00 -0.00000000000E+00 -0.52052177112E+02  0.52052177112E+02  0.00000000000E+00 0.  1.
         25    2    1    2    0    0 -0.61631010145E+02 -0.15325158422E+03  0.30051856463E+03  0.36502538425E+03  0.12509074300E+03 0.  0.
         23    2    1    2    0    0  0.61631010145E+02  0.15325158422E+03  0.43702467918E+03  0.47662221378E+03  0.94306600923E+02 0.  0.
          5    1    3    3  502    0 -0.83103286137E+02 -0.40956495738E+02  0.13865154065E+03  0.16680921088E+03  0.41800000000E+01 0.  1.
         -5    1    3    3    0  502  0.21472275992E+02 -0.11229508848E+03  0.16186702397E+03  0.19821617337E+03  0.41800000000E+01 0.  1.
        -11    1    4    4    0    0  0.30025783897E+02  0.13440866957E+03  0.40522602759E+03  0.42798991996E+03  0.00000000000E+00 0. -1.
         11    1    4    4    0    0  0.31605226249E+02  0.18842914654E+02  0.31798651588E+02  0.48632293815E+02  0.00000000000E+00 0.  1.
</event>
<event>
 8    1  0.6869405E-009  0.1072211E+03  0.7561462E-02  0.1265804E+00
          1   -1    0    0  501    0  0.00000000000E+00  0.00000000000E+00  0.10748586781E+04  0.10748586781E+04  0.00000000000E+00 0. -1.
         -1   -1    0    0    0  501 -0.00000000000E+00 -0.00000000000E+00 -0.17014654343E+02  0.17014654343E+02  0.00000000000E+00 0.  1.
         25    2    1    2    0    0 -0.18771201064E+02 -0.34020393278E+02  0.87513951704E+03  0.88488796508E+03  0.12509113198E+03 0.  0.
         23    2    1    2    0    0  0.18771201064E+02  0.34020393278E+02  0.18270450675E+03  0.20698536740E+03  0.89175447200E+02 0.  0.
          5    1    3    3  502    0  0.31126539923E+02  0.25459023414E+02  0.50799338832E+03  0.50959962552E+03  0.41800000000E+01 0.  1.
         -5    1    3    3    0  502 -0.49897740987E+02 -0.59479416692E+02  0.36714612873E+03  0.37528833956E+03  0.41800000000E+01 0.  1.
        -11    1    4    4    0    0  0.42707936071E+02  0.51292992052E+02  0.11221131500E+03  0.13056154890E+03  0.00000000000E+00 0.  1.
         11    1    4    4    0    0 -0.23936735007E+02 -0.17272598774E+02  0.70493191757E+02  0.76423818507E+02  0.00000000000E+00 0. -1.
</event>
<event>
 8    1  0.6869405E-009  0.2592309E+03  0.7561462E-02  0.1107606E+00
          2   -1    0    0  501    0  0.00000000000E+00  0.00000000000E+00  0.26441173707E+03  0.26441173707E+03  0.00000000000E+00 0.  1.
         -2   -1    0    0    0  501 -0.00000000000E+00 -0.00000000000E+00 -0.28418382479E+03  0.28418382479E+03  0.00000000000E+00 0. -1.
         25    2    1    2    0    0 -0.97317253172E+02 -0.22799698269E+03  0.30944381280E+02  0.27938903501E+03  0.12508959297E+03 0.  0.
         23    2    1    2    0    0  0.97317253172E+02  0.22799698269E+03 -0.50716469000E+02  0.26920652685E+03  0.91906049798E+02 0.  0.
          5    1    3    3  502    0 -0.10255371104E+03 -0.23243349924E+03  0.49774289527E+02  0.25891610130E+03  0.41800000000E+01 0. -1.
         -5    1    3    3    0  502  0.52364578711E+01  0.44365165426E+01 -0.18829908246E+02  0.20472933709E+02  0.41800000000E+01 0. -1.
        -11    1    4    4    0    0  0.67015158421E+02  0.75892619216E+02  0.11914504014E+02  0.10194447761E+03  0.00000000000E+00 0. -1.
         11    1    4    4    0    0  0.30302094751E+02  0.15210436348E+03 -0.62630973014E+02  0.16726204924E+03  0.00000000000E+00 0.  1.
</event>
<event>
 8    1  0.6869405E-009  0.6176720E+02  0.7561462E-02  0.1390562E+00
          3   -1    0    0  501    0  0.00000000000E+00  0.00000000000E+00  0.28694988624E+02  0.28694988624E+02  0.00000000000E+00 0. -1.
         -3   -1    0    0    0  501 -0.00000000000E+00 -0.00000000000E+00 -0.49620756674E+03  0.49620756674E+03  0.00000000000E+00 0.  1.
         25    2    1    2    0    0 -0.35126785803E+01 -0.94150696342E+01 -0.34799194850E+03  0.36992857706E+03  0.12509106065E+03 0.  0.
         23    2    1    2    0    0  0.35126785803E+01  0.94150696342E+01 -0.11952062962E+03  0.15497397831E+03  0.98136489658E+02 0.  0.
          5    1    3    3  502    0 -0.61956441379E+01 -0.22904791973E+02 -0.35365754657E+03  0.35447728862E+03  0.41800000000E+01 0. -1.
         -5    1    3    3    0  502  0.26829655575E+01  0.13489722338E+02  0.56655980673E+01  0.15451288438E+02  0.41800000000E+01 0. -1.
        -11    1    4    4    0    0  0.42033606914E+02 -0.80053359608E+01 -0.20789724800E+02  0.47572283646E+02  0.00000000000E+00 0.  1.
         11    1    4    4    0    0 -0.38520928333E+02  0.17420405595E+02 -0.98730904819E+02  0.10740169467E+03  0.00000000000E+00 0. -1.
</event>
<event>
 8    1  0.6869405E-009  0.1384473E+03  0.7561462E-02  0.1215434E+00
         -1   -1    0    0    0  501 -0.00000000000E+00  0.00000000000E+00  0.12620188483E+03  0.12620188483E+03  0.00000000000E+00 0.  1.
          1   -1    0    0  501    0  0.00000000000E+00 -0.00000000000E+00 -0.25409953433E+03  0.25409953433E+03  0.00000000000E+00 0. -1.
         25    2    1    2    0    0  0.85480147253E+02  0.34192045440E+02  0.35769200328E+02  0.15938363648E+03  0.12509099224E+03 0.  0.
         23    2    1    2    0    0 -0.85480147253E+02 -0.34192045440E+02 -0.16366684983E+03  0.22091778268E+03  0.11636957260E+03 0.  0.
          5    1    3    3  502    0  0.39278574005E+01 -0.28757434979E+02 -0.26000300620E+02  0.39190638713E+02  0.41800000000E+01 0.  1.
         -5    1    3    3    0  502  0.81552289852E+02  0.62949480420E+02  0.61769500949E+02  0.12019299777E+03  0.41800000000E+01 0.  1.
        -11    1    4    4    0    0  0.27356720273E+02 -0.94850899204E+01 -0.55844089448E+02  0.62904049164E+02  0.00000000000E+00 0. -1.
         11    1    4    4    0    0 -0.11283686753E+03 -0.24706955520E+02 -0.10782276038E+03  0.15801373352E+03  0.00000000000E+00 0.  1.
</event>
<event>
 8    1  0.6869405E-009  0.1491841E+03  0.7561462E-02  0.1201479E+00
         -2   -1    0    0    0  501 -0.00000000000E+00  0.00000000000E+00  0.51659507644E+02  0.51659507644E+02  0.00000000000E+00 0.  1.
          2   -1    0    0  501    0  0.00000000000E+00 -0.00000000000E+00 -0.48966188845E+03  0.48966188845E+03  0.00000000000E+00 0. -1.
         25    2    1    2    0    0  0.81150660941E+02 -0.81706512158E+02 -0.22135777472E+03  0.27912000915E+03  0.12508929282E+03 0.  0.
         23    2    1    2    0    0 -0.81150660941E+02  0.81706512158E+02 -0.21664460609E+03  0.26220138694E+03  0.92484042239E+02 0.  0.
          5    1    3    3  502    0  0.95538889404E+01 -0.95167557836E+02 -0.14256709154E+03  0.17172940590E+03  0.41800000000E+01 0.  1.
         -5    1    3    3    0  502  0.71596772001E+02  0.13461045678E+02 -0.78790683176E+02  0.10739060325E+03  0.41800000000E+01 0.  1.
        -11    1    4    4    0    0 -0.46465073673E+02  0.82811733399E+02 -0.89794200614E+02  0.13068965041E+03  0.00000000000E+00 0.  1.
         11    1    4    4    0    0 -0.34685587268E+02 -0.11052212413E+01 -0.12685040547E+03  0.13151173653E+03  0.00000000000E+00 0. -1.
</event>
<event>
 8    1  0.6869405E-009  0.5173560E+02  0.7561462E-02  0.1436199E+00
          1   -1    0    0  501    0  0.00000000000E+00  0.00000000000E+00  0.24931816802E+03  0.24931816802E+03  0.00000000000E+00 0. -1.
         -1   -1    0    0    0  501 -0.00000000000E+00 -0.00000000000E+00 -0.53556926431E+02  0.53556926431E+02  0.00000000000E+00 0.  1.
         25    2    1    2    0    0 -0.99194559607E+01 -0.25197978960E+02  0.15355795809E+03  0.19990453448E+03  0.12509373551E+03 0.  0.
         23    2    1    2    0    0  0.99194559607E+01  0.25197978960E+02  0.42203283491E+02  0.10297055996E+03  0.89936006868E+02 0.  0.
          5    1    3    3  502    0  0.90609836873E+00 -0.28878605557E+01  0.16985791887E+03  0.16993629912E+03  0.41800000000E+01 0. -1.
         -5    1    3    3    0  502 -0.10825554329E+02 -0.22310118404E+02 -0.16299960779E+02  0.29968235369E+02  0.41800000000E+01 0. -1.
        -11    1    4    4    0    0 -0.29183019003E+02  0.68837601800E+01 -0.13172878748E+02  0.32749953998E+02  0.00000000000E+00 0.  1.
         11    1    4    4    0    0  0.39102474964E+02  0.18314218780E+02  0.55376162238E+02  0.70220605965E+02  0.00000000000E+00 0. -1.
</event>
<event>
 8    1  0.6869405E-009  0.1435801E+03  0.7561462E-02  0.1208591E+00
          2   -1    0    0  501    0  0.00000000000E+00  0.00000000000E+00  0.56748653432E+02  0.56748653432E+02  0.00000000000E+00 0. -1.
         -2   -1    0    0    0  501 -0.00000000000E+00 -0.00000000000E+00 -0.50536627225E+03  0.50536627225E+03  0.00000000000E+00 0.  1.
         25    2    1    2    0    0  0.51084021715E+01  0.11544732588E+03 -0.16029583681E+03  0.23387199962E+03  0.12508867287E+03 0.  0.
         23    2    1    2    0    0 -0.51084021715E+01 -0.11544732588E+03 -0.28832178200E+03  0.32824292606E+03  0.10611214683E+03 0.  0.
          5    1    3    3  502    0  0.54187099052E+02  0.10689966623E+03 -0.12013598727E+03  0.16974659990E+03  0.41800000000E+01 0.  1.
         -5    1    3    3    0  502 -0.49078696880E+02  0.85476596550E+01 -0.40159849550E+02  0.64125399717E+02  0.41800000000E+01 0.  1.
        -11    1    4    4    0    0 -0.12771231457E+02 -0.74831535018E+02 -0.27427830181E+03  0.28458996790E+03  0.00000000000E+00 0.  1.
         11    1    4    4    0    0  0.76628292853E+01 -0.40615790863E+02 -0.14043480192E+02  0.43652958159E+02  0.00000000000E+00 0. -1.
</event>
<event>
 8    1  0.6869405E-009  0.1411539E+03  0.7561462E-02  0.1211785E+00
         -1   -1    0    0    0  501 -0.00000000000E+00  0.00000000000E+00  0.25101012682E+03  0.25101012682E+03  0.00000000000E+00 0.  1.
          1   -1    0    0  501    0  0.00000000000E+00 -0.00000000000E+00 -0.93690435605E+02  0.93690435605E+02  0.00000000000E+00 0. -1.
         25    2    1    2    0    0 -0.55615653267E+01  0.95560604364E+02  0.14126747813E+03  0.21158013523E+03  0.12508754188E+03 0.  0.
         23    2    1    2    0    0  0.55615653267E+01 -0.95560604364E+02  0.16052213085E+02  0.13312042719E+03  0.91107708096E+02 0.  0.
          5    1    3    3  502    0  0.21164890236E+02  0.11946622839E+03  0.10780012687E+03  0.16235292439E+03  0.41800000000E+01 0.  1.
         -5    1    3    3    0  502 -0.26726455563E+02 -0.23905624030E+02  0.33467351255E+02  0.49227210841E+02  0.41800000000E+01 0.  1.
        -11    1    4    4    0    0 -0.36801410257E+02 -0.34159764230E+02 -0.14871621255E+02  0.52367913916E+02  0.00000000000E+00 0. -1.
         11    1    4    4    0    0  0.42362975584E+02 -0.61400840134E+02  0.30923834340E+02  0.80752513272E+02  0.00000000000E+00 0.  1.
</event>
<event>
 8    1  0.6869405E-009  0.1172137E+03  0.7561462E-02  0.1247766E+00
          4   -1    0    0  501    0  0.00000000000E+00  0.00000000000E+00  0.21481824481E+03  0.21481824481E+03  0.00000000000E+00 0.  1.
         -4   -1    0    0    0  501 -0.00000000000E+00 -0.00000000000E+00 -0.82471266605E+02  0.82471266605E+02  0.00000000000E+00 0. -1.
         25    2    1    2    0    0 -0.36647474149E+02  0.50426744795E+02  0.13991096703E+03  0.19775912897E+03  0.12509076882E+03 0.  0.
         23    2    1    2    0    0  0.36647474149E+02 -0.50426744795E+02 -0.75639888245E+01  0.99530382445E+02  0.77221688343E+02 0.  0.
          5    1    3    3  502    0 -0.40419397121E+02  0.89717907859E+02  0.11249935459E+03  0.14952126216E+03  0.41800000000E+01 0.  1.
         -5    1    3    3    0  502  0.37719229719E+01 -0.39291163064E+02  0.27411612434E+02  0.48237866807E+02  0.41800000000E+01 0.  1.
        -11    1    4    4    0    0 -0.88055937765E+01 -0.50019716635E+02 -0.16102669506E+02  0.53280451380E+02  0.00000000000E+00 0.  1.
         11    1    4    4    0    0  0.45453067925E+02 -0.40702816012E+00  0.85386806818E+01  0.46249931065E+02  0.00000000000E+00 0. -1.
</event>
<event>
 8    1  0.6869405E-009  0.1074663E+03  0.7561462E-02  0.1265335E+00
         -1   -1    0    0    0  501 -0.00000000000E+00  0.00000000000E+00  0.67927349201E+02  0.67927349201E+02  0.00000000000E+00 0.  1.
          1   -1    0    0  501    0  0.00000000000E+00 -0.00000000000E+00 -0.33879023249E+03  0.33879023249E+03  0.00000000000E+00 0. -1.
         25    2    1    2    0    0  0.75844762952E+02  0.72053072339E+02 -0.13882798843E+03  0.21416201657E+03  0.12509230859E+03 0.  0.
         23    2    1    2    0    0 -0.75844762952E+02 -0.72053072339E+02 -0.13203489485E+03  0.19255556512E+03  0.93275714408E+02 0.  0.
          5    1    3    3  502    0  0.24003960840E+02  0.44902586320E+02  0.11868456072E+02  0.52447736307E+02  0.41800000000E+01 0. -1.
         -5    1    3    3    0  502  0.51840802112E+02  0.27150486018E+02 -0.15069644450E+03  0.16171428026E+03  0.41800000000E+01 0. -1.
        -11    1    4    4    0    0 -0.46318324122E+02 -0.36570695881E+02 -0.71918666868E+01  0.59451878802E+02  0.00000000000E+00 0.  1.
         11    1    4    4    0    0 -0.29526438831E+02 -0.35482376458E+02 -0.12484302817E+03  0.13310368632E+03  0.00000000000E+00 0. -1.
</event>
<event>
 8    1  0.6869405E-009  0.1487390E+03  0.7561462E-02  0.1202031E+00
          1   -1    0    0  501    0  0.00000000000E+00  0.00000000000E+00  0.43401823306E+03  0.43401823306E+03  0.00000000000E+00 0. -1.
         -1   -1    0    0    0  501 -0.00000000000E+00 -0.00000000000E+00 -0.63787562725E+02  0.63787562725E+02  0.00000000000E+00 0.  1.
         25    2    1    2    0    0  0.10854380399E+03 -0.23008494928E+02  0.10861276913E+03  0.19938652023E+03  0.12508837919E+03 0.  0.
         23    2    1    2    0    0 -0.10854380399E+03  0.23008494928E+02  0.26161790121E+03  0.29841927555E+03  0.91098790150E+02 0.  0.
          5    1    3    3  502    0 -0.22320603949E+02 -0.20464455683E+02  0.22027257524E+01  0.30648453595E+02  0.41800000000E+01 0. -1.
         -5    1    3    3    0  502  0.13086440794E+03 -0.25440392456E+01  0.10641004337E+03  0.16873806664E+03  0.41800000000E+01 0. -1.
        -11    1    4    4    0    0 -0.66121240303E+01  0.32885713962E+02  0.29329116705E+02  0.44557686808E+02  0.00000000000E+00 0.  1.
         11    1    4    4    0    0 -0.10193167996E+03 -0.98772190340E+01  0.23228878450E+03  0.25386158874E+03  0.00000000000E+00 0. -1.
</event>
<event>
 8    1  0.6869405E-009  0.1492408E+03  0.7561462E-02  0.1201409E+00
          2   -1    0    0  501    0  0.00000000000E+00  0.00000000000E+00  0.11923364181E+04  0.11923364181E+04  0.00000000000E+00 0. -1.
         -2   -1    0    0    0  501 -0.00000000000E+00 -0.00000000000E+00 -0.19453268042E+02  0.19453268042E+02  0.00000000000E+00 0.  1.
         25    2    1    2    0    0  0.10190497824E+03 -0.42434971401E+01  0.71495501019E+03  0.73294685625E+03  0.12509114931E+03 0.  0.
         23    2    1    2    0    0 -0.10190497824E+03  0.42434971401E+01  0.45792813989E+03  0.47884282991E+03  0.95862623568E+02 0.  0.
          5    1    3    3  502    0  0.61618961482E+02  0.57951675156E+02  0.31633898642E+03  0.32747995328E+03  0.41800000000E+01 0. -1.
         -5    1    3    3    0  502  0.40286016762E+02 -0.62195172297E+02  0.39861602377E+03  0.40546690297E+03  0.41800000000E+01 0. -1.
        -11    1    4    4    0    0  0.16858528295E+02  0.11780220400E+02  0.55494680744E+02  0.59183132393E+02  0.00000000000E+00 0.  1.
         11    1    4    4    0    0 -0.11876350654E+03 -0.75367232598E+01  0.40243345914E+03  0.41965969752E+03  0.00000000000E+00 0. -1.
</event>
<event>
 8    1  0.6869405E-009  0.8283769E+02  0.7561462E-02  0.1321186E+00
          1   -1    0    0  501    0  0.00000000000E+00  0.00000000000E+00  0.28357205817E+03  0.28357205817E+03  0.00000000000E+00 0. -1.
         -1   -1    0    0    0  501 -0.00000000000E+00 -0.00000000000E+00 -0.49920418281E+02  0.49920418281E+02  0.00000000000E+00 0.  1.
         25    2    1    2    0    0  0.18015828026E+02 -0.45358820616E+02  0.13946262320E+03  0.19360149144E+03  0.12509884712E+03 0.  0.
         23    2    1    2    0    0 -0.18015828026E+02  0.45358820616E+02  0.94189016686E+02  0.13989098501E+03  0.91191689076E+02 0.  0.
          5    1    3    3  502    0  0.36158283267E+02 -0.42125220436E+02  0.15776180655E+03  0.16729678913E+03  0.41800000000E+01 0.  1.
         -5    1    3    3    0  502 -0.18142455241E+02 -0.32336001793E+01 -0.18299183351E+02  0.26304702310E+02  0.41800000000E+01 0.  1.
        -11    1    4    4    0    0  0.30026624526E+02  0.10736952277E+02  0.41977756585E+01  0.32163669646E+02  0.00000000000E+00 0.  1.
         11    1    4    4    0    0 -0.48042452552E+02  0.34621868339E+02  0.89991241028E+02  0.10772731537E+03  0.00000000000E+00 0. -1.
</event>
<event>
 8    1  0.6869405E-009  0.1380841E+03  0.7561462E-02  0.1215930E+00
         -1   -1    0    0    0  501 -0.00000000000E+00  0.00000000000E+00  0.33717154261E+03  0.33717154261E+03  0.00000000000E+00 0.  1.
          1   -1    0    0  501    0  0.00000000000E+00 -0.00000000000E+00 -0.91291262623E+02  0.91291262623E+02  0.00000000000E+00 0. -1.
         25    2    1    2    0    0  0.13024419643E+03  0.10555451469E+02  0.18592167528E+03  0.25940327539E+03  0.12509285224E+03 0.  0.
         23    2    1    2    0    0 -0.13024419643E+03 -0.10555451469E+02  0.59958604703E+02  0.16905952984E+03  0.88944488823E+02 0.  0.
          5    1    3    3  502    0  0.18864862381E+02  0.39013058257E+01  0.13543744925E+03  0.13686445221E+03  0.41800000000E+01 0.  1.
         -5    1    3    3    0  502  0.11137933405E+03  0.66541456436E+01  0.50484226035E+02  0.12253882318E+03  0.41800000000E+01 0.  1.
        -11    1    4    4    0    0 -0.12060596691E+03  0.11080573384E+02  0.20209361227E+02  0.12278842226E+03  0.00000000000E+00 0. -1.
         11    1    4    4    0    0 -0.96382295264E+01 -0.21636024853E+02  0.39749243476E+02  0.46271107581E+02  0.00000000000E+00 0.  1.
</event>
<event>
 8    1  0.6869405E-009  0.1442165E+03  0.7561462E-02  0.1207765E+00
         -2   -1    0    0    0  501 -0.00000000000E+00  0.00000000000E+00  0.31860521854E+02  0.31860521854E+02  0.00000000000E+00 0.  1.
          2   -1    0    0  501    0  0.00000000000E+00 -0.00000000000E+00 -0.78498637702E+03  0.78498637702E+03  0.00000000000E+00 0. -1.
         25    2    1    2    0    0 -0.37105638947E+02 -0.10631462797E+03 -0.46232747468E+03  0.49201117258E+03  0.12509465032E+03 0.  0.
         23    2    1    2    0    0  0.37105638947E+02  0.10631462797E+03 -0.29079838049E+03  0.32483572629E+03  0.90966600584E+02 0.  0.
          5    1    3    3  502    0  0.87320514226E+01 -0.11200847834E+03 -0.39171744661E+03  0.40753181265E+03  0.41800000000E+01 0.  1.
         -5    1    3    3    0  502 -0.45837690370E+02  0.56938503669E+01 -0.70610028068E+02  0.84479359930E+02  0.41800000000E+01 0.  1.
        -11    1    4    4    0    0  0.15279770183E+02  0.10671042414E+03 -0.28088567514E+03  0.30086101192E+03  0.00000000000E+00 0. -1.
         11    1    4    4    0    0  0.21825868764E+02 -0.39579616612E+00 -0.99127053452E+01  0.23974714371E+02  0.00000000000E+00 0.  1.
</event>
<event>
 8    1  0.6869405E-009  0.1199995E+03  0.7561462E-02  0.1243098E+00
          2   -1    0    0  501    0  0.00000000000E+00  0.00000000000E+00  0.30261888676E+03  0.30261888676E+03  0.00000000000E+00 0.  1.
         -2   -1    0    0    0  501 -0.00000000000E+00 -0.00000000000E+00 -0.77121613348E+02  0.77121613348E+02  0.00000000000E+00 0. -1.
         25    2    1    2    0    0  0.74414094097E+02 -0.49684337675E+02  0.19528872857E+03  0.24857642689E+03  0.12508621701E+03 0.  0.
         23    2    1    2    0    0 -0.74414094097E+02  0.49684337675E+02  0.30208544838E+02  0.13116407322E+03  0.91024541258E+02 0.  0.
          5    1    3    3  502    0 -0.22310034997E+02 -0.38834255972E+02  0.11094778674E+03  0.11971934214E+03  0.41800000000E+01 0. -1.
         -5    1    3    3    0  502  0.96724129094E+02 -0.10850081704E+02  0.84340941827E+02  0.12885708475E+03  0.41800000000E+01 0. -1.
        -11    1    4    4    0    0 -0.50768219222E+02  0.10517738481E+02 -0.26560757184E+02  0.58253830157E+02  0.00000000000E+00 0. -1.
         11    1    4    4    0    0 -0.23645874875E+02  0.39166599195E+02  0.56769302022E+02  0.72910243061E+02  0.00000000000E+00 0.  1.
</event>
<event>
 8    1  0.6869405E-009  0.9399335E+02  0.7561462E-02  0.1293460E+00
         -1   -1    0    0    0  501 -0.00000000000E+00  0.00000000000E+00  0.59167168223E+02  0.59167168223E+02  0.00000000000E+00 0.  1.
          1   -1    0    0  501    0  0.00000000000E+00 -0.00000000000E+00 -0.33328368333E+03  0.33328368333E+03  0.00000000000E+00 0. -1.
         25    2    1    2    0    0  0.55803541248E+02  0.41734082685E+02 -0.72841505490E+02  0.16065175427E+03  0.12508929752E+03 0.  0.
         23    2    1    2    0    0 -0.55803541248E+02 -0.41734082685E+02 -0.20127500962E+03  0.23179909729E+03  0.91451753033E+02 0.  0.
          5    1    3    3  502    0  0.66256130264E+02  0.35542493187E+02  0.10760397838E+02  0.76068404618E+02  0.41800000000E+01 0.  1.
         -5    1    3    3    0  502 -0.10452589016E+02  0.61915894980E+01 -0.83601903328E+02  0.84583349648E+02  0.41800000000E+01 0.  1.
        -11    1    4    4    0    0 -0.35323723180E+02  0.15850871555E+02 -0.27227561437E+02  0.47332395356E+02  0.00000000000E+00 0.  1.
         11    1    4    4    0    0 -0.20479818068E+02 -0.57584954240E+02 -0.17404744818E+03  0.18446670193E+03  0.00000000000E+00 0. -1.
</event>
<event>
 8    1  0.6869405E-009  0.8230007E+02  0.7561462E-02  0.1322648E+00
          1   -1    0    0  501    0  0.00000000000E+00  0.00000000000E+00  0.13859834305E+03  0.13859834305E+03  0.00000000000E+00 0. -1.
         -1   -1    0    0    0  501 -0.00000000000E+00 -0.00000000000E+00 -0.12371536855E+03  0.12371536855E+03  0.00000000000E+00 0.  1.
         25    2    1    2    0    0 -0.72343812309E+01  0.29112348562E+02  0.75928126599E+02  0.14937117137E+03  0.12508717487E+03 0.  0.
         23    2    1    2    0    0  0.72343812309E+01 -0.29112348562E+02 -0.61045152097E+02  0.11294254023E+03  0.90164525667E+02 0.  0.
          5    1    3    3  502    0 -0.16509140207E+02  0.62718798691E+02 -0.79546972188E+00  0.64994650485E+02  0.41800000000E+01 0.  1.
         -5    1    3    3    0  502  0.92747589765E+01 -0.33606450128E+02  0.76723596321E+02  0.84376520886E+02  0.41800000000E+01 0.  1.
        -11    1    4    4    0    0  0.31123038055E+02 -0.25708477983E+02 -0.74923338713E+02  0.85106263118E+02  0.00000000000E+00 0.  1.
         11    1    4    4    0    0 -0.23888656824E+02 -0.34038705793E+01  0.13878186616E+02  0.27836277113E+02  0.00000000000E+00 0. -1.
</event>
<event>
 8    1  0.6869405E-009  0.1076960E+03  0.7561462E-02  0.1264897E+00
         -2   -1    0    0    0  501 -0.00000000000E+00  0.00000000000E+00  0.10439658046E+02  0.10439658046E+02  0.00000000000E+00 0. -1.
          2   -1    0    0  501    0  0.00000000000E+00 -0.00000000000E+00 -0.15869801650E+04  0.15869801650E+04  0.00000000000E+00 0.  1.
         25    2    1    2    0    0  0.16964875452E+02 -0.10922262579E+02 -0.12814958077E+04  0.12877443373E+04  0.12508745024E+03 0.  0.
         23    2    1    2    0    0 -0.16964875452E+02  0.10922262579E+02 -0.29504469918E+03  0.30967548569E+03  0.91871808020E+02 0.  0.
          5    1    3    3  502    0  0.27864983611E+02 -0.65282206694E+02 -0.72226068584E+03  0.72575215778E+03  0.41800000000E+01 0.  1.
         -5    1    3    3    0  502 -0.10900108159E+02  0.54359944115E+02 -0.55923512191E+03  0.56199217953E+03  0.41800000000E+01 0.  1.
        -11    1    4    4    0    0 -0.45405616577E+02 -0.17330572899E+02 -0.21147638011E+03  0.21698911981E+03  0.00000000000E+00 0.  1.
         11    1    4    4    0    0  0.28440741126E+02  0.28252835478E+02 -0.83568319069E+02  0.92686365882E+02  0.00000000000E+00 0. -1.
</event>
<event>
 8    1  0.6869405E-009  0.2321568E+03  0.7561462E-02  0.1125131E+00
         -1   -1    0    0    0  501 -0.00000000000E+00  0.00000000000E+00  0.59469053136E+03  0.59469053136E+03  0.00000000000E+00 0.  1.
          1   -1    0    0  501    0  0.00000000000E+00 -0.00000000000E+00 -0.10670552283E+03  0.10670552283E+03  0.00000000000E+00 0. -1.
         25    2    1    2    0    0 -0.28198651461E+02  0.21952122014E+03  0.18079119060E+03  0.31195776095E+03  0.12508980766E+03 0.  0.
         23    2    1    2    0    0  0.28198651461E+02 -0.21952122014E+03  0.30719381792E+03  0.38943829324E+03  0.91155978604E+02 0.  0.
          5    1    3    3  502    0 -0.39495406012E+02  0.12181275250E+03  0.17006537898E+03  0.21292707506E+03  0.41800000000E+01 0. -1.
         -5    1    3    3    0  502  0.11296754551E+02  0.97708467640E+02  0.10725811627E+02  0.99030685886E+02  0.41800000000E+01 0. -1.
        -11    1    4    4    0    0 -0.28803377803E+02 -0.11644043472E+03  0.13235568605E+03  0.17862261066E+03  0.00000000000E+00 0.  1.
         11    1    4    4    0    0  0.57002029264E+02 -0.10308078543E+03  0.17483813188E+03  0.21081568258E+03  0.00000000000E+00 0. -1.
</event>
<event>
 8    1  0.6869405E-009  0.2142877E+03  0.7561462E-02  0.1138215E+00
         -1   -1    0    0    0  501 -0.00000000000E+00  0.00000000000E+00  0.33394316538E+02  0.33394316538E+02  0.00000000000E+00 0.  1.
          1   -1    0    0  501    0  0.00000000000E+00 -0.00000000000E+00 -0.17277095671E+04  0.17277095671E+04  0.00000000000E+00 0. -1.
         25    2    1    2    0    0 -0.68091076682E+02  0.17709118667E+03 -0.12332140260E+04  0.12539787556E+04  0.12509277546E+03 0.  0.
         23    2    1    2    0    0  0.68091076682E+02 -0.17709118667E+03 -0.46110122453E+03  0.50712512800E+03  0.92541196575E+02 0.  0.
          5    1    3    3  502    0 -0.19588870183E+02 -0.16789749290E+02 -0.18952552041E+03  0.19131914385E+03  0.41800000000E+01 0. -1.
         -5    1    3    3    0  502 -0.48502206499E+02  0.19388093596E+03 -0.10436885056E+04  0.10626596118E+04  0.41800000000E+01 0. -1.
        -11    1    4    4    0    0  0.54853639039E+02 -0.48352149396E+02 -0.10268853436E+03  0.12606263188E+03  0.00000000000E+00 0.  1.
         11    1    4    4    0    0  0.13237437643E+02 -0.12873903727E+03 -0.35841269017E+03  0.38106249612E+03  0.00000000000E+00 0. -1.
</event>
<event>
 8    1  0.6869405E-009  0.8105842E+02  0.7561462E-02  0.1326074E+00
          2   -1    0    0  501    0  0.00000000000E+00  0.00000000000E+00  0.12343834424E+03  0.12343834424E+03  0.00000000000E+00 0. -1.
         -2   -1    0    0    0  501 -0.00000000000E+00 -0.00000000000E+00 -0.10399054947E+03  0.10399054947E+03  0.00000000000E+00 0.  1.
         25    2    1    2    0    0  0.26069161196E+02  0.19089798333E+02  0.11564567324E+02  0.12971198459E+03  0.12508972045E+03 0.  0.
         23    2    1    2    0    0 -0.26069161196E+02 -0.19089798333E+02  0.78832274444E+01  0.97716909126E+02  0.91882683288E+02 0.  0.
          5    1    3    3  502    0  0.30037558900E+02  0.70777432348E+02  0.34832126398E+01  0.77079861473E+02  0.41800000000E+01 0.  1.
         -5    1    3    3    0  502 -0.39683977036E+01 -0.51687634015E+02  0.80813546840E+01  0.52632123118E+02  0.41800000000E+01 0.  1.
        -11    1    4    4    0    0 -0.12290568441E+02 -0.13449409630E+02  0.49909692700E+02  0.53131178393E+02  0.00000000000E+00 0. -1.
         11    1    4    4    0    0 -0.13778592755E+02 -0.56403887028E+01 -0.42026465256E+02  0.44585730733E+02  0.00000000000E+00 0.  1.
</event>
<event>
 8    1  0.6869405E-009  0.1310454E+03  0.7561462E-02  0.1225913E+00
          2   -1    0    0  501    0  0.00000000000E+00  0.00000000000E+00  0.46555438909E+03  0.46555438909E+03  0.00000000000E+00 0. -1.
         -2   -1    0    0    0  501 -0.00000000000E+00 -0.00000000000E+00 -0.42601570896E+02  0.42601570896E+02  0.00000000000E+00 0.  1.
         25    2    1    2    0    0  0.79251027622E+02  0.39964344258E+02  0.20266261966E+03  0.25416064128E+03  0.12509044719E+03 0.  0.
         23    2    1    2    0    0 -0.79251027622E+02 -0.39964344258E+02  0.22029019854E+03  0.25399531871E+03  0.90044301110E+02 0.  0.
          5    1    3    3  502    0 -0.89872953951E+01  0.53034722824E+02  0.12371302607E+03  0.13496606433E+03  0.41800000000E+01 0.  1.
         -5    1    3    3    0  502  0.88238323017E+02 -0.13070378566E+02  0.78949593590E+02  0.11919457694E+03  0.41800000000E+01 0.  1.
        -11    1    4    4    0    0 -0.77829000997E+02  0.10142336413E+01  0.98828052402E+02  0.12579891100E+03  0.00000000000E+00 0.  1.
         11    1    4    4    0    0 -0.14220266251E+01 -0.40978577899E+02  0.12146214614E+03  0.12819640771E+03  0.00000000000E+00 0. -1.
</event>
<event>
 8    1  0.6869405E-009  0.1939094E+03  0.7561462E-02  0.1154982E+00
          2   -1    0    0  501    0  0.00000000000E+00  0.00000000000E+00  0.20029372819E+04  0.20029372819E+04  0.00000000000E+00 0. -1.
         -2   -1    0    0    0  501 -0.00000000000E+00 -0.00000000000E+00 -0.26189572220E+02  0.26189572220E+02  0.00000000000E+00 0.  1.
         25    2    1    2    0    0  0.14657760386E+03 -0.10806097047E+03  0.14083033744E+04  0.14255278695E+04  0.12509654257E+03 0.  0.
         23    2    1    2    0    0 -0.14657760386E+03  0.10806097047E+03  0.56844433522E+03  0.60359898460E+03  0.89669418853E+02 0.  0.
          5    1    3    3  502    0  0.10137883791E+03 -0.11463850223E+03  0.74095456582E+03  0.75660478189E+03  0.41800000000E+01 0.  1.
         -5    1    3    3    0  502  0.45198765950E+02  0.65775317588E+01  0.66734880863E+03  0.66892308761E+03  0.41800000000E+01 0.  1.
        -11    1    4    4    0    0 -0.68640461743E+02  0.81428469096E+02  0.20584596753E+03  0.23176425721E+03  0.00000000000E+00 0.  1.
         11    1    4    4    0    0 -0.77937142116E+02  0.26632501375E+02  0.36259836768E+03  0.37183472740E+03  0.00000000000E+00 0. -1.
</event>
<event>
 8    1  0.6869405E-009  0.1087021E+03  0.7561462E-02  0.1262992E+00
          2   -1    0    0  501    0  0.00000000000E+00  0.00000000000E+00  0.28245269121E+02  0.28245269121E+02  0.00000000000E+00 0. -1.
         -2   -1    0    0    0  501 -0.00000000000E+00 -0.00000000000E+00 -0.51178539700E+03  0.51178539700E+03  0.00000000000E+00 0.  1.
         25    2    1    2    0    0  0.53476778385E+02 -0.10391766754E+02 -0.24648087268E+03  0.28172199701E+03  0.12508680329E+03 0.  0.
         23    2    1    2    0    0 -0.53476778385E+02  0.10391766754E+02 -0.23705925521E+03  0.25830866912E+03  0.86939768929E+02 0.  0.
          5    1    3    3  502    0  0.16993695673E+02  0.57028247588E+02 -0.10610293988E+03  0.12172227803E+03  0.41800000000E+01 0. -1.
         -5    1    3    3    0  502  0.36483082713E+02 -0.67420014342E+02 -0.14037793279E+03  0.15999971898E+03  0.41800000000E+01 0. -1.
        -11    1    4    4    0    0 -0.34906831380E+02  0.35475651510E+02 -0.57458402158E+02  0.76016292369E+02  0.00000000000E+00 0. -1.
         11    1    4    4    0    0 -0.18569947006E+02 -0.25083884755E+02 -0.17960085305E+03  0.18229237675E+03  0.00000000000E+00 0.  1.
</event>
<event>
 8    1  0.6869405E-009  0.7083019E+02  0.7561462E-02  0.1357293E+00
         -2   -1    0    0    0  501 -0.00000000000E+00  0.00000000000E+00  0.72319454402E+02  0.72319454402E+02  0.00000000000E+00 0.  1.
          2   -1    0    0  501    0  0.00000000000E+00 -0.00000000000E+00 -0.16849635573E+03  0.16849635573E+03  0.00000000000E+00 0. -1.
         25    2    1    2    0    0 -0.13725099381E+02 -0.91210905567E+01 -0.87304907938E+02  0.15343064238E+03  0.12508893806E+03 0.  0.
         23    2    1    2    0    0  0.13725099381E+02  0.91210905567E+01 -0.88719933906E+01  0.87385167757E+02  0.85357381821E+02 0.  0.
          5    1    3    3  502    0 -0.47352615474E+02  0.17855961419E+02 -0.96597810120E+02  0.10913164010E+03  0.41800000000E+01 0. -1.
         -5    1    3    3    0  502  0.33627516093E+02 -0.26977051975E+02  0.92929021821E+01  0.44299002278E+02  0.41800000000E+01 0. -1.
        -11    1    4    4    0    0  0.24378614634E+02  0.20592575683E+02 -0.40816438911E+02  0.51810739331E+02  0.00000000000E+00 0. -1.
         11    1    4    4    0    0 -0.10653515253E+02 -0.11471485126E+02  0.31944445520E+02  0.35574428426E+02  0.00000000000E+00 0.  1.
</event>
<event>
 8    1  0.6869405E-009  0.9357772E+02  0.7561462E-02  0.1294412E+00
         -4   -1    0    0    0  501 -0.00000000000E+00  0.00000000000E+00  0.21883116612E+03  0.21883116612E+03  0.00000000000E+00 0.  1.
          4   -1    0    0  501    0  0.00000000000E+00 -0.00000000000E+00 -0.85341092200E+02  0.85341092200E+02  0.00000000000E+00 0. -1.
         25    2    1    2    0    0 -0.69631185090E+02 -0.34837333100E+02  0.41176455821E+02  0.15298773859E+03  0.12509039104E+03 0.  0.
         23    2    1    2    0    0  0.69631185090E+02  0.34837333100E+02  0.92313618098E+02  0.15118451973E+03  0.90955006481E+02 0.  0.
          5    1    3    3  502    0 -0.39420705811E+01 -0.98664096764E+01  0.74309185016E+02  0.75181203357E+02  0.41800000000E+01 0.  1.
         -5    1    3    3    0  502 -0.65689114509E+02 -0.24970923424E+02 -0.33132729195E+02  0.77806535236E+02  0.41800000000E+01 0.  1.
        -11    1    4    4    0    0  0.21553529616E+02  0.50391490299E+02  0.11699333499E+02  0.56042228165E+02  0.00000000000E+00 0.  1.
         11    1    4    4    0    0  0.48077655474E+02 -0.15554157198E+02  0.80614284599E+02  0.95142291561E+02  0.00000000000E+00 0. -1.
</event>
<event>
 8    1  0.6869405E-009  0.1130987E+03  0.7561462E-02  0.1254937E+00
          1   -1    0    0  501    0  0.00000000000E+00  0.00000000000E+00  0.23215849368E+03  0.23215849368E+03  0.00000000000E+00 0.  1.
         -1   -1    0    0    0  501 -0.00000000000E+00 -0.00000000000E+00 -0.12504292647E+03  0.12504292647E+03  0.00000000000E+00 0. -1.
         25    2    1    2    0    0 -0.75228029836E+02 -0.24065514717E+02 -0.51881019053E+02  0.15678025433E+03  0.12509997018E+03 0.  0.
         23    2    1    2    0    0  0.75228029836E+02  0.24065514717E+02  0.15899658626E+03  0.20042116581E+03  0.93007116878E+02 0.  0.
          5    1    3    3  502    0 -0.72433056406E+02  0.40064171428E+02 -0.36948335700E+02  0.90743249906E+02  0.41800000000E+01 0. -1.
         -5    1    3    3    0  502 -0.27949734307E+01 -0.64129686146E+02 -0.14932683354E+02  0.66037004427E+02  0.41800000000E+01 0. -1.
        -11    1    4    4    0    0  0.30492633530E+02  0.10294675500E+02  0.14915900129E+03  0.15259157483E+03  0.00000000000E+00 0.  1.
         11    1    4    4    0    0  0.44735396306E+02  0.13770839218E+02  0.98375849755E+01  0.47829590983E+02  0.00000000000E+00 0. -1.
</event>
<event>
 8    1  0.6869405E-009  0.9651785E+02  0.7561462E-02  0.1287794E+00
          2   -1    0    0  501    0  0.00000000000E+00  0.00000000000E+00  0.30028540443E+03  0.30028540443E+03  0.00000000000E+00 0.  1.
         -2   -1    0    0    0  501 -0.00000000000E+00 -0.00000000000E+00 -0.42709886597E+02  0.42709886597E+02  0.00000000000E+00 0. -1.
         25    2    1    2    0    0  0.55781537646E+01  0.61803420386E+01  0.10190879087E+03  0.16156140652E+03  0.12508946395E+03 0.  0.
         23    2    1    2    0    0 -0.55781537646E+01 -0.61803420386E+01  0.15566672696E+03  0.18143388451E+03  0.92826785669E+02 0.  0.
          5    1    3    3  502    0 -0.51142479207E+02  0.15896171772E+02  0.12503798168E+02  0.55154862207E+02  0.41800000000E+01 0. -1.
         -5    1    3    3    0  502  0.56720632971E+02 -0.97158297335E+01  0.89404992705E+02  0.10640654431E+03  0.41800000000E+01 0. -1.
        -11    1    4    4    0    0  0.35167948053E+02 -0.17566888990E+02  0.31868507829E+02  0.50606145381E+02  0.00000000000E+00 0. -1.
         11    1    4    4    0    0 -0.40746101817E+02  0.11386546952E+02  0.12379821913E+03  0.13082773913E+03  0.00000000000E+00 0.  1.
</event>
<event>
 8    1  0.6869405E-009  0.1031010E+03  0.7561462E-02  0.1273907E+00
         -1   -1    0    0    0  501 -0.00000000000E+00  0.00000000000E+00  0.36310520865E+02  0.36310520865E+02  0.00000000000E+00 0.  1.
          1   -1    0    0  501    0  0.00000000000E+00 -0.00000000000E+00 -0.36415811040E+03  0.36415811040E+03  0.00000000000E+00 0. -1.
         25    2    1    2    0    0 -0.13761664083E+02  0.35699383953E+02 -0.18255489304E+03  0.22458298785E+03  0.12508956809E+03 0.  0.
         23    2    1    2    0    0  0.13761664083E+02 -0.35699383953E+02 -0.14529269649E+03  0.17588564342E+03  0.91443766833E+02 0.  0.
          5    1    3    3  502    0 -0.65663133469E+01  0.75969077148E+02 -0.65820349750E+02  0.10081769683E+03  0.41800000000E+01 0. -1.
         -5    1    3    3    0  502 -0.71953507364E+01 -0.40269693195E+02 -0.11673454329E+03  0.12376529101E+03  0.41800000000E+01 0. -1.
        -11    1    4    4    0    0 -0.33111712000E+02 -0.72919886952E+01 -0.20585001029E+02  0.39664856461E+02  0.00000000000E+00 0.  1.
         11    1    4    4    0    0  0.46873376083E+02 -0.28407395258E+02 -0.12470769547E+03  0.13622078696E+03  0.00000000000E+00 0. -1.
</event>
<event>
 8    1  0.6869405E-009  0.1216254E+03  0.7561462E-02  0.1240440E+00
          2   -1    0    0  501    0  0.00000000000E+00  0.00000000000E+00  0.53407015685E+03  0.53407015685E+03  0.00000000000E+00 0.  1.
         -2   -1    0    0    0  501 -0.00000000000E+00 -0.00000000000E+00 -0.40713830475E+02  0.40713830475E+02  0.00000000000E+00 0. -1.
         25    2    1    2    0    0  0.82327002864E+02  0.10203054067E+02  0.23594661200E+03  0.27964439232E+03  0.12509334407E+03 0.  0.
         23    2    1    2    0    0 -0.82327002864E+02 -0.10203054067E+02  0.25740971437E+03  0.29513959500E+03  0.11817690879E+03 0.  0.
          5    1    3    3  502    0  0.91506195800E+02  0.15438892993E+02  0.24693918508E+03  0.26383361578E+03  0.41800000000E+01 0.  1.
         -5    1    3    3    0  502 -0.91791929365E+01 -0.52358389257E+01 -0.10992573076E+02  0.15810776548E+02  0.41800000000E+01 0.  1.
        -11    1    4    4    0    0 -0.10801333245E+03  0.67377743508E+01  0.22888950837E+03  0.25318507980E+03  0.00000000000E+00 0.  1.
         11    1    4    4    0    0  0.25686329591E+02 -0.16940828418E+02  0.28520206004E+02  0.41954515202E+02  0.00000000000E+00 0. -1.
</event>
<event>
 8    1  0.6869405E-009  0.1334657E+03  0.7561462E-02  0.1222402E+00
         -4   -1    0    0    0  501 -0.00000000000E+00  0.00000000000E+00  0.56314490484E+03  0.56314490484E+03  0.00000000000E+00 0. -1.
          4   -1    0    0  501    0  0.00000000000E+00 -0.00000000000E+00 -0.45646099024E+02  0.45646099024E+02  0.00000000000E+00 0.  1.
         25    2    1    2    0    0 -0.49069444579E+02  0.95607348364E+02  0.18796276183E+03  0.25005238585E+03  0.12509044881E+03 0.  0.
         23    2    1    2    0    0  0.49069444579E+02 -0.95607348364E+02  0.32953604399E+03  0.35873861801E+03  0.92470624055E+02 0.  0.
          5    1    3    3  502    0  0.58245754948E+01  0.75540973931E+02  0.17398541406E+03  0.18981243670E+03  0.41800000000E+01 0. -1.
         -5    1    3    3    0  502 -0.54894020074E+02  0.20066374433E+02  0.13977347768E+02  0.60239949148E+02  0.41800000000E+01 0. -1.
        -11    1    4    4    0    0  0.48132847474E+02 -0.13020351692E+02  0.67005040531E+02  0.83522308521E+02  0.00000000000E+00 0.  1.
         11    1    4    4    0    0  0.93659710522E+00 -0.82586996672E+02  0.26253100346E+03  0.27521630949E+03  0.00000000000E+00 0. -1.
</event>
<event>
 8    1  0.6869405E-009  0.8076793E+02  0.7561462E-02  0.1326886E+00
          1   -1    0    0  501    0  0.00000000000E+00  0.00000000000E+00  0.46888857464E+03  0.46888857464E+03  0.00000000000E+00 0.  1.
         -1   -1    0    0    0  501 -0.00000000000E+00 -0.00000000000E+00 -0.36083367986E+02  0.36083367986E+02  0.00000000000E+00 0. -1.
         25    2    1    2    0    0  0.51935948921E+02 -0.45139934988E+02  0.19525964371E+03  0.24189659597E+03  0.12511066365E+03 0.  0.
         23    2    1    2    0    0 -0.51935948921E+02  0.45139934988E+02  0.23754556294E+03  0.26307534665E+03  0.89698311146E+02 0.  0.
          5    1    3    3  502    0 -0.10804384335E+02 -0.22438374758E+02  0.16769360273E+03  0.16958429225E+03  0.41800000000E+01 0. -1.
         -5    1    3    3    0  502  0.62740333256E+02 -0.22701560230E+02  0.27566040986E+02  0.72312303722E+02  0.41800000000E+01 0. -1.
        -11    1    4    4    0    0 -0.34416079380E+02  0.35459547375E+02  0.23797802688E+03  0.24305428878E+03  0.00000000000E+00 0.  1.
         11    1    4    4    0    0 -0.17519869541E+02  0.96803876128E+01 -0.43246393768E+00  0.20021057867E+02  0.00000000000E+00 0. -1.
</event>
<event>
 8    1  0.6869405E-009  0.7004602E+02  0.7561462E-02  0.1359937E+00
          2   -1    0    0  501    0  0.00000000000E+00  0.00000000000E+00  0.78087796291E+02  0.78087796291E+02  0.00000000000E+00 0. -1.
         -2   -1    0    0    0  501 -0.00000000000E+00 -0.00000000000E+00 -0.12816659563E+03  0.12816659563E+03  0.00000000000E+00 0.  1.
         25    2    1    2    0    0 -0.15766557408E+02 -0.94415141229E+01 -0.56854619675E+02  0.13862692281E+03  0.12508896605E+03 0.  0.
         23    2    1    2    0    0  0.15766557408E+02  0.94415141229E+01  0.67758203328E+01  0.67627469113E+02  0.64728944963E+02 0.  0.
          5    1    3    3  502    0  0.41645839839E+02  0.26456177089E+01  0.16092171902E+02  0.44919991824E+02  0.41800000000E+01 0. -1.
         -5    1    3    3    0  502 -0.57412397247E+02 -0.12087131832E+02 -0.72946791577E+02  0.93706930987E+02  0.41800000000E+01 0. -1.
        -11    1    4    4    0    0 -0.86034033488E+01 -0.59950715790E+01  0.29240931858E+02  0.31064312777E+02  0.00000000000E+00 0. -1.
         11    1    4    4    0    0  0.24369960757E+02  0.15436585702E+02 -0.22465111525E+02  0.36563156336E+02  0.00000000000E+00 0.  1.
</event>
<event>
 8    1  0.6869405E-009  0.1211639E+03  0.7561462E-02  0.1241189E+00
          1   -1    0    0  501    0  0.00000000000E+00  0.00000000000E+00  0.97224319707E+03  0.97224319707E+03  0.00000000000E+00 0. -1.
         -1   -1    0    0    0  501 -0.00000000000E+00 -0.00000000000E+00 -0.17225752171E+02  0.17225752171E+02  0.00000000000E+00 0.  1.
         25    2    1    2    0    0  0.54227724026E+02  0.34605918504E+02  0.64405527063E+03  0.65923723340E+03  0.12509325569E+03 0.  0.
         23    2    1    2    0    0 -0.54227724026E+02 -0.34605918504E+02  0.31096217427E+03  0.33023171585E+03  0.90649305988E+02 0.  0.
          5    1    3    3  502    0  0.60885409568E+02  0.76286272577E+02  0.47498987530E+03  0.48493245150E+03  0.41800000000E+01 0. -1.
         -5    1    3    3    0  502 -0.66576855422E+01 -0.41680354074E+02  0.16906539534E+03  0.17430478190E+03  0.41800000000E+01 0. -1.
        -11    1    4    4    0    0  0.11925131054E+02 -0.34034647152E+02  0.54329591660E+02  0.65209435570E+02  0.00000000000E+00 0.  1.
         11    1    4    4    0    0 -0.66152855080E+02 -0.57127135118E+00  0.25663258261E+03  0.26502228028E+03  0.00000000000E+00 0. -1.
</event>
<event>
 8    1  0.6869405E-009  0.1073134E+03  0.7561462E-02  0.1265627E+00
         -1   -1    0    0    0  501 -0.00000000000E+00  0.00000000000E+00  0.31453166562E+02  0.31453166562E+02  0.00000000000E+00 0.  1.
          1   -1    0    0  501    0  0.00000000000E+00 -0.00000000000E+00 -0.49587926730E+03  0.49587926730E+03  0.00000000000E+00 0. -1.
         25    2    1    2    0    0  0.43886544207E+02 -0.19758014213E+02 -0.17705439656E+03  0.22206360350E+03  0.12509027448E+03 0.  0.
         23    2    1    2    0    0 -0.43886544207E+02  0.19758014213E+02 -0.28737170418E+03  0.30526883037E+03  0.91050285774E+02 0.  0.
          5    1    3    3  502    0  0.53285878063E+02  0.37048576617E+02 -0.48456172445E+02  0.81101509716E+02  0.41800000000E+01 0. -1.
         -5    1    3    3    0  502 -0.93993338561E+01 -0.56806590830E+02 -0.12859822411E+03  0.14096209378E+03  0.41800000000E+01 0. -1.
        -11    1    4    4    0    0  0.21839408529E+02 -0.35492576675E+01 -0.23247902676E+02  0.32093955408E+02  0.00000000000E+00 0. -1.
         11    1    4    4    0    0 -0.65725952736E+02  0.23307271881E+02 -0.26412380151E+03  0.27317487496E+03  0.00000000000E+00 0.  1.
</event>
<event>
 8    1  0.6869405E-009  0.1032791E+03  0.7561462E-02  0.1273548E+00
          2   -1    0    0  501    0  0.00000000000E+00  0.00000000000E+00  0.27454351556E+04  0.27454351556E+04  0.00000000000E+00 0. -1.
         -2   -1    0    0    0  501 -0.00000000000E+00 -0.00000000000E+00 -0.54995880842E+01  0.54995880842E+01  0.00000000000E+00 0.  1.
         25    2    1    2    0    0  0.10268315106E+02 -0.19289737705E+02  0.22329067906E+04  0.22365146890E+04  0.12509071155E+03 0.  0.
         23    2    1    2    0    0 -0.10268315106E+02  0.19289737705E+02  0.50702877688E+03  0.51442005470E+03  0.84096847818E+02 0.  0.
          5    1    3    3  502    0 -0.41104727947E+02 -0.45847830878E+02  0.15205509948E+04  0.15218030170E+04  0.41800000000E+01 0.  1.
         -5    1    3    3    0  502  0.51373043054E+02  0.26558093173E+02  0.71235579578E+03  0.71471167197E+03  0.41800000000E+01 0.  1.
        -11    1    4    4    0    0  0.15010066050E+02  0.47006404275E+02  0.29494973159E+03  0.29904890618E+03  0.00000000000E+00 0. -1.
         11    1    4    4    0    0 -0.25278381156E+02 -0.27716666570E+02  0.21207904529E+03  0.21537114851E+03  0.00000000000E+00 0.  1.
</event>
<event>
 8    1  0.6869405E-009  0.1578326E+03  0.7561462E-02  0.1191166E+00
         -1   -1    0    0    0  501 -0.00000000000E+00  0.00000000000E+00  0.63319576448E+02  0.63319576448E+02  0.00000000000E+00 0.  1.
          1   -1    0    0  501    0  0.00000000000E+00 -0.00000000000E+00 -0.67135961322E+03  0.67135961322E+03  0.00000000000E+00 0. -1.
         25    2    1    2    0    0  0.13632406556E+03  0.96052879828E+01 -0.51088798485E+03  0.54344293620E+03  0.12508868626E+03 0.  0.
         23    2    1    2    0    0 -0.13632406556E+03 -0.96052879828E+01 -0.97152051917E+02  0.19123625347E+03  0.91957985193E+02 0.  0.
          5    1    3    3  502    0  0.96438314386E+02 -0.48193327073E+02 -0.37782774729E+03  0.39293030460E+03  0.41800000000E+01 0.  1.
         -5    1    3    3    0  502  0.39885751172E+02  0.57798615056E+02 -0.13306023757E+03  0.15051263160E+03  0.41800000000E+01 0.  1.
        -11    1    4    4    0    0 -0.89556863102E+02 -0.13179924948E+02 -0.11014190308E+03  0.14256711039E+03  0.00000000000E+00 0. -1.
         11    1    4    4    0    0 -0.46767202456E+02  0.35746369652E+01  0.12989851161E+02  0.48669143080E+02  0.00000000000E+00 0.  1.
</event>
<event>
 8    1  0.6869405E-009  0.1191802E+03  0.7561462E-02  0.1244456E+00
          1   -1    0    0  501    0  0.00000000000E+00  0.00000000000E+00  0.24318574020E+03  0.24318574020E+03  0.00000000000E+00 0. -1.
         -1   -1    0    0    0  501 -0.00000000000E+00 -0.00000000000E+00 -0.91768208706E+02  0.91768208706E+02  0.00000000000E+00 0.  1.
         25    2    1    2    0    0  0.95824719718E+02 -0.23728081387E+02  0.54120008659E+02  0.16827785149E+03  0.12507222398E+03 0.  0.
         23    2    1    2    0    0 -0.95824719718E+02  0.23728081387E+02  0.97297522834E+02  0.16667609741E+03  0.92567352470E+02 0.  0.
          5    1    3    3  502    0  0.50313901600E+02  0.21617267455E+01  0.91005458848E+02  0.10409432116E+03  0.41800000000E+01 0. -1.
         -5    1    3    3    0  502  0.45510818118E+02 -0.25889808133E+02 -0.36885450189E+02  0.64183530337E+02  0.41800000000E+01 0. -1.
        -11    1    4    4    0    0 -0.10298543605E+03  0.45346806608E+02  0.82194162625E+02  0.13934924929E+03  0.00000000000E+00 0. -1.
         11    1    4    4    0    0  0.71607163339E+01 -0.21618725221E+02  0.15103360209E+02  0.27326848121E+02  0.00000000000E+00 0.  1.
</event>
<event>
 8    1  0.6869405E-009  0.1061489E+03  0.7561462E-02  0.1267872E+00
         -2   -1    0    0    0  501 -0.00000000000E+00  0.00000000000E+00  0.32867380753E+02  0.32867380753E+02  0.00000000000E+00 0.  1.
          2   -1    0    0  501    0  0.00000000000E+00 -0.00000000000E+00 -0.81382011613E+03  0.81382011613E+03  0.00000000000E+00 0. -1.
         25    2    1    2    0    0 -0.12213145682E+01 -0.94835061349E+02 -0.61924950444E+03  0.63883700560E+03  0.12509032938E+03 0.  0.
         23    2    1    2    0    0  0.12213145682E+01  0.94835061349E+02 -0.16170323094E+03  0.20785049129E+03  0.89770325616E+02 0.  0.
          5    1    3    3  502    0  0.24042188273E+02 -0.36314325760E+02 -0.51301062032E+03  0.51487292222E+03  0.41800000000E+01 0.  1.
         -5    1    3    3    0  502 -0.25263502841E+02 -0.58520735589E+02 -0.10623888412E+03  0.12396408338E+03  0.41800000000E+01 0.  1.
        -11    1    4    4    0    0 -0.20055875743E+02  0.27399772720E+02 -0.29774123508E+01  0.34085930840E+02  0.00000000000E+00 0.  1.
         11    1    4    4    0    0  0.21277190311E+02  0.67435288629E+02 -0.15872581859E+03  0.17376456045E+03  0.00000000000E+00 0. -1.
</event>
<event>
 8    1  0.6869405E-009  0.1740182E+03  0.7561462E-02  0.1173721E+00
          2   -1    0    0  501    0  0.00000000000E+00  0.00000000000E+00  0.82345871376E+03  0.82345871376E+03  0.00000000000E+00 0. -1.
         -2   -1    0    0    0  501 -0.00000000000E+00 -0.00000000000E+00 -0.43611568867E+02  0.43611568867E+02  0.00000000000E+00 0.  1.
         25    2    1    2    0    0 -0.13719012929E+03 -0.72296954867E+02  0.41220751573E+03  0.45783200942E+03  0.12508849494E+03 0.  0.
         23    2    1    2    0    0  0.13719012929E+03  0.72296954867E+02  0.36763962916E+03  0.40923827320E+03  0.90934515288E+02 0.  0.
          5    1    3    3  502    0 -0.78148838220E+02 -0.14404163859E+01  0.31160576382E+03  0.32128638340E+03  0.41800000000E+01 0.  1.
         -5    1    3    3    0  502 -0.59041291067E+02 -0.70856538481E+02  0.10060175191E+03  0.13654562602E+03  0.41800000000E+01 0.  1.
        -11    1    4    4    0    0  0.10533376811E+03  0.79464629451E+01  0.18569498767E+03  0.21363749068E+03  0.00000000000E+00 0.  1.
         11    1    4    4    0    0  0.31856361174E+02  0.64350491922E+02  0.18194464149E+03  0.19560078252E+03  0.00000000000E+00 0. -1.
</event>
<event>
 8    1  0.6869405E-009  0.1209428E+03  0.7561462E-02  0.1241550E+00
         -2   -1    0    0    0  501 -0.00000000000E+00  0.00000000000E+00  0.54271996007E+03  0.54271996007E+03  0.00000000000E+00 0.  1.
          2   -1    0    0  501    0  0.00000000000E+00 -0.00000000000E+00 -0.30757381388E+02  0.30757381388E+02  0.00000000000E+00 0. -1.
         25    2    1    2    0    0  0.59088748519E+02 -0.35095139739E+01  0.20512888565E+03  0.24744527171E+03  0.12508999111E+03 0.  0.
         23    2    1    2    0    0 -0.59088748519E+02  0.35095139739E+01  0.30683369304E+03  0.32603206975E+03  0.92984936582E+02 0.  0.
          5    1    3    3  502    0 -0.42631024929E+01  0.51227873838E+02  0.54318605213E+02  0.74902953033E+02  0.41800000000E+01 0. -1.
         -5    1    3    3    0  502  0.63351851012E+02 -0.54737387811E+02  0.15081028043E+03  0.17254231868E+03  0.41800000000E+01 0. -1.
        -11    1    4    4    0    0 -0.44757087053E+02 -0.40400024394E+02  0.21416025733E+03  0.22248589760E+03  0.00000000000E+00 0.  1.
         11    1    4    4    0    0 -0.14331661466E+02  0.43909538367E+02  0.92673435705E+02  0.10354617214E+03  0.00000000000E+00 0. -1.
</event>
<event>
 8    1  0.6869405E-009  0.1422689E+03  0.7561462E-02  0.1210308E+00
          2   -1    0    0  501    0  0.00000000000E+00  0.00000000000E+00  0.48579717244E+03  0.48579717244E+03  0.00000000000E+00 0. -1.
         -2   -1    0    0    0  501 -0.00000000000E+00 -0.00000000000E+00 -0.43095205527E+02  0.43095205527E+02  0.00000000000E+00 0.  1.
         25    2    1    2    0    0  0.39643336881E+02  0.75227923244E+02  0.25209699173E+03  0.29399401032E+03  0.12509496499E+03 0.  0.
         23    2    1    2    0    0 -0.39643336881E+02 -0.75227923244E+02  0.19060497517E+03  0.23489836764E+03  0.10777825368E+03 0.  0.
          5    1    3    3  502    0 -0.16669544676E+01  0.10067822407E+03  0.14782062131E+03  0.17890581886E+03  0.41800000000E+01 0. -1.
         -5    1    3    3    0  502  0.41310291349E+02 -0.25450300824E+02  0.10427637043E+03  0.11508819146E+03  0.41800000000E+01 0. -1.
        -11    1    4    4    0    0 -0.95330108998E+01 -0.97274204188E+02  0.15548005911E+03  0.18364966071E+03  0.00000000000E+00 0.  1.
         11    1    4    4    0    0 -0.30110325982E+02  0.22046280943E+02  0.35124916063E+02  0.51248706936E+02  0.00000000000E+00 0. -1.
</event>
<event>
 8    1  0.6869405E-009  0.1162565E+03  0.7561462E-02  0.1249404E+00
         -2   -1    0    0    0  501 -0.00000000000E+00  0.00000000000E+00  0.26703607627E+02  0.26703607627E+02  0.00000000000E+00 0. -1.
          2   -1    0    0  501    0  0.00000000000E+00 -0.00000000000E+00 -0.71980730105E+03  0.71980730105E+03  0.00000000000E+00 0.  1.
         25    2    1    2    0    0  0.77762181673E+02 -0.26580978163E+02 -0.44682211904E+03  0.47122296891E+03  0.12509026770E+03 0.  0.
         23    2    1    2    0    0 -0.77762181673E+02  0.26580978163E+02 -0.24628157438E+03  0.27528793976E+03  0.91516832324E+02 0.  0.
          5    1    3    3  502    0  0.71024087774E+02  0.30342529646E+02 -0.35154603366E+03  0.35995440868E+03  0.41800000000E+01 0. -1.
         -5    1    3    3    0  502  0.67380938989E+01 -0.56923507809E+02 -0.95276085378E+02  0.11126856023E+03  0.41800000000E+01 0. -1.
        -11    1    4    4    0    0 -0.29833034110E+02 -0.15760077158E+02 -0.18048435354E+02  0.38264029780E+02  0.00000000000E+00 0. -1.
         11    1    4    4    0    0 -0.47929147562E+02  0.42341055321E+02 -0.22823313903E+03  0.23702390998E+03  0.00000000000E+00 0.  1.
</event>
<event>
 8    1  0.6869405E-009  0.1379635E+03  0.7561462E-02  0.1216096E+00
          1   -1    0    0  501    0  0.00000000000E+00  0.00000000000E+00  0.66005827414E+03  0.66005827414E+03  0.00000000000E+00 0. -1.
         -1   -1    0    0    0  501 -0.00000000000E+00 -0.00000000000E+00 -0.42127338970E+02  0.42127338970E+02  0.00000000000E+00 0.  1.
         25    2    1    2    0    0  0.10378925123E+03 -0.58138418290E+02  0.25085796763E+03  0.30451451781E+03  0.12508831792E+03 0.  0.
         23    2    1    2    0    0 -0.10378925123E+03  0.58138418290E+02  0.36707296754E+03  0.39767109530E+03  0.96163673946E+02 0.  0.
          5    1    3    3  502    0  0.91735335361E+02 -0.38004422498E+02  0.26049084523E+03  0.27880577600E+03  0.41800000000E+01 0. -1.
         -5    1    3    3    0  502  0.12053915872E+02 -0.20133995792E+02 -0.96328776012E+01  0.25708741806E+02  0.41800000000E+01 0. -1.
        -11    1    4    4    0    0  0.13975904479E+02  0.27771215480E+02  0.65717467448E+02  0.72700425329E+02  0.00000000000E+00 0. -1.
         11    1    4    4    0    0 -0.11776515571E+03  0.30367202810E+02  0.30135550009E+03  0.32497066997E+03  0.00000000000E+00 0.  1.
</event>
<event>
 8    1  0.6869405E-009  0.1955278E+03  0.7561462E-02  0.1153568E+00
          2   -1    0    0  501    0  0.00000000000E+00  0.00000000000E+00  0.88021763962E+02  0.88021763962E+02  0.00000000000E+00 0.  1.
         -2   -1    0    0    0  501 -0.00000000000E+00 -0.00000000000E+00 -0.45313265957E+03  0.45313265957E+03  0.00000000000E+00 0. -1.
         25    2    1    2    0    0  0.11142193347E+03 -0.12412715896E+03 -0.18399748969E+03  0.27807245146E+03  0.12508722238E+03 0.  0.
         23    2    1    2    0    0 -0.11142193347E+03  0.12412715896E+03 -0.18111340592E+03  0.26308197206E+03  0.92669624869E+02 0.  0.
          5    1    3    3  502    0  0.72535304714E+02  0.23203061140E+01 -0.41997859617E+02  0.83952646550E+02  0.41800000000E+01 0.  1.
         -5    1    3    3    0  502  0.38886628753E+02 -0.12644746508E+03 -0.14199963007E+03  0.19411980491E+03  0.41800000000E+01 0.  1.
        -11    1    4    4    0    0 -0.50001830503E+02  0.11302258733E+03 -0.91059520083E+02  0.15351261999E+03  0.00000000000E+00 0.  1.
         11    1    4    4    0    0 -0.61420102964E+02  0.11104571634E+02 -0.90053885834E+02  0.10956935207E+03  0.00000000000E+00 0. -1.
</event>
<event>
 8    1  0.6869405E-009  0.1040938E+03  0.7561462E-02  0.1271915E+00
          2   -1    0    0  501    0  0.00000000000E+00  0.00000000000E+00  0.50663448427E+03  0.50663448427E+03  0.00000000000E+00 0.  1.
         -2   -1    0    0    0  501 -0.00000000000E+00 -0.00000000000E+00 -0.30646077662E+02  0.30646077662E+02  0.00000000000E+00 0. -1.
         25    2    1    2    0    0 -0.45108024495E+02 -0.33099682808E+02  0.21695632861E+03  0.25661067949E+03  0.12509464190E+03 0.  0.
         23    2    1    2    0    0  0.45108024495E+02  0.33099682808E+02  0.25903207800E+03  0.28066988244E+03  0.92453461802E+02 0.  0.
          5    1    3    3  502    0  0.72939054448E+01  0.33476076351E+02  0.13244894202E+03  0.13687236166E+03  0.41800000000E+01 0. -1.
         -5    1    3    3    0  502 -0.52401929940E+02 -0.66575759159E+02  0.84507386583E+02  0.11973831783E+03  0.41800000000E+01 0. -1.
        -11    1    4    4    0    0 -0.15604872207E+02 -0.59016839618E+01  0.62927313498E+01  0.17830882705E+02  0.00000000000E+00 0. -1.
         11    1    4    4    0    0  0.60712896702E+02  0.39001366770E+02  0.25273934665E+03  0.26283899974E+03  0.00000000000E+00 0.  1.
</event>
<event>
 8    1  0.6869405E-009  0.1337962E+03  0.7561462E-02  0.1221929E+00
          2   -1    0    0  501    0  0.00000000000E+00  0.00000000000E+00  0.30099595574E+03  0.30099595574E+03  0.00000000000E+00 0. -1.
         -2   -1    0    0    0  501 -0.00000000000E+00 -0.00000000000E+00 -0.10342944436E+03  0.10342944436E+03  0.00000000000E+00 0.  1.
         25    2    1    2    0    0 -0.68818733344E+02 -0.80808114169E+02  0.26753964254E+01  0.16407550474E+03  0.12509054375E+03 0.  0.
         23    2    1    2    0    0  0.68818733344E+02  0.80808114169E+02  0.19489111495E+03  0.24034989536E+03  0.92301441693E+02 0.  0.
          5    1    3    3  502    0 -0.30060509834E+02 -0.97559324546E+02  0.37855157677E+02  0.10895843896E+03  0.41800000000E+01 0. -1.
         -5    1    3    3    0  502 -0.38758223510E+02  0.16751210377E+02 -0.35179761251E+02  0.55117065783E+02  0.41800000000E+01 0. -1.
        -11    1    4    4    0    0 -0.11139775843E+02  0.18613732928E+02  0.11483498495E+01  0.21722899593E+02  0.00000000000E+00 0.  1.
         11    1    4    4    0    0  0.79958509188E+02  0.62194381241E+02  0.19374276510E+03  0.21862699577E+03  0.00000000000E+00 0. -1.
</event>
<event>
 8    1  0.6869405E-009  0.1459336E+03  0.7561462E-02  0.1205561E+00
          2   -1    0    0  501    0  0.00000000000E+00  0.00000000000E+00  0.93189272100E+03  0.93189272100E+03  0.00000000000E+00 0. -1.
         -2   -1    0    0    0  501 -0.00000000000E+00 -0.00000000000E+00 -0.25607153663E+02  0.25607153663E+02  0.00000000000E+00 0.  1.
         25    2    1    2    0    0  0.72070893681E+02 -0.82632033682E+02  0.51273893736E+03  0.53904578389E+03  0.12508745954E+03 0.  0.
         23    2    1    2    0    0 -0.72070893681E+02  0.82632033682E+02  0.39354662998E+03  0.41845409078E+03  0.90568258322E+02 0.  0.
          5    1    3    3  502    0  0.47488896145E+02  0.15716703376E+02  0.28966473545E+03  0.29398187255E+03  0.41800000000E+01 0. -1.
         -5    1    3    3    0  502  0.24581997536E+02 -0.98348737059E+02  0.22307420191E+03  0.24506391134E+03  0.41800000000E+01 0. -1.
        -11    1    4    4    0    0  0.18194985328E+02  0.54777599431E+00  0.31246699998E+02  0.36162325843E+02  0.00000000000E+00 0.  1.
         11    1    4    4    0    0 -0.90265879009E+02  0.82084257688E+02  0.36229992998E+03  0.38229176493E+03  0.00000000000E+00 0. -1.
</event>
<event>
 8    1  0.6869405E-009  0.1065887E+03  0.7561462E-02  0.1267021E+00
         -1   -1    0    0    0  501 -0.00000000000E+00  0.00000000000E+00  0.28017830042E+02  0.28017830042E+02  0.00000000000E+00 0.  1.
          1   -1    0    0  501    0  0.00000000000E+00 -0.00000000000E+00 -0.57909553220E+03  0.57909553220E+03  0.00000000000E+00 0. -1.
         25    2    1    2    0    0 -0.33511903299E+02  0.29712641796E+02 -0.27681560382E+03  0.30707483472E+03  0.12514865900E+03 0.  0.
         23    2    1    2    0    0  0.33511903299E+02 -0.29712641796E+02 -0.27426209833E+03  0.30003852753E+03  0.11312617148E+03 0.  0.
          5    1    3    3  502    0  0.11439341302E+02 -0.42706511734E+02 -0.12853807110E+03  0.13599342924E+03  0.41800000000E+01 0. -1.
         -5    1    3    3    0  502 -0.44951244601E+02  0.72419153530E+02 -0.14827753272E+03  0.17108140547E+03  0.41800000000E+01 0. -1.
        -11    1    4    4    0    0  0.55683321026E+02 -0.23186556146E+02 -0.26985018188E+03  0.27650925714E+03  0.00000000000E+00 0. -1.
         11    1    4    4    0    0 -0.22171417727E+02 -0.65260856503E+01 -0.44119164557E+01  0.23529270383E+02  0.00000000000E+00 0.  1.
</event>
<event>
 8    1  0.6869405E-009  0.1342872E+03  0.7561462E-02  0.1221229E+00
          1   -1    0    0  501    0  0.00000000000E+00  0.00000000000E+00  0.15750026510E+03  0.15750026510E+03  0.00000000000E+00 0. -1.
         -1   -1    0    0    0  501 -0.00000000000E+00 -0.00000000000E+00 -0.18042649101E+03  0.18042649101E+03  0.00000000000E+00 0.  1.
         25    2    1    2    0    0  0.61624921441E+02  0.51106340754E+02 -0.11284517756E+03  0.18652924670E+03  0.12509850826E+03 0.  0.
         23    2    1    2    0    0 -0.61624921441E+02 -0.51106340754E+02  0.89918951662E+02  0.15139750941E+03  0.91794874473E+02 0.  0.
          5    1    3    3  502    0  0.95627526430E+02  0.12501332792E+02 -0.79777081603E+02  0.12523083599E+03  0.41800000000E+01 0.  1.
         -5    1    3    3    0  502 -0.34002604989E+02  0.38605007961E+02 -0.33068095961E+02  0.61298410715E+02  0.41800000000E+01 0.  1.
        -11    1    4    4    0    0  0.23553813553E+02 -0.73845411378E+01  0.98188075917E+01  0.26565439263E+02  0.00000000000E+00 0.  1.
         11    1    4    4    0    0 -0.85178734994E+02 -0.43721799616E+02  0.80100144070E+02  0.12483207015E+03  0.00000000000E+00 0. -1.
</event>
<event>
 8    1  0.6869405E-009  0.9949860E+02  0.7561462E-02  0.1281354E+00
         -2   -1    0    0    0  501 -0.00000000000E+00  0.00000000000E+00  0.50846494895E+02  0.50846494895E+02  0.00000000000E+00 0.  1.
          2   -1    0    0  501    0  0.00000000000E+00 -0.00000000000E+00 -0.30505904710E+03  0.30505904710E+03  0.00000000000E+00 0. -1.
         25    2    1    2    0    0 -0.14989023075E+02 -0.31528123833E+02 -0.21524937063E+03  0.25139164709E+03  0.12508707075E+03 0.  0.
         23    2    1    2    0    0  0.14989023075E+02  0.31528123833E+02 -0.38963181579E+02  0.10451389490E+03  0.90478347154E+02 0.  0.
          5    1    3    3  502    0 -0.25335247668E+02 -0.66234203739E+02 -0.63359105407E+02  0.95187673348E+02  0.41800000000E+01 0. -1.
         -5    1    3    3    0  502  0.10346224593E+02  0.34706079906E+02 -0.15189026522E+03  0.15620397375E+03  0.41800000000E+01 0. -1.
        -11    1    4    4    0    0  0.20458770009E+02  0.59543163206E+02 -0.42188877293E+02  0.75788197775E+02  0.00000000000E+00 0. -1.
         11    1    4    4    0    0 -0.54697469334E+01 -0.28015039373E+02  0.32256957136E+01  0.28725697127E+02  0.00000000000E+00 0.  1.
</event>
<event>
 8    1  0.6869405E-009  0.7996810E+02  0.7561462E-02  0.1329142E+00
          2   -1    0    0  501    0  0.00000000000E+00  0.00000000000E+00  0.65329232577E+03  0.65329232577E+03  0.00000000000E+00 0. -1.
         -2   -1    0    0    0  501 -0.00000000000E+00 -0.00000000000E+00 -0.21314332747E+02  0.21314332747E+02  0.00000000000E+00 0.  1.
         25    2    1    2    0    0 -0.31231624887E+02  0.40821025413E+02  0.33559876612E+03  0.36182206862E+03  0.12508759733E+03 0.  0.
         23    2    1    2    0    0  0.31231624887E+02 -0.40821025413E+02  0.29637922690E+03  0.31278458990E+03  0.85742539216E+02 0.  0.
          5    1    3    3  502    0 -0.54397669592E+02  0.19053115258E+02  0.32174716997E+03  0.32689576541E+03  0.41800000000E+01 0. -1.
         -5    1    3    3    0  502  0.23166044704E+02  0.21767910154E+02  0.13851596148E+02  0.34926303205E+02  0.41800000000E+01 0. -1.
        -11    1    4    4    0    0  0.34247827918E+01  0.10865833944E+02  0.78492551096E+00  0.11419789513E+02  0.00000000000E+00 0.  1.
         11    1    4    4    0    0  0.27806842096E+02 -0.51686859357E+02  0.29559430139E+03  0.30136480038E+03  0.00000000000E+00 0. -1.
</event>
<event>
 8    1  0.6869405E-009  0.1639582E+03  0.7561462E-02  0.1184299E+00
          3   -1    0    0  501    0  0.00000000000E+00  0.00000000000E+00  0.63243751339E+03  0.63243751339E+03  0.00000000000E+00 0. -1.
         -3   -1    0    0    0  501 -0.00000000000E+00 -0.00000000000E+00 -0.54458761976E+02  0.54458761976E+02  0.00000000000E+00 0.  1.
         25    2    1    2    0    0 -0.14368971054E+03 -0.64330828491E+02  0.29073904717E+03  0.35350257958E+03  0.12509872826E+03 0.  0.
         23    2    1    2    0    0  0.14368971054E+03  0.64330828491E+02  0.28723970424E+03  0.33339369579E+03  0.62125037509E+02 0.  0.
          5    1    3    3  502    0 -0.52825056776E+01 -0.15348996081E+02  0.14713752598E+03  0.14808923154E+03  0.41800000000E+01 0. -1.
         -5    1    3    3    0  502 -0.13840720486E+03 -0.48981832410E+02  0.14360152119E+03  0.20541334804E+03  0.41800000000E+01 0. -1.
        -11    1    4    4    0    0  0.10439054106E+03  0.22321661029E+02  0.14579147590E+03  0.18069531277E+03  0.00000000000E+00 0.  1.
         11    1    4    4    0    0  0.39299169487E+02  0.42009167462E+02  0.14144822834E+03  0.15269838301E+03  0.00000000000E+00 0. -1.
</event>
<event>
 8    1  0.6869405E-009  0.1096945E+03  0.7561462E-02  0.1261137E+00
          1   -1    0    0  501    0  0.00000000000E+00  0.00000000000E+00  0.13378270001E+03  0.13378270001E+03  0.00000000000E+00 0. -1.
         -1   -1    0    0    0  501 -0.00000000000E+00 -0.00000000000E+00 -0.13177450723E+03  0.13177450723E+03  0.00000000000E+00 0.  1.
         25    2    1    2    0    0 -0.62321017571E+02 -0.27447070664E+02 -0.36039899614E+02  0.14691277669E+03  0.12508892305E+03 0.  0.
         23    2    1    2    0    0  0.62321017571E+02  0.27447070664E+02  0.38048092393E+02  0.11864443055E+03  0.89395708213E+02 0.  0.
          5    1    3    3  502    0 -0.24835872294E+02  0.35119776246E+02  0.26541996488E+02  0.50716557590E+02  0.41800000000E+01 0. -1.
         -5    1    3    3    0  502 -0.37485145277E+02 -0.62566846910E+02 -0.62581896102E+02  0.96196219096E+02  0.41800000000E+01 0. -1.
        -11    1    4    4    0    0  0.79357124638E+02  0.12270289706E+02  0.76887270403E+01  0.80667402114E+02  0.00000000000E+00 0.  1.
         11    1    4    4    0    0 -0.17036107068E+02  0.15176780958E+02  0.30359365353E+02  0.37977028436E+02  0.00000000000E+00 0. -1.
</event>
<event>
 8    1  0.6869405E-009  0.1186327E+03  0.7561462E-02  0.1245370E+00
          3   -1    0    0  501    0  0.00000000000E+00  0.00000000000E+00  0.20325212134E+03  0.20325212134E+03  0.00000000000E+00 0. -1.
         -3   -1    0    0    0  501 -0.00000000000E+00 -0.00000000000E+00 -0.12914852271E+03  0.12914852271E+03  0.00000000000E+00 0.  1.
         25    2    1    2    0    0 -0.13603752540E+02 -0.10033715251E+03 -0.33357531862E+02  0.16435052584E+03  0.12508302905E+03 0.  0.
         23    2    1    2    0    0  0.13603752540E+02  0.10033715251E+03  0.10746113048E+03  0.16805011821E+03  0.80251737730E+02 0.  0.
          5    1    3    3  502    0 -0.38137076052E+02 -0.25131673999E+02  0.36590703642E+02  0.58671880836E+02  0.41800000000E+01 0. -1.
         -5    1    3    3    0  502  0.24533323513E+02 -0.75205478506E+02 -0.69948235505E+02  0.10567864501E+03  0.41800000000E+01 0. -1.
        -11    1    4    4    0    0  0.27159188523E+02  0.29644952615E+02  0.18568070035E+01  0.40247887759E+02  0.00000000000E+00 0.  1.
         11    1    4    4    0    0 -0.13555435983E+02  0.70692199890E+02  0.10560432348E+03  0.12780223045E+03  0.00000000000E+00 0. -1.
</event>
<event>
 8    1  0.6869405E-009  0.8699860E+02  0.7561462E-02  0.1310287E+00
          1   -1    0    0  501    0  0.00000000000E+00  0.00000000000E+00  0.30134109299E+03  0.30134109299E+03  0.00000000000E+00 0. -1.
         -1   -1    0    0    0  501 -0.00000000000E+00 -0.00000000000E+00 -0.60012407776E+02  0.60012407776E+02  0.00000000000E+00 0.  1.
         25    2    1    2    0    0 -0.50427749787E+02  0.17312579105E+02  0.52929388081E+02  0.14591630878E+03  0.12508943081E+03 0.  0.
         23    2    1    2    0    0  0.50427749787E+02 -0.17312579105E+02  0.18839929714E+03  0.21543719199E+03  0.89867709376E+02 0.  0.
          5    1    3    3  502    0 -0.56420300819E+02 -0.24418008172E+02  0.75868386331E+02  0.97739316102E+02  0.41800000000E+01 0.  1.
         -5    1    3    3    0  502  0.59925510315E+01  0.41730587276E+02 -0.22938998250E+02  0.48176992673E+02  0.41800000000E+01 0.  1.
        -11    1    4    4    0    0  0.54199973210E+02 -0.19945474847E+01  0.19178137209E+03  0.19930306068E+03  0.00000000000E+00 0. -1.
         11    1    4    4    0    0 -0.37722234224E+01 -0.15318031620E+02 -0.33820749533E+01  0.16134131314E+02  0.00000000000E+00 0.  1.
</event>
<event>
 8    1  0.6869405E-009  0.1509651E+03  0.7561462E-02  0.1199292E+00
         -4   -1    0    0    0  501 -0.00000000000E+00  0.00000000000E+00  0.25366073950E+03  0.25366073950E+03  0.00000000000E+00 0.  1.
          4   -1    0    0  501    0  0.00000000000E+00 -0.00000000000E+00 -0.11758944334E+03  0.11758944334E+03  0.00000000000E+00 0. -1.
         25    2    1    2    0    0 -0.41819151802E+02  0.12659573140E+03  0.58409637256E+02  0.19191078741E+03  0.12507095559E+03 0.  0.
         23    2    1    2    0    0  0.41819151802E+02 -0.12659573140E+03  0.77661658905E+02  0.17933939543E+03  0.91410966645E+02 0.  0.
          5    1    3    3  502    0 -0.25514258250E+02 -0.14411157638E+01 -0.26742762535E+02  0.37225017619E+02  0.41800000000E+01 0. -1.
         -5    1    3    3    0  502 -0.16304893552E+02  0.12803684716E+03  0.85152399791E+02  0.15468576979E+03  0.41800000000E+01 0. -1.
        -11    1    4    4    0    0 -0.24561511456E+00 -0.93166522665E+02  0.11142792638E+02  0.93830821695E+02  0.00000000000E+00 0.  1.
         11    1    4    4    0    0  0.42064766916E+02 -0.33429208732E+02  0.66518866267E+02  0.85508573732E+02  0.00000000000E+00 0. -1.
</event>
<event>
 8    1  0.6869405E-009  0.1065625E+03  0.7561462E-02  0.1267071E+00
         -2   -1    0    0    0  501 -0.00000000000E+00  0.00000000000E+00  0.44906503618E+02  0.44906503618E+02  0.00000000000E+00 0.  1.
          2   -1    0    0  501    0  0.00000000000E+00 -0.00000000000E+00 -0.81269558298E+03  0.81269558298E+03  0.00000000000E+00 0. -1.
         25    2    1    2    0    0 -0.16217437536E+02  0.10393845088E+03 -0.66354407390E+03  0.68337707222E+03  0.12508908019E+03 0.  0.
         23    2    1    2    0    0  0.16217437536E+02 -0.10393845088E+03 -0.10424500547E+03  0.17422501438E+03  0.91766702129E+02 0.  0.
          5    1    3    3  502    0  0.42910763584E+01  0.10095873509E+02  0.11219166315E+01  0.11792840843E+02  0.41800000000E+01 0. -1.
         -5    1    3    3    0  502 -0.20508513895E+02  0.93842577367E+02 -0.66466599053E+03  0.67158423138E+03  0.41800000000E+01 0. -1.
        -11    1    4    4    0    0  0.79612720447E+01 -0.41654139914E+02 -0.10299427442E+03  0.11138343587E+03  0.00000000000E+00 0. -1.
         11    1    4    4    0    0  0.82561654916E+01 -0.62284310963E+02 -0.12507310489E+01  0.62841578504E+02  0.00000000000E+00 0.  1.
</event>
<event>
 8    1  0.6869405E-009  0.2134657E+03  0.7561462E-02  0.1138851E+00
          2   -1    0    0  501    0  0.00000000000E+00  0.00000000000E+00  0.86568585689E+03  0.86568585689E+03  0.00000000000E+00 0.  1.
         -2   -1    0    0    0  501 -0.00000000000E+00 -0.00000000000E+00 -0.61509527545E+02  0.61509527545E+02  0.00000000000E+00 0. -1.
         25    2    1    2    0    0  0.14375380387E+03  0.13669735820E+03  0.50560020982E+03  0.55734178770E+03  0.12508785825E+03 0.  0.
         23    2    1    2    0    0 -0.14375380387E+03 -0.13669735820E+03  0.29857611953E+03  0.36985359674E+03  0.91064043415E+02 0.  0.
          5    1    3    3  502    0  0.63332613041E+02 -0.47135207171E+01  0.21565661883E+03  0.22485214430E+03  0.41800000000E+01 0.  1.
         -5    1    3    3    0  502  0.80421190825E+02  0.14141087892E+03  0.28994359099E+03  0.33248964339E+03  0.41800000000E+01 0.  1.
        -11    1    4    4    0    0 -0.12325326089E+03 -0.12962045280E+03  0.19741378683E+03  0.26639262628E+03  0.00000000000E+00 0. -1.
         11    1    4    4    0    0 -0.20500542978E+02 -0.70769054023E+01  0.10116233269E+03  0.10346097046E+03  0.00000000000E+00 0.  1.
</event>
<event>
 7    1  0.6869405E-009  0.1081272E+03  0.7561462E-02  0.1264078E+00
          2   -1    0    0  501    0  0.00000000000E+00  0.00000000000E+00  0.17916063563E+04  0.17916063563E+04  0.00000000000E+00 0. -1.
         -2   -1    0    0    0  501 -0.00000000000E+00 -0.00000000000E+00 -0.12879656479E+02  0.12879656479E+02  0.00000000000E+00 0.  1.
         23    2    1    2    0    0  0.34890705053E+02  0.46272239313E+02  0.27908219473E+03  0.29852883279E+03  0.88736188548E+02 0.  0.
          5    1    1    2  502    0  0.31148120604E+02  0.58345035773E+01  0.88405456666E+03  0.88463223776E+03  0.41800000000E+01 0.  1.
         -5    1    1    2    0  502 -0.66038825657E+02 -0.52106742890E+02  0.61558993844E+03  0.62132494225E+03  0.41800000000E+01 0.  1.
        -11    1    3    3    0    0 -0.14343270847E+01  0.60892259198E+02  0.11844843572E+03  0.13319142783E+03  0.00000000000E+00 0.  1.
         11    1    3    3    0    0  0.36325032137E+02 -0.14620019885E+02  0.16063375902E+03  0.16533740496E+03  0.00000000000E+00 0. -1.
</event>
<event>
 8    1  0.6869405E-009  0.1293997E+03  0.7561462E-02  0.1228349E+00
         -2   -1    0    0    0  501 -0.00000000000E+00  0.00000000000E+00  0.29060684367E+02  0.29060684367E+02  0.00000000000E+00 0.  1.
          2   -1    0    0  501    0  0.00000000000E+00 -0.00000000000E+00 -0.10115280104E+04  0.10115280104E+04  0.00000000000E+00 0. -1.
         25    2    1    2    0    0 -0.91772360658E+00  0.10588134027E+03 -0.76623887749E+03  0.78356977400E+03  0.12509145820E+03 0.  0.
         23    2    1    2    0    0  0.91772360658E+00 -0.10588134027E+03 -0.21622844851E+03  0.25701892073E+03  0.89957118872E+02 0.  0.
          5    1    3    3  502    0  0.26946300521E+02  0.15266765493E+02 -0.38118006121E+02  0.49291297721E+02  0.41800000000E+01 0. -1.
         -5    1    3    3    0  502 -0.27864024127E+02  0.90614574780E+02 -0.72812087137E+03  0.73427847628E+03  0.41800000000E+01 0. -1.
        -11    1    4    4    0    0  0.33374187563E+02 -0.91041323657E+02 -0.18793615006E+03  0.21147660747E+03  0.00000000000E+00 0.  1.
         11    1    4    4    0    0 -0.32456463957E+02 -0.14840016616E+02 -0.28292298454E+02  0.45542313265E+02  0.00000000000E+00 0. -1.
</event>
<event>
 8    1  0.6869405E-009  0.1349989E+03  0.7561462E-02  0.1220221E+00
         -2   -1    0    0    0  501 -0.00000000000E+00  0.00000000000E+00  0.29955895712E+02  0.29955895712E+02  0.00000000000E+00 0.  1.
          2   -1    0    0  501    0  0.00000000000E+00 -0.00000000000E+00 -0.78155427793E+03  0.78155427793E+03  0.00000000000E+00 0. -1.
         25    2    1    2    0    0 -0.94889037704E+02  0.24120943335E+02 -0.28639607233E+03  0.32749448281E+03  0.12507668305E+03 0.  0.
         23    2    1    2    0    0  0.94889037704E+02 -0.24120943335E+02 -0.46520230989E+03  0.48401569083E+03  0.90951912906E+02 0.  0.
          5    1    3    3  502    0 -0.80487189612E+02 -0.35301253632E+02 -0.22099312070E+03  0.23786508360E+03  0.41800000000E+01 0.  1.
         -5    1    3    3    0  502 -0.14401848092E+02  0.59422196967E+02 -0.65402951628E+02  0.89629399209E+02  0.41800000000E+01 0.  1.
        -11    1    4    4    0    0  0.62226735294E+02  0.20419982547E+02 -0.14526542905E+03  0.15934612374E+03  0.00000000000E+00 0.  1.
         11    1    4    4    0    0  0.32662302411E+02 -0.44540925882E+02 -0.31993688084E+03  0.32466956710E+03  0.00000000000E+00 0. -1.
</event>
<event>
 8    1  0.6869405E-009  0.1137630E+03  0.7561462E-02  0.1253756E+00
         -1   -1    0    0    0  501 -0.00000000000E+00  0.00000000000E+00  0.12233297771E+02  0.12233297771E+02  0.00000000000E+00 0.  1.
          1   -1    0    0  501    0  0.00000000000E+00 -0.00000000000E+00 -0.11852212180E+04  0.11852212180E+04  0.00000000000E+00 0. -1.
         25    2    1    2    0    0 -0.25257311431E+02 -0.27709373634E+02 -0.84898792527E+03  0.85897242890E+03  0.12508954869E+03 0.  0.
         23    2    1    2    0    0  0.25257311431E+02  0.27709373634E+02 -0.32399999497E+03  0.33848208688E+03  0.90489696823E+02 0.  0.
          5    1    3    3  502    0  0.21697478982E+02 -0.65739653724E+02 -0.49611173682E+03  0.50093593450E+03  0.41800000000E+01 0.  1.
         -5    1    3    3    0  502 -0.46954790413E+02  0.38030280089E+02 -0.35287618846E+03  0.35803649441E+03  0.41800000000E+01 0.  1.
        -11    1    4    4    0    0  0.47328254306E+02  0.48154121627E+02 -0.23682209845E+03  0.24625898847E+03  0.00000000000E+00 0.  1.
         11    1    4    4    0    0 -0.22070942875E+02 -0.20444747993E+02 -0.87177896521E+02  0.92223098417E+02  0.00000000000E+00 0. -1.
</event>
<event>
 8    1  0.6869405E-009  0.2464494E+03  0.7561462E-02  0.1115570E+00
         -3   -1    0    0    0  501 -0.00000000000E+00  0.00000000000E+00  0.21380648218E+03  0.21380648218E+03  0.00000000000E+00 0.  1.
          3   -1    0    0  501    0  0.00000000000E+00 -0.00000000000E+00 -0.33114532772E+03  0.33114532772E+03  0.00000000000E+00 0. -1.
         25    2    1    2    0    0 -0.23122930360E+03  0.69753099898E+02 -0.86669462319E+02  0.28546477709E+03  0.12508420152E+03 0.  0.
         23    2    1    2    0    0  0.23122930360E+03 -0.69753099898E+02 -0.30669383220E+02  0.25948703281E+03  0.89779860421E+02 0.  0.
          5    1    3    3  502    0 -0.83446140023E+01  0.16924125506E+02 -0.49800022892E+02  0.53418847676E+02  0.41800000000E+01 0.  1.
         -5    1    3    3    0  502 -0.22288468960E+03  0.52828974393E+02 -0.36869439427E+02  0.23204592941E+03  0.41800000000E+01 0.  1.
        -11    1    4    4    0    0  0.15400944555E+03 -0.64826033449E+02 -0.58821936771E+02  0.17714780320E+03  0.00000000000E+00 0. -1.
         11    1    4    4    0    0  0.77219858050E+02 -0.49270664492E+01  0.28152553551E+02  0.82339229609E+02  0.00000000000E+00 0.  1.
</event>
<event>
 8    1  0.6869405E-009  0.1223520E+03  0.7561462E-02  0.1239267E+00
         -1   -1    0    0    0  501 -0.00000000000E+00  0.00000000000E+00  0.21065696985E+03  0.21065696985E+03  0.00000000000E+00 0.  1.
          1   -1    0    0  501    0  0.00000000000E+00 -0.00000000000E+00 -0.14691607911E+03  0.14691607911E+03  0.00000000000E+00 0. -1.
         25    2    1    2    0    0  0.46213710976E+02  0.72025704847E+02  0.14699378339E+03  0.21113454115E+03  0.12508881993E+03 0.  0.
         23    2    1    2    0    0 -0.46213710976E+02 -0.72025704847E+02 -0.83252892648E+02  0.14643850781E+03  0.84792589273E+02 0.  0.
          5    1    3    3  502    0 -0.22212458833E+02  0.51814543243E+02  0.12363088028E+03  0.13594192576E+03  0.41800000000E+01 0. -1.
         -5    1    3    3    0  502  0.68426169808E+02  0.20211161603E+02  0.23362903105E+02  0.75192615392E+02  0.41800000000E+01 0. -1.
        -11    1    4    4    0    0 -0.58293130088E+02 -0.17511137570E+02 -0.61461813080E+02  0.86500193188E+02  0.00000000000E+00 0. -1.
         11    1    4    4    0    0  0.12079419112E+02 -0.54514567277E+02 -0.21791079568E+02  0.59938314626E+02  0.00000000000E+00 0.  1.
</event>
<event>
 8    1  0.6869405E-009  0.1074977E+03  0.7561462E-02  0.1265275E+00
          2   -1    0    0  501    0  0.00000000000E+00  0.00000000000E+00  0.19505981557E+03  0.19505981557E+03  0.00000000000E+00 0. -1.
         -2   -1    0    0    0  501 -0.00000000000E+00 -0.00000000000E+00 -0.64600807248E+02  0.64600807248E+02  0.00000000000E+00 0.  1.
         25    2    1    2    0    0 -0.21607186426E+02 -0.49658994063E+01  0.53866305596E+02  0.13798828444E+03  0.12509059558E+03 0.  0.
         23    2    1    2    0    0  0.21607186426E+02  0.49658994063E+01  0.76592702729E+02  0.12167233838E+03  0.91903129177E+02 0.  0.
          5    1    3    3  502    0  0.48183324649E+02  0.10557344440E+02  0.19669063650E+01  0.49542218527E+02  0.41800000000E+01 0.  1.
         -5    1    3    3    0  502 -0.69790511076E+02 -0.15523243846E+02  0.51899399231E+02  0.88446065917E+02  0.41800000000E+01 0.  1.
        -11    1    4    4    0    0  0.56827327385E+02  0.11691724294E+02  0.54214183763E+02  0.79405410872E+02  0.00000000000E+00 0. -1.
         11    1    4    4    0    0 -0.35220140959E+02 -0.67258248874E+01  0.22378518966E+02  0.42266927504E+02  0.00000000000E+00 0.  1.
</event>
<event>
 8    1  0.6869405E-009  0.1047636E+03  0.7561462E-02  0.1270586E+00
          3   -1    0    0  501    0  0.00000000000E+00  0.00000000000E+00  0.80645682481E+02  0.80645682481E+02  0.00000000000E+00 0. -1.
         -3   -1    0    0    0  501 -0.00000000000E+00 -0.00000000000E+00 -0.16646020937E+03  0.16646020937E+03  0.00000000000E+00 0.  1.
         25    2    1    2    0    0 -0.38750501902E+02 -0.10981848109E+02 -0.59297790789E+02  0.14417364232E+03  0.12509040235E+03 0.  0.
         23    2    1    2    0    0  0.38750501902E+02  0.10981848109E+02 -0.26516736102E+02  0.10293224954E+03  0.90937936614E+02 0.  0.
          5    1    3    3  502    0 -0.72272689909E+02  0.16093438208E+02 -0.44442002680E+01  0.74293766738E+02  0.41800000000E+01 0.  1.
         -5    1    3    3    0  502  0.33522188007E+02 -0.27075286317E+02 -0.54853590521E+02  0.69879875579E+02  0.41800000000E+01 0.  1.
        -11    1    4    4    0    0 -0.22830881502E+02 -0.12664482543E+02  0.94903329666E+01  0.27779573216E+02  0.00000000000E+00 0.  1.
         11    1    4    4    0    0  0.61581383404E+02  0.23646330652E+02 -0.36007069069E+02  0.75152676321E+02  0.00000000000E+00 0. -1.
</event>
<event>
 8    1  0.6869405E-009  0.1016710E+03  0.7561462E-02  0.1276821E+00
         -2   -1    0    0    0  501 -0.00000000000E+00  0.00000000000E+00  0.25638913134E+02  0.25638913134E+02  0.00000000000E+00 0.  1.
          2   -1    0    0  501    0  0.00000000000E+00 -0.00000000000E+00 -0.10287957419E+04  0.10287957419E+04  0.00000000000E+00 0. -1.
         25    2    1    2    0    0  0.40721301211E+02 -0.62423596101E+02 -0.84280420002E+03  0.85529018109E+03  0.12508974606E+03 0.  0.
         23    2    1    2    0    0 -0.40721301211E+02  0.62423596101E+02 -0.16035262871E+03  0.19914447391E+03  0.91600361532E+02 0.  0.
          5    1    3    3  502    0 -0.13640992099E+02  0.68858808490E+00 -0.56633300812E+03  0.56651310603E+03  0.41800000000E+01 0.  1.
         -5    1    3    3    0  502  0.54362293311E+02 -0.63112184186E+02 -0.27647119190E+03  0.28877707505E+03  0.41800000000E+01 0.  1.
        -11    1    4    4    0    0 -0.61046860194E+02  0.59272846497E+02 -0.15661903825E+03  0.17824004211E+03  0.00000000000E+00 0. -1.
         11    1    4    4    0    0  0.20325558983E+02  0.31507496041E+01 -0.37335904627E+01  0.20904431797E+02  0.00000000000E+00 0.  1.
</event>
<event>
 8    1  0.6869405E-009  0.8203023E+02  0.7561462E-02  0.1323387E+00
         -1   -1    0    0    0  501 -0.00000000000E+00  0.00000000000E+00  0.14238299536E+03  0.14238299536E+03  0.00000000000E+00 0.  1.
          1   -1    0    0  501    0  0.00000000000E+00 -0.00000000000E+00 -0.12001392126E+03  0.12001392126E+03  0.00000000000E+00 0. -1.
         25    2    1    2    0    0  0.26004756975E+02 -0.24852028418E+02 -0.52600625576E+02  0.14038496220E+03  0.12508893276E+03 0.  0.
         23    2    1    2    0    0 -0.26004756975E+02  0.24852028418E+02  0.74969699672E+02  0.12201195442E+03  0.89289363586E+02 0.  0.
          5    1    3    3  502    0  0.50999525708E+02 -0.27408228965E+02  0.21598035708E+02  0.61936339769E+02  0.41800000000E+01 0. -1.
         -5    1    3    3    0  502 -0.24994768734E+02  0.25562005478E+01 -0.74198661284E+02  0.78448622433E+02  0.41800000000E+01 0. -1.
        -11    1    4    4    0    0 -0.11039379192E+02 -0.25620150589E+02  0.61711161022E+02  0.67723905704E+02  0.00000000000E+00 0.  1.
         11    1    4    4    0    0 -0.14965377783E+02  0.50472179006E+02  0.13258538650E+02  0.54288048712E+02  0.00000000000E+00 0. -1.
</event>
<event>
 8    1  0.6869405E-009  0.1427387E+03  0.7561462E-02  0.1209691E+00
          2   -1    0    0  501    0  0.00000000000E+00  0.00000000000E+00  0.71308809587E+03  0.71308809587E+03  0.00000000000E+00 0. -1.
         -2   -1    0    0    0  501 -0.00000000000E+00 -0.00000000000E+00 -0.36736812800E+02  0.36736812800E+02  0.00000000000E+00 0.  1.
         25    2    1    2    0    0  0.91389150659E+02  0.91608047453E+01  0.19225334354E+03  0.24707268129E+03  0.12509062529E+03 0.  0.
         23    2    1    2    0    0 -0.91389150659E+02 -0.91608047453E+01  0.48409793953E+03  0.50275222738E+03  0.99865358730E+02 0.  0.
          5    1    3    3  502    0  0.14421718274E+00  0.52800206880E+02  0.53159992698E+02  0.75042253890E+02  0.41800000000E+01 0.  1.
         -5    1    3    3    0  502  0.91244933476E+02 -0.43639402135E+02  0.13909335084E+03  0.17203042740E+03  0.41800000000E+01 0.  1.
        -11    1    4    4    0    0  0.30036386066E+01 -0.33634080351E+02  0.18805491059E+03  0.19106261435E+03  0.00000000000E+00 0. -1.
         11    1    4    4    0    0 -0.94392789266E+02  0.24473275606E+02  0.29604302894E+03  0.31168961303E+03  0.00000000000E+00 0.  1.
</event>
<event>
 8    1  0.6869405E-009  0.9620118E+02  0.7561462E-02  0.1288493E+00
          1   -1    0    0  501    0  0.00000000000E+00  0.00000000000E+00  0.10036810594E+04  0.10036810594E+04  0.00000000000E+00 0. -1.
         -1   -1    0    0    0  501 -0.00000000000E+00 -0.00000000000E+00 -0.14239720796E+02  0.14239720796E+02  0.00000000000E+00 0.  1.
         25    2    1    2    0    0 -0.41663469067E+02  0.10222782210E+02  0.66781235411E+03  0.68077983544E+03  0.12508994404E+03 0.  0.
         23    2    1    2    0    0  0.41663469067E+02 -0.10222782210E+02  0.32162898447E+03  0.33714094473E+03  0.91533944728E+02 0.  0.
          5    1    3    3  502    0 -0.66422618815E+02  0.32643699037E+02  0.60492124679E+03  0.60944627540E+03  0.41800000000E+01 0.  1.
         -5    1    3    3    0  502  0.24759149748E+02 -0.22420916827E+02  0.62891107320E+02  0.71333560037E+02  0.41800000000E+01 0.  1.
        -11    1    4    4    0    0 -0.19249041152E+02 -0.13657048844E+02  0.25311418344E+02  0.34607924916E+02  0.00000000000E+00 0. -1.
         11    1    4    4    0    0  0.60912510219E+02  0.34342666345E+01  0.29631756612E+03  0.30253301982E+03  0.00000000000E+00 0.  1.
</event>
<event>
 8    1  0.6869405E-009  0.1217508E+03  0.7561462E-02  0.1240236E+00
         -1   -1    0    0    0  501 -0.00000000000E+00  0.00000000000E+00  0.45539453060E+03  0.45539453060E+03  0.00000000000E+00 0.  1.
          1   -1    0    0  501    0  0.00000000000E+00 -0.00000000000E+00 -0.51599327842E+02  0.51599327842E+02  0.00000000000E+00 0. -1.
         25    2    1    2    0    0 -0.40357220638E+01  0.10814114381E+03  0.22003317864E+03  0.27526806852E+03  0.12508843195E+03 0.  0.
         23    2    1    2    0    0  0.40357220638E+01 -0.10814114381E+03  0.18376202411E+03  0.23172578992E+03  0.90650792440E+02 0.  0.
          5    1    3    3  502    0  0.15884968419E+02  0.50154392151E+02  0.66279006806E+01  0.53190194031E+02  0.41800000000E+01 0.  1.
         -5    1    3    3    0  502 -0.19920690482E+02  0.57986751657E+02  0.21340527796E+03  0.22207787449E+03  0.41800000000E+01 0.  1.
        -11    1    4    4    0    0 -0.33199732900E+02 -0.57779985970E+02  0.14080558002E+03  0.15577856209E+03  0.00000000000E+00 0.  1.
         11    1    4    4    0    0  0.37235454964E+02 -0.50361157837E+02  0.42956444097E+02  0.75947227826E+02  0.00000000000E+00 0. -1.
</event>
<event>
 8    1  0.6869405E-009  0.1010607E+03  0.7561462E-02  0.1278081E+00
         -2   -1    0    0    0  501 -0.00000000000E+00  0.00000000000E+00  0.23342230746E+03  0.23342230746E+03  0.00000000000E+00 0.  1.
          2   -1    0    0  501    0  0.00000000000E+00 -0.00000000000E+00 -0.82834206084E+02  0.82834206084E+02  0.00000000000E+00 0. -1.
         25    2    1    2    0    0 -0.79916576065E+02  0.18370742370E+02  0.51014665076E+02  0.15803182643E+03  0.12508964308E+03 0.  0.
         23    2    1    2    0    0  0.79916576065E+02 -0.18370742370E+02  0.99573436297E+02  0.15822468711E+03  0.91629902821E+02 0.  0.
          5    1    3    3  502    0 -0.29555519765E+02 -0.20074918126E+02 -0.35617231750E+02  0.50622037532E+02  0.41800000000E+01 0. -1.
         -5    1    3    3    0  502 -0.50361056300E+02  0.38445660497E+02  0.86631896826E+02  0.10740978889E+03  0.41800000000E+01 0. -1.
        -11    1    4    4    0    0  0.72260536171E+02  0.10287831894E+02  0.23670881180E+02  0.76731578823E+02  0.00000000000E+00 0.  1.
         11    1    4    4    0    0  0.76560398940E+01 -0.28658574264E+02  0.75902555116E+02  0.81493108291E+02  0.00000000000E+00 0. -1.
</event>
<event>
 8    1  0.6869405E-009  0.1096479E+03  0.7561462E-02  0.1261223E+00
          1   -1    0    0  501    0  0.00000000000E+00  0.00000000000E+00  0.94543328137E+03  0.94543328137E+03  0.00000000000E+00 0. -1.
         -1   -1    0    0    0  501 -0.00000000000E+00 -0.00000000000E+00 -0.17130667698E+02  0.17130667698E+02  0.00000000000E+00 0.  1.
         25    2    1    2    0    0 -0.27217652513E+02  0.54980610950E+02  0.41134452319E+03  0.43429863094E+03  0.12508923172E+03 0.  0.
         23    2    1    2    0    0  0.27217652513E+02 -0.54980610950E+02  0.51695809049E+03  0.52826531813E+03  0.89749155031E+02 0.  0.
          5    1    3    3  502    0 -0.57227341785E+02  0.64597164858E+02  0.37984040076E+03  0.38954327720E+03  0.41800000000E+01 0. -1.
         -5    1    3    3    0  502  0.30009689273E+02 -0.96165539079E+01  0.31504122425E+02  0.44755353748E+02  0.41800000000E+01 0. -1.
        -11    1    4    4    0    0  0.37669602852E+02 -0.71927504185E+02  0.47416982541E+03  0.48107129219E+03  0.00000000000E+00 0. -1.
         11    1    4    4    0    0 -0.10451950340E+02  0.16946893235E+02  0.42788265076E+02  0.47194025940E+02  0.00000000000E+00 0.  1.
</event>
<event>
 8    1  0.6869405E-009  0.1863792E+03  0.7561462E-02  0.1161768E+00
          1   -1    0    0  501    0  0.00000000000E+00  0.00000000000E+00  0.25877067080E+03  0.25877067080E+03  0.00000000000E+00 0. -1.
         -1   -1    0    0    0  501 -0.00000000000E+00 -0.00000000000E+00 -0.17229113217E+03  0.17229113217E+03  0.00000000000E+00 0.  1.
         25    2    1    2    0    0  0.11514451402E+02  0.16592894777E+03 -0.25368988527E+02  0.20965653369E+03  0.12508908121E+03 0.  0.
         23    2    1    2    0    0 -0.11514451402E+02 -0.16592894777E+03  0.11184852716E+03  0.22140526928E+03  0.94048933725E+02 0.  0.
          5    1    3    3  502    0  0.49932622040E+02  0.86880473894E+02 -0.57945883694E+02  0.11583039897E+03  0.41800000000E+01 0.  1.
         -5    1    3    3    0  502 -0.38418170637E+02  0.79048473880E+02  0.32576895167E+02  0.93826134720E+02  0.41800000000E+01 0.  1.
        -11    1    4    4    0    0 -0.46015841309E+02 -0.90334839704E+02  0.89805948776E+02  0.13543614492E+03  0.00000000000E+00 0.  1.
         11    1    4    4    0    0  0.34501389907E+02 -0.75594108070E+02  0.22042578384E+02  0.85969124354E+02  0.00000000000E+00 0. -1.
</event>
<event>
 8    1  0.6869405E-009  0.1120048E+03  0.7561462E-02  0.1256902E+00
          2   -1    0    0  501    0  0.00000000000E+00  0.00000000000E+00  0.18564994459E+03  0.18564994459E+03  0.00000000000E+00 0. -1.
         -2   -1    0    0    0  501 -0.00000000000E+00 -0.00000000000E+00 -0.75146662432E+02  0.75146662432E+02  0.00000000000E+00 0.  1.
         25    2    1    2    0    0 -0.11587388720E+02 -0.32395646458E+02  0.29363910166E+02  0.13301717157E+03  0.12509030029E+03 0.  0.
         23    2    1    2    0    0  0.11587388720E+02  0.32395646458E+02  0.81139371992E+02  0.12777943545E+03  0.92521570183E+02 0.  0.
          5    1    3    3  502    0  0.35414546981E+02  0.33203613011E+02  0.14656364605E+02  0.50881740127E+02  0.41800000000E+01 0.  1.
         -5    1    3    3    0  502 -0.47001935701E+02 -0.65599259469E+02  0.14707545561E+02  0.82135431447E+02  0.41800000000E+01 0.  1.
        -11    1    4    4    0    0  0.44608885792E+02 -0.46492313670E+01  0.20199531829E+02  0.49189319268E+02  0.00000000000E+00 0.  1.
         11    1    4    4    0    0 -0.33021497073E+02  0.37044877825E+02  0.60939840163E+02  0.78590116179E+02  0.00000000000E+00 0. -1.
</event>
<event>
 8    1  0.6869405E-009  0.1373536E+03  0.7561462E-02  0.1216935E+00
         -2   -1    0    0    0  501 -0.00000000000E+00  0.00000000000E+00  0.27633784863E+02  0.27633784863E+02  0.00000000000E+00 0.  1.
          2   -1    0    0  501    0  0.00000000000E+00 -0.00000000000E+00 -0.11581761251E+04  0.11581761251E+04  0.00000000000E+00 0. -1.
         25    2    1    2    0    0  0.86936370239E+02  0.88839950809E+02 -0.82344332590E+03  0.84211513561E+03  0.12509404991E+03 0.  0.
         23    2    1    2    0    0 -0.86936370239E+02 -0.88839950809E+02 -0.30709901433E+03  0.34369477435E+03  0.91464878403E+02 0.  0.
          5    1    3    3  502    0  0.35525435506E+02  0.35301603454E+02 -0.76815376610E+02  0.91795066632E+02  0.41800000000E+01 0. -1.
         -5    1    3    3    0  502  0.51410934733E+02  0.53538347355E+02 -0.74662794929E+03  0.75032006898E+03  0.41800000000E+01 0. -1.
        -11    1    4    4    0    0 -0.76566808127E+02 -0.18186586586E+02 -0.12074331030E+03  0.14412555298E+03  0.00000000000E+00 0.  1.
         11    1    4    4    0    0 -0.10369562112E+02 -0.70653364224E+02 -0.18635570402E+03  0.19956922137E+03  0.00000000000E+00 0. -1.
</event>
<event>
 8    1  0.6869405E-009  0.2083854E+03  0.7561462E-02  0.1142851E+00
          3   -1    0    0  501    0  0.00000000000E+00  0.00000000000E+00  0.17455437304E+04  0.17455437304E+04  0.00000000000E+00 0. -1.
         -3   -1    0    0    0  501 -0.00000000000E+00 -0.00000000000E+00 -0.26221799772E+02  0.26221799772E+02  0.00000000000E+00 0.  1.
         25    2    1    2    0    0  0.17741962191E+03 -0.24595846543E+02  0.71584462266E+03  0.74844033146E+03  0.12508688202E+03 0.  0.
         23    2    1    2    0    0 -0.17741962191E+03  0.24595846543E+02  0.10034773080E+04  0.10233251987E+04  0.90250079308E+02 0.  0.
          5    1    3    3  502    0 -0.16735266897E+02 -0.16425993756E+02  0.67031300206E+02  0.71137543086E+02  0.41800000000E+01 0.  1.
         -5    1    3    3    0  502  0.19415488880E+03 -0.81698527873E+01  0.64881332246E+03  0.67730278837E+03  0.41800000000E+01 0.  1.
        -11    1    4    4    0    0 -0.50323472508E+01  0.25701099741E+02  0.90426723161E+02  0.94142781499E+02  0.00000000000E+00 0.  1.
         11    1    4    4    0    0 -0.17238727466E+03 -0.11052531981E+01  0.91305058481E+03  0.92918241722E+03  0.00000000000E+00 0. -1.
</event>
<event>
 8    1  0.6869405E-009  0.1071133E+03  0.7561462E-02  0.1266011E+00
         -2   -1    0    0    0  501 -0.00000000000E+00  0.00000000000E+00  0.51868762445E+02  0.51868762445E+02  0.00000000000E+00 0.  1.
          2   -1    0    0  501    0  0.00000000000E+00 -0.00000000000E+00 -0.32958546152E+03  0.32958546152E+03  0.00000000000E+00 0. -1.
         25    2    1    2    0    0 -0.95429448122E+01 -0.67432183091E+02 -0.19063184639E+03  0.23796139565E+03  0.12508780056E+03 0.  0.
         23    2    1    2    0    0  0.95429448122E+01  0.67432183091E+02 -0.87084852685E+02  0.14349282832E+03  0.91478156403E+02 0.  0.
          5    1    3    3  502    0 -0.11400871091E+02  0.21512599676E+02 -0.12476981643E+03  0.12719178943E+03  0.41800000000E+01 0. -1.
         -5    1    3    3    0  502  0.18579262783E+01 -0.88944782767E+02 -0.65862029961E+02  0.11076960622E+03  0.41800000000E+01 0. -1.
        -11    1    4    4    0    0 -0.32240777292E+02  0.23997707859E+02 -0.70219009216E+02  0.80907768219E+02  0.00000000000E+00 0. -1.
         11    1    4    4    0    0  0.41783722104E+02  0.43434475232E+02 -0.16865843469E+02  0.62585060098E+02  0.00000000000E+00 0.  1.
</event>
<event>
 8    1  0.6869405E-009  0.1054671E+03  0.7561462E-02  0.1269202E+00
          1   -1    0    0  501    0  0.00000000000E+00  0.00000000000E+00  0.25164757675E+03  0.25164757675E+03  0.00000000000E+00 0. -1.
         -1   -1    0    0    0  501 -0.00000000000E+00 -0.00000000000E+00 -0.53767136190E+02  0.53767136190E+02  0.00000000000E+00 0.  1.
         25    2    1    2    0    0  0.34791967898E+02 -0.17997714808E+02  0.95293022915E+02  0.16205761299E+03  0.12509001136E+03 0.  0.
         23    2    1    2    0    0 -0.34791967898E+02  0.17997714808E+02  0.10258741765E+03  0.14335709996E+03  0.92155743606E+02 0.  0.
          5    1    3    3  502    0 -0.36574762420E+02 -0.33010404712E+02  0.68000948576E+02  0.84077354101E+02  0.41800000000E+01 0.  1.
         -5    1    3    3    0  502  0.71366730318E+02  0.15012689904E+02  0.27292074340E+02  0.77980258887E+02  0.41800000000E+01 0.  1.
        -11    1    4    4    0    0 -0.18488817162E+02  0.49570729299E+02  0.92259673449E+02  0.10635290738E+03  0.00000000000E+00 0.  1.
         11    1    4    4    0    0 -0.16303150736E+02 -0.31573014491E+02  0.10327744199E+02  0.37004192576E+02  0.00000000000E+00 0. -1.
</event>
<event>
 8    1  0.6869405E-009  0.1057741E+03  0.7561462E-02  0.1268602E+00
         -1   -1    0    0    0  501 -0.00000000000E+00  0.00000000000E+00  0.21598820058E+02  0.21598820058E+02  0.00000000000E+00 0.  1.
          1   -1    0    0  501    0  0.00000000000E+00 -0.00000000000E+00 -0.69741529746E+03  0.69741529746E+03  0.00000000000E+00 0. -1.
         25    2    1    2    0    0 -0.46262500372E+02  0.21118340389E+02 -0.43710449999E+03  0.45748563042E+03  0.12508618985E+03 0.  0.
         23    2    1    2    0    0  0.46262500372E+02 -0.21118340389E+02 -0.23871197741E+03  0.26152848709E+03  0.93954979436E+02 0.  0.
          5    1    3    3  502    0 -0.44172387665E+02 -0.39060189970E+02 -0.32335166683E+03  0.32871061910E+03  0.41800000000E+01 0.  1.
         -5    1    3    3    0  502 -0.20901127071E+01  0.60178530359E+02 -0.11375283316E+03  0.12877501132E+03  0.41800000000E+01 0.  1.
        -11    1    4    4    0    0  0.67705377389E+02 -0.20024445968E+02 -0.22555461640E+03  0.23634695163E+03  0.00000000000E+00 0. -1.
         11    1    4    4    0    0 -0.21442877016E+02 -0.10938944209E+01 -0.13157361011E+02  0.25181535468E+02  0.00000000000E+00 0.  1.
</event>
<event>
 8    1  0.6869405E-009  0.1003208E+03  0.7561462E-02  0.1279623E+00
          3   -1    0    0  501    0  0.00000000000E+00  0.00000000000E+00  0.53497665557E+02  0.53497665557E+02  0.00000000000E+00 0. -1.
         -3   -1    0    0    0  501 -0.00000000000E+00 -0.00000000000E+00 -0.30069420306E+03  0.30069420306E+03  0.00000000000E+00 0.  1.
         25    2    1    2    0    0  0.42417981436E+02  0.22241743926E+02 -0.75973715897E+02  0.15398933299E+03  0.12508688519E+03 0.  0.
         23    2    1    2    0    0 -0.42417981436E+02 -0.22241743926E+02 -0.17122282160E+03  0.20020253562E+03  0.92031626681E+02 0.  0.
          5    1    3    3  502    0 -0.43011148810E+02 -0.59519149256E+01 -0.29365919614E+02  0.52585300684E+02  0.41800000000E+01 0.  1.
         -5    1    3    3    0  502  0.85429130246E+02  0.28193658852E+02 -0.46607796284E+02  0.10140403231E+03  0.41800000000E+01 0.  1.
        -11    1    4    4    0    0 -0.51634684412E+02 -0.11671523501E+02 -0.17721433156E+03  0.18495211382E+03  0.00000000000E+00 0.  1.
         11    1    4    4    0    0  0.92167029759E+01 -0.10570220425E+02  0.59915099587E+01  0.15250421803E+02  0.00000000000E+00 0. -1.
</event>
<event>
 8    1  0.6869405E-009  0.7821221E+02  0.7561462E-02  0.1334203E+00
         -2   -1    0    0    0  501 -0.00000000000E+00  0.00000000000E+00  0.25974581213E+02  0.25974581213E+02  0.00000000000E+00 0. -1.
          2   -1    0    0  501    0  0.00000000000E+00 -0.00000000000E+00 -0.58387998415E+03  0.58387998415E+03  0.00000000000E+00 0.  1.
         25    2    1    2    0    0  0.36105592334E+02  0.20428491594E+02 -0.21228073032E+03  0.24986283612E+03  0.12508953332E+03 0.  0.
         23    2    1    2    0    0 -0.36105592334E+02 -0.20428491594E+02 -0.34562467261E+03  0.35999172923E+03  0.91742540466E+02 0.  0.
          5    1    3    3  502    0 -0.20741361772E+01  0.22945011355E+02  0.91297564294E+01  0.25131662090E+02  0.41800000000E+01 0. -1.
         -5    1    3    3    0  502  0.38179728511E+02 -0.25165197612E+01 -0.22141048675E+03  0.22473117403E+03  0.41800000000E+01 0. -1.
        -11    1    4    4    0    0  0.22791769866E+02 -0.26911921722E+02 -0.19440112907E+03  0.19757407545E+03  0.00000000000E+00 0.  1.
         11    1    4    4    0    0 -0.58897362200E+02  0.64834301280E+01 -0.15122354354E+03  0.16241765378E+03  0.00000000000E+00 0. -1.
</event>
<event>
 8    1  0.6869405E-009  0.1359692E+03  0.7561462E-02  0.1218858E+00
          1   -1    0    0  501    0  0.00000000000E+00  0.00000000000E+00  0.88440407492E+02  0.88440407492E+02  0.00000000000E+00 0. -1.
         -1   -1    0    0    0  501 -0.00000000000E+00 -0.00000000000E+00 -0.26692613047E+03  0.26692613047E+03  0.00000000000E+00 0.  1.
         25    2    1    2    0    0  0.84185787473E+02  0.68119195773E+02 -0.10615574180E+03  0.19658269198E+03  0.12509293195E+03 0.  0.
         23    2    1    2    0    0 -0.84185787473E+02 -0.68119195773E+02 -0.72329981173E+02  0.15878384598E+03  0.90847189947E+02 0.  0.
          5    1    3    3  502    0  0.27348532414E+02  0.79824580437E+02 -0.11202421925E+02  0.85222488371E+02  0.41800000000E+01 0.  1.
         -5    1    3    3    0  502  0.56837255058E+02 -0.11705384664E+02 -0.94953319875E+02  0.11136020361E+03  0.41800000000E+01 0.  1.
        -11    1    4    4    0    0 -0.97024724213E+02 -0.59650418649E+02 -0.36188104250E+02  0.11950543269E+03  0.00000000000E+00 0. -1.
         11    1    4    4    0    0  0.12838936741E+02 -0.84687771243E+01 -0.36141876923E+02  0.39278413284E+02  0.00000000000E+00 0.  1.
</event>
<event>
 8    1  0.6869405E-009  0.9528557E+02  0.7561462E-02  0.1290534E+00
          1   -1    0    0  501    0  0.00000000000E+00  0.00000000000E+00  0.15561425821E+03  0.15561425821E+03  0.00000000000E+00 0. -1.
         -1   -1    0    0    0  501 -0.00000000000E+00 -0.00000000000E+00 -0.20553850531E+03  0.20553850531E+03  0.00000000000E+00 0.  1.
         25    2    1    2    0    0 -0.33564571185E+02 -0.17379707058E+02 -0.16465395577E+03  0.21020469064E+03  0.12508577921E+03 0.  0.
         23    2    1    2    0    0  0.33564571185E+02  0.17379707058E+02  0.11472970866E+03  0.15094807287E+03  0.90519500650E+02 0.  0.
          5    1    3    3  502    0  0.43897111229E+02 -0.12614186777E+02 -0.96456825622E+02  0.10680573810E+03  0.41800000000E+01 0. -1.
         -5    1    3    3    0  502 -0.77461682415E+02 -0.47655202809E+01 -0.68197130150E+02  0.10339895254E+03  0.41800000000E+01 0. -1.
        -11    1    4    4    0    0  0.26497501313E+01 -0.19034882114E+02 -0.67855885026E+01  0.20381170824E+02  0.00000000000E+00 0.  1.
         11    1    4    4    0    0  0.30914821054E+02  0.36414589172E+02  0.12151529717E+03  0.13056690205E+03  0.00000000000E+00 0. -1.
</event>
<event>
 8    1  0.6869405E-009  0.1144447E+03  0.7561462E-02  0.1252554E+00
          1   -1    0    0  501    0  0.00000000000E+00  0.00000000000E+00  0.10934252019E+04  0.10934252019E+04  0.00000000000E+00 0. -1.
         -1   -1    0    0    0  501 -0.00000000000E+00 -0.00000000000E+00 -0.15613237630E+02  0.15613237630E+02  0.00000000000E+00 0.  1.
         25    2    1    2    0    0  0.49389380011E+02  0.25312618006E+02  0.83348990163E+03  0.84464948680E+03  0.12508916798E+03 0.  0.
         23    2    1    2    0    0 -0.49389380011E+02 -0.25312618006E+02  0.24432206266E+03  0.26438895275E+03  0.84428718722E+02 0.  0.
          5    1    3    3  502    0  0.14921794159E+02 -0.46006210266E+02  0.47579153615E+03  0.47826173754E+03  0.41800000000E+01 0. -1.
         -5    1    3    3    0  502  0.34467585852E+02  0.71318828271E+02  0.35769836547E+03  0.36638774925E+03  0.41800000000E+01 0. -1.
        -11    1    4    4    0    0 -0.43870881319E-02  0.28202368648E+02  0.66272341839E+02  0.72023585786E+02  0.00000000000E+00 0.  1.
         11    1    4    4    0    0 -0.49384992923E+02 -0.53514986653E+02  0.17804972082E+03  0.19236536696E+03  0.00000000000E+00 0. -1.
</event>
<event>
 8    1  0.6869405E-009  0.6816434E+02  0.7561462E-02  0.1366449E+00
          1   -1    0    0  501    0  0.00000000000E+00  0.00000000000E+00  0.53131261164E+02  0.53131261164E+02  0.00000000000E+00 0. -1.
         -1   -1    0    0    0  501 -0.00000000000E+00 -0.00000000000E+00 -0.28012451213E+03  0.28012451213E+03  0.00000000000E+00 0.  1.
         25    2    1    2    0    0 -0.13309083067E+02 -0.68591104414E+01 -0.58212274564E+02  0.13878062761E+03  0.12508882684E+03 0.  0.
         23    2    1    2    0    0  0.13309083067E+02  0.68591104414E+01 -0.16878097640E+03  0.19447514568E+03  0.95443099310E+02 0.  0.
          5    1    3    3  502    0 -0.23772222446E+02 -0.21824718957E+02  0.32596909580E+02  0.46059394609E+02  0.41800000000E+01 0.  1.
         -5    1    3    3    0  502  0.10463139379E+02  0.14965608516E+02 -0.90809184144E+02  0.92721232999E+02  0.41800000000E+01 0.  1.
        -11    1    4    4    0    0 -0.29916197017E+02  0.24202205713E+02 -0.32212959665E+02  0.50183666424E+02  0.00000000000E+00 0. -1.
         11    1    4    4    0    0  0.43225280084E+02 -0.17343095272E+02 -0.13656801673E+03  0.14429147926E+03  0.00000000000E+00 0.  1.
</event>
<event>
 8    1  0.6869405E-009  0.9400265E+02  0.7561462E-02  0.1293438E+00
         -2   -1    0    0    0  501 -0.00000000000E+00  0.00000000000E+00  0.25941066945E+02  0.25941066945E+02  0.00000000000E+00 0.  1.
          2   -1    0    0  501    0  0.00000000000E+00 -0.00000000000E+00 -0.61557957511E+03  0.61557957511E+03  0.00000000000E+00 0. -1.
         25    2    1    2    0    0  0.13894522416E+01 -0.25602877198E+02 -0.18635632547E+03  0.22590543760E+03  0.12508856382E+03 0.  0.
         23    2    1    2    0    0 -0.13894522416E+01  0.25602877198E+02 -0.40328218270E+03  0.41561520446E+03  0.97170167203E+02 0.  0.
          5    1    3    3  502    0  0.32156382632E+02 -0.43776072722E+02 -0.23859758124E+02  0.59473842525E+02  0.41800000000E+01 0.  1.
         -5    1    3    3    0  502 -0.30766930390E+02  0.18173195524E+02 -0.16249656734E+03  0.16643159508E+03  0.41800000000E+01 0.  1.
        -11    1    4    4    0    0  0.52974843611E+01  0.61150365483E+02 -0.29908681389E+03  0.30532008251E+03  0.00000000000E+00 0. -1.
         11    1    4    4    0    0 -0.66869366027E+01 -0.35547488285E+02 -0.10419536881E+03  0.11029512195E+03  0.00000000000E+00 0.  1.
</event>
<event>
 8    1  0.6869405E-009  0.1061309E+03  0.7561462E-02  0.1267907E+00
         -1   -1    0    0    0  501 -0.00000000000E+00  0.00000000000E+00  0.26937422621E+03  0.26937422621E+03  0.00000000000E+00 0.  1.
          1   -1    0    0  501    0  0.00000000000E+00 -0.00000000000E+00 -0.48396818660E+02  0.48396818660E+02  0.00000000000E+00 0. -1.
         25    2    1    2    0    0  0.15021543890E+02 -0.11453729937E+02  0.17028763447E+03  0.21213854591E+03  0.12509216401E+03 0.  0.
         23    2    1    2    0    0 -0.15021543890E+02  0.11453729937E+02  0.50689773079E+02  0.10563249896E+03  0.90730022768E+02 0.  0.
          5    1    3    3  502    0  0.11714588150E+02  0.53736575423E+02  0.11059762171E+03  0.12358866227E+03  0.41800000000E+01 0. -1.
         -5    1    3    3    0  502  0.33069557397E+01 -0.65190305360E+02  0.59690012760E+02  0.88549883639E+02  0.41800000000E+01 0. -1.
        -11    1    4    4    0    0 -0.36552596168E+02  0.41134687284E+02  0.22808523183E+02  0.59568309648E+02  0.00000000000E+00 0.  1.
         11    1    4    4    0    0  0.21531052278E+02 -0.29680957347E+02  0.27881249896E+02  0.46064189313E+02  0.00000000000E+00 0. -1.
</event>
<event>
 8    1  0.6869405E-009  0.9559880E+02  0.7561462E-02  0.1289833E+00
         -1   -1    0    0    0  501 -0.00000000000E+00  0.00000000000E+00  0.43027380183E+02  0.43027380183E+02  0.00000000000E+00 0.  1.
          1   -1    0    0  501    0  0.00000000000E+00 -0.00000000000E+00 -0.45453812648E+03  0.45453812648E+03  0.00000000000E+00 0. -1.
         25    2    1    2    0    0 -0.46620406964E+02 -0.46814354685E+02 -0.12109446041E+03  0.18621356029E+03  0.12508627240E+03 0.  0.
         23    2    1    2    0    0  0.46620406964E+02  0.46814354685E+02 -0.29041628589E+03  0.31135194637E+03  0.90737915180E+02 0.  0.
          5    1    3    3  502    0 -0.56552400196E+02 -0.21061050223E+02  0.14706571652E+01  0.60509313638E+02  0.41800000000E+01 0. -1.
         -5    1    3    3    0  502  0.99319932324E+01 -0.25753304462E+02 -0.12256511757E+03  0.12570424665E+03  0.41800000000E+01 0. -1.
        -11    1    4    4    0    0  0.51054799766E+02 -0.45285870887E+01 -0.20741037082E+03  0.21364962579E+03  0.00000000000E+00 0. -1.
         11    1    4    4    0    0 -0.44343928024E+01  0.51342941774E+02 -0.83005915075E+02  0.97702320581E+02  0.00000000000E+00 0.  1.
</event>
<event>
 8    1  0.6869405E-009  0.1789997E+03  0.7561462E-02  0.1168775E+00
         -2   -1    0    0    0  501 -0.00000000000E+00  0.00000000000E+00  0.47294467275E+02  0.47294467275E+02  0.00000000000E+00 0. -1.
          2   -1    0    0  501    0  0.00000000000E+00 -0.00000000000E+00 -0.76206410379E+03  0.76206410379E+03  0.00000000000E+00 0.  1.
         25    2    1    2    0    0  0.10375877471E+03  0.11299677789E+03 -0.42803863950E+03  0.47159164443E+03  0.12508975596E+03 0.  0.
         23    2    1    2    0    0 -0.10375877471E+03 -0.11299677789E+03 -0.28673099702E+03  0.33776692664E+03  0.91310880708E+02 0.  0.
          5    1    3    3  502    0  0.12427736814E+03  0.82746754247E+02 -0.26254917435E+03  0.30206196537E+03  0.41800000000E+01 0. -1.
         -5    1    3    3    0  502 -0.20518593429E+02  0.30250023644E+02 -0.16548946515E+03  0.16952967906E+03  0.41800000000E+01 0. -1.
        -11    1    4    4    0    0 -0.78882384656E+01 -0.63431847628E+02 -0.64992756123E+02  0.91158553894E+02  0.00000000000E+00 0.  1.
         11    1    4    4    0    0 -0.95870536246E+02 -0.49564930264E+02 -0.22173824089E+03  0.24660837274E+03  0.00000000000E+00 0. -1.
</event>
<event>
 8    1  0.6869405E-009  0.9871642E+02  0.7561462E-02  0.1283019E+00
          2   -1    0    0  501    0  0.00000000000E+00  0.00000000000E+00  0.23527947644E+03  0.23527947644E+03  0.00000000000E+00 0. -1.
         -2   -1    0    0    0  501 -0.00000000000E+00 -0.00000000000E+00 -0.55177764865E+02  0.55177764865E+02  0.00000000000E+00 0.  1.
         25    2    1    2    0    0 -0.32854905237E+02 -0.12627819547E+02  0.12144085167E+03  0.17786422642E+03  0.12509554732E+03 0.  0.
         23    2    1    2    0    0  0.32854905237E+02  0.12627819547E+02  0.58660859906E+02  0.11259301489E+03  0.89426975193E+02 0.  0.
          5    1    3    3  502    0  0.40221528759E+01  0.38085759268E+02  0.10652204504E+03  0.11327453930E+03  0.41800000000E+01 0.  1.
         -5    1    3    3    0  502 -0.36877058113E+02 -0.50713578815E+02  0.14918806631E+02  0.64589687123E+02  0.41800000000E+01 0.  1.
        -11    1    4    4    0    0 -0.27089025320E+01 -0.35843695260E+02  0.23525040551E+02  0.42959704093E+02  0.00000000000E+00 0.  1.
         11    1    4    4    0    0  0.35563807769E+02  0.48471514807E+02  0.35135819354E+02  0.69633310796E+02  0.00000000000E+00 0. -1.
</event>
<event>
 8    1  0.6869405E-009  0.2031612E+03  0.7561462E-02  0.1147099E+00
          2   -1    0    0  501    0  0.00000000000E+00  0.00000000000E+00  0.48828412977E+03  0.48828412977E+03  0.00000000000E+00 0. -1.
         -2   -1    0    0    0  501 -0.00000000000E+00 -0.00000000000E+00 -0.92140749174E+02  0.92140749174E+02  0.00000000000E+00 0.  1.
         25    2    1    2    0    0  0.15340876206E+03 -0.97808681325E+02  0.20958867633E+03  0.30442574890E+03  0.12508731722E+03 0.  0.
         23    2    1    2    0    0 -0.15340876206E+03  0.97808681325E+02  0.18655470427E+03  0.27599913004E+03  0.90950952048E+02 0.  0.
          5    1    3    3  502    0  0.65357238347E+02  0.24411655898E+02  0.72554318852E+02  0.10074273737E+03  0.41800000000E+01 0.  1.
         -5    1    3    3    0  502  0.88051523717E+02 -0.12222033722E+03  0.13703435748E+03  0.20368301154E+03  0.41800000000E+01 0.  1.
        -11    1    4    4    0    0 -0.10320070476E+03  0.44139286642E+02  0.54281681275E+02  0.12468024307E+03  0.00000000000E+00 0.  1.
         11    1    4    4    0    0 -0.50208057300E+02  0.53669394683E+02  0.13227302300E+03  0.15131888698E+03  0.00000000000E+00 0. -1.
</event>
<event>
 8    1  0.6869405E-009  0.1307986E+03  0.7561462E-02  0.1226276E+00
          2   -1    0    0  501    0  0.00000000000E+00  0.00000000000E+00  0.23749730571E+03  0.23749730571E+03  0.00000000000E+00 0. -1.
         -2   -1    0    0    0  501 -0.00000000000E+00 -0.00000000000E+00 -0.15700293444E+03  0.15700293444E+03  0.00000000000E+00 0.  1.
         25    2    1    2    0    0  0.10423901452E+03 -0.58584849638E+02 -0.65506718525E+02  0.18503029714E+03  0.12508846442E+03 0.  0.
         23    2    1    2    0    0 -0.10423901452E+03  0.58584849638E+02  0.14600108980E+03  0.20946994301E+03  0.90903146508E+02 0.  0.
          5    1    3    3  502    0  0.40261784302E+02 -0.39138282303E+02 -0.96098373268E+02  0.11137857137E+03  0.41800000000E+01 0. -1.
         -5    1    3    3    0  502  0.63977230222E+02 -0.19446567335E+02  0.30591654743E+02  0.73651725763E+02  0.41800000000E+01 0. -1.
        -11    1    4    4    0    0 -0.23165856206E+02 -0.15981773879E+02  0.20607937211E+01  0.28219157692E+02  0.00000000000E+00 0.  1.
         11    1    4    4    0    0 -0.81073158318E+02  0.74566623517E+02  0.14394029608E+03  0.18125078532E+03  0.00000000000E+00 0. -1.
</event>
<event>
 8    1  0.6869405E-009  0.1148924E+03  0.7561462E-02  0.1251769E+00
         -1   -1    0    0    0  501 -0.00000000000E+00  0.00000000000E+00  0.48724092660E+02  0.48724092660E+02  0.00000000000E+00 0.  1.
          1   -1    0    0  501    0  0.00000000000E+00 -0.00000000000E+00 -0.52123677164E+03  0.52123677164E+03  0.00000000000E+00 0. -1.
         25    2    1    2    0    0 -0.60845151886E+02  0.31510154332E+02 -0.84874644614E+02  0.16596939557E+03  0.12508841926E+03 0.  0.
         23    2    1    2    0    0  0.60845151886E+02 -0.31510154332E+02 -0.38763803436E+03  0.40399146873E+03  0.90834127871E+02 0.  0.
          5    1    3    3  502    0 -0.28348721389E+01  0.55388048528E+02  0.54865090072E+01  0.55887803687E+02  0.41800000000E+01 0.  1.
         -5    1    3    3    0  502 -0.58010279747E+02 -0.23877894197E+02 -0.90361153621E+02  0.11008159188E+03  0.41800000000E+01 0.  1.
        -11    1    4    4    0    0 -0.22004930742E+02  0.16253198493E+01 -0.48017371544E+02  0.52844362155E+02  0.00000000000E+00 0. -1.
         11    1    4    4    0    0  0.82850082628E+02 -0.33135474181E+02 -0.33962066282E+03  0.35114710657E+03  0.00000000000E+00 0.  1.
</event>
<event>
 7    1  0.6869405E-009  0.1688212E+03  0.7561462E-02  0.1179083E+00
         -1   -1    0    0    0  501 -0.00000000000E+00  0.00000000000E+00  0.41676539015E+03  0.41676539015E+03  0.00000000000E+00 0.  1.
          1   -1    0    0  501    0  0.00000000000E+00 -0.00000000000E+00 -0.94019837343E+02  0.94019837343E+02  0.00000000000E+00 0. -1.
         23    2    1    2    0    0  0.63419172797E+02  0.15006245213E+03  0.12194786623E+03  0.22399912750E+03  0.93614080278E+02 0.  0.
          5    1    1    2  502    0 -0.47831685998E+02 -0.11139518413E+03  0.21125227933E+03  0.24360163208E+03  0.41800000000E+01 0. -1.
         -5    1    1    2    0  502 -0.15587486799E+02 -0.38667267993E+02 -0.10454592754E+02  0.43184467907E+02  0.41800000000E+01 0. -1.
        -11    1    3    3    0    0  0.73457988972E+02  0.14632448217E+03  0.82920989854E+02  0.18352880097E+03  0.00000000000E+00 0. -1.
         11    1    3    3    0    0 -0.10038816175E+02  0.37379699521E+01  0.39026876381E+02  0.40470326532E+02  0.00000000000E+00 0.  1.
</event>
<event>
 8    1  0.6869405E-009  0.9113696E+02  0.7561462E-02  0.1300122E+00
         -1   -1    0    0    0  501 -0.00000000000E+00  0.00000000000E+00  0.46267839881E+02  0.46267839881E+02  0.00000000000E+00 0. -1.
          1   -1    0    0  501    0  0.00000000000E+00 -0.00000000000E+00 -0.36798248264E+03  0.36798248264E+03  0.00000000000E+00 0.  1.
         25    2    1    2    0    0  0.25886330294E+02 -0.45661134166E+02 -0.10069775415E+03  0.16894107104E+03  0.12508399787E+03 0.  0.
         23    2    1    2    0    0 -0.25886330294E+02  0.45661134166E+02 -0.22101688860E+03  0.24530925148E+03  0.92591158031E+02 0.  0.
          5    1    3    3  502    0  0.48147624826E+02 -0.60775268359E+02 -0.15082468642E+02  0.79099812142E+02  0.41800000000E+01 0.  1.
         -5    1    3    3    0  502 -0.22261294533E+02  0.15114134193E+02 -0.85615285512E+02  0.89841258896E+02  0.41800000000E+01 0.  1.
        -11    1    4    4    0    0 -0.36967201604E+02  0.75820332883E+01 -0.19324109940E+03  0.19689129925E+03  0.00000000000E+00 0.  1.
         11    1    4    4    0    0  0.11080871310E+02  0.38079100878E+02 -0.27775789208E+02  0.48417952236E+02  0.00000000000E+00 0. -1.
</event>
<event>
 8    1  0.6869405E-009  0.9127827E+02  0.7561462E-02  0.1299785E+00
          1   -1    0    0  501    0  0.00000000000E+00  0.00000000000E+00  0.37928673792E+02  0.37928673792E+02  0.00000000000E+00 0. -1.
         -1   -1    0    0    0  501 -0.00000000000E+00 -0.00000000000E+00 -0.57666990093E+03  0.57666990093E+03  0.00000000000E+00 0.  1.
         25    2    1    2    0    0 -0.76251172694E+02  0.30540210877E+02 -0.41736327010E+03  0.44338050706E+03  0.12508888438E+03 0.  0.
         23    2    1    2    0    0  0.76251172694E+02 -0.30540210877E+02 -0.12137795704E+03  0.17121806766E+03  0.88521592969E+02 0.  0.
          5    1    3    3  502    0 -0.75571615724E+02  0.37255789506E+02 -0.12437865058E+03  0.15028833646E+03  0.41800000000E+01 0.  1.
         -5    1    3    3    0  502 -0.67955696972E+00 -0.67155786281E+01 -0.29298461952E+03  0.29309217060E+03  0.41800000000E+01 0.  1.
        -11    1    4    4    0    0  0.53576013708E+02 -0.17426292780E+01 -0.12336824776E+03  0.13451078231E+03  0.00000000000E+00 0.  1.
         11    1    4    4    0    0  0.22675158986E+02 -0.28797581599E+02  0.19902907212E+01  0.36707285356E+02  0.00000000000E+00 0. -1.
</event>
<event>
 8    1  0.6869405E-009  0.1126204E+03  0.7561462E-02  0.1255793E+00
          1   -1    0    0  501    0  0.00000000000E+00  0.00000000000E+00  0.68834031464E+02  0.68834031464E+02  0.00000000000E+00 0. -1.
         -1   -1    0    0    0  501 -0.00000000000E+00 -0.00000000000E+00 -0.32767636262E+03  0.32767636262E+03  0.00000000000E+00 0.  1.
         25    2    1    2    0    0  0.45277959130E+02  0.79180061819E+02 -0.21544779756E+03  0.26530138451E+03  0.12508994914E+03 0.  0.
         23    2    1    2    0    0 -0.45277959130E+02 -0.79180061819E+02 -0.43394533596E+02  0.13120900957E+03  0.83744509521E+02 0.  0.
          5    1    3    3  502    0 -0.17949715297E+02 -0.79669526084E+01 -0.11903016993E+03  0.12071171595E+03  0.41800000000E+01 0.  1.
         -5    1    3    3    0  502  0.63227674427E+02  0.87147014428E+02 -0.96417627628E+02  0.14458966856E+03  0.41800000000E+01 0.  1.
        -11    1    4    4    0    0 -0.82476105482E+01 -0.48867600860E+02 -0.62428151143E+02  0.79707838691E+02  0.00000000000E+00 0.  1.
         11    1    4    4    0    0 -0.37030348582E+02 -0.30312460959E+02  0.19033617547E+02  0.51501170884E+02  0.00000000000E+00 0. -1.
</event>
<event>
 8    1  0.6869405E-009  0.8901815E+02  0.7561462E-02  0.1305247E+00
          2   -1    0    0  501    0  0.00000000000E+00  0.00000000000E+00  0.11222784703E+03  0.11222784703E+03  0.00000000000E+00 0. -1.
         -2   -1    0    0    0  501 -0.00000000000E+00 -0.00000000000E+00 -0.13960400185E+03  0.13960400185E+03  0.00000000000E+00 0.  1.
         25    2    1    2    0    0  0.31340004662E+02 -0.51473836486E+02 -0.28021420648E+02  0.14164996309E+03  0.12509100804E+03 0.  0.
         23    2    1    2    0    0 -0.31340004662E+02  0.51473836486E+02  0.64526583394E+00  0.11018188579E+03  0.92238169181E+02 0.  0.
          5    1    3    3  502    0 -0.12776974978E+01 -0.40563917507E+02  0.45051243588E+02  0.60779526678E+02  0.41800000000E+01 0. -1.
         -5    1    3    3    0  502  0.32617702160E+02 -0.10909918979E+02 -0.73072664236E+02  0.80870436408E+02  0.41800000000E+01 0. -1.
        -11    1    4    4    0    0 -0.36448014924E+02 -0.12410048995E+02  0.19796297557E+02  0.43293885306E+02  0.00000000000E+00 0. -1.
         11    1    4    4    0    0  0.51080102619E+01  0.63883885480E+02 -0.19151031723E+02  0.66888000486E+02  0.00000000000E+00 0.  1.
</event>
<event>
 8    1  0.6869405E-009  0.1048081E+03  0.7561462E-02  0.1270498E+00
         -2   -1    0    0    0  501 -0.00000000000E+00  0.00000000000E+00  0.15251870344E+03  0.15251870344E+03  0.00000000000E+00 0.  1.
          2   -1    0    0  501    0  0.00000000000E+00 -0.00000000000E+00 -0.25946385196E+03  0.25946385196E+03  0.00000000000E+00 0. -1.
         25    2    1    2    0    0  0.89065049535E+01 -0.85645425211E+02 -0.20227389572E+03  0.25293593376E+03  0.12508953997E+03 0.  0.
         23    2    1    2    0    0 -0.89065049535E+01  0.85645425211E+02  0.95328747203E+02  0.15904662164E+03  0.93775226584E+02 0.  0.
          5    1    3    3  502    0 -0.72127010873E+01 -0.24812791236E+02  0.12561514739E+02  0.29033803031E+02  0.41800000000E+01 0. -1.
         -5    1    3    3    0  502  0.16119206041E+02 -0.60832633975E+02 -0.21483541046E+03  0.22390213073E+03  0.41800000000E+01 0. -1.
        -11    1    4    4    0    0 -0.45363641962E+02  0.62346700359E+02  0.84611305065E+02  0.11447289637E+03  0.00000000000E+00 0.  1.
         11    1    4    4    0    0  0.36457137008E+02  0.23298724852E+02  0.10717442138E+02  0.44573725271E+02  0.00000000000E+00 0. -1.
</event>
<event>
 8    1  0.6869405E-009  0.1402936E+03  0.7561462E-02  0.1212934E+00
         -2   -1    0    0    0  501 -0.00000000000E+00  0.00000000000E+00  0.12213254369E+02  0.12213254369E+02  0.00000000000E+00 0.  1.
          2   -1    0    0  501    0  0.00000000000E+00 -0.00000000000E+00 -0.27477421704E+04  0.27477421704E+04  0.00000000000E+00 0. -1.
         25    2    1    2    0    0 -0.33855323739E+02 -0.10033752847E+03 -0.22176277140E+04  0.22236745016E+04  0.12506721635E+03 0.  0.
         23    2    1    2    0    0  0.33855323739E+02  0.10033752847E+03 -0.51790120211E+03  0.53628092325E+03  0.90342520026E+02 0.  0.
          5    1    3    3  502    0 -0.48529868886E+02 -0.11272617815E+03 -0.21425677932E+04  0.21460840059E+04  0.41800000000E+01 0.  1.
         -5    1    3    3    0  502  0.14674545147E+02  0.12388649678E+02 -0.75059920714E+02  0.77590495640E+02  0.41800000000E+01 0.  1.
        -11    1    4    4    0    0 -0.25499050109E+02  0.63118236653E+02 -0.22221291139E+03  0.23240630659E+03  0.00000000000E+00 0.  1.
         11    1    4    4    0    0  0.59354373848E+02  0.37219291822E+02 -0.29568829072E+03  0.30387461666E+03  0.00000000000E+00 0. -1.
</event>
<event>
 8    1  0.6869405E-009  0.8522594E+02  0.7561462E-02  0.1314843E+00
         -2   -1    0    0    0  501 -0.00000000000E+00  0.00000000000E+00  0.27032564910E+02  0.27032564910E+02  0.00000000000E+00 0. -1.
          2   -1    0    0  501    0  0.00000000000E+00 -0.00000000000E+00 -0.60950304127E+03  0.60950304127E+03  0.00000000000E+00 0.  1.
         25    2    1    2    0    0  0.19773015742E+02  0.26712194001E+02 -0.47848962849E+03  0.49568615388E+03  0.12509166686E+03 0.  0.
         23    2    1    2    0    0 -0.19773015742E+02 -0.26712194001E+02 -0.10398084787E+03  0.14084945230E+03  0.89005831432E+02 0.  0.
          5    1    3    3  502    0  0.19010430503E+02 -0.46410322152E+02 -0.27135493050E+03  0.27598240012E+03  0.41800000000E+01 0. -1.
         -5    1    3    3    0  502  0.76258523967E+00  0.73122516153E+02 -0.20713469799E+03  0.21970375376E+03  0.41800000000E+01 0. -1.
        -11    1    4    4    0    0 -0.17436423940E+02  0.24639600764E+01  0.11949521413E+02  0.21281236831E+02  0.00000000000E+00 0. -1.
         11    1    4    4    0    0 -0.23365918023E+01 -0.29176154077E+02 -0.11593036928E+03  0.11956821546E+03  0.00000000000E+00 0.  1.
</event>
<event>
 8    1  0.6869405E-009  0.6474691E+02  0.7561462E-02  0.1378926E+00
          2   -1    0    0  501    0  0.00000000000E+00  0.00000000000E+00  0.45011054413E+03  0.45011054413E+03  0.00000000000E+00 0. -1.
         -2   -1    0    0    0  501 -0.00000000000E+00 -0.00000000000E+00 -0.32079035661E+02  0.32079035661E+02  0.00000000000E+00 0.  1.
         25    2    1    2    0    0 -0.43996997906E+02  0.31672363431E+02  0.29030184131E+03  0.32071809374E+03  0.12508422024E+03 0.  0.
         23    2    1    2    0    0  0.43996997906E+02 -0.31672363431E+02  0.12772966716E+03  0.16147148605E+03  0.82579043981E+02 0.  0.
          5    1    3    3  502    0 -0.41802383865E+02  0.36077167746E+02  0.30217269366E+03  0.30720483479E+03  0.41800000000E+01 0. -1.
         -5    1    3    3    0  502 -0.21946140406E+01 -0.44048043146E+01 -0.11870852348E+02  0.13513258944E+02  0.41800000000E+01 0. -1.
        -11    1    4    4    0    0  0.12482032965E+02 -0.33843133908E+02  0.70864731629E+01  0.36761079439E+02  0.00000000000E+00 0.  1.
         11    1    4    4    0    0  0.31514964940E+02  0.21707704766E+01  0.12064319399E+03  0.12471040661E+03  0.00000000000E+00 0. -1.
</event>
<event>
 8    1  0.6869405E-009  0.1345568E+03  0.7561462E-02  0.1220847E+00
         -2   -1    0    0    0  501 -0.00000000000E+00  0.00000000000E+00  0.10616875408E+03  0.10616875408E+03  0.00000000000E+00 0.  1.
          2   -1    0    0  501    0  0.00000000000E+00 -0.00000000000E+00 -0.79917253331E+03  0.79917253331E+03  0.00000000000E+00 0. -1.
         25    2    1    2    0    0  0.11833432657E+03 -0.32332252960E+02 -0.72797703009E+03  0.74876346000E+03  0.12509106785E+03 0.  0.
         23    2    1    2    0    0 -0.11833432657E+03  0.32332252960E+02  0.34973250866E+02  0.15657782740E+03  0.90802534820E+02 0.  0.
          5    1    3    3  502    0  0.26836860391E+02  0.15124224000E+02 -0.46853826497E+03  0.46956845866E+03  0.41800000000E+01 0. -1.
         -5    1    3    3    0  502  0.91497466180E+02 -0.47456476961E+02 -0.25943876513E+03  0.27919500134E+03  0.41800000000E+01 0. -1.
        -11    1    4    4    0    0 -0.96725584923E+02  0.48190546647E+02  0.56734212980E+02  0.12205301507E+03  0.00000000000E+00 0.  1.
         11    1    4    4    0    0 -0.21608741648E+02 -0.15858293687E+02 -0.21760962113E+02  0.34524812329E+02  0.00000000000E+00 0. -1.
</event>
<event>
 8    1  0.6869405E-009  0.1107858E+03  0.7561462E-02  0.1259122E+00
         -1   -1    0    0    0  501 -0.00000000000E+00  0.00000000000E+00  0.15400864181E+02  0.15400864181E+02  0.00000000000E+00 0.  1.
          1   -1    0    0  501    0  0.00000000000E+00 -0.00000000000E+00 -0.91649897929E+03  0.91649897929E+03  0.00000000000E+00 0. -1.
         25    2    1    2    0    0  0.19020158724E+02 -0.43455526081E+02 -0.57988968938E+03  0.59511911334E+03  0.12507820765E+03 0.  0.
         23    2    1    2    0    0 -0.19020158724E+02  0.43455526081E+02 -0.32120842573E+03  0.33678073013E+03  0.89421799594E+02 0.  0.
          5    1    3    3  502    0 -0.27437325797E+02 -0.69133742267E+02 -0.24673067881E+03  0.25773199536E+03  0.41800000000E+01 0.  1.
         -5    1    3    3    0  502  0.46457484521E+02  0.25678216187E+02 -0.33315901057E+03  0.33738711798E+03  0.41800000000E+01 0.  1.
        -11    1    4    4    0    0  0.12838743604E+02  0.57569444943E+02 -0.13474491664E+03  0.14708931602E+03  0.00000000000E+00 0.  1.
         11    1    4    4    0    0 -0.31858902328E+02 -0.14113918863E+02 -0.18646350909E+03  0.18969141411E+03  0.00000000000E+00 0. -1.
</event>
<event>
 8    1  0.6869405E-009  0.1312935E+03  0.7561462E-02  0.1225549E+00
         -2   -1    0    0    0  501 -0.00000000000E+00  0.00000000000E+00  0.76059965984E+02  0.76059965984E+02  0.00000000000E+00 0.  1.
          2   -1    0    0  501    0  0.00000000000E+00 -0.00000000000E+00 -0.27047887666E+03  0.27047887666E+03  0.00000000000E+00 0. -1.
         25    2    1    2    0    0 -0.46678781645E+02 -0.79691758702E+02 -0.97880285818E+02  0.18373307652E+03  0.12509039929E+03 0.  0.
         23    2    1    2    0    0  0.46678781645E+02  0.79691758702E+02 -0.96538624862E+02  0.16280576613E+03  0.93039380557E+02 0.  0.
          5    1    3    3  502    0  0.37987736390E+02 -0.46303026530E+02 -0.60563995188E+02  0.85279002662E+02  0.41800000000E+01 0.  1.
         -5    1    3    3    0  502 -0.84666518035E+02 -0.33388732173E+02 -0.37316290630E+02  0.98454073855E+02  0.41800000000E+01 0.  1.
        -11    1    4    4    0    0 -0.11202432337E+02  0.39285536040E+02 -0.80715279753E+02  0.90464380934E+02  0.00000000000E+00 0. -1.
         11    1    4    4    0    0  0.57881213982E+02  0.40406222662E+02 -0.15823345109E+02  0.72341385197E+02  0.00000000000E+00 0.  1.
</event>
<event>
 8    1  0.6869405E-009  0.2797968E+03  0.7561462E-02  0.1095800E+00
          1   -1    0    0  501    0  0.00000000000E+00  0.00000000000E+00  0.52812048432E+03  0.52812048432E+03  0.00000000000E+00 0. -1.
         -1   -1    0    0    0  501 -0.00000000000E+00 -0.00000000000E+00 -0.16391754296E+03  0.16391754296E+03  0.00000000000E+00 0.  1.
         25    2    1    2    0    0 -0.25071336616E+02  0.27167461017E+03  0.17680860240E+03  0.34834745943E+03  0.12509598266E+03 0.  0.
         23    2    1    2    0    0  0.25071336616E+02 -0.27167461017E+03  0.18739433896E+03  0.34369056784E+03  0.92579168397E+02 0.  0.
          5    1    3    3  502    0  0.25596637748E+02  0.49736962954E+02  0.87155750019E+02  0.10364627591E+03  0.41800000000E+01 0.  1.
         -5    1    3    3    0  502 -0.50667974364E+02  0.22193764721E+03  0.89652852385E+02  0.24470118352E+03  0.41800000000E+01 0.  1.
        -11    1    4    4    0    0 -0.11053582845E+02 -0.49251925620E+02  0.78727845443E+02  0.93520091527E+02  0.00000000000E+00 0. -1.
         11    1    4    4    0    0  0.36124919461E+02 -0.22242268455E+03  0.10866649351E+03  0.25017047632E+03  0.00000000000E+00 0.  1.
</event>
<event>
 8    1  0.6869405E-009  0.1895099E+03  0.7561462E-02  0.1158904E+00
          2   -1    0    0  501    0  0.00000000000E+00  0.00000000000E+00  0.25054045292E+03  0.25054045292E+03  0.00000000000E+00 0.  1.
         -2   -1    0    0    0  501 -0.00000000000E+00 -0.00000000000E+00 -0.17676894247E+03  0.17676894247E+03  0.00000000000E+00 0. -1.
         25    2    1    2    0    0 -0.67713485670E+02 -0.15446686703E+03  0.10510239373E+03  0.23481761070E+03  0.12509063904E+03 0.  0.
         23    2    1    2    0    0  0.67713485670E+02  0.15446686703E+03 -0.31330883282E+02  0.19249178468E+03  0.87328882803E+02 0.  0.
          5    1    3    3  502    0 -0.74999157042E+02 -0.60866766151E+02  0.10236176970E+03  0.14080142426E+03  0.41800000000E+01 0.  1.
         -5    1    3    3    0  502  0.72856713719E+01 -0.93600100880E+02  0.27406240298E+01  0.94016186437E+02  0.41800000000E+01 0.  1.
        -11    1    4    4    0    0  0.86010801942E+02  0.10567720692E+03 -0.11506797485E+02  0.13674039820E+03  0.00000000000E+00 0.  1.
         11    1    4    4    0    0 -0.18297316272E+02  0.48789660115E+02 -0.19824085797E+02  0.55751386481E+02  0.00000000000E+00 0. -1.
</event>
<event>
 8    1  0.6869405E-009  0.9955887E+02  0.7561462E-02  0.1281226E+00
          1   -1    0    0  501    0  0.00000000000E+00  0.00000000000E+00  0.32557690324E+03  0.32557690324E+03  0.00000000000E+00 0. -1.
         -1   -1    0    0    0  501 -0.00000000000E+00 -0.00000000000E+00 -0.58991316518E+02  0.58991316518E+02  0.00000000000E+00 0.  1.
         25    2    1    2    0    0  0.57844799881E+02  0.29546056343E+02  0.22450329066E+03  0.26507978280E+03  0.12508626389E+03 0.  0.
         23    2    1    2    0    0 -0.57844799881E+02 -0.29546056343E+02  0.42082296067E+02  0.11948843696E+03  0.91036128029E+02 0.  0.
          5    1    3    3  502    0  0.20475412032E+02  0.44219122073E+02  0.21893765958E+03  0.22433400197E+03  0.41800000000E+01 0.  1.
         -5    1    3    3    0  502  0.37369387849E+02 -0.14673065730E+02  0.55656310717E+01  0.40745780829E+02  0.41800000000E+01 0.  1.
        -11    1    4    4    0    0 -0.54367135499E+02  0.21658763877E+02  0.11181599494E+02  0.59581168521E+02  0.00000000000E+00 0.  1.
         11    1    4    4    0    0 -0.34776643819E+01 -0.51204820220E+02  0.30900696574E+02  0.59907268441E+02  0.00000000000E+00 0. -1.
</event>
<event>
 8    1  0.6869405E-009  0.8951315E+02  0.7561462E-02  0.1304035E+00
         -1   -1    0    0    0  501 -0.00000000000E+00  0.00000000000E+00  0.24573716922E+03  0.24573716922E+03  0.00000000000E+00 0.  1.
          1   -1    0    0  501    0  0.00000000000E+00 -0.00000000000E+00 -0.72981950341E+02  0.72981950341E+02  0.00000000000E+00 0. -1.
         25    2    1    2    0    0  0.37328566159E+02  0.39403997918E+02  0.26161374418E+02  0.13884577822E+03  0.12509051009E+03 0.  0.
         23    2    1    2    0    0 -0.37328566159E+02 -0.39403997918E+02  0.14659384446E+03  0.17987334134E+03  0.88986329215E+02 0.  0.
          5    1    3    3  502    0 -0.48157330469E+01  0.59255514302E+02 -0.29203775886E+02  0.66368216685E+02  0.41800000000E+01 0.  1.
         -5    1    3    3    0  502  0.42144299206E+02 -0.19851516384E+02  0.55365150304E+02  0.72477561538E+02  0.41800000000E+01 0.  1.
        -11    1    4    4    0    0 -0.37224917457E+02 -0.42106195270E+01  0.13888055331E+03  0.14384447116E+03  0.00000000000E+00 0.  1.
         11    1    4    4    0    0 -0.10364870205E+00 -0.35193378391E+02  0.77132911477E+01  0.36028870173E+02  0.00000000000E+00 0. -1.
</event>
<event>
 8    1  0.6869405E-009  0.1409772E+03  0.7561462E-02  0.1212020E+00
         -3   -1    0    0    0  501 -0.00000000000E+00  0.00000000000E+00  0.77771243823E+02  0.77771243823E+02  0.00000000000E+00 0.  1.
          3   -1    0    0  501    0  0.00000000000E+00 -0.00000000000E+00 -0.30878211576E+03  0.30878211576E+03  0.00000000000E+00 0. -1.
         25    2    1    2    0    0  0.10445119842E+03 -0.25741005192E+02 -0.94209748068E+02  0.18999029828E+03  0.12509270406E+03 0.  0.
         23    2    1    2    0    0 -0.10445119842E+03  0.25741005192E+02 -0.13680112387E+03  0.19656306131E+03  0.91377444585E+02 0.  0.
          5    1    3    3  502    0  0.24951208208E+02  0.38921121903E+02 -0.71010660791E+02  0.84837508610E+02  0.41800000000E+01 0.  1.
         -5    1    3    3    0  502  0.79499990211E+02 -0.64662127095E+02 -0.23199087277E+02  0.10515278967E+03  0.41800000000E+01 0.  1.
        -11    1    4    4    0    0 -0.48152550752E+02  0.51982392303E+02 -0.39493394154E+02  0.81120684386E+02  0.00000000000E+00 0. -1.
         11    1    4    4    0    0 -0.56298647668E+02 -0.26241387111E+02 -0.97307729716E+02  0.11544237692E+03  0.00000000000E+00 0.  1.
</event>
<event>
 8    1  0.6869405E-009  0.1737997E+03  0.7561462E-02  0.1173942E+00
         -1   -1    0    0    0  501 -0.00000000000E+00  0.00000000000E+00  0.10124096254E+03  0.10124096254E+03  0.00000000000E+00 0.  1.
          1   -1    0    0  501    0  0.00000000000E+00 -0.00000000000E+00 -0.39066277289E+03  0.39066277289E+03  0.00000000000E+00 0. -1.
         25    2    1    2    0    0 -0.13902562398E+03 -0.57399534145E+02 -0.23938782467E+03  0.30915512870E+03  0.12509009695E+03 0.  0.
         23    2    1    2    0    0  0.13902562398E+03  0.57399534145E+02 -0.50033985685E+02  0.18274860673E+03  0.90944064642E+02 0.  0.
          5    1    3    3  502    0 -0.14701170870E+03 -0.15923459084E+02 -0.15253648376E+03  0.21248729450E+03  0.41800000000E+01 0.  1.
         -5    1    3    3    0  502  0.79860847161E+01 -0.41476075061E+02 -0.86851340906E+02  0.96667834199E+02  0.41800000000E+01 0.  1.
        -11    1    4    4    0    0  0.11419288796E+03  0.25863976280E+02 -0.71539825681E+02  0.13721117880E+03  0.00000000000E+00 0. -1.
         11    1    4    4    0    0  0.24832736026E+02  0.31535557865E+02  0.21505839996E+02  0.45537427929E+02  0.00000000000E+00 0.  1.
</event>
<event>
 8    1  0.6869405E-009  0.2417436E+03  0.7561462E-02  0.1118637E+00
          2   -1    0    0  501    0  0.00000000000E+00  0.00000000000E+00  0.18279902631E+04  0.18279902631E+04  0.00000000000E+00 0. -1.
         -2   -1    0    0    0  501 -0.00000000000E+00 -0.00000000000E+00 -0.34255965074E+02  0.34255965074E+02  0.00000000000E+00 0.  1.
         25    2    1    2    0    0  0.99731286752E+02 -0.20234982674E+03  0.93642466321E+03  0.97130317623E+03  0.12508768259E+03 0.  0.
         23    2    1    2    0    0 -0.99731286752E+02  0.20234982674E+03  0.85730963479E+03  0.89094305192E+03  0.88926542322E+02 0.  0.
          5    1    3    3  502    0 -0.33688062677E+01 -0.11792370075E+03  0.55001439213E+03  0.56253946706E+03  0.41800000000E+01 0. -1.
         -5    1    3    3    0  502  0.10310009302E+03 -0.84426125991E+02  0.38641027108E+03  0.40876370916E+03  0.41800000000E+01 0. -1.
        -11    1    4    4    0    0 -0.29133920807E+02  0.16887934527E+02  0.55291752123E+02  0.64739211665E+02  0.00000000000E+00 0.  1.
         11    1    4    4    0    0 -0.70597365946E+02  0.18546189221E+03  0.80201788266E+03  0.82620384026E+03  0.00000000000E+00 0. -1.
</event>
<event>
 8    1  0.6869405E-009  0.1000685E+03  0.7561462E-02  0.1280152E+00
          3   -1    0    0  501    0  0.00000000000E+00  0.00000000000E+00  0.31287636054E+02  0.31287636054E+02  0.00000000000E+00 0. -1.
         -3   -1    0    0    0  501 -0.00000000000E+00 -0.00000000000E+00 -0.38737185151E+03  0.38737185151E+03  0.00000000000E+00 0.  1.
         25    2    1    2    0    0  0.11449331241E+02  0.99999528470E+01 -0.21428067465E+03  0.24858525623E+03  0.12508931148E+03 0.  0.
         23    2    1    2    0    0 -0.11449331241E+02 -0.99999528470E+01 -0.14180354081E+03  0.17007423133E+03  0.92660205776E+02 0.  0.
          5    1    3    3  502    0 -0.10212322858E+02  0.55025303323E+02 -0.17815910101E+03  0.18678922136E+03  0.41800000000E+01 0. -1.
         -5    1    3    3    0  502  0.21661654099E+02 -0.45025350476E+02 -0.36121573638E+02  0.61796034872E+02  0.41800000000E+01 0. -1.
        -11    1    4    4    0    0  0.48563620418E+01  0.40509950095E+02 -0.63470267223E+02  0.75452734413E+02  0.00000000000E+00 0. -1.
         11    1    4    4    0    0 -0.16305693283E+02 -0.50509902942E+02 -0.78333273588E+02  0.94621496921E+02  0.00000000000E+00 0.  1.
</event>
<event>
 8    1  0.6869405E-009  0.1584434E+03  0.7561462E-02  0.1190465E+00
         -1   -1    0    0    0  501 -0.00000000000E+00  0.00000000000E+00  0.10768159697E+03  0.10768159697E+03  0.00000000000E+00 0.  1.
          1   -1    0    0  501    0  0.00000000000E+00 -0.00000000000E+00 -0.38658022554E+03  0.38658022554E+03  0.00000000000E+00 0. -1.
         25    2    1    2    0    0  0.76031966023E+02 -0.13664223366E+03 -0.57468332175E+02  0.20833395652E+03  0.12509383821E+03 0.  0.
         23    2    1    2    0    0 -0.76031966023E+02  0.13664223366E+03 -0.22143029640E+03  0.28592786600E+03  0.90947284249E+02 0.  0.
          5    1    3    3  502    0  0.74292847418E+01 -0.18790923801E+02  0.37018389156E+02  0.42380734123E+02  0.41800000000E+01 0. -1.
         -5    1    3    3    0  502  0.68602681281E+02 -0.11785130986E+03 -0.94486721331E+02  0.16595322239E+03  0.41800000000E+01 0. -1.
        -11    1    4    4    0    0 -0.25624089224E+02  0.79983572164E+02 -0.18201981152E+03  0.20046240932E+03  0.00000000000E+00 0. -1.
         11    1    4    4    0    0 -0.50407876799E+02  0.56658661497E+02 -0.39410484875E+02  0.85465456671E+02  0.00000000000E+00 0.  1.
</event>
<event>
 8    1  0.6869405E-009  0.1040049E+03  0.7561462E-02  0.1272093E+00
         -4   -1    0    0    0  501 -0.00000000000E+00  0.00000000000E+00  0.90396125466E+03  0.90396125466E+03  0.00000000000E+00 0.  1.
          4   -1    0    0  501    0  0.00000000000E+00 -0.00000000000E+00 -0.25849441740E+02  0.25849441740E+02  0.00000000000E+00 0. -1.
         25    2    1    2    0    0 -0.28683234143E+02  0.78431650034E+02  0.68332000894E+03  0.69968037385E+03  0.12510851002E+03 0.  0.
         23    2    1    2    0    0  0.28683234143E+02 -0.78431650034E+02  0.19479180398E+03  0.23013032255E+03  0.89676456291E+02 0.  0.
          5    1    3    3  502    0 -0.57465662827E+01  0.53802111543E+02  0.87954341236E+02  0.10334954655E+03  0.41800000000E+01 0.  1.
         -5    1    3    3    0  502 -0.22936667860E+02  0.24629538492E+02  0.59536566771E+03  0.59633082730E+03  0.41800000000E+01 0.  1.
        -11    1    4    4    0    0 -0.21257138282E+02 -0.64597349378E+02  0.13384643470E+03  0.15013178063E+03  0.00000000000E+00 0.  1.
         11    1    4    4    0    0  0.49940372425E+02 -0.13834300657E+02  0.60945369281E+02  0.79998541921E+02  0.00000000000E+00 0. -1.
</event>
<event>
 8    1  0.6869405E-009  0.1244167E+03  0.7561462E-02  0.1235984E+00
         -1   -1    0    0    0  501 -0.00000000000E+00  0.00000000000E+00  0.50433681383E+03  0.50433681383E+03  0.00000000000E+00 0.  1.
          1   -1    0    0  501    0  0.00000000000E+00 -0.00000000000E+00 -0.38341067158E+02  0.38341067158E+02  0.00000000000E+00 0. -1.
         25    2    1    2    0    0 -0.36590250008E+02  0.64820889020E+02  0.14808339841E+03  0.20764697363E+03  0.12509188114E+03 0.  0.
         23    2    1    2    0    0  0.36590250008E+02 -0.64820889020E+02  0.31791234826E+03  0.33503090735E+03  0.75078982760E+02 0.  0.
          5    1    3    3  502    0  0.21840496061E+02  0.81592788803E+02  0.83104936718E+02  0.11856767418E+03  0.41800000000E+01 0. -1.
         -5    1    3    3    0  502 -0.58430746069E+02 -0.16771899783E+02  0.64978461687E+02  0.89079299457E+02  0.41800000000E+01 0. -1.
        -11    1    4    4    0    0  0.48864260210E+02 -0.13687493555E+02  0.12082110689E+03  0.13104504293E+03  0.00000000000E+00 0.  1.
         11    1    4    4    0    0 -0.12274010201E+02 -0.51133395465E+02  0.19709124137E+03  0.20398586442E+03  0.00000000000E+00 0. -1.
</event>
<event>
 8    1  0.6869405E-009  0.9956609E+02  0.7561462E-02  0.1281211E+00
         -2   -1    0    0    0  501 -0.00000000000E+00  0.00000000000E+00  0.48513473439E+02  0.48513473439E+02  0.00000000000E+00 0.  1.
          2   -1    0    0  501    0  0.00000000000E+00 -0.00000000000E+00 -0.24818586578E+03  0.24818586578E+03  0.00000000000E+00 0. -1.
         25    2    1    2    0    0  0.25137153985E+01 -0.96059429375E+01 -0.13076565874E+03  0.18123592647E+03  0.12509280808E+03 0.  0.
         23    2    1    2    0    0 -0.25137153985E+01  0.96059429375E+01 -0.68906733603E+02  0.11546341275E+03  0.92114433416E+02 0.  0.
          5    1    3    3  502    0 -0.19343844439E+02 -0.62340111041E+02 -0.88681339050E+02  0.11019222322E+03  0.41800000000E+01 0.  1.
         -5    1    3    3    0  502  0.21857559837E+02  0.52734168103E+02 -0.42084319686E+02  0.71043703247E+02  0.41800000000E+01 0.  1.
        -11    1    4    4    0    0  0.36675713009E+02  0.54777486996E+01 -0.11734259632E+01  0.37101086022E+02  0.00000000000E+00 0.  1.
         11    1    4    4    0    0 -0.39189428408E+02  0.41281942379E+01 -0.67733307640E+02  0.78362326729E+02  0.00000000000E+00 0. -1.
</event>
<event>
 8    1  0.6869405E-009  0.1071281E+03  0.7561462E-02  0.1265983E+00
          1   -1    0    0  501    0  0.00000000000E+00  0.00000000000E+00  0.52309201043E+03  0.52309201043E+03  0.00000000000E+00 0. -1.
         -1   -1    0    0    0  501 -0.00000000000E+00 -0.00000000000E+00 -0.41553784413E+02  0.41553784413E+02  0.00000000000E+00 0.  1.
         25    2    1    2    0    0 -0.42115000643E+01 -0.22599517757E+02  0.75442097224E+02  0.14787898496E+03  0.12509280244E+03 0.  0.
         23    2    1    2    0    0  0.42115000643E+01  0.22599517757E+02  0.40609612879E+03  0.41676680988E+03  0.90840701588E+02 0.  0.
          5    1    3    3  502    0 -0.60228198092E+02  0.43852011270E+00  0.60248545431E+02  0.85293538864E+02  0.41800000000E+01 0. -1.
         -5    1    3    3    0  502  0.56016698028E+02 -0.23038037870E+02  0.15193551793E+02  0.62585446095E+02  0.41800000000E+01 0. -1.
        -11    1    4    4    0    0  0.44221659485E+02 -0.50862276737E+01  0.17188709413E+03  0.17755730908E+03  0.00000000000E+00 0.  1.
         11    1    4    4    0    0 -0.40010159421E+02  0.27685745431E+02  0.23420903466E+03  0.23920950080E+03  0.00000000000E+00 0. -1.
</event>
<event>
 8    1  0.6869405E-009  0.1277061E+03  0.7561462E-02  0.1230900E+00
         -1   -1    0    0    0  501 -0.00000000000E+00  0.00000000000E+00  0.43404332925E+02  0.43404332925E+02  0.00000000000E+00 0.  1.
          1   -1    0    0  501    0  0.00000000000E+00 -0.00000000000E+00 -0.42312621782E+03  0.42312621782E+03  0.00000000000E+00 0. -1.
         25    2    1    2    0    0 -0.16334664111E+02  0.79885612626E+02 -0.17877737200E+03  0.23293384448E+03  0.12509314452E+03 0.  0.
         23    2    1    2    0    0  0.16334664111E+02 -0.79885612626E+02 -0.20094451290E+03  0.23359670627E+03  0.86834276421E+02 0.  0.
          5    1    3    3  502    0  0.46434445519E+02  0.42693207211E+02 -0.36530724610E+02  0.73012559969E+02  0.41800000000E+01 0.  1.
         -5    1    3    3    0  502 -0.62769109630E+02  0.37192405414E+02 -0.14224664739E+03  0.15992128451E+03  0.41800000000E+01 0.  1.
        -11    1    4    4    0    0 -0.34294157867E+02 -0.49002640687E+02 -0.10135190953E+03  0.11768414347E+03  0.00000000000E+00 0. -1.
         11    1    4    4    0    0  0.50628821979E+02 -0.30882971938E+02 -0.99592603364E+02  0.11591256280E+03  0.00000000000E+00 0.  1.
</event>
<event>
 8    1  0.6869405E-009  0.1045528E+03  0.7561462E-02  0.1271003E+00
         -3   -1    0    0    0  501 -0.00000000000E+00  0.00000000000E+00  0.72339666007E+02  0.72339666007E+02  0.00000000000E+00 0.  1.
          3   -1    0    0  501    0  0.00000000000E+00 -0.00000000000E+00 -0.27848812257E+03  0.27848812257E+03  0.00000000000E+00 0. -1.
         25    2    1    2    0    0  0.69415074017E+02 -0.12004837906E+02 -0.42978002780E+02  0.14985703532E+03  0.12508978247E+03 0.  0.
         23    2    1    2    0    0 -0.69415074017E+02  0.12004837906E+02 -0.16317045378E+03  0.20097075325E+03  0.93819390538E+02 0.  0.
          5    1    3    3  502    0  0.78791014471E+02  0.13965919385E+02  0.18585789202E+02  0.82255545867E+02  0.41800000000E+01 0. -1.
         -5    1    3    3    0  502 -0.93759404542E+01 -0.25970757291E+02 -0.61563791982E+02  0.67601489458E+02  0.41800000000E+01 0. -1.
        -11    1    4    4    0    0  0.74516642004E+01 -0.17261753353E+02 -0.63839560949E+00  0.18812309192E+02  0.00000000000E+00 0.  1.
         11    1    4    4    0    0 -0.76866738217E+02  0.29266591260E+02 -0.16253205817E+03  0.18215844406E+03  0.00000000000E+00 0. -1.
</event>
<event>
 8    1  0.6869405E-009  0.1222218E+03  0.7561462E-02  0.1239476E+00
          1   -1    0    0  501    0  0.00000000000E+00  0.00000000000E+00  0.86688829861E+02  0.86688829861E+02  0.00000000000E+00 0. -1.
         -1   -1    0    0    0  501 -0.00000000000E+00 -0.00000000000E+00 -0.21930658603E+03  0.21930658603E+03  0.00000000000E+00 0.  1.
         25    2    1    2    0    0 -0.60816631905E+02  0.49670016063E+02 -0.98367197798E+02  0.17745508184E+03  0.12509367393E+03 0.  0.
         23    2    1    2    0    0  0.60816631905E+02 -0.49670016063E+02 -0.34250558367E+02  0.12854033405E+03  0.95831850218E+02 0.  0.
          5    1    3    3  502    0 -0.13995581281E+02 -0.39752928493E+02 -0.10668141315E+02  0.43674400491E+02  0.41800000000E+01 0.  1.
         -5    1    3    3    0  502 -0.46821050624E+02  0.89422944556E+02 -0.87699056482E+02  0.13378068135E+03  0.41800000000E+01 0.  1.
        -11    1    4    4    0    0  0.73934403252E+02 -0.47206138979E+02 -0.55242060644E+02  0.10366484846E+03  0.00000000000E+00 0.  1.
         11    1    4    4    0    0 -0.13117771347E+02 -0.24638770838E+01  0.20991502277E+02  0.24875485588E+02  0.00000000000E+00 0. -1.
</event>
